/*--------------------------------*- C++ -*----------------------------------*\
| =========                 |                                                 |
| \\      /  F ield         | OpenFOAM: The Open Source CFD Toolbox           |
|  \\    /   O peration     | Version:  4.1                                   |
|   \\  /    A nd           | Web:      www.OpenFOAM.org                      |
|    \\/     M anipulation  |                                                 |
\*---------------------------------------------------------------------------*/
FoamFile
{
    version     2.0;
    format      ascii;
    class       volScalarField;
    location    "1400";
    object      p;
}
// * * * * * * * * * * * * * * * * * * * * * * * * * * * * * * * * * * * * * //

dimensions      [0 2 -2 0 0 0 0];

internalField   nonuniform List<scalar> 
1600
(
0
6.65728e-06
2.30523e-05
3.88955e-05
4.77376e-05
5.01418e-05
4.8608e-05
4.59901e-05
4.41344e-05
4.28233e-05
3.95226e-05
1.99375e-05
2.7257e-05
3.54883e-05
4.54508e-05
5.3391e-05
6.21578e-05
7.42626e-05
8.75396e-05
9.21593e-05
7.71178e-05
4.47512e-05
8.47565e-06
-2.3435e-05
-4.8236e-05
-6.6177e-05
-7.86469e-05
-8.7175e-05
-9.28595e-05
-9.61468e-05
-9.6961e-05
-9.49561e-05
-8.98695e-05
-8.17669e-05
-7.11377e-05
-5.88397e-05
-4.59381e-05
-3.35793e-05
-2.47258e-05
-1.89283e-05
-0.0983965
-0.0983999
-0.0983876
-0.0983732
-0.0983625
-0.0983573
-0.0983559
-0.0983552
-0.0983534
-0.0983504
-0.0983459
-0.0983569
-0.0983601
-0.0983621
-0.0983573
-0.0983527
-0.0983478
-0.0983405
-0.0983311
-0.0983302
-0.0983439
-0.0983737
-0.0984075
-0.098437
-0.0984596
-0.0984751
-0.0984851
-0.098491
-0.098494
-0.0984944
-0.0984922
-0.0984869
-0.0984782
-0.0984663
-0.0984515
-0.0984348
-0.0984173
-0.0984001
-0.0983849
-0.0983666
-0.196812
-0.196824
-0.196811
-0.196797
-0.196786
-0.19678
-0.196779
-0.196778
-0.196776
-0.196772
-0.196764
-0.196765
-0.196774
-0.196784
-0.196781
-0.196777
-0.196772
-0.196766
-0.196759
-0.196759
-0.196774
-0.196802
-0.196834
-0.196862
-0.196884
-0.196899
-0.196909
-0.196914
-0.196917
-0.196917
-0.196914
-0.196908
-0.196898
-0.196885
-0.196867
-0.196848
-0.196827
-0.196807
-0.196787
-0.196755
-0.295232
-0.295248
-0.295233
-0.29522
-0.295209
-0.295204
-0.295202
-0.295201
-0.295199
-0.295194
-0.295187
-0.295184
-0.295197
-0.295208
-0.295205
-0.295201
-0.295197
-0.295191
-0.295188
-0.295189
-0.295204
-0.295231
-0.295262
-0.295289
-0.295309
-0.295323
-0.295332
-0.295338
-0.29534
-0.295341
-0.295338
-0.295333
-0.295323
-0.295309
-0.295291
-0.29527
-0.295248
-0.295225
-0.295203
-0.295165
-0.393648
-0.39367
-0.393654
-0.393641
-0.393632
-0.393627
-0.393626
-0.393624
-0.393622
-0.393617
-0.393611
-0.393605
-0.393621
-0.393632
-0.393628
-0.393625
-0.393622
-0.393617
-0.393617
-0.39362
-0.393636
-0.393662
-0.393691
-0.393716
-0.393735
-0.393748
-0.393756
-0.39376
-0.393763
-0.393764
-0.393762
-0.393757
-0.393748
-0.393734
-0.393717
-0.393695
-0.393672
-0.393648
-0.393625
-0.393586
-0.492057
-0.492086
-0.492072
-0.492062
-0.492055
-0.492051
-0.49205
-0.492048
-0.492045
-0.49204
-0.492036
-0.492026
-0.492046
-0.492056
-0.492052
-0.492049
-0.492047
-0.492043
-0.492044
-0.49205
-0.492067
-0.492093
-0.49212
-0.492143
-0.49216
-0.492172
-0.492178
-0.492183
-0.492186
-0.492187
-0.492186
-0.492182
-0.492173
-0.49216
-0.492143
-0.492122
-0.492098
-0.492073
-0.492051
-0.492013
-0.590461
-0.590495
-0.590488
-0.590482
-0.590478
-0.590476
-0.590475
-0.590473
-0.590469
-0.590463
-0.590461
-0.590449
-0.590471
-0.590479
-0.590476
-0.590473
-0.59047
-0.590469
-0.590472
-0.590481
-0.590499
-0.590524
-0.590549
-0.59057
-0.590586
-0.590595
-0.590601
-0.590605
-0.590608
-0.59061
-0.59061
-0.590606
-0.590599
-0.590586
-0.590569
-0.590548
-0.590525
-0.5905
-0.590479
-0.590443
-0.688863
-0.688901
-0.688904
-0.688903
-0.688903
-0.688902
-0.688901
-0.688898
-0.688894
-0.688887
-0.688886
-0.688872
-0.688895
-0.688902
-0.688899
-0.688897
-0.688894
-0.688894
-0.688899
-0.688911
-0.68893
-0.688954
-0.688978
-0.688997
-0.68901
-0.689018
-0.689023
-0.689026
-0.689029
-0.689032
-0.689033
-0.68903
-0.689024
-0.689012
-0.688996
-0.688975
-0.688952
-0.688928
-0.688909
-0.688875
-0.787264
-0.787306
-0.78732
-0.787326
-0.787329
-0.78733
-0.787328
-0.787325
-0.787319
-0.787312
-0.787312
-0.787296
-0.787318
-0.787324
-0.787321
-0.78732
-0.787318
-0.78732
-0.787327
-0.787341
-0.787361
-0.787384
-0.787406
-0.787423
-0.787434
-0.787441
-0.787444
-0.787446
-0.78745
-0.787453
-0.787456
-0.787455
-0.787449
-0.787438
-0.787422
-0.787403
-0.78738
-0.787356
-0.787339
-0.787308
-0.885673
-0.885711
-0.885739
-0.88575
-0.885756
-0.885758
-0.885757
-0.885752
-0.885746
-0.885738
-0.885737
-0.88572
-0.885741
-0.885746
-0.885744
-0.885743
-0.885742
-0.885744
-0.885755
-0.885771
-0.885791
-0.885814
-0.885834
-0.885849
-0.885858
-0.885862
-0.885864
-0.885867
-0.885871
-0.885875
-0.885879
-0.885879
-0.885874
-0.885865
-0.885849
-0.88583
-0.885809
-0.885785
-0.885769
-0.885741
-0.984096
-0.984128
-0.984161
-0.984177
-0.984184
-0.984187
-0.984186
-0.984181
-0.984173
-0.984164
-0.984163
-0.984145
-0.984163
-0.984167
-0.984166
-0.984166
-0.984166
-0.984169
-0.984182
-0.984199
-0.98422
-0.984242
-0.98426
-0.984273
-0.98428
-0.984283
-0.984284
-0.984287
-0.984292
-0.984297
-0.984302
-0.984304
-0.9843
-0.984291
-0.984277
-0.984258
-0.984237
-0.984215
-0.9842
-0.984174
-1.08253
-1.08255
-1.08259
-1.0826
-1.08261
-1.08262
-1.08262
-1.08261
-1.0826
-1.08259
-1.08259
-1.08257
-1.08259
-1.08259
-1.08259
-1.08259
-1.08259
-1.08259
-1.08261
-1.08263
-1.08265
-1.08267
-1.08268
-1.0827
-1.0827
-1.0827
-1.0827
-1.08271
-1.08271
-1.08272
-1.08273
-1.08273
-1.08273
-1.08272
-1.0827
-1.08269
-1.08267
-1.08264
-1.08263
-1.08261
-1.18096
-1.18098
-1.18101
-1.18103
-1.18104
-1.18105
-1.18104
-1.18104
-1.18103
-1.18102
-1.18102
-1.181
-1.18101
-1.18101
-1.18101
-1.18101
-1.18101
-1.18102
-1.18104
-1.18105
-1.18107
-1.18109
-1.18111
-1.18112
-1.18112
-1.18112
-1.18112
-1.18113
-1.18114
-1.18114
-1.18115
-1.18116
-1.18115
-1.18115
-1.18113
-1.18111
-1.18109
-1.18107
-1.18106
-1.18104
-1.2794
-1.27941
-1.27944
-1.27946
-1.27947
-1.27948
-1.27947
-1.27947
-1.27946
-1.27945
-1.27944
-1.27942
-1.27943
-1.27943
-1.27943
-1.27943
-1.27944
-1.27944
-1.27946
-1.27948
-1.2795
-1.27952
-1.27953
-1.27954
-1.27954
-1.27954
-1.27954
-1.27955
-1.27956
-1.27957
-1.27958
-1.27958
-1.27958
-1.27958
-1.27956
-1.27954
-1.27952
-1.2795
-1.27949
-1.27947
-1.37783
-1.37784
-1.37787
-1.37789
-1.3779
-1.3779
-1.3779
-1.3779
-1.37789
-1.37787
-1.37787
-1.37785
-1.37785
-1.37785
-1.37786
-1.37786
-1.37786
-1.37787
-1.37789
-1.37791
-1.37792
-1.37794
-1.37795
-1.37796
-1.37796
-1.37796
-1.37796
-1.37797
-1.37798
-1.378
-1.37801
-1.37801
-1.37801
-1.378
-1.37799
-1.37797
-1.37795
-1.37793
-1.37792
-1.3779
-1.47626
-1.47628
-1.4763
-1.47631
-1.47633
-1.47633
-1.47633
-1.47633
-1.47632
-1.4763
-1.4763
-1.47628
-1.47628
-1.47628
-1.47628
-1.47628
-1.47628
-1.47629
-1.47631
-1.47633
-1.47635
-1.47636
-1.47637
-1.47638
-1.47638
-1.47638
-1.47639
-1.47639
-1.47641
-1.47642
-1.47644
-1.47644
-1.47644
-1.47643
-1.47642
-1.4764
-1.47638
-1.47636
-1.47635
-1.47633
-1.57469
-1.5747
-1.57472
-1.57474
-1.57476
-1.57476
-1.57476
-1.57476
-1.57475
-1.57473
-1.57472
-1.57471
-1.5747
-1.5747
-1.5747
-1.5747
-1.57471
-1.57472
-1.57474
-1.57475
-1.57477
-1.57478
-1.57479
-1.57479
-1.5748
-1.5748
-1.57481
-1.57482
-1.57483
-1.57485
-1.57486
-1.57487
-1.57487
-1.57486
-1.57485
-1.57483
-1.57481
-1.57479
-1.57478
-1.57476
-1.67312
-1.67313
-1.67315
-1.67317
-1.67318
-1.67319
-1.67319
-1.67319
-1.67317
-1.67316
-1.67315
-1.67314
-1.67313
-1.67313
-1.67313
-1.67313
-1.67313
-1.67314
-1.67316
-1.67317
-1.67319
-1.6732
-1.6732
-1.67321
-1.67322
-1.67322
-1.67323
-1.67324
-1.67326
-1.67328
-1.67329
-1.6733
-1.6733
-1.67329
-1.67327
-1.67325
-1.67323
-1.67322
-1.67321
-1.67319
-1.77155
-1.77156
-1.77158
-1.7716
-1.77161
-1.77162
-1.77162
-1.77162
-1.7716
-1.77159
-1.77158
-1.77156
-1.77155
-1.77155
-1.77155
-1.77155
-1.77155
-1.77156
-1.77158
-1.77159
-1.7716
-1.77161
-1.77162
-1.77163
-1.77163
-1.77164
-1.77165
-1.77166
-1.77168
-1.7717
-1.77172
-1.77173
-1.77173
-1.77172
-1.7717
-1.77168
-1.77166
-1.77164
-1.77163
-1.77162
-1.86998
-1.86999
-1.87
-1.87002
-1.87004
-1.87005
-1.87006
-1.87005
-1.87003
-1.87002
-1.87
-1.86999
-1.86998
-1.86998
-1.86997
-1.86998
-1.86998
-1.86999
-1.87
-1.87001
-1.87002
-1.87003
-1.87004
-1.87005
-1.87005
-1.87006
-1.87007
-1.87009
-1.87011
-1.87013
-1.87015
-1.87016
-1.87016
-1.87015
-1.87013
-1.8701
-1.87008
-1.87007
-1.87006
-1.87005
-1.9684
-1.96841
-1.96843
-1.96845
-1.96847
-1.96848
-1.96848
-1.96848
-1.96846
-1.96845
-1.96843
-1.96842
-1.9684
-1.9684
-1.9684
-1.9684
-1.9684
-1.96841
-1.96842
-1.96843
-1.96844
-1.96845
-1.96846
-1.96846
-1.96847
-1.96848
-1.96849
-1.96851
-1.96853
-1.96856
-1.96858
-1.96859
-1.96859
-1.96857
-1.96855
-1.96853
-1.96851
-1.96849
-1.96848
-1.96847
-2.06682
-2.06684
-2.06685
-2.06687
-2.06689
-2.06691
-2.06691
-2.06691
-2.06689
-2.06687
-2.06686
-2.06685
-2.06683
-2.06683
-2.06682
-2.06682
-2.06682
-2.06683
-2.06684
-2.06685
-2.06686
-2.06687
-2.06688
-2.06688
-2.06689
-2.0669
-2.06691
-2.06693
-2.06695
-2.06698
-2.067
-2.06701
-2.06701
-2.067
-2.06697
-2.06695
-2.06693
-2.06691
-2.0669
-2.06689
-2.16525
-2.16526
-2.16527
-2.16529
-2.16531
-2.16533
-2.16534
-2.16533
-2.16532
-2.1653
-2.16529
-2.16527
-2.16525
-2.16526
-2.16525
-2.16525
-2.16524
-2.16525
-2.16526
-2.16527
-2.16527
-2.16528
-2.16529
-2.1653
-2.16531
-2.16532
-2.16533
-2.16535
-2.16538
-2.1654
-2.16542
-2.16543
-2.16543
-2.16541
-2.16539
-2.16537
-2.16535
-2.16533
-2.16532
-2.16531
-2.26367
-2.26368
-2.26369
-2.26371
-2.26373
-2.26375
-2.26376
-2.26376
-2.26374
-2.26373
-2.26371
-2.2637
-2.26368
-2.26368
-2.26368
-2.26367
-2.26366
-2.26367
-2.26367
-2.26368
-2.26369
-2.2637
-2.26371
-2.26372
-2.26373
-2.26374
-2.26375
-2.26377
-2.2638
-2.26382
-2.26384
-2.26385
-2.26385
-2.26383
-2.26381
-2.26378
-2.26377
-2.26375
-2.26374
-2.26373
-2.36208
-2.3621
-2.36211
-2.36213
-2.36215
-2.36217
-2.36218
-2.36218
-2.36216
-2.36215
-2.36213
-2.36212
-2.36211
-2.36211
-2.3621
-2.36209
-2.36209
-2.36209
-2.36209
-2.3621
-2.36211
-2.36212
-2.36213
-2.36214
-2.36215
-2.36216
-2.36217
-2.36219
-2.36222
-2.36224
-2.36226
-2.36226
-2.36226
-2.36224
-2.36222
-2.3622
-2.36218
-2.36217
-2.36216
-2.36215
-2.4605
-2.46051
-2.46053
-2.46055
-2.46057
-2.46058
-2.46059
-2.46059
-2.46058
-2.46057
-2.46055
-2.46054
-2.46053
-2.46054
-2.46053
-2.46051
-2.4605
-2.4605
-2.46051
-2.46051
-2.46052
-2.46054
-2.46055
-2.46056
-2.46057
-2.46058
-2.46059
-2.46061
-2.46064
-2.46066
-2.46067
-2.46068
-2.46067
-2.46065
-2.46063
-2.46061
-2.4606
-2.46058
-2.46058
-2.46057
-2.55892
-2.55893
-2.55894
-2.55896
-2.55898
-2.559
-2.559
-2.55901
-2.559
-2.55898
-2.55897
-2.55895
-2.55896
-2.55896
-2.55896
-2.55894
-2.55892
-2.55892
-2.55892
-2.55893
-2.55894
-2.55895
-2.55896
-2.55897
-2.55898
-2.559
-2.55901
-2.55903
-2.55905
-2.55907
-2.55908
-2.55909
-2.55908
-2.55907
-2.55905
-2.55903
-2.55901
-2.559
-2.55899
-2.55898
-2.65733
-2.65734
-2.65736
-2.65737
-2.65739
-2.65741
-2.65741
-2.65742
-2.65741
-2.65739
-2.65738
-2.65737
-2.65739
-2.65739
-2.65738
-2.65736
-2.65734
-2.65733
-2.65734
-2.65734
-2.65736
-2.65737
-2.65738
-2.65739
-2.6574
-2.65742
-2.65743
-2.65745
-2.65747
-2.65749
-2.6575
-2.6575
-2.65749
-2.65748
-2.65746
-2.65744
-2.65742
-2.65741
-2.6574
-2.65739
-2.75574
-2.75575
-2.75577
-2.75578
-2.7558
-2.75581
-2.75582
-2.75582
-2.75582
-2.7558
-2.75578
-2.75578
-2.75581
-2.75581
-2.7558
-2.75578
-2.75575
-2.75574
-2.75575
-2.75576
-2.75577
-2.75578
-2.7558
-2.75581
-2.75582
-2.75584
-2.75585
-2.75587
-2.75589
-2.7559
-2.75591
-2.75591
-2.7559
-2.75589
-2.75587
-2.75585
-2.75584
-2.75582
-2.75582
-2.7558
-2.85415
-2.85416
-2.85418
-2.85419
-2.85421
-2.85422
-2.85423
-2.85423
-2.85422
-2.85421
-2.85419
-2.85418
-2.85422
-2.85424
-2.85422
-2.85419
-2.85417
-2.85415
-2.85416
-2.85417
-2.85419
-2.8542
-2.85422
-2.85423
-2.85424
-2.85426
-2.85428
-2.85429
-2.85431
-2.85432
-2.85432
-2.85432
-2.85431
-2.8543
-2.85428
-2.85426
-2.85425
-2.85423
-2.85423
-2.8542
-2.95256
-2.95257
-2.95259
-2.9526
-2.95262
-2.95263
-2.95263
-2.95263
-2.95262
-2.95261
-2.95259
-2.95258
-2.95262
-2.95266
-2.95264
-2.95261
-2.95258
-2.95256
-2.95257
-2.95258
-2.9526
-2.95262
-2.95263
-2.95265
-2.95266
-2.95268
-2.9527
-2.95271
-2.95272
-2.95273
-2.95274
-2.95273
-2.95272
-2.95271
-2.95269
-2.95267
-2.95266
-2.95264
-2.95263
-2.9526
-3.05097
-3.05098
-3.051
-3.05101
-3.05103
-3.05103
-3.05104
-3.05103
-3.05102
-3.05101
-3.05099
-3.05098
-3.05102
-3.05106
-3.05105
-3.05101
-3.05098
-3.05097
-3.05098
-3.051
-3.05101
-3.05103
-3.05105
-3.05107
-3.05108
-3.0511
-3.05112
-3.05113
-3.05114
-3.05115
-3.05115
-3.05114
-3.05113
-3.05112
-3.0511
-3.05108
-3.05107
-3.05105
-3.05104
-3.05099
-3.14938
-3.1494
-3.14941
-3.14942
-3.14943
-3.14944
-3.14944
-3.14944
-3.14942
-3.1494
-3.14939
-3.14938
-3.14941
-3.14946
-3.14945
-3.14942
-3.14939
-3.14938
-3.14939
-3.14941
-3.14943
-3.14945
-3.14947
-3.14949
-3.1495
-3.14952
-3.14954
-3.14955
-3.14956
-3.14957
-3.14957
-3.14956
-3.14955
-3.14953
-3.14951
-3.14949
-3.14947
-3.14945
-3.14943
-3.14937
-3.24779
-3.24781
-3.24782
-3.24783
-3.24784
-3.24785
-3.24785
-3.24784
-3.24782
-3.2478
-3.24778
-3.24778
-3.2478
-3.24786
-3.24786
-3.24783
-3.24779
-3.24778
-3.2478
-3.24782
-3.24784
-3.24786
-3.24788
-3.2479
-3.24792
-3.24794
-3.24796
-3.24797
-3.24798
-3.24799
-3.24799
-3.24798
-3.24796
-3.24794
-3.24792
-3.2479
-3.24788
-3.24786
-3.24782
-3.24775
-3.3462
-3.34622
-3.34623
-3.34625
-3.34625
-3.34626
-3.34625
-3.34624
-3.34622
-3.3462
-3.34618
-3.34618
-3.3462
-3.34626
-3.34626
-3.34623
-3.3462
-3.34619
-3.3462
-3.34622
-3.34625
-3.34627
-3.3463
-3.34632
-3.34634
-3.34636
-3.34637
-3.34639
-3.3464
-3.34641
-3.3464
-3.34639
-3.34637
-3.34635
-3.34633
-3.34631
-3.34629
-3.34625
-3.34621
-3.34612
-3.44462
-3.44463
-3.44465
-3.44466
-3.44467
-3.44467
-3.44466
-3.44465
-3.44462
-3.4446
-3.44458
-3.44458
-3.4446
-3.44465
-3.44466
-3.44464
-3.4446
-3.44459
-3.44461
-3.44463
-3.44466
-3.44468
-3.44471
-3.44473
-3.44475
-3.44477
-3.44479
-3.4448
-3.44482
-3.44482
-3.44482
-3.44481
-3.44479
-3.44477
-3.44474
-3.44472
-3.44469
-3.44465
-3.44458
-3.44448
-3.54303
-3.54305
-3.54306
-3.54307
-3.54308
-3.54308
-3.54307
-3.54305
-3.54303
-3.543
-3.54298
-3.54298
-3.543
-3.54305
-3.54306
-3.54304
-3.54301
-3.543
-3.54302
-3.54304
-3.54307
-3.54309
-3.54312
-3.54314
-3.54316
-3.54318
-3.5432
-3.54321
-3.54323
-3.54323
-3.54323
-3.54322
-3.5432
-3.54318
-3.54315
-3.54313
-3.54309
-3.54304
-3.54295
-3.54284
-3.64145
-3.64146
-3.64148
-3.64149
-3.64149
-3.64149
-3.64148
-3.64146
-3.64143
-3.6414
-3.64138
-3.64138
-3.64141
-3.64145
-3.64147
-3.64145
-3.64142
-3.64142
-3.64143
-3.64145
-3.64148
-3.6415
-3.64153
-3.64155
-3.64157
-3.64159
-3.64161
-3.64162
-3.64163
-3.64164
-3.64164
-3.64163
-3.64161
-3.64159
-3.64156
-3.64153
-3.64149
-3.64142
-3.64131
-3.64119
-3.73987
-3.73989
-3.7399
-3.73991
-3.73991
-3.73991
-3.73989
-3.73987
-3.73984
-3.73981
-3.73979
-3.73978
-3.73982
-3.73986
-3.73988
-3.73987
-3.73984
-3.73983
-3.73985
-3.73986
-3.73989
-3.73991
-3.73993
-3.73996
-3.73998
-3.73999
-3.74001
-3.74003
-3.74004
-3.74004
-3.74004
-3.74003
-3.74002
-3.74
-3.73997
-3.73994
-3.7399
-3.73981
-3.73968
-3.73954
-3.8383
-3.83831
-3.83832
-3.83833
-3.83833
-3.83833
-3.83831
-3.83829
-3.83826
-3.83822
-3.8382
-3.8382
-3.83823
-3.83828
-3.8383
-3.83829
-3.83827
-3.83826
-3.83827
-3.83828
-3.8383
-3.83833
-3.83835
-3.83837
-3.83838
-3.8384
-3.83842
-3.83843
-3.83844
-3.83845
-3.83845
-3.83844
-3.83842
-3.8384
-3.83837
-3.83834
-3.8383
-3.8382
-3.83804
-3.8379
)
;

boundaryField
{
    floor
    {
        type            calculated;
        value           nonuniform List<scalar> 
40
(
0.0491893
0.0492004
0.0492211
0.0492384
0.0492458
0.0492457
0.0492415
0.0492358
0.0492305
0.0492257
0.0492173
0.0491953
0.0492092
0.0492221
0.0492364
0.0492473
0.0492593
0.0492745
0.0492907
0.0492972
0.0492811
0.0492476
0.0492101
0.0491767
0.0491502
0.0491304
0.0491157
0.0491049
0.0490969
0.0490912
0.049088
0.0490876
0.0490903
0.049096
0.0491043
0.0491141
0.0491245
0.0491342
0.04914
0.0491419
)
;
    }
    ceiling
    {
        type            calculated;
        value           nonuniform List<scalar> 
40
(
-3.88752
-3.88753
-3.88754
-3.88754
-3.88754
-3.88754
-3.88752
-3.8875
-3.88747
-3.88743
-3.88741
-3.88741
-3.88744
-3.88749
-3.88751
-3.8875
-3.88748
-3.88747
-3.88748
-3.88749
-3.88751
-3.88754
-3.88756
-3.88757
-3.88759
-3.88761
-3.88762
-3.88764
-3.88765
-3.88765
-3.88765
-3.88764
-3.88763
-3.8876
-3.88758
-3.88755
-3.8875
-3.88741
-3.88724
-3.8871
)
;
    }
    fixedWalls
    {
        type            calculated;
        value           nonuniform List<scalar> 
80
(
-6.93889e-18
-0.0983965
-0.196812
-0.295232
-0.393648
-0.492057
-0.590461
-0.688863
-0.787264
-0.885673
-0.984096
-1.08253
-1.18096
-1.2794
-1.37783
-1.47626
-1.57469
-1.67312
-1.77155
-1.86998
-1.9684
-2.06682
-2.16525
-2.26367
-2.36208
-2.4605
-2.55892
-2.65733
-2.75574
-2.85415
-2.95256
-3.05097
-3.14938
-3.24779
-3.3462
-3.44462
-3.54303
-3.64145
-3.73987
-3.8383
-1.89283e-05
-0.0983666
-0.196755
-0.295165
-0.393586
-0.492013
-0.590443
-0.688875
-0.787308
-0.885741
-0.984174
-1.08261
-1.18104
-1.27947
-1.3779
-1.47633
-1.57476
-1.67319
-1.77162
-1.87005
-1.96847
-2.06689
-2.16531
-2.26373
-2.36215
-2.46057
-2.55898
-2.65739
-2.7558
-2.8542
-2.9526
-3.05099
-3.14937
-3.24775
-3.34612
-3.44448
-3.54284
-3.64119
-3.73954
-3.8379
)
;
    }
    frontAndBack
    {
        type            empty;
    }
}


// ************************************************************************* //
