/*--------------------------------*- C++ -*----------------------------------*\
| =========                 |                                                 |
| \\      /  F ield         | OpenFOAM: The Open Source CFD Toolbox           |
|  \\    /   O peration     | Version:  4.1                                   |
|   \\  /    A nd           | Web:      www.OpenFOAM.org                      |
|    \\/     M anipulation  |                                                 |
\*---------------------------------------------------------------------------*/
FoamFile
{
    version     2.0;
    format      ascii;
    class       volScalarField;
    location    "1400";
    object      p_rgh;
}
// * * * * * * * * * * * * * * * * * * * * * * * * * * * * * * * * * * * * * //

dimensions      [0 2 -2 0 0 0 0];

internalField   nonuniform List<scalar> 
1600
(
0.0491893
0.0492004
0.0492211
0.0492384
0.0492458
0.0492457
0.0492415
0.0492358
0.0492305
0.0492257
0.0492173
0.0491953
0.0492092
0.0492221
0.0492364
0.0492473
0.0492593
0.0492745
0.0492907
0.0492972
0.0492811
0.0492476
0.0492101
0.0491767
0.0491502
0.0491304
0.0491157
0.0491049
0.0490969
0.0490912
0.049088
0.0490876
0.0490903
0.049096
0.0491043
0.0491141
0.0491245
0.0491342
0.04914
0.0491419
0.0492012
0.0492327
0.0492444
0.0492587
0.0492699
0.0492754
0.0492769
0.0492777
0.0492795
0.0492818
0.0492694
0.0492045
0.0492326
0.0492689
0.049278
0.0492824
0.0492869
0.0492939
0.0493026
0.0493029
0.049289
0.0492592
0.0492254
0.049196
0.0491736
0.0491582
0.0491485
0.0491425
0.0491388
0.0491369
0.049137
0.0491394
0.0491444
0.049152
0.0491617
0.049173
0.0491852
0.0491981
0.049203
0.0491729
0.0491989
0.0492302
0.0492405
0.049255
0.0492674
0.0492736
0.0492758
0.0492772
0.0492799
0.049284
0.0492836
0.0491948
0.0492337
0.0492729
0.049279
0.0492824
0.0492856
0.0492907
0.0492961
0.0492953
0.0492805
0.0492519
0.0492195
0.0491912
0.0491698
0.0491552
0.0491462
0.0491411
0.049139
0.0491393
0.0491422
0.049148
0.0491571
0.0491692
0.0491836
0.0491994
0.0492156
0.049231
0.0492357
0.0491845
0.049193
0.0492282
0.0492353
0.0492506
0.0492637
0.0492706
0.0492734
0.0492755
0.0492788
0.0492838
0.0492872
0.0491794
0.0492258
0.049273
0.0492789
0.0492816
0.0492835
0.0492874
0.0492887
0.0492865
0.0492703
0.0492424
0.0492113
0.0491842
0.0491639
0.0491504
0.0491422
0.0491377
0.0491357
0.0491362
0.0491394
0.049146
0.0491564
0.0491707
0.0491882
0.0492077
0.0492276
0.0492463
0.049252
0.0491809
0.0491882
0.0492211
0.0492304
0.0492462
0.0492596
0.0492669
0.0492704
0.0492733
0.0492773
0.049283
0.0492874
0.0491653
0.0492143
0.0492724
0.0492788
0.0492808
0.0492812
0.0492835
0.0492819
0.0492768
0.0492589
0.0492313
0.0492014
0.0491758
0.049157
0.0491447
0.0491375
0.0491335
0.0491317
0.049132
0.0491349
0.0491414
0.0491521
0.0491671
0.0491862
0.0492079
0.0492307
0.0492522
0.0492589
0.049169
0.0491905
0.0491998
0.0492244
0.0492429
0.0492558
0.0492629
0.0492669
0.0492705
0.0492753
0.0492819
0.049286
0.0491543
0.0492001
0.0492715
0.0492787
0.0492801
0.0492794
0.0492788
0.0492756
0.0492666
0.0492468
0.0492191
0.0491903
0.0491662
0.049149
0.0491382
0.0491322
0.0491289
0.0491272
0.0491272
0.0491297
0.0491357
0.0491462
0.0491616
0.0491813
0.0492045
0.0492292
0.0492531
0.0492605
0.0491529
0.0491993
0.0491973
0.0492241
0.0492425
0.0492532
0.0492593
0.0492632
0.0492673
0.0492728
0.0492802
0.0492839
0.0491462
0.0491837
0.0492706
0.0492786
0.0492791
0.0492775
0.0492743
0.049269
0.0492561
0.049234
0.0492059
0.0491782
0.0491558
0.0491404
0.0491313
0.0491265
0.0491239
0.0491224
0.049122
0.049124
0.0491296
0.0491398
0.0491551
0.0491753
0.0491993
0.0492253
0.0492509
0.0492587
0.0491345
0.0492124
0.0492109
0.0492318
0.0492458
0.0492526
0.0492563
0.0492594
0.0492637
0.0492699
0.0492781
0.0492813
0.0491413
0.0491667
0.0492699
0.0492785
0.0492781
0.0492749
0.0492704
0.0492621
0.0492453
0.0492207
0.0491922
0.0491655
0.0491449
0.0491314
0.0491241
0.0491208
0.0491191
0.0491178
0.0491172
0.0491187
0.0491238
0.0491335
0.0491486
0.0491689
0.0491934
0.0492201
0.0492469
0.0492548
0.049115
0.0492291
0.0492376
0.0492464
0.0492517
0.0492529
0.0492535
0.0492555
0.0492598
0.0492664
0.0492753
0.0492785
0.0491394
0.0491498
0.0492693
0.0492787
0.0492773
0.049272
0.0492668
0.0492548
0.0492342
0.0492072
0.0491782
0.0491526
0.0491337
0.0491223
0.049117
0.0491153
0.0491149
0.0491142
0.0491137
0.0491148
0.0491193
0.0491284
0.0491429
0.0491629
0.0491874
0.0492143
0.0492418
0.0492497
0.0490949
0.0492787
0.0492781
0.0492651
0.0492576
0.0492523
0.0492498
0.0492508
0.0492552
0.0492622
0.0492719
0.0492753
0.0491404
0.0491337
0.0492689
0.0492793
0.0492768
0.049269
0.0492633
0.0492472
0.0492229
0.0491936
0.0491642
0.0491397
0.0491228
0.0491135
0.0491103
0.0491107
0.0491119
0.0491125
0.0491127
0.0491137
0.0491172
0.0491252
0.0491386
0.0491578
0.0491817
0.0492084
0.0492361
0.0492439
0.0490748
0.049347
0.0493136
0.0492782
0.0492587
0.0492481
0.0492436
0.0492444
0.0492492
0.049257
0.0492678
0.049272
0.0491436
0.0491186
0.0492687
0.0492804
0.0492765
0.0492661
0.0492598
0.0492394
0.0492113
0.0491802
0.0491507
0.0491274
0.0491124
0.0491054
0.0491044
0.0491074
0.0491114
0.049114
0.0491148
0.0491154
0.0491176
0.0491239
0.0491359
0.0491537
0.0491766
0.0492026
0.0492301
0.0492377
0.0490549
0.0493479
0.0493144
0.0492765
0.0492527
0.0492398
0.0492346
0.0492359
0.0492418
0.0492509
0.0492631
0.0492684
0.0491487
0.0491045
0.0492687
0.0492816
0.049276
0.0492635
0.049256
0.0492312
0.0491998
0.0491672
0.049138
0.0491161
0.0491031
0.0490982
0.0490996
0.0491063
0.0491142
0.0491185
0.0491191
0.0491183
0.049119
0.0491236
0.0491339
0.0491503
0.0491721
0.0491971
0.0492241
0.0492313
0.0490355
0.04934
0.0493069
0.0492696
0.0492441
0.04923
0.0492245
0.0492262
0.0492334
0.049244
0.0492577
0.0492647
0.0491551
0.0490914
0.0492688
0.0492822
0.0492755
0.049261
0.0492519
0.0492228
0.0491884
0.0491552
0.0491267
0.0491063
0.0490953
0.0490924
0.0490962
0.0491083
0.0491203
0.0491249
0.0491238
0.0491206
0.0491193
0.0491223
0.0491314
0.0491469
0.0491678
0.0491918
0.0492182
0.0492251
0.0490166
0.0493319
0.0492979
0.0492613
0.0492349
0.0492202
0.0492146
0.0492165
0.0492247
0.0492368
0.049252
0.0492608
0.0491623
0.049079
0.0492687
0.0492817
0.0492747
0.0492585
0.0492477
0.0492141
0.0491775
0.0491445
0.0491173
0.0490986
0.0490894
0.0490882
0.0490944
0.0491136
0.0491283
0.0491313
0.049127
0.0491203
0.0491166
0.0491183
0.0491272
0.0491427
0.0491633
0.0491867
0.0492126
0.0492192
0.0489983
0.0493244
0.049289
0.0492524
0.0492256
0.0492105
0.0492051
0.0492074
0.0492163
0.0492295
0.0492461
0.0492568
0.0491695
0.049067
0.0492681
0.0492803
0.0492737
0.0492559
0.0492433
0.0492053
0.0491674
0.0491356
0.0491103
0.0490934
0.0490857
0.0490858
0.0490944
0.0491208
0.0491359
0.0491357
0.0491272
0.0491161
0.0491094
0.0491102
0.0491198
0.0491368
0.0491583
0.0491817
0.0492074
0.0492137
0.0489808
0.049318
0.0492804
0.0492433
0.0492162
0.0492008
0.0491957
0.0491989
0.0492084
0.0492224
0.04924
0.0492526
0.0491763
0.0490553
0.049267
0.0492786
0.0492724
0.0492533
0.0492388
0.0491966
0.0491586
0.049129
0.0491061
0.0490908
0.0490843
0.049085
0.0490958
0.0491277
0.0491413
0.0491372
0.0491236
0.0491072
0.0490969
0.0490967
0.0491082
0.0491281
0.0491521
0.0491765
0.0492025
0.0492088
0.0489641
0.0493129
0.0492727
0.0492342
0.0492065
0.0491906
0.0491857
0.0491903
0.0492008
0.0492155
0.0492338
0.0492482
0.049182
0.0490436
0.0492652
0.0492769
0.0492707
0.0492507
0.0492343
0.0491882
0.0491514
0.0491252
0.0491049
0.0490911
0.0490852
0.0490858
0.0490982
0.0491326
0.049144
0.0491355
0.0491158
0.0490929
0.0490785
0.0490772
0.0490913
0.049116
0.0491442
0.0491712
0.0491981
0.0492045
0.0489483
0.0493091
0.0492658
0.0492253
0.0491966
0.0491794
0.0491741
0.049181
0.0491932
0.049209
0.0492277
0.0492437
0.0491858
0.0490318
0.0492626
0.0492761
0.0492688
0.0492481
0.0492298
0.0491802
0.0491462
0.0491243
0.0491066
0.0490937
0.0490878
0.0490881
0.0491019
0.0491353
0.0491439
0.0491306
0.0491038
0.049073
0.0490531
0.049051
0.0490688
0.0491
0.0491345
0.0491655
0.0491942
0.0492012
0.0489334
0.0493067
0.04926
0.0492168
0.0491862
0.0491666
0.0491597
0.0491696
0.049185
0.0492024
0.0492217
0.0492391
0.0491857
0.049021
0.0492594
0.0492759
0.0492664
0.0492457
0.0492254
0.0491731
0.0491437
0.0491263
0.0491107
0.0490983
0.049092
0.0490919
0.0491071
0.0491367
0.0491418
0.0491229
0.0490875
0.0490471
0.0490204
0.0490174
0.0490405
0.0490802
0.049123
0.0491596
0.049191
0.0491988
0.0489197
0.0493059
0.0492553
0.0492087
0.0491755
0.0491522
0.0491418
0.0491547
0.0491748
0.0491953
0.0492156
0.0492344
0.049181
0.0490115
0.0492553
0.0492757
0.0492636
0.0492436
0.049221
0.0491673
0.0491441
0.0491309
0.0491166
0.0491043
0.0490974
0.0490974
0.0491131
0.0491375
0.0491382
0.0491125
0.049067
0.0490153
0.04898
0.0489763
0.0490067
0.0490573
0.0491102
0.0491537
0.0491886
0.0491975
0.0489071
0.0493066
0.0492518
0.0492013
0.0491645
0.0491361
0.0491203
0.0491347
0.0491614
0.0491871
0.0492094
0.0492296
0.0491721
0.0490035
0.0492502
0.0492745
0.0492603
0.049242
0.0492168
0.0491634
0.0491474
0.0491373
0.0491237
0.0491113
0.0491041
0.0491042
0.0491187
0.0491381
0.0491335
0.0490999
0.0490429
0.0489786
0.0489331
0.048928
0.0489684
0.0490324
0.0490971
0.0491483
0.0491873
0.0491974
0.0488958
0.0493089
0.0492495
0.0491948
0.0491536
0.0491189
0.0490964
0.0491084
0.0491442
0.0491775
0.049203
0.0492244
0.0491598
0.0489967
0.0492434
0.0492714
0.0492564
0.0492408
0.0492131
0.0491623
0.049153
0.049145
0.0491318
0.0491192
0.0491119
0.0491119
0.049124
0.0491386
0.049128
0.0490853
0.0490161
0.0489392
0.0488828
0.0488754
0.0489285
0.0490079
0.0490847
0.049144
0.0491872
0.0491986
0.0488858
0.0493129
0.0492486
0.0491894
0.0491432
0.0491018
0.0490728
0.0490783
0.0491247
0.0491672
0.0491969
0.0492175
0.049146
0.0489912
0.0492338
0.0492658
0.0492521
0.0492402
0.0492099
0.0491643
0.0491601
0.0491538
0.0491408
0.0491281
0.0491206
0.0491204
0.0491298
0.0491391
0.0491217
0.0490693
0.0489881
0.0489006
0.0488338
0.0488287
0.0488914
0.0489854
0.0490743
0.0491412
0.0491885
0.049201
0.0488771
0.0493186
0.0492492
0.0491854
0.0491337
0.049086
0.0490529
0.0490552
0.0491058
0.0491576
0.0491916
0.0492091
0.0491314
0.0489866
0.0492204
0.0492575
0.0492474
0.04924
0.0492087
0.0491682
0.0491683
0.0491636
0.0491508
0.0491378
0.0491302
0.0491299
0.0491363
0.0491395
0.0491148
0.049053
0.0489614
0.0488682
0.0488057
0.0488016
0.0488635
0.0489655
0.0490645
0.0491389
0.0491913
0.0492048
0.0488698
0.0493261
0.0492515
0.0491832
0.049126
0.0490733
0.0490386
0.0490423
0.0490894
0.0491481
0.0491867
0.0491996
0.0491173
0.0489826
0.0492035
0.0492466
0.0492425
0.0492408
0.0492093
0.0491734
0.0491775
0.0491742
0.0491616
0.0491485
0.0491407
0.0491398
0.0491435
0.0491396
0.0491077
0.049039
0.0489432
0.0488492
0.0487904
0.0487881
0.0488462
0.0489493
0.0490558
0.0491374
0.0491945
0.0492097
0.0488639
0.0493357
0.049256
0.0491829
0.0491208
0.0490641
0.0490286
0.0490334
0.049078
0.0491389
0.0491811
0.0491894
0.049105
0.0489789
0.0491885
0.0492331
0.0492375
0.0492429
0.0492117
0.0491798
0.0491874
0.0491857
0.0491735
0.0491602
0.0491519
0.04915
0.0491507
0.0491412
0.0491043
0.0490319
0.0489341
0.0488403
0.0487843
0.0487837
0.0488382
0.0489379
0.0490483
0.0491363
0.0491982
0.0492156
0.0488595
0.0493474
0.0492625
0.0491848
0.0491184
0.0490586
0.0490222
0.049027
0.0490701
0.0491303
0.0491744
0.0491791
0.0490956
0.0489758
0.0491873
0.0492174
0.0492326
0.0492465
0.0492159
0.0491871
0.049198
0.0491978
0.0491863
0.0491729
0.0491641
0.0491609
0.0491586
0.0491452
0.0491058
0.0490325
0.0489345
0.0488408
0.0487856
0.0487855
0.0488373
0.0489315
0.0490422
0.0491354
0.0492021
0.0492221
0.0488568
0.049361
0.0492709
0.0491889
0.0491191
0.0490565
0.0490185
0.0490223
0.0490636
0.0491219
0.0491666
0.0491696
0.0490901
0.0489732
0.0492019
0.0492001
0.0492282
0.0492518
0.0492218
0.0491951
0.0492088
0.0492104
0.0492
0.0491867
0.0491774
0.0491728
0.049168
0.0491522
0.0491124
0.0490407
0.0489441
0.0488501
0.0487932
0.0487916
0.0488409
0.0489295
0.0490375
0.0491343
0.0492061
0.0492279
0.0488564
0.0493764
0.0492812
0.0491952
0.0491227
0.0490576
0.0490169
0.049018
0.0490569
0.0491131
0.049158
0.0491615
0.0490887
0.0489709
0.049203
0.0491829
0.0492248
0.0492593
0.0492296
0.0492039
0.0492197
0.049223
0.049214
0.0492012
0.0491913
0.0491852
0.0491783
0.0491613
0.049123
0.0490553
0.0489624
0.0488682
0.0488073
0.0488014
0.048847
0.0489302
0.049034
0.0491328
0.0492097
0.0492305
0.0488592
0.0493933
0.0492932
0.0492035
0.0491292
0.0490619
0.0490175
0.049014
0.0490492
0.0491032
0.0491486
0.0491549
0.0490908
0.0489733
0.0491564
0.0491669
0.0492229
0.049269
0.0492392
0.049213
0.0492299
0.0492347
0.0492275
0.0492154
0.0492048
0.0491968
0.0491875
0.0491698
0.0491347
0.049074
0.0489881
0.0488956
0.0488295
0.0488155
0.0488546
0.0489321
0.049031
0.0491304
0.0492122
0.0492298
0.0488659
0.0494115
0.0493065
0.0492136
0.0491384
0.0490696
0.0490208
0.049011
0.0490407
0.049092
0.0491384
0.0491492
0.049095
0.0489845
0.049089
0.0491529
0.0492245
0.0492808
0.0492507
0.0492224
0.0492388
0.0492444
0.0492386
0.0492272
0.0492153
0.0492044
0.0491919
0.0491733
0.0491427
0.0490923
0.0490184
0.0489321
0.0488617
0.0488365
0.048865
0.0489346
0.049028
0.049127
0.0492126
0.0492253
0.0488773
0.049431
0.049321
0.0492253
0.0491504
0.049081
0.0490279
0.0490104
0.0490327
0.0490799
0.0491271
0.0491437
0.0490998
0.0490004
0.0490511
0.0491457
0.0492297
0.0492953
0.0492642
0.0492318
0.0492457
0.0492502
0.0492448
0.0492329
0.0492184
0.0492029
0.0491857
0.0491656
0.0491403
0.0491033
0.0490472
0.0489744
0.0489048
0.0488679
0.0488815
0.0489394
0.0490254
0.0491222
0.0492092
0.0492164
0.0488943
0.0494515
0.0493365
0.0492382
0.0491648
0.0490965
0.04904
0.0490142
0.049027
0.0490681
0.049115
0.0491377
0.0491043
0.0490172
0.0490436
0.0491476
0.0492387
0.0493122
0.0492797
0.0492409
0.0492496
0.0492502
0.0492424
0.0492276
0.049208
0.0491854
0.0491618
0.0491395
0.0491195
0.0490973
0.0490636
0.0490129
0.0489531
0.0489096
0.0489075
0.0489499
0.0490248
0.0491161
0.0492004
0.0492034
0.0489181
0.0494731
0.0493531
0.049252
0.0491813
0.0491163
0.0490583
0.0490247
0.0490266
0.0490592
0.0491034
0.049131
0.0491084
0.0490339
0.0490573
0.0491591
0.0492515
0.0493313
0.049297
0.0492495
0.0492498
0.0492423
0.0492277
0.0492057
0.0491774
0.0491452
0.0491137
0.0490881
0.0490718
0.0490624
0.0490511
0.0490275
0.0489878
0.0489496
0.0489386
0.0489658
0.0490265
0.0491074
0.049184
0.0491868
0.0489495
0.0494961
0.0493709
0.0492667
0.0491993
0.0491399
0.0490838
0.0490445
0.0490353
0.049057
0.0490953
0.049125
0.049112
0.049055
0.0490875
0.0491793
0.0492676
0.0493518
0.0493161
0.0492576
0.0492461
0.0492256
0.0491982
0.0491635
0.0491225
0.0490786
0.0490382
0.0490081
0.0489924
0.0489896
0.0489929
0.0489921
0.0489789
0.0489608
0.0489557
0.0489763
0.0490244
0.0490918
0.0491584
0.049168
0.0489894
0.0495214
0.0493909
0.0492822
0.0492181
0.0491664
0.0491159
0.0490749
0.0490567
0.0490667
0.049096
0.0491236
0.049118
0.0490887
0.0491303
0.0492057
0.0492863
0.0493736
0.049337
0.0492656
0.0492397
0.0492015
0.0491553
0.0491027
0.0490456
0.048989
0.0489397
0.0489043
0.0488859
0.0488836
0.0488928
0.0489065
0.0489181
0.0489265
0.0489392
0.0489647
0.0490067
0.049063
0.0491227
0.0491489
0.0490375
0.0495506
0.0494149
0.0492997
0.0492373
0.0491939
0.0491528
0.0491155
0.0490932
0.0490933
0.0491121
0.049134
0.0491352
0.0491396
0.0491786
0.0492346
0.0493075
0.0493972
0.0493606
0.0492755
0.0492346
0.0491762
0.0491075
0.0490338
0.0489595
0.0488904
0.0488331
0.0487924
0.0487706
0.0487669
0.0487782
0.0488001
0.0488286
0.0488579
0.0488885
0.0489236
0.0489655
0.0490168
0.0490782
0.0491319
0.0490928
0.0495878
0.0494483
0.0493236
0.0492583
0.0492209
0.0491912
0.0491633
0.0491438
0.0491392
0.0491493
0.0491647
0.0491774
0.0492017
0.049225
0.0492647
0.0493332
0.0494245
0.0493903
0.0492922
0.04924
0.0491633
0.0490729
0.0489786
0.0488878
0.048807
0.0487418
0.0486957
0.0486699
0.0486636
0.0486744
0.0486995
0.0487349
0.0487751
0.0488167
0.0488593
0.0489039
0.0489563
0.0490287
0.0491191
0.0491522
0.0496441
0.0495056
0.0493712
0.0492941
0.0492519
0.0492274
0.049213
0.0492039
0.0492029
0.0492095
0.0492261
0.0492502
0.0492666
0.0492702
0.0493046
0.0493731
0.0494638
0.049438
0.049329
0.0492749
0.0491887
0.0490834
0.0489725
0.0488659
0.0487715
0.0486946
0.0486384
0.0486035
0.0485889
0.0485929
0.0486129
0.0486461
0.0486891
0.0487354
0.0487826
0.0488308
0.0488887
0.0489786
0.0491116
0.0492095
0.0497627
0.0496425
0.049534
0.0494603
0.0494099
0.0493752
0.0493506
0.0493393
0.0493379
0.0493393
0.0493689
0.0493945
0.0493996
0.0493989
0.049418
0.0494703
0.0495508
0.049557
0.0494327
0.0493839
0.0493091
0.0492066
0.0490893
0.0489699
0.0488594
0.0487662
0.0486945
0.0486452
0.0486174
0.0486088
0.0486167
0.048639
0.0486718
0.048712
0.048756
0.0488032
0.0488634
0.048967
0.0491332
0.0492684
)
;

boundaryField
{
    floor
    {
        type            fixedFluxPressure;
        gradient        uniform 0;
        value           nonuniform List<scalar> 
40
(
0.0491893
0.0492004
0.0492211
0.0492384
0.0492458
0.0492457
0.0492415
0.0492358
0.0492305
0.0492257
0.0492173
0.0491953
0.0492092
0.0492221
0.0492364
0.0492473
0.0492593
0.0492745
0.0492907
0.0492972
0.0492811
0.0492476
0.0492101
0.0491767
0.0491502
0.0491304
0.0491157
0.0491049
0.0490969
0.0490912
0.049088
0.0490876
0.0490903
0.049096
0.0491043
0.0491141
0.0491245
0.0491342
0.04914
0.0491419
)
;
    }
    ceiling
    {
        type            fixedFluxPressure;
        gradient        nonuniform List<scalar> 
40
(
0.702912
0.725163
0.745066
0.758517
0.768275
0.77637
0.784243
0.791448
0.7983
0.804466
0.803107
0.799002
0.790822
0.781217
0.773402
0.765208
0.753168
0.753548
0.77681
0.783342
0.794279
0.810573
0.830066
0.85034
0.869076
0.884513
0.895764
0.902802
0.906202
0.906793
0.905402
0.902724
0.899295
0.895567
0.891912
0.888608
0.885897
0.884032
0.883344
0.884737
)
;
        value           nonuniform List<scalar> 
40
(
0.0532773
0.0532683
0.0532593
0.0532528
0.0532513
0.0532571
0.0532718
0.0532966
0.0533294
0.0533616
0.0533844
0.0533895
0.0533537
0.053305
0.053285
0.0532963
0.0533167
0.0533248
0.0533168
0.0533006
0.0532805
0.0532594
0.0532396
0.0532216
0.0532048
0.0531888
0.0531733
0.0531592
0.0531484
0.0531427
0.0531438
0.0531526
0.0531682
0.0531898
0.0532156
0.0532462
0.0532929
0.0533872
0.0535499
0.0536921
)
;
    }
    fixedWalls
    {
        type            fixedFluxPressure;
        gradient        uniform 0;
        value           nonuniform List<scalar> 
80
(
0.0491893
0.0492012
0.0491989
0.049193
0.0491882
0.0491905
0.0491993
0.0492124
0.0492291
0.0492787
0.049347
0.0493479
0.04934
0.0493319
0.0493244
0.049318
0.0493129
0.0493091
0.0493067
0.0493059
0.0493066
0.0493089
0.0493129
0.0493186
0.0493261
0.0493357
0.0493474
0.049361
0.0493764
0.0493933
0.0494115
0.049431
0.0494515
0.0494731
0.0494961
0.0495214
0.0495506
0.0495878
0.0496441
0.0497627
0.0491419
0.0491729
0.0491845
0.0491809
0.049169
0.0491529
0.0491345
0.049115
0.0490949
0.0490748
0.0490549
0.0490355
0.0490166
0.0489983
0.0489808
0.0489641
0.0489483
0.0489334
0.0489197
0.0489071
0.0488958
0.0488858
0.0488771
0.0488698
0.0488639
0.0488595
0.0488568
0.0488564
0.0488592
0.0488659
0.0488773
0.0488943
0.0489181
0.0489495
0.0489894
0.0490375
0.0490928
0.0491522
0.0492095
0.0492684
)
;
    }
    frontAndBack
    {
        type            empty;
    }
}


// ************************************************************************* //
