/*--------------------------------*- C++ -*----------------------------------*\
| =========                 |                                                 |
| \\      /  F ield         | OpenFOAM: The Open Source CFD Toolbox           |
|  \\    /   O peration     | Version:  4.1                                   |
|   \\  /    A nd           | Web:      www.OpenFOAM.org                      |
|    \\/     M anipulation  |                                                 |
\*---------------------------------------------------------------------------*/
FoamFile
{
    version     2.0;
    format      ascii;
    class       surfaceScalarField;
    location    "1400";
    object      phi;
}
// * * * * * * * * * * * * * * * * * * * * * * * * * * * * * * * * * * * * * //

dimensions      [0 3 -1 0 0 0 0];

internalField   nonuniform List<scalar> 
9850
(
-2.88382e-06
2.88382e-06
-2.24536e-06
-6.38454e-07
-7.11929e-07
-1.53343e-06
7.36241e-07
-1.44817e-06
1.70444e-06
-9.68204e-07
2.40155e-06
-6.97107e-07
2.96746e-06
-5.65905e-07
3.44127e-06
-4.73809e-07
3.84471e-06
-4.03441e-07
4.19404e-06
-3.49334e-07
4.50224e-06
-3.08195e-07
4.78091e-06
-2.78678e-07
5.04228e-06
-2.61366e-07
5.30045e-06
-2.58173e-07
5.57166e-06
-2.71209e-07
5.873e-06
-3.01334e-07
6.22002e-06
-3.47026e-07
6.6243e-06
-4.04278e-07
7.0918e-06
-4.67501e-07
7.62253e-06
-5.30729e-07
8.21104e-06
-5.88506e-07
8.84737e-06
-6.3633e-07
9.5182e-06
-6.7083e-07
1.02082e-05
-6.89992e-07
1.09016e-05
-6.93385e-07
1.15837e-05
-6.82121e-07
1.22422e-05
-6.58474e-07
1.28675e-05
-6.25334e-07
1.34532e-05
-5.85708e-07
1.39956e-05
-5.42347e-07
1.44931e-05
-4.97529e-07
1.49461e-05
-4.52999e-07
1.53561e-05
-4.09998e-07
1.57254e-05
-3.69363e-07
1.60571e-05
-3.31653e-07
1.63544e-05
-2.97271e-07
1.66209e-05
-2.66548e-07
1.68607e-05
-2.39786e-07
1.70779e-05
-2.17241e-07
1.7277e-05
-1.99066e-07
1.74622e-05
-1.85229e-07
1.76377e-05
-1.75448e-07
1.78068e-05
-1.69148e-07
1.79723e-05
-1.65489e-07
1.81358e-05
-1.63437e-07
1.82976e-05
-1.61878e-07
1.84574e-05
-1.59749e-07
1.86135e-05
-1.56161e-07
1.8764e-05
-1.50482e-07
1.89064e-05
-1.42408e-07
1.90384e-05
-1.31985e-07
1.9158e-05
-1.19613e-07
1.92641e-05
-1.0604e-07
1.93564e-05
-9.23339e-08
1.94363e-05
-7.98523e-08
1.95065e-05
-7.02001e-08
1.95716e-05
-6.51692e-08
1.96383e-05
-6.66505e-08
1.97148e-05
-7.64936e-08
1.98111e-05
-9.62989e-08
1.99382e-05
-1.27171e-07
2.01076e-05
-1.69375e-07
2.03295e-05
-2.2188e-07
2.06111e-05
-2.816e-07
2.09534e-05
-3.42264e-07
2.13463e-05
-3.92908e-07
2.17624e-05
-4.16127e-07
2.21516e-05
-3.89181e-07
2.24292e-05
-2.77641e-07
2.2468e-05
-3.8749e-08
2.20948e-05
3.73214e-07
2.111e-05
9.84792e-07
1.93161e-05
1.79389e-06
1.65741e-05
2.74194e-06
1.29298e-05
3.64435e-06
8.80712e-06
4.12266e-06
5.06552e-06
3.7416e-06
2.61353e-06
2.452e-06
1.80832e-06
8.05202e-07
2.23464e-06
-4.26318e-07
3.18066e-06
-9.46022e-07
3.92966e-06
-7.48996e-07
3.80191e-06
1.27753e-07
2.64274e-06
1.15917e-06
1.40775e-06
1.23499e-06
1.16868e-06
2.39072e-07
2.12688e-06
-9.58203e-07
3.2029e-06
-1.07601e-06
1.8548e-06
1.34809e-06
-1.36708e-06
3.22188e-06
-3.24629e-06
1.87921e-06
-4.2989e-06
1.05262e-06
-4.9011e-06
6.02195e-07
-5.12815e-06
2.27054e-07
-4.96049e-06
-1.67662e-07
-4.33367e-06
-6.26821e-07
-3.09833e-06
-1.23534e-06
-9.29403e-07
-2.16892e-06
2.30873e-06
-3.23813e-06
2.30873e-06
-1.85158e-06
4.7354e-06
-1.65126e-06
-8.38776e-07
-1.1332e-06
-2.0515e-06
-4.54301e-07
-2.12707e-06
3.46063e-07
-1.76857e-06
1.02288e-06
-1.37392e-06
1.5863e-06
-1.12933e-06
2.07274e-06
-9.60249e-07
2.5085e-06
-8.39194e-07
2.91456e-06
-7.55401e-07
3.30964e-06
-7.03276e-07
3.7099e-06
-6.78928e-07
4.12821e-06
-6.79684e-07
4.57375e-06
-7.03705e-07
5.05193e-06
-7.49399e-07
5.56525e-06
-8.14653e-07
6.11443e-06
-8.96204e-07
6.69955e-06
-9.89397e-07
7.32045e-06
-1.0884e-06
7.97623e-06
-1.18652e-06
8.66443e-06
-1.2767e-06
9.38002e-06
-1.35193e-06
1.0115e-05
-1.40579e-06
1.08585e-05
-1.43356e-06
1.15986e-05
-1.4334e-06
1.23231e-05
-1.40664e-06
1.30218e-05
-1.35722e-06
1.3687e-05
-1.29055e-06
1.43138e-05
-1.21248e-06
1.48999e-05
-1.12848e-06
1.54456e-05
-1.04317e-06
1.59527e-05
-9.60156e-07
1.64247e-05
-8.81981e-07
1.68657e-05
-8.10301e-07
1.72801e-05
-7.46047e-07
1.76724e-05
-6.89618e-07
1.80469e-05
-6.41035e-07
1.84072e-05
-6.00059e-07
1.87562e-05
-5.66247e-07
1.90961e-05
-5.38971e-07
1.94283e-05
-5.1741e-07
1.97533e-05
-5.00533e-07
2.00713e-05
-4.87113e-07
2.03816e-05
-4.75762e-07
2.06831e-05
-4.65011e-07
2.09747e-05
-4.53405e-07
2.12545e-05
-4.39621e-07
2.1521e-05
-4.22574e-07
2.1772e-05
-4.01497e-07
2.20056e-05
-3.76009e-07
2.22197e-05
-3.46148e-07
2.24125e-05
-3.12386e-07
2.25821e-05
-2.75623e-07
2.27269e-05
-2.37184e-07
2.28459e-05
-1.98801e-07
2.29383e-05
-1.62598e-07
2.30042e-05
-1.31067e-07
2.30446e-05
-1.07028e-07
2.30616e-05
-9.35393e-08
2.3059e-05
-9.37033e-08
2.30421e-05
-1.1029e-07
2.30181e-05
-1.45326e-07
2.29956e-05
-1.99423e-07
2.29843e-05
-2.7028e-07
2.29921e-05
-3.50007e-07
2.30205e-05
-4.21376e-07
2.30575e-05
-4.53072e-07
2.30649e-05
-3.96611e-07
2.29649e-05
-1.77689e-07
2.26557e-05
2.70513e-07
2.20351e-05
9.93788e-07
2.10165e-05
2.00339e-06
1.95652e-05
3.2452e-06
1.77533e-05
4.55382e-06
1.57901e-05
5.6076e-06
1.39495e-05
5.96325e-06
1.23779e-05
5.31317e-06
1.1004e-05
3.82589e-06
9.7919e-06
2.01733e-06
8.97273e-06
3.92851e-07
8.67974e-06
-6.53027e-07
8.79887e-06
-8.68133e-07
9.08098e-06
-1.54353e-07
9.18115e-06
1.059e-06
8.53144e-06
1.88469e-06
6.89765e-06
1.87286e-06
5.03908e-06
9.0037e-07
3.64582e-06
3.1725e-07
1.97497e-06
3.01894e-06
-8.62211e-08
5.28308e-06
-1.55341e-06
3.3464e-06
-2.49664e-06
1.99584e-06
-3.11282e-06
1.21838e-06
-3.40365e-06
5.17883e-07
-3.31508e-06
-2.5623e-07
-2.80196e-06
-1.13994e-06
-1.89984e-06
-2.13746e-06
-6.00428e-07
-3.46833e-06
1.21078e-06
-5.04934e-06
3.51951e-06
-1.23237e-06
5.96777e-06
-1.33749e-06
-7.33655e-07
-1.01305e-06
-2.37593e-06
-5.62181e-07
-2.57794e-06
-4.54954e-10
-2.33029e-06
5.75909e-07
-1.95029e-06
1.07378e-06
-1.6272e-06
1.51981e-06
-1.40627e-06
1.93372e-06
-1.25311e-06
2.33227e-06
-1.15395e-06
2.72931e-06
-1.10031e-06
3.13605e-06
-1.08567e-06
3.56117e-06
-1.1048e-06
4.01077e-06
-1.1533e-06
4.48873e-06
-1.22736e-06
4.99744e-06
-1.32336e-06
5.53865e-06
-1.43742e-06
6.11422e-06
-1.56497e-06
6.72617e-06
-1.70034e-06
7.37581e-06
-1.83616e-06
8.06259e-06
-1.96348e-06
8.78278e-06
-2.07211e-06
9.52819e-06
-2.1512e-06
1.02865e-05
-2.19189e-06
1.10433e-05
-2.19017e-06
1.17844e-05
-2.14773e-06
1.24979e-05
-2.07074e-06
1.31753e-05
-1.96791e-06
1.38114e-05
-1.84857e-06
1.44043e-05
-1.72137e-06
1.49546e-05
-1.59353e-06
1.5465e-05
-1.47054e-06
1.59393e-05
-1.35625e-06
1.6382e-05
-1.25304e-06
1.67981e-05
-1.1621e-06
1.71922e-05
-1.08372e-06
1.75687e-05
-1.01754e-06
1.79314e-05
-9.62741e-07
1.82833e-05
-9.18159e-07
1.86267e-05
-8.82383e-07
1.89631e-05
-8.53801e-07
1.92932e-05
-8.30642e-07
1.96171e-05
-8.11008e-07
1.99343e-05
-7.9294e-07
2.02437e-05
-7.74488e-07
2.05441e-05
-7.53808e-07
2.08338e-05
-7.2926e-07
2.11107e-05
-6.99502e-07
2.13728e-05
-6.63573e-07
2.16177e-05
-6.20943e-07
2.18431e-05
-5.71557e-07
2.20466e-05
-5.15841e-07
2.22256e-05
-4.54699e-07
2.2378e-05
-3.89503e-07
2.25012e-05
-3.22074e-07
2.25933e-05
-2.54667e-07
2.26522e-05
-1.8997e-07
2.26763e-05
-1.31102e-07
2.26643e-05
-8.16006e-08
2.26159e-05
-4.52723e-08
2.25311e-05
-2.55181e-08
2.2411e-05
-2.51453e-08
2.22576e-05
-4.60761e-08
2.20748e-05
-8.74326e-08
2.1867e-05
-1.42272e-07
2.16388e-05
-1.93094e-07
2.13901e-05
-2.04397e-07
2.11183e-05
-1.24819e-07
2.08175e-05
1.2305e-07
2.04614e-05
6.26665e-07
1.99999e-05
1.45528e-06
1.93895e-05
2.61378e-06
1.86372e-05
3.99753e-06
1.78278e-05
5.36318e-06
1.70962e-05
6.33922e-06
1.65194e-05
6.54009e-06
1.60285e-05
5.80407e-06
1.54945e-05
4.35986e-06
1.48265e-05
2.68533e-06
1.4022e-05
1.19736e-06
1.32266e-05
1.42373e-07
1.26356e-05
-2.77141e-07
1.23493e-05
1.31944e-07
1.213e-05
1.2783e-06
1.1495e-05
2.5197e-06
1.02128e-05
3.15503e-06
8.16316e-06
2.95002e-06
5.71542e-06
2.76499e-06
3.61234e-06
5.12201e-06
1.79037e-06
7.10504e-06
1.28474e-07
5.0083e-06
-9.18502e-07
3.04282e-06
-1.50383e-06
1.8037e-06
-1.78043e-06
7.94493e-07
-1.63444e-06
-4.0223e-07
-1.1929e-06
-1.58148e-06
-6.1871e-07
-2.71165e-06
-5.42362e-08
-4.0328e-06
6.58038e-07
-5.76161e-06
4.17755e-06
-9.78311e-07
6.94608e-06
-1.13349e-06
-5.78472e-07
-8.7361e-07
-2.63582e-06
-5.21617e-07
-2.92993e-06
-1.24262e-07
-2.72765e-06
3.04646e-07
-2.3792e-06
7.07832e-07
-2.03039e-06
1.08207e-06
-1.78052e-06
1.43938e-06
-1.61041e-06
1.79207e-06
-1.50664e-06
2.14951e-06
-1.45776e-06
2.51885e-06
-1.45501e-06
2.90584e-06
-1.49179e-06
3.31503e-06
-1.5625e-06
3.75026e-06
-1.6626e-06
4.2152e-06
-1.78829e-06
4.71395e-06
-1.93617e-06
5.2515e-06
-2.10252e-06
5.83349e-06
-2.28233e-06
6.46449e-06
-2.46715e-06
7.14628e-06
-2.64527e-06
7.87594e-06
-2.80178e-06
8.64318e-06
-2.91844e-06
9.43093e-06
-2.97964e-06
1.02192e-05
-2.97846e-06
1.09893e-05
-2.91784e-06
1.17265e-05
-2.80791e-06
1.24209e-05
-2.66234e-06
1.30675e-05
-2.49518e-06
1.36652e-05
-2.31903e-06
1.42157e-05
-2.14402e-06
1.47228e-05
-1.97763e-06
1.51914e-05
-1.82485e-06
1.56269e-05
-1.6886e-06
1.6035e-05
-1.57015e-06
1.64208e-05
-1.46951e-06
1.67891e-05
-1.38581e-06
1.71439e-05
-1.31757e-06
1.74886e-05
-1.26287e-06
1.78257e-05
-1.21951e-06
1.8157e-05
-1.1851e-06
1.84835e-05
-1.15711e-06
1.88055e-05
-1.13295e-06
1.91226e-05
-1.11005e-06
1.94339e-05
-1.08588e-06
1.97383e-05
-1.05813e-06
2.00338e-05
-1.02475e-06
2.03183e-05
-9.84043e-07
2.05895e-05
-9.34789e-07
2.08448e-05
-8.76261e-07
2.10816e-05
-8.08276e-07
2.12969e-05
-7.31199e-07
2.14881e-05
-6.45932e-07
2.16525e-05
-5.53879e-07
2.17874e-05
-4.56908e-07
2.189e-05
-3.57321e-07
2.19579e-05
-2.57825e-07
2.19883e-05
-1.61551e-07
2.19788e-05
-7.20941e-08
2.1926e-05
7.57378e-09
2.18263e-05
7.41069e-08
2.16765e-05
1.24737e-07
2.14729e-05
1.57433e-07
2.12128e-05
1.72711e-07
2.08947e-05
1.75797e-07
2.05214e-05
1.80275e-07
2.01038e-05
2.13196e-07
1.96587e-05
3.20223e-07
1.92084e-05
5.73389e-07
1.87718e-05
1.06325e-06
1.83629e-05
1.86419e-06
1.79968e-05
2.97983e-06
1.77053e-05
4.28911e-06
1.75403e-05
5.52817e-06
1.75362e-05
6.34327e-06
1.76404e-05
6.43592e-06
1.76993e-05
5.74515e-06
1.75537e-05
4.50547e-06
1.71401e-05
3.09895e-06
1.64862e-05
1.85125e-06
1.56733e-05
9.55271e-07
1.48344e-05
5.61738e-07
1.41139e-05
8.52505e-07
1.34948e-05
1.89739e-06
1.26899e-05
3.32459e-06
1.14035e-05
4.44142e-06
9.52681e-06
4.82669e-06
7.25613e-06
5.03567e-06
5.26749e-06
7.11066e-06
3.63799e-06
8.73454e-06
1.91066e-06
6.73562e-06
7.4325e-07
4.21023e-06
1.98566e-07
2.34838e-06
1.53869e-07
8.3919e-07
4.66242e-07
-7.14602e-07
7.40936e-07
-1.85617e-06
8.41944e-07
-2.81266e-06
6.98867e-07
-3.88973e-06
4.59872e-07
-5.52262e-06
4.63742e-06
-7.90523e-07
7.7366e-06
-9.48703e-07
-4.20292e-07
-7.24173e-07
-2.86035e-06
-4.45585e-07
-3.20852e-06
-1.66873e-07
-3.00636e-06
1.22048e-07
-2.66812e-06
4.10732e-07
-2.31907e-06
6.86758e-07
-2.05654e-06
9.57053e-07
-1.88071e-06
1.22979e-06
-1.77938e-06
1.51158e-06
-1.73955e-06
1.8078e-06
-1.75123e-06
2.12361e-06
-1.8076e-06
2.46397e-06
-1.90285e-06
2.83405e-06
-2.03268e-06
3.23964e-06
-2.19388e-06
3.68756e-06
-2.3841e-06
4.18637e-06
-2.60132e-06
4.74594e-06
-2.84191e-06
5.37366e-06
-3.09488e-06
6.07257e-06
-3.34418e-06
6.83892e-06
-3.56812e-06
7.65687e-06
-3.73639e-06
8.5006e-06
-3.82338e-06
9.34166e-06
-3.81952e-06
1.01555e-05
-3.73164e-06
1.09245e-05
-3.57696e-06
1.16387e-05
-3.37656e-06
1.22944e-05
-3.15081e-06
1.28923e-05
-2.91697e-06
1.34365e-05
-2.68827e-06
1.39329e-05
-2.47402e-06
1.43882e-05
-2.28007e-06
1.48091e-05
-2.10953e-06
1.52023e-05
-1.96339e-06
1.55739e-05
-1.84112e-06
1.59292e-05
-1.74112e-06
1.62728e-05
-1.66109e-06
1.66081e-05
-1.59826e-06
1.69382e-05
-1.54955e-06
1.72648e-05
-1.51172e-06
1.75891e-05
-1.48144e-06
1.79115e-05
-1.45535e-06
1.82316e-05
-1.43015e-06
1.85484e-05
-1.40269e-06
1.88603e-05
-1.37005e-06
1.91653e-05
-1.32969e-06
1.94608e-05
-1.27952e-06
1.9744e-05
-1.21801e-06
2.00119e-05
-1.14422e-06
2.02616e-05
-1.05788e-06
2.04897e-05
-9.59357e-07
2.06934e-05
-8.49615e-07
2.08697e-05
-7.30179e-07
2.10158e-05
-6.03048e-07
2.11291e-05
-4.70621e-07
2.12069e-05
-3.35613e-07
2.12464e-05
-2.00983e-07
2.1244e-05
-6.97219e-08
2.11961e-05
5.54481e-08
2.10986e-05
1.71638e-07
2.09469e-05
2.76447e-07
2.07361e-05
3.68225e-07
2.04615e-05
4.4729e-07
2.01198e-05
5.17528e-07
1.97109e-05
5.89184e-07
1.92411e-05
6.82983e-07
1.87259e-05
8.35385e-07
1.81959e-05
1.10337e-06
1.76989e-05
1.56032e-06
1.72935e-05
2.26959e-06
1.7039e-05
3.23432e-06
1.69839e-05
4.34418e-06
1.71486e-05
5.36352e-06
1.74917e-05
6.00014e-06
1.78839e-05
6.04366e-06
1.81417e-05
5.4874e-06
1.81201e-05
4.52705e-06
1.77795e-05
3.43953e-06
1.71702e-05
2.46054e-06
1.63773e-05
1.74825e-06
1.55038e-05
1.43521e-06
1.46593e-05
1.69699e-06
1.38719e-05
2.68478e-06
1.29795e-05
4.21697e-06
1.17539e-05
5.66706e-06
1.0124e-05
6.45656e-06
8.20465e-06
6.95504e-06
6.45292e-06
8.86239e-06
4.99927e-06
1.01882e-05
3.50354e-06
8.23136e-06
2.50915e-06
5.20462e-06
2.19373e-06
2.66381e-06
2.41663e-06
6.16287e-07
2.71517e-06
-1.01315e-06
2.71654e-06
-1.85754e-06
2.31121e-06
-2.40733e-06
1.56719e-06
-3.14571e-06
5.49248e-07
-4.50467e-06
5.18667e-06
-6.45697e-07
8.3823e-06
-7.73289e-07
-2.92699e-07
-5.79325e-07
-3.05431e-06
-3.76393e-07
-3.41145e-06
-2.04871e-07
-3.17788e-06
-5.19587e-08
-2.82103e-06
1.06693e-07
-2.47772e-06
2.64684e-07
-2.21453e-06
4.25445e-07
-2.04147e-06
5.95202e-07
-1.94914e-06
7.80125e-07
-1.92447e-06
9.86289e-07
-1.95739e-06
1.22016e-06
-2.04147e-06
1.48829e-06
-2.17098e-06
1.79788e-06
-2.34227e-06
2.15715e-06
-2.55314e-06
2.57493e-06
-2.80188e-06
3.06273e-06
-3.08912e-06
3.63387e-06
-3.41304e-06
4.29526e-06
-3.75627e-06
5.04787e-06
-4.09679e-06
5.88481e-06
-4.40506e-06
6.78164e-06
-4.63322e-06
7.70133e-06
-4.74306e-06
8.60642e-06
-4.72461e-06
9.4676e-06
-4.59282e-06
1.02665e-05
-4.37585e-06
1.09946e-05
-4.10471e-06
1.16512e-05
-3.80736e-06
1.22403e-05
-3.50605e-06
1.2769e-05
-3.21699e-06
1.32458e-05
-2.95086e-06
1.36796e-05
-2.71389e-06
1.4079e-05
-2.50887e-06
1.44517e-05
-2.3361e-06
1.48047e-05
-2.19412e-06
1.51439e-05
-2.08036e-06
1.54743e-05
-1.99146e-06
1.57997e-05
-1.92363e-06
1.6123e-05
-1.87284e-06
1.64461e-05
-1.83488e-06
1.67702e-05
-1.80553e-06
1.70954e-05
-1.78055e-06
1.74211e-05
-1.75584e-06
1.77459e-05
-1.7275e-06
1.80678e-05
-1.69195e-06
1.83842e-05
-1.64607e-06
1.8692e-05
-1.58732e-06
1.89878e-05
-1.51382e-06
1.92681e-05
-1.4245e-06
1.95292e-05
-1.31902e-06
1.97677e-05
-1.19786e-06
1.99803e-05
-1.06219e-06
2.01639e-05
-9.13789e-07
2.03158e-05
-7.54955e-07
2.04335e-05
-5.88347e-07
2.05148e-05
-4.16844e-07
2.05572e-05
-2.43382e-07
2.05581e-05
-7.06697e-08
2.05146e-05
9.90084e-08
2.04228e-05
2.63395e-07
2.02787e-05
4.20529e-07
2.00777e-05
5.69289e-07
1.98148e-05
7.10111e-07
1.94862e-05
8.46163e-07
1.90901e-05
9.85323e-07
1.863e-05
1.14304e-06
1.81196e-05
1.34585e-06
1.75888e-05
1.63407e-06
1.70905e-05
2.05864e-06
1.66972e-05
2.66293e-06
1.64859e-05
3.44565e-06
1.65109e-05
4.31911e-06
1.67722e-05
5.10221e-06
1.71908e-05
5.58155e-06
1.76163e-05
5.6182e-06
1.78821e-05
5.22159e-06
1.7877e-05
4.53216e-06
1.75764e-05
3.74011e-06
1.70231e-05
3.0138e-06
1.62904e-05
2.48102e-06
1.54593e-05
2.26627e-06
1.46071e-05
2.54926e-06
1.37653e-05
3.52658e-06
1.28455e-05
5.13674e-06
1.16907e-05
6.82187e-06
1.02526e-05
7.89467e-06
8.62119e-06
8.58643e-06
7.09617e-06
1.03874e-05
5.79905e-06
1.14853e-05
4.50412e-06
9.52628e-06
3.59679e-06
6.11196e-06
3.45716e-06
2.80343e-06
3.84788e-06
2.25576e-07
4.13428e-06
-1.29955e-06
4.03256e-06
-1.75582e-06
3.40165e-06
-1.77642e-06
2.27383e-06
-2.01789e-06
7.69765e-07
-3.00061e-06
5.95643e-06
-5.35303e-07
8.9176e-06
-6.08512e-07
-2.1949e-07
-4.58435e-07
-3.20439e-06
-3.49334e-07
-3.52055e-06
-2.95864e-07
-3.23135e-06
-2.74669e-07
-2.84222e-06
-2.5435e-07
-2.49804e-06
-2.24361e-07
-2.24452e-06
-1.80941e-07
-2.08489e-06
-1.18367e-07
-2.01171e-06
-2.9391e-08
-2.01345e-06
9.44338e-08
-2.08121e-06
2.6217e-07
-2.20921e-06
4.82751e-07
-2.39156e-06
7.6423e-07
-2.62375e-06
1.11572e-06
-2.90463e-06
1.54524e-06
-3.2314e-06
2.06641e-06
-3.6103e-06
2.69249e-06
-4.03912e-06
3.42311e-06
-4.48689e-06
4.25351e-06
-4.92718e-06
5.17415e-06
-5.32571e-06
6.15303e-06
-5.61209e-06
7.14379e-06
-5.73383e-06
8.10255e-06
-5.68337e-06
8.9978e-06
-5.48807e-06
9.8123e-06
-5.19034e-06
1.05406e-05
-4.83305e-06
1.11856e-05
-4.45237e-06
1.17551e-05
-4.07555e-06
1.22594e-05
-3.72127e-06
1.27096e-05
-3.40104e-06
1.31166e-05
-3.12084e-06
1.34903e-05
-2.88261e-06
1.38397e-05
-2.68551e-06
1.41724e-05
-2.52682e-06
1.44948e-05
-2.40269e-06
1.48118e-05
-2.30855e-06
1.51277e-05
-2.23945e-06
1.54451e-05
-2.19026e-06
1.5766e-05
-2.15576e-06
1.60911e-05
-2.13072e-06
1.64206e-05
-2.10999e-06
1.67533e-05
-2.08855e-06
1.70875e-05
-2.06167e-06
1.74205e-05
-2.02498e-06
1.77491e-05
-1.97472e-06
1.80696e-05
-1.90781e-06
1.83779e-05
-1.82208e-06
1.86696e-05
-1.71626e-06
1.89407e-05
-1.59009e-06
1.91871e-05
-1.44422e-06
1.94051e-05
-1.28017e-06
1.95914e-05
-1.10018e-06
1.97435e-05
-9.07023e-07
1.9859e-05
-7.03859e-07
1.99362e-05
-4.94003e-07
1.99735e-05
-2.80704e-07
1.99696e-05
-6.67736e-08
1.99227e-05
1.45876e-07
1.98306e-05
3.55564e-07
1.96902e-05
5.60865e-07
1.94983e-05
7.6119e-07
1.92513e-05
9.57173e-07
1.8946e-05
1.15148e-06
1.85812e-05
1.35007e-06
1.81603e-05
1.56391e-06
1.76952e-05
1.81094e-06
1.72122e-05
2.11713e-06
1.67573e-05
2.51352e-06
1.6396e-05
3.02423e-06
1.61992e-05
3.64241e-06
1.62146e-05
4.30373e-06
1.64333e-05
4.88355e-06
1.67744e-05
5.24045e-06
1.71062e-05
5.28643e-06
1.72973e-05
5.03044e-06
1.7265e-05
4.5645e-06
1.69898e-05
4.01527e-06
1.65008e-05
3.50279e-06
1.58496e-05
3.13221e-06
1.50922e-05
3.02374e-06
1.42798e-05
3.36163e-06
1.34376e-05
4.36876e-06
1.25157e-05
6.05865e-06
1.14076e-05
7.92991e-06
1.00818e-05
9.22054e-06
8.62668e-06
1.00415e-05
7.24497e-06
1.17691e-05
6.01788e-06
1.27124e-05
4.80772e-06
1.07364e-05
3.94115e-06
6.97853e-06
3.73347e-06
3.01111e-06
3.8781e-06
8.09428e-08
3.99251e-06
-1.41395e-06
3.88718e-06
-1.6505e-06
3.34366e-06
-1.2329e-06
2.30615e-06
-9.80377e-07
8.73803e-07
-1.56826e-06
6.83023e-06
-4.49281e-07
9.36688e-06
-4.59977e-07
-2.08794e-07
-3.80276e-07
-3.28409e-06
-3.8799e-07
-3.51284e-06
-4.65275e-07
-3.15407e-06
-5.72394e-07
-2.7351e-06
-6.78968e-07
-2.39147e-06
-7.6829e-07
-2.1552e-06
-8.30723e-07
-2.02246e-06
-8.58931e-07
-1.9835e-06
-8.43598e-07
-2.02878e-06
-7.73954e-07
-2.15086e-06
-6.38322e-07
-2.34484e-06
-4.2515e-07
-2.60473e-06
-1.24288e-07
-2.92461e-06
2.66014e-07
-3.29494e-06
7.47937e-07
-3.71333e-06
1.33884e-06
-4.2012e-06
2.04618e-06
-4.74646e-06
2.85483e-06
-5.29554e-06
3.75474e-06
-5.82709e-06
4.73879e-06
-6.30976e-06
5.77308e-06
-6.64639e-06
6.80657e-06
-6.76731e-06
7.79183e-06
-6.66863e-06
8.69677e-06
-6.39302e-06
9.50607e-06
-5.99963e-06
1.02176e-05
-5.54458e-06
1.08379e-05
-5.07264e-06
1.1378e-05
-4.61573e-06
1.18512e-05
-4.19444e-06
1.22706e-05
-3.8204e-06
1.26485e-05
-3.49875e-06
1.29959e-05
-3.23006e-06
1.33224e-05
-3.01195e-06
1.36357e-05
-2.84018e-06
1.39425e-05
-2.70943e-06
1.42477e-05
-2.61381e-06
1.45554e-05
-2.54716e-06
1.48684e-05
-2.5032e-06
1.51883e-05
-2.47567e-06
1.55159e-05
-2.45831e-06
1.58509e-05
-2.44496e-06
1.61919e-05
-2.42962e-06
1.65368e-05
-2.40658e-06
1.68824e-05
-2.37059e-06
1.72249e-05
-2.31712e-06
1.75595e-05
-2.24251e-06
1.78816e-05
-2.14418e-06
1.81862e-05
-2.02077e-06
1.84681e-05
-1.87208e-06
1.8723e-05
-1.6991e-06
1.89466e-05
-1.5038e-06
1.91355e-05
-1.28902e-06
1.92867e-05
-1.05823e-06
1.93981e-05
-8.15299e-07
1.94684e-05
-5.64254e-07
1.94967e-05
-3.09027e-07
1.94828e-05
-5.28097e-08
1.94261e-05
2.02493e-07
1.93263e-05
4.55449e-07
1.91821e-05
7.05002e-07
1.89924e-05
9.50928e-07
1.87556e-05
1.19397e-06
1.84707e-05
1.43638e-06
1.81382e-05
1.68257e-06
1.77622e-05
1.93995e-06
1.73533e-05
2.21979e-06
1.69331e-05
2.53729e-06
1.65377e-05
2.90897e-06
1.6217e-05
3.34494e-06
1.60245e-05
3.83484e-06
1.59949e-05
4.33341e-06
1.61176e-05
4.76077e-06
1.63286e-05
5.02945e-06
1.65291e-05
5.08597e-06
1.66235e-05
4.936e-06
1.65506e-05
4.63743e-06
1.62918e-05
4.27403e-06
1.58614e-05
3.93326e-06
1.52891e-05
3.70447e-06
1.46082e-05
3.7047e-06
1.38487e-05
4.12109e-06
1.30259e-05
5.1916e-06
1.21078e-05
6.97667e-06
1.10189e-05
9.01882e-06
9.73634e-06
1.05031e-05
8.35504e-06
1.14228e-05
7.03515e-06
1.3089e-05
5.81879e-06
1.39288e-05
4.60282e-06
1.19524e-05
3.58435e-06
7.997e-06
2.98061e-06
3.61485e-06
2.73223e-06
3.29326e-07
2.73397e-06
-1.41569e-06
2.73732e-06
-1.65386e-06
2.42458e-06
-9.20159e-07
1.7438e-06
-2.99602e-07
7.76527e-07
-6.00986e-07
7.60676e-06
-3.82707e-07
9.74959e-06
-3.4149e-07
-2.50011e-07
-3.5891e-07
-3.26667e-06
-4.98502e-07
-3.37325e-06
-7.07829e-07
-2.94474e-06
-9.3555e-07
-2.50738e-06
-1.14975e-06
-2.17727e-06
-1.33279e-06
-1.97216e-06
-1.47238e-06
-1.88287e-06
-1.5578e-06
-1.89808e-06
-1.57766e-06
-2.00891e-06
-1.51976e-06
-2.20876e-06
-1.37295e-06
-2.49164e-06
-1.1277e-06
-2.84999e-06
-7.77767e-07
-3.27454e-06
-3.19329e-07
-3.75337e-06
2.41359e-07
-4.27401e-06
9.1786e-07
-4.87771e-06
1.70594e-06
-5.53454e-06
2.57362e-06
-6.16322e-06
3.51081e-06
-6.76428e-06
4.51859e-06
-7.31754e-06
5.56755e-06
-7.69534e-06
6.60607e-06
-7.80583e-06
7.58488e-06
-7.64744e-06
8.47164e-06
-7.27977e-06
9.25285e-06
-6.78084e-06
9.9295e-06
-6.22124e-06
1.05115e-05
-5.65459e-06
1.10128e-05
-5.11708e-06
1.14488e-05
-4.63047e-06
1.18342e-05
-4.20579e-06
1.21821e-05
-3.84664e-06
1.25039e-05
-3.5518e-06
1.28089e-05
-3.31702e-06
1.31051e-05
-3.13636e-06
1.33987e-05
-3.003e-06
1.36946e-05
-2.90971e-06
1.39965e-05
-2.84915e-06
1.43073e-05
-2.814e-06
1.46286e-05
-2.79693e-06
1.4961e-05
-2.79068e-06
1.5304e-05
-2.78799e-06
1.56561e-05
-2.78176e-06
1.60147e-05
-2.76514e-06
1.6376e-05
-2.73186e-06
1.67353e-05
-2.67644e-06
1.70874e-05
-2.59457e-06
1.74265e-05
-2.48329e-06
1.77468e-05
-2.34113e-06
1.80428e-05
-2.1681e-06
1.83093e-05
-1.9656e-06
1.85417e-05
-1.73621e-06
1.87362e-05
-1.48348e-06
1.88897e-05
-1.2117e-06
1.89999e-05
-9.25571e-07
1.90657e-05
-6.30036e-07
1.90866e-05
-3.29925e-07
1.9063e-05
-2.91901e-08
1.89956e-05
2.69895e-07
1.88853e-05
5.65772e-07
1.8733e-05
8.57259e-07
1.85398e-05
1.14412e-06
1.83067e-05
1.42706e-06
1.80352e-05
1.70795e-06
1.77277e-05
1.99004e-06
1.73894e-05
2.2782e-06
1.70302e-05
2.57905e-06
1.6667e-05
2.9005e-06
1.63261e-05
3.2498e-06
1.60424e-05
3.6287e-06
1.58513e-05
4.02596e-06
1.57742e-05
4.41046e-06
1.58021e-05
4.73288e-06
1.589e-05
4.94153e-06
1.59706e-05
5.0054e-06
1.59779e-05
4.92869e-06
1.58668e-05
4.74849e-06
1.56189e-05
4.52199e-06
1.52361e-05
4.31601e-06
1.47309e-05
4.20968e-06
1.41175e-05
4.31813e-06
1.34086e-05
4.82999e-06
1.26091e-05
5.99106e-06
1.16952e-05
7.8906e-06
1.06092e-05
1.01049e-05
9.32942e-06
1.17829e-05
7.95722e-06
1.2795e-05
6.66557e-06
1.43807e-05
5.47827e-06
1.51161e-05
4.27995e-06
1.31507e-05
3.08879e-06
9.18816e-06
1.98049e-06
4.72316e-06
1.38434e-06
9.25479e-07
1.36758e-06
-1.39893e-06
1.56587e-06
-1.85215e-06
1.51967e-06
-8.73954e-07
1.16598e-06
5.40871e-08
5.98833e-07
-3.38393e-08
8.20559e-06
-3.32905e-07
1.00825e-05
-2.68146e-07
-3.1477e-07
-3.99137e-07
-3.13568e-06
-6.70544e-07
-3.10184e-06
-9.98766e-07
-2.61652e-06
-1.32664e-06
-2.17951e-06
-1.62239e-06
-1.88152e-06
-1.86809e-06
-1.72646e-06
-2.05041e-06
-1.70055e-06
-2.15686e-06
-1.79164e-06
-2.17479e-06
-1.99098e-06
-2.0924e-06
-2.29115e-06
-1.90045e-06
-2.6836e-06
-1.59341e-06
-3.15704e-06
-1.17055e-06
-3.69739e-06
-6.35499e-07
-4.28843e-06
5.67938e-09
-4.91519e-06
7.63338e-07
-5.63536e-06
1.61324e-06
-6.38445e-06
2.51018e-06
-7.06015e-06
3.44879e-06
-7.70289e-06
4.44026e-06
-8.30901e-06
5.46386e-06
-8.71895e-06
6.47056e-06
-8.81253e-06
7.41038e-06
-8.58726e-06
8.25096e-06
-8.12034e-06
8.98067e-06
-7.51056e-06
9.60359e-06
-6.84415e-06
1.01328e-05
-6.18376e-06
1.05849e-05
-5.56923e-06
1.09771e-05
-5.02262e-06
1.13247e-05
-4.55347e-06
1.16413e-05
-4.1632e-06
1.19378e-05
-3.8483e-06
1.22232e-05
-3.60245e-06
1.25048e-05
-3.41796e-06
1.27884e-05
-3.28652e-06
1.30784e-05
-3.19973e-06
1.33785e-05
-3.14922e-06
1.36911e-05
-3.12668e-06
1.4018e-05
-3.12384e-06
1.43597e-05
-3.13234e-06
1.47155e-05
-3.14378e-06
1.50835e-05
-3.14973e-06
1.54604e-05
-3.14205e-06
1.58417e-05
-3.11319e-06
1.62219e-05
-3.05668e-06
1.65949e-05
-2.96747e-06
1.69539e-05
-2.84231e-06
1.72925e-05
-2.67979e-06
1.76047e-05
-2.4803e-06
1.7885e-05
-2.24584e-06
1.81285e-05
-1.97974e-06
1.83314e-05
-1.68636e-06
1.84905e-05
-1.37082e-06
1.86037e-05
-1.03874e-06
1.86696e-05
-6.95958e-07
1.8688e-05
-3.4829e-07
1.86593e-05
-5.1526e-10
1.85848e-05
3.44404e-07
1.84663e-05
6.8422e-07
1.83065e-05
1.0171e-06
1.81083e-05
1.34234e-06
1.78751e-05
1.66026e-06
1.76107e-05
1.97233e-06
1.73198e-05
2.28095e-06
1.70086e-05
2.58937e-06
1.66863e-05
2.90133e-06
1.63664e-05
3.22048e-06
1.60673e-05
3.54887e-06
1.58117e-05
3.88426e-06
1.56214e-05
4.21631e-06
1.5508e-05
4.52386e-06
1.54639e-05
4.77698e-06
1.54594e-05
4.94598e-06
1.54508e-05
5.01405e-06
1.53938e-05
4.98568e-06
1.52555e-05
4.88677e-06
1.5018e-05
4.75949e-06
1.46751e-05
4.65888e-06
1.4226e-05
4.65878e-06
1.36702e-05
4.87393e-06
1.30066e-05
5.49361e-06
1.22313e-05
6.76634e-06
1.13246e-05
8.79736e-06
1.02412e-05
1.11882e-05
8.95772e-06
1.30664e-05
7.57692e-06
1.41758e-05
6.3229e-06
1.56347e-05
5.22472e-06
1.62142e-05
4.12079e-06
1.42547e-05
2.89499e-06
1.0414e-05
1.53847e-06
6.07968e-06
5.30026e-07
1.93392e-06
3.27725e-07
-1.19663e-06
6.2391e-07
-2.14834e-06
8.28027e-07
-1.07807e-06
7.3937e-07
1.42744e-07
3.26645e-07
3.78886e-07
8.53224e-06
-2.97019e-07
1.03795e-05
-2.46286e-07
-3.65503e-07
-4.93773e-07
-2.88819e-06
-8.81366e-07
-2.71425e-06
-1.30356e-06
-2.19432e-06
-1.7028e-06
-1.78027e-06
-2.0493e-06
-1.53502e-06
-2.32582e-06
-1.44994e-06
-2.51875e-06
-1.50761e-06
-2.61527e-06
-1.69512e-06
-2.60338e-06
-2.00288e-06
-2.47334e-06
-2.42119e-06
-2.21931e-06
-2.93762e-06
-1.84034e-06
-3.536e-06
-1.34075e-06
-4.19698e-06
-7.29212e-07
-4.89997e-06
-1.19716e-08
-5.63243e-06
8.13994e-07
-6.46133e-06
1.69672e-06
-7.26718e-06
2.59496e-06
-7.95839e-06
3.50724e-06
-8.61517e-06
4.45141e-06
-9.25317e-06
5.4168e-06
-9.68434e-06
6.35956e-06
-9.75529e-06
7.23069e-06
-9.4584e-06
7.99869e-06
-8.88834e-06
8.65431e-06
-8.16618e-06
9.20501e-06
-7.39485e-06
9.66712e-06
-6.64587e-06
1.00598e-05
-5.96192e-06
1.04014e-05
-5.36424e-06
1.07079e-05
-4.8599e-06
1.09921e-05
-4.44741e-06
1.12643e-05
-4.12055e-06
1.15327e-05
-3.87078e-06
1.18034e-05
-3.68866e-06
1.20815e-05
-3.56462e-06
1.2371e-05
-3.48924e-06
1.2675e-05
-3.45329e-06
1.2996e-05
-3.44764e-06
1.33352e-05
-3.46307e-06
1.3693e-05
-3.4901e-06
1.40682e-05
-3.51894e-06
1.44581e-05
-3.53968e-06
1.48587e-05
-3.54261e-06
1.52643e-05
-3.51878e-06
1.56682e-05
-3.46064e-06
1.60633e-05
-3.36258e-06
1.64423e-05
-3.22125e-06
1.67981e-05
-3.03563e-06
1.71246e-05
-2.80681e-06
1.74165e-05
-2.53768e-06
1.76692e-05
-2.23245e-06
1.78792e-05
-1.89636e-06
1.80437e-05
-1.53534e-06
1.81607e-05
-1.15578e-06
1.82291e-05
-7.64351e-07
1.82485e-05
-3.67704e-07
1.82194e-05
2.864e-08
1.81429e-05
4.20926e-07
1.80213e-05
8.0582e-07
1.7858e-05
1.18038e-06
1.76574e-05
1.54295e-06
1.74245e-05
1.89313e-06
1.71651e-05
2.23177e-06
1.68854e-05
2.56062e-06
1.65928e-05
2.88196e-06
1.62961e-05
3.19808e-06
1.6006e-05
3.51052e-06
1.57359e-05
3.81904e-06
1.55e-05
4.12013e-06
1.5311e-05
4.40531e-06
1.51745e-05
4.66039e-06
1.50841e-05
4.86731e-06
1.50206e-05
5.00952e-06
1.49556e-05
5.079e-06
1.486e-05
5.08137e-06
1.47094e-05
5.03732e-06
1.44872e-05
4.98166e-06
1.4182e-05
4.96416e-06
1.37833e-05
5.05749e-06
1.32794e-05
5.37782e-06
1.26584e-05
6.11457e-06
1.19102e-05
7.51459e-06
1.10187e-05
9.68885e-06
9.95085e-06
1.2256e-05
8.68321e-06
1.4334e-05
7.31384e-06
1.55452e-05
6.1231e-06
1.68254e-05
5.15777e-06
1.71796e-05
4.20197e-06
1.52105e-05
3.07318e-06
1.15427e-05
1.74244e-06
7.41042e-06
4.35123e-07
3.24124e-06
-1.95644e-07
-5.65865e-07
-5.88253e-08
-2.28516e-06
3.11838e-07
-1.44873e-06
3.94814e-07
5.97683e-08
-1.00652e-08
7.83765e-07
8.52217e-06
-2.71632e-07
1.06511e-05
-2.7176e-07
-3.65375e-07
-6.25397e-07
-2.53456e-06
-1.10223e-06
-2.23741e-06
-1.58721e-06
-1.70934e-06
-2.02648e-06
-1.341e-06
-2.39355e-06
-1.16796e-06
-2.67263e-06
-1.17086e-06
-2.85078e-06
-1.32946e-06
-2.91604e-06
-1.62986e-06
-2.85818e-06
-2.06074e-06
-2.67018e-06
-2.60919e-06
-2.34969e-06
-3.25811e-06
-1.90001e-06
-3.98568e-06
-1.33023e-06
-4.76676e-06
-6.52904e-07
-5.5773e-06
1.33097e-07
-6.41843e-06
1.0078e-06
-7.33603e-06
1.89345e-06
-8.15283e-06
2.77139e-06
-8.83633e-06
3.63976e-06
-9.48354e-06
4.51669e-06
-1.01301e-05
5.40008e-06
-1.05677e-05
6.25324e-06
-1.06085e-05
7.03051e-06
-1.02357e-05
7.7029e-06
-9.56073e-06
8.2647e-06
-8.72798e-06
8.72739e-06
-7.85754e-06
9.11081e-06
-7.0293e-06
9.43642e-06
-6.28753e-06
9.72347e-06
-5.65129e-06
9.98763e-06
-5.12407e-06
1.02409e-05
-4.7007e-06
1.04923e-05
-4.37193e-06
1.07484e-05
-4.12691e-06
1.10144e-05
-3.95463e-06
1.12942e-05
-3.84442e-06
1.1591e-05
-3.78607e-06
1.19075e-05
-3.7697e-06
1.22452e-05
-3.78541e-06
1.26051e-05
-3.82299e-06
1.29867e-05
-3.8717e-06
1.3388e-05
-3.9202e-06
1.38052e-05
-3.95684e-06
1.42327e-05
-3.97018e-06
1.46638e-05
-3.94982e-06
1.50904e-05
-3.88729e-06
1.55045e-05
-3.77668e-06
1.58983e-05
-3.61502e-06
1.62648e-05
-3.40213e-06
1.65982e-05
-3.14027e-06
1.6894e-05
-2.83345e-06
1.71485e-05
-2.48698e-06
1.73591e-05
-2.10695e-06
1.75238e-05
-1.69997e-06
1.7641e-05
-1.27302e-06
1.771e-05
-8.33356e-07
1.77306e-05
-3.88249e-07
1.77028e-05
5.63536e-08
1.76278e-05
4.95996e-07
1.75075e-05
9.26071e-07
1.73457e-05
1.34221e-06
1.71472e-05
1.74147e-06
1.69179e-05
2.12238e-06
1.66647e-05
2.48497e-06
1.6395e-05
2.83035e-06
1.61167e-05
3.16025e-06
1.58384e-05
3.47634e-06
1.55695e-05
3.7795e-06
1.53195e-05
4.06901e-06
1.50979e-05
4.34167e-06
1.4912e-05
4.59121e-06
1.47641e-05
4.80835e-06
1.4649e-05
4.98238e-06
1.4554e-05
5.10455e-06
1.44607e-05
5.17224e-06
1.43496e-05
5.19254e-06
1.42025e-05
5.18441e-06
1.40039e-05
5.18028e-06
1.37386e-05
5.2294e-06
1.33895e-05
5.40664e-06
1.2936e-05
5.83129e-06
1.23581e-05
6.69242e-06
1.16417e-05
8.23103e-06
1.07761e-05
1.05545e-05
9.74242e-06
1.32897e-05
8.5226e-06
1.55539e-05
7.20541e-06
1.68624e-05
6.10251e-06
1.79283e-05
5.27912e-06
1.8003e-05
4.48068e-06
1.60089e-05
3.50013e-06