/*--------------------------------*- C++ -*----------------------------------*\
| =========                 |                                                 |
| \\      /  F ield         | OpenFOAM: The Open Source CFD Toolbox           |
|  \\    /   O peration     | Version:  4.1                                   |
|   \\  /    A nd           | Web:      www.OpenFOAM.org                      |
|    \\/     M anipulation  |                                                 |
\*---------------------------------------------------------------------------*/
FoamFile
{
    version     2.0;
    format      ascii;
    class       volScalarField;
    location    "1400";
    object      T;
}
// * * * * * * * * * * * * * * * * * * * * * * * * * * * * * * * * * * * * * //

dimensions      [0 0 0 1 0 0 0];

internalField   nonuniform List<scalar> 
5000
(
285.362
284.89
284.618
284.702
284.968
285.174
285.348
285.509
285.664
285.816
285.962
286.101
286.226
286.333
286.414
286.465
286.487
286.483
286.459
286.422
286.38
286.339
286.302
286.272
286.253
286.244
286.245
286.257
286.279
286.31
286.35
286.398
286.452
286.512
286.576
286.643
286.711
286.777
286.841
286.9
286.952
286.996
287.031
287.058
287.077
287.088
287.094
287.095
287.093
287.088
287.083
287.077
287.071
287.064
287.057
287.048
287.036
287.02
287.001
286.976
286.948
286.917
286.888
286.865
286.858
286.875
286.928
287.027
287.175
287.353
287.558
287.805
288.106
288.457
288.797
288.974
288.818
288.386
287.937
287.645
287.63
287.862
287.992
287.602
286.633
285.784
285.453
285.522
285.92
286.442
286.235
285.977
285.743
285.521
285.303
285.116
284.97
284.847
284.735
285.309
284.712
283.716
283.688
283.682
283.687
283.694
283.699
283.703
283.705
283.707
283.707
283.707
283.706
283.704
283.701
283.698
283.696
283.693
283.691
283.689
283.687
283.686
283.685
283.684
283.683
283.683
283.682
283.682
283.681
283.681
283.68
283.68
283.679
283.678
283.678
283.677
283.677
283.676
283.676
283.675
283.675
283.675
283.675
283.675
283.674
283.674
283.674
283.674
283.674
283.673
283.673
283.673
283.672
283.672
283.672
283.672
283.672
283.672
283.672
283.673
283.675
283.679
283.686
283.697
283.717
283.75
283.807
283.903
284.07
284.354
284.785
285.355
286.025
286.721
287.317
287.652
287.609
287.218
286.651
286.108
285.688
285.499
285.678
285.957
285.937
285.649
285.195
284.9
285.379
285.71
285.039
284.649
284.434
284.33
284.329
284.364
284.384
284.384
284.341
284.976
284.499
283.702
283.669
283.66
283.66
283.665
283.669
283.671
283.673
283.674
283.675
283.675
283.674
283.674
283.673
283.674
283.674
283.676
283.678
283.68
283.683
283.686
283.689
283.692
283.695
283.697
283.698
283.699
283.7
283.7
283.7
283.699
283.698
283.697
283.696
283.695
283.694
283.693
283.692
283.691
283.69
283.69
283.689
283.689
283.688
283.688
283.688
283.688
283.687
283.687
283.686
283.685
283.684
283.683
283.681
283.68
283.678
283.676
283.674
283.672
283.67
283.669
283.669
283.672
283.679
283.694
283.723
283.777
283.874
284.041
284.308
284.696
285.197
285.754
286.253
286.559
286.591
286.38
286.035
285.661
285.314
285.054
284.971
285.094
285.237
285.243
285.099
284.938
285.197
285.322
284.679
284.402
284.359
284.393
284.456
284.491
284.491
284.46
284.386
284.89
284.385
283.7
283.659
283.649
283.649
283.653
283.658
283.662
283.665
283.667
283.67
283.673
283.676
283.68
283.684
283.689
283.695
283.701
283.707
283.714
283.72
283.727
283.732
283.737
283.741
283.745
283.748
283.75
283.752
283.753
283.754
283.755
283.755
283.755
283.755
283.755
283.755
283.755
283.755
283.755
283.755
283.755
283.756
283.756
283.757
283.757
283.758
283.758
283.758
283.758
283.758
283.757
283.756
283.755
283.753
283.751
283.748
283.745
283.742
283.738
283.735
283.731
283.727
283.724
283.723
283.725
283.736
283.762
283.816
283.915
284.084
284.339
284.68
285.066
285.416
285.635
285.671
285.541
285.304
285.027
284.768
284.567
284.482
284.559
284.728
284.857
284.876
284.849
285.071
285.117
284.64
284.412
284.43
284.547
284.632
284.622
284.584
284.518
284.42
284.866
284.314
283.701
283.651
283.642
283.645
283.65
283.657
283.663
283.669
283.674
283.68
283.687
283.695
283.703
283.712
283.72
283.729
283.738
283.746
283.754
283.761
283.767
283.773
283.777
283.782
283.785
283.789
283.792
283.794
283.797
283.799
283.801
283.802
283.804
283.805
283.806
283.807
283.808
283.809
283.811
283.812
283.813
283.814
283.816
283.817
283.818
283.819
283.82
283.82
283.821
283.821
283.82
283.82
283.818
283.817
283.815
283.812
283.809
283.805
283.801
283.797
283.792
283.786
283.78
283.775
283.77
283.769
283.775
283.796
283.846
283.941
284.093
284.303
284.544
284.762
284.897
284.92
284.838
284.688
284.51
284.34
284.212
284.165
284.233
284.399
284.574
284.682
284.75
284.971
285.015
284.698
284.54
284.623
284.764
284.768
284.709
284.639
284.556
284.443
284.857
284.266
283.703
283.646
283.64
283.646
283.655
283.665
283.674
283.684
283.693
283.703
283.714
283.725
283.735
283.746
283.755
283.764
283.772
283.778
283.784
283.788
283.792
283.795
283.798
283.801
283.805
283.809
283.813
283.817
283.82
283.824
283.827
283.831
283.834
283.836
283.839
283.842
283.844
283.846
283.849
283.851
283.853
283.855
283.857
283.859
283.86
283.862
283.863
283.864
283.864
283.865
283.865
283.864
283.864
283.862
283.861
283.859
283.856
283.853
283.849
283.845
283.839
283.833
283.826
283.819
283.81
283.803
283.798
283.8
283.816
283.858
283.934
284.045
284.176
284.296
284.371
284.384
284.338
284.255
284.155
284.061
283.992
283.975
284.041
284.194
284.382
284.535
284.663
284.894
284.965
284.778
284.697
284.775
284.789
284.705
284.639
284.594
284.538
284.444
284.847
284.231
283.706
283.643
283.64
283.651
283.665
283.679
283.692
283.705
283.718
283.73
283.743
283.754
283.764
283.773
283.78
283.786
283.79
283.792
283.793
283.794
283.795
283.796
283.798
283.802
283.807
283.812
283.817
283.823
283.828
283.833
283.839
283.843
283.848
283.852
283.856
283.86
283.864
283.867
283.87
283.873
283.876
283.879
283.881
283.883
283.885
283.886
283.888
283.889
283.889
283.89
283.89
283.89
283.89
283.889
283.888
283.887
283.885
283.883
283.88
283.876
283.872
283.866
283.86
283.852
283.844
283.834
283.824
283.817
283.815
283.825
283.853
283.899
283.958
284.014
284.051
284.057
284.035
283.994
283.945
283.898
283.866
283.868
283.931
284.07
284.255
284.428
284.594
284.838
284.943
284.846
284.781
284.711
284.537
284.417
284.392
284.419
284.445
284.413
284.834
284.206
283.707
283.64
283.643
283.66
283.679
283.696
283.712
283.727
283.741
283.754
283.765
283.774
283.781
283.786
283.789
283.79
283.789
283.788
283.786
283.785
283.785
283.786
283.789
283.795
283.801
283.808
283.816
283.823
283.83
283.837
283.844
283.85
283.855
283.861
283.866
283.871
283.875
283.879
283.883
283.886
283.889
283.892
283.894
283.896
283.898
283.899
283.9
283.901
283.901
283.901
283.901
283.901
283.901
283.901
283.9
283.9
283.899
283.898
283.896
283.894
283.891
283.887
283.882
283.875
283.868
283.859
283.848
283.838
283.829
283.824
283.827
283.838
283.857
283.877
283.89
283.892
283.881
283.862
283.839
283.818
283.804
283.815
283.872
283.996
284.173
284.353
284.541
284.798
284.932
284.88
284.747
284.491
284.284
284.235
284.264
284.327
284.386
284.384
284.826
284.186
283.704
283.64
283.649
283.672
283.694
283.714
283.732
283.747
283.76
283.77
283.777
283.782
283.784
283.784
283.783
283.781
283.777
283.774
283.772
283.771
283.772
283.775
283.781
283.789
283.798
283.808
283.818
283.827
283.835
283.843
283.85
283.857
283.863
283.869
283.875
283.88
283.885
283.889
283.893
283.896
283.899
283.901
283.902
283.904
283.904
283.905
283.904
283.904
283.904
283.903
283.903
283.902
283.902
283.902
283.902
283.902
283.901
283.901
283.901
283.9
283.898
283.896
283.893
283.889
283.883
283.876
283.867
283.858
283.847
283.838
283.83
283.827
283.827
283.828
283.829
283.826
283.819
283.81
283.798
283.787
283.782
283.794
283.844
283.954
284.118
284.3
284.498
284.766
284.922
284.879
284.676
284.379
284.228
284.205
284.233
284.299
284.363
284.366
284.822
284.169
283.697
283.641
283.658
283.684
283.71
283.731
283.747
283.76
283.77
283.776
283.778
283.779
283.777
283.774
283.77
283.766
283.762
283.759
283.758
283.759
283.762
283.767
283.777
283.788
283.801
283.814
283.825
283.836
283.846
283.854
283.862
283.869
283.876
283.882
283.887
283.892
283.896
283.899
283.902
283.905
283.906
283.907
283.907
283.906
283.905
283.904
283.902
283.9
283.898
283.896
283.895
283.894
283.893
283.893
283.894
283.894
283.895
283.896
283.897
283.898
283.898
283.897
283.896
283.894
283.891
283.886
283.88
283.872
283.863
283.854
283.844
283.836
283.829
283.823
283.818
283.812
283.805
283.798
283.791
283.784
283.781
283.791
283.833
283.93
284.082
284.261
284.463
284.735
284.903
284.86
284.635
284.379
284.255
284.21
284.213
284.279
284.346
284.353
284.823
284.155
283.689
283.643
283.667
283.697
283.723
283.743
283.757
283.767
283.772
283.773
283.772
283.769
283.764
283.759
283.754
283.75
283.747
283.745
283.746
283.75
283.755
283.764
283.777
283.793
283.809
283.825
283.839
283.851
283.862
283.871
283.879
283.886
283.892
283.897
283.902
283.905
283.908
283.91
283.911
283.911
283.911
283.909
283.906
283.903
283.899
283.895
283.89
283.886
283.883
283.88
283.878
283.876
283.876
283.876
283.877
283.879
283.881
283.883
283.886
283.888
283.89
283.892
283.893
283.893
283.892
283.89
283.886
283.881
283.875
283.867
283.858
283.85
283.841
283.833
283.826
283.819
283.812
283.805
283.798
283.793
283.79
283.798
283.833
283.917
284.057
284.231
284.431
284.698
284.873
284.835
284.631
284.434
284.328
284.242
284.205
284.258
284.33
284.362
284.818
284.142
283.681
283.648
283.677
283.709
283.734
283.751
283.761
283.766
283.767
283.765
283.761
283.756
283.75
283.745
283.74
283.736
283.734
283.734
283.737
283.743
283.751
283.763
283.78
283.801
283.821
283.84
283.857
283.871
283.882
283.891
283.899
283.905
283.91
283.913
283.916
283.918
283.918
283.918
283.916
283.913
283.909
283.903
283.897
283.89
283.883
283.876
283.869
283.863
283.858
283.855
283.852
283.85
283.85
283.851
283.853
283.856
283.86
283.864
283.868
283.873
283.877
283.881
283.884
283.886
283.888
283.888
283.887
283.885
283.881
283.875
283.869
283.862
283.854
283.846
283.838
283.831
283.824
283.817
283.811
283.806
283.803
283.809
283.838
283.911
284.04
284.207
284.402
284.657
284.832
284.811
284.649
284.503
284.415
284.302
284.215
284.235
284.313
284.365
284.795
284.13
283.673
283.653
283.687
283.719
283.741
283.754
283.761
283.762
283.76
283.755
283.749
283.742
283.736
283.73
283.726
283.723
283.722
283.724
283.729
283.737
283.748
283.764
283.786
283.811
283.836
283.858
283.877
283.892
283.903
283.912
283.918
283.923
283.926
283.928
283.928
283.926
283.924
283.919
283.914
283.907
283.898
283.889
283.879
283.868
283.858
283.849
283.84
283.833
283.827
283.823
283.82
283.819
283.82
283.822
283.825
283.829
283.834
283.84
283.847
283.853
283.859
283.866
283.871
283.876
283.88
283.883
283.884
283.884
283.883
283.88
283.875
283.87
283.864
283.857
283.85
283.843
283.836
283.83
283.824
283.819
283.816
283.821
283.845
283.909
284.027
284.187
284.375
284.612
284.784
284.787
284.673
284.567
284.492
284.379
284.247
284.22
284.293
284.356
284.758
284.119
283.666
283.659
283.696
283.726
283.745
283.754
283.757
283.755
283.75
283.744
283.737
283.729
283.722
283.717
283.713
283.71
283.711
283.714
283.721
283.732
283.746
283.766
283.793
283.823
283.852
283.877
283.897
283.913
283.924
283.931
283.936
283.938
283.938
283.937
283.934
283.929
283.922
283.913
283.903
283.892
283.879
283.866
283.853
283.839
283.826
283.815
283.805
283.798
283.792
283.789
283.787
283.787
283.789
283.793
283.797
283.803
283.809
283.816
283.824
283.833
283.841
283.849
283.857
283.864
283.87
283.875
283.879
283.881
283.881
283.88
283.878
283.874
283.87
283.864
283.858
283.852
283.846
283.84
283.835
283.83
283.828
283.833
283.854
283.911
284.019
284.171
284.35
284.568
284.735
284.763
284.694
284.62
284.553
284.446
284.294
284.218
284.271
284.338
284.711
284.109
283.662
283.665
283.703
283.73
283.746
283.752
283.751
283.747
283.74
283.733
283.724
283.716
283.709
283.703
283.7
283.699
283.7
283.705
283.714
283.727
283.744
283.769
283.801
283.836
283.869
283.897
283.918
283.933
283.942
283.948
283.949
283.949
283.945
283.94
283.933
283.924
283.913
283.9
283.886
283.87
283.854
283.838
283.821
283.806
283.792
283.78
283.77
283.763
283.759
283.757
283.758
283.76
283.764
283.769
283.774
283.781
283.789
283.797
283.806
283.815
283.825
283.834
283.843
283.852
283.86
283.867
283.872
283.876
283.878
283.879
283.878
283.876
283.873
283.868
283.863
283.858
283.852
283.847
283.843
283.84
283.839
283.844
283.864
283.916
284.016
284.159
284.33
284.53
284.689
284.739
284.708
284.659
284.599
284.495
284.34
284.228
284.251
284.315
284.656
284.1
283.66
283.671
283.708
283.733
283.745
283.748
283.745
283.739
283.731
283.722
283.712
283.703
283.695
283.69
283.688
283.688
283.691
283.697
283.707
283.723
283.744
283.773
283.811
283.85
283.887
283.916
283.937
283.95
283.958
283.96
283.958
283.954
283.947
283.937
283.926
283.913
283.898
283.881
283.864
283.845
283.826
283.806
283.788
283.771
283.757
283.746
283.737
283.733
283.731
283.732
283.736
283.741
283.747
283.754
283.761
283.769
283.777
283.785
283.794
283.804
283.813
283.824
283.833
283.843
283.852
283.859
283.866
283.871
283.874
283.876
283.877
283.876
283.874
283.87
283.866
283.861
283.856
283.852
283.849
283.848
283.849
283.856
283.875
283.924
284.017
284.152
284.315
284.499
284.651
284.717
284.716
284.688
284.633
284.528
284.376
284.245
284.236
284.293
284.6
284.09
283.66
283.676
283.712
283.733
283.742
283.743
283.738
283.731
283.722
283.711
283.7
283.69
283.682
283.678
283.677
283.679
283.683
283.69
283.702
283.72
283.745
283.78
283.822
283.866
283.905
283.935
283.955
283.965
283.969
283.968
283.962
283.954
283.943
283.93
283.915
283.898
283.88
283.86
283.839
283.818
283.796
283.775
283.756
283.739
283.725
283.715
283.71
283.709
283.712
283.717
283.724
283.733
283.742
283.751
283.76
283.768
283.776
283.784
283.792
283.801
283.81
283.819
283.829
283.838
283.847
283.854
283.861
283.867
283.871
283.874
283.875
283.875
283.873
283.87
283.867
283.862
283.858
283.855
283.854
283.855
283.859
283.868
283.888
283.935
284.023
284.152
284.307
284.478
284.622
284.701
284.722
284.708
284.657
284.549
284.395
284.257
284.227
284.274
284.545
284.082
283.66
283.68
283.714
283.732
283.739
283.738
283.732
283.723
283.713
283.701
283.689
283.678
283.671
283.667
283.668
283.671
283.677
283.685
283.698
283.719
283.749
283.788
283.836
283.884
283.924
283.953
283.97
283.977
283.977
283.972
283.963
283.951
283.936
283.92
283.902
283.882
283.861
283.838
283.815
283.791
283.768
283.745
283.725
283.709
283.697
283.691
283.689
283.693
283.701
283.712
283.724
283.737
283.75
283.761
283.771
283.779
283.786
283.793
283.8
283.807
283.814
283.822
283.83
283.838
283.845
283.853
283.859
283.865
283.869
283.872
283.873
283.873
283.872
283.869
283.866
283.862
283.858
283.857
283.858
283.862
283.87
283.882
283.904
283.95
284.034
284.158
284.307
284.467
284.605
284.691
284.726
284.723
284.672
284.561
284.403
284.262
284.219
284.261
284.494
284.074
283.661
283.682
283.714
283.73
283.735
283.733
283.726
283.716
283.705
283.692
283.679
283.668
283.661
283.659
283.661
283.666
283.672
283.681
283.696
283.72
283.754
283.799
283.852
283.902
283.943
283.97
283.983
283.986
283.982
283.973
283.96
283.945
283.928
283.909
283.888
283.866
283.842
283.817
283.791
283.766
283.74
283.717
283.697
283.682
283.673
283.671
283.676
283.686
283.701
283.717
283.735
283.752
283.767
283.78
283.791
283.8
283.807
283.812
283.816
283.82
283.825
283.83
283.836
283.842
283.848
283.854
283.86
283.865
283.868
283.871
283.872
283.872
283.87
283.868
283.864
283.86
283.857
283.857
283.862
283.87
283.882
283.898
283.923
283.969
284.052
284.173
284.316
284.467
284.599
284.688
284.732
284.733
284.68
284.563
284.402
284.26
284.211
284.25
284.451
284.066
283.661
283.681
283.713
283.728
283.732
283.729
283.721
283.71
283.698
283.684
283.67
283.659
283.654
283.654
283.657
283.662
283.669
283.68
283.696
283.723
283.762
283.813
283.87
283.922
283.961
283.985
283.994
283.993
283.985
283.972
283.957
283.939
283.919
283.898
283.874
283.85
283.824
283.797
283.769
283.741
283.715
283.691
283.672
283.659
283.654
283.658
283.669
283.687
283.708
283.73
283.752
283.772
283.789
283.803
283.815
283.824
283.83
283.834
283.836
283.838
283.839
283.842
283.845
283.849
283.853
283.858
283.862
283.866
283.869
283.87
283.871
283.87
283.868
283.865
283.861
283.857
283.856
283.858
283.867
283.881
283.898
283.918
283.946
283.995
284.077
284.195
284.334
284.477
284.603
284.692
284.739
284.739
284.679
284.556
284.395
284.254
284.203
284.24
284.417
284.059
283.66
283.68
283.71
283.725
283.729
283.725
283.717
283.706
283.692
283.678
283.664
283.655
283.65
283.651
283.654
283.66
283.668
283.679
283.698
283.729
283.774
283.83
283.89
283.942
283.979
283.998
284.002
283.997
283.985
283.97
283.952
283.932
283.91
283.887
283.862
283.835
283.807
283.777
283.747
283.718
283.69
283.667
283.649
283.64
283.64
283.65
283.668
283.692
283.718
283.745
283.768
283.789
283.805
283.819
283.831
283.841
283.849
283.853
283.854
283.854
283.854
283.854
283.855
283.857
283.86
283.862
283.865
283.867
283.869
283.87
283.869
283.868
283.865
283.861
283.857
283.854
283.853
283.86
283.875
283.896
283.92
283.944
283.976
284.026
284.11
284.226
284.36
284.496
284.616
284.702
284.746
284.74
284.671
284.541
284.379
284.243
284.193
284.232
284.391
284.052
283.659
283.678
283.708
283.722
283.726
283.722
283.713
283.702
283.689
283.675
283.662
283.653
283.649
283.65
283.654
283.66
283.669
283.681
283.703
283.738
283.788
283.849
283.912
283.963
283.995
284.009
284.008
283.999
283.985
283.967
283.948
283.926
283.902
283.877
283.849
283.82
283.79
283.758
283.727
283.696
283.668
283.645
283.629
283.623
283.629
283.644
283.668
283.697
283.727
283.753
283.775
283.792
283.806
283.817
283.829
283.841
283.853
283.861
283.864
283.865
283.865
283.864
283.864
283.864
283.865
283.866
283.867
283.868
283.869
283.869
283.867
283.865
283.861
283.857
283.852
283.849
283.851
283.864
283.887
283.917
283.947
283.977
284.011
284.065
284.15
284.264
284.394
284.524
284.635
284.715
284.752
284.735
284.655
284.518
284.357
284.227
284.182
284.224
284.371
284.046
283.658
283.674
283.704
283.719
283.723
283.719
283.711
283.7
283.687
283.674
283.661
283.653
283.65
283.651
283.655
283.662
283.67
283.684
283.709
283.75
283.806
283.872
283.936
283.984
284.01
284.017
284.012
284
283.984
283.965
283.943
283.92
283.895
283.867
283.838
283.807
283.774
283.74
283.707
283.675
283.647
283.625
283.612
283.609
283.619
283.639
283.667
283.697
283.724
283.747
283.764
283.776
283.785
283.794
283.806
283.821
283.839
283.855
283.864
283.868
283.869
283.869
283.868
283.868
283.868
283.868
283.868
283.868
283.867
283.866
283.864
283.86
283.856
283.851
283.846
283.844
283.85
283.87
283.904
283.944
283.983
284.016
284.053
284.11
284.197
284.31
284.435
284.557
284.659
284.729
284.753
284.722
284.629
284.486
284.328
284.207
284.171
284.216
284.355
284.041
283.657
283.67
283.7
283.716
283.72
283.717
283.709
283.699
283.687
283.674
283.662
283.655
283.652
283.653
283.658
283.664
283.673
283.689
283.718
283.765
283.828
283.898
283.961
284.003
284.022
284.024
284.015
284.001
283.983
283.962
283.939
283.914
283.887
283.858
283.826
283.793
283.759
283.724
283.689
283.657
283.629
283.608
283.596
283.597
283.609
283.63
283.658
283.685
283.707
283.723
283.734
283.742
283.749
283.757
283.769
283.787
283.813
283.837
283.853
283.862
283.866
283.867
283.868
283.867
283.867
283.867
283.866
283.865
283.863
283.861
283.858
283.854
283.849
283.844
283.839
283.839
283.851
283.881
283.928
283.981
284.026
284.062
284.102
284.163
284.251
284.362
284.481
284.592
284.683
284.738
284.747
284.699
284.593
284.445
284.293
284.184
284.158
284.21
284.344
284.036
283.655
283.666
283.695
283.711
283.716
283.714
283.708
283.698
283.686
283.674
283.663
283.656
283.654
283.656
283.661
283.668
283.678
283.696
283.731
283.784
283.854
283.926
283.985
284.021
284.032
284.029
284.017
284.001
283.982
283.96
283.936
283.909
283.88
283.849
283.816
283.781
283.744
283.708
283.672
283.64
283.612
283.593
283.583
283.584
283.596
283.616
283.639
283.66
283.676
283.687
283.694
283.701
283.708
283.717
283.729
283.75
283.782
283.813
283.836
283.85
283.857
283.861
283.862
283.862
283.862
283.862
283.861
283.859
283.857
283.854
283.851
283.846
283.841
283.836
283.832
283.834
283.854
283.898
283.961
284.025
284.075
284.114
284.157
284.221
284.311
284.418
284.528
284.627
284.703
284.741
284.73
284.664
284.546
284.397
284.254
284.159
284.146
284.206
284.335
284.032
283.654
283.661
283.689
283.706
283.712
283.711
283.705
283.696
283.684
283.672
283.663
283.658
283.657
283.66
283.665
283.672
283.684
283.706
283.747
283.809
283.884
283.956
284.009
284.035
284.04
284.032
284.019
284.001
283.981
283.958
283.933
283.905
283.874
283.841
283.806
283.769
283.732
283.694
283.658
283.626
283.599
283.579
283.57
283.571
283.581
283.596
283.613
283.627
283.638
283.646
283.653
283.66
283.669
283.68
283.695
283.718
283.755
283.791
283.817
283.833
283.843
283.848
283.851
283.853
283.853
283.853
283.851
283.85
283.848
283.845
283.841
283.837
283.832
283.827
283.824
283.831
283.861
283.923
284.005
284.079
284.131
284.171
284.217
284.283
284.371
284.472
284.572
284.657
284.714
284.731
284.699
284.615
284.488
284.341
284.21
284.132
284.135
284.203
284.329
284.028
283.653
283.656
283.682
283.7
283.707
283.706
283.701
283.691
283.679
283.669
283.662
283.66
283.661
283.665
283.67
283.678
283.692
283.72
283.769
283.838
283.917
283.986
284.03
284.047
284.045
284.035
284.02
284.002
283.981
283.957
283.93
283.9
283.868
283.833
283.797
283.759
283.721
283.682
283.646
283.614
283.587
283.568
283.558
283.557
283.563
283.574
283.585
283.595
283.603
283.611
283.618
283.626
283.637
283.65
283.668
283.694
283.738
283.772
283.796
283.813
283.824
283.831
283.836
283.838
283.84
283.84
283.839
283.838
283.836
283.834
283.83
283.827
283.822
283.818
283.818
283.833
283.88
283.966
284.06
284.134
284.186
284.228
284.278
284.344
284.428
284.52
284.608
284.676
284.711
284.706
284.652
284.552
284.419
284.279
284.165
284.106
284.126
284.202
284.325
284.023
283.654
283.651
283.675
283.692
283.699
283.699
283.692
283.682
283.672
283.665
283.662
283.663
283.666
283.671
283.676
283.685
283.703
283.738
283.796
283.873
283.953
284.015
284.047
284.055
284.049
284.037
284.022
284.003
283.98
283.955
283.927
283.896
283.863
283.827
283.789
283.751
283.712
283.673
283.637
283.605
283.578
283.559
283.549
283.545
283.548
283.554
283.561
283.569
283.577
283.584
283.593
283.602
283.613
283.628
283.648
283.678
283.716
283.751
283.774
283.791
283.802
283.811
283.817
283.82
283.823
283.824
283.824
283.824
283.823
283.821
283.819
283.816
283.812
283.811
283.818
283.849
283.917
284.014
284.109
284.183
284.236
284.283
284.335
284.4
284.478
284.558
284.63
284.678
284.69
284.661
284.588
284.476
284.343
284.214
284.119
284.083
284.12
284.205
284.324
284.019
283.656
283.646
283.668
283.683
283.69
283.688
283.68
283.671
283.665
283.663
283.665
283.668
283.673
283.677
283.683
283.694
283.717
283.762
283.83
283.913
283.989
284.04
284.059
284.06
284.053
284.04
284.023
284.004
283.98
283.954
283.925
283.893
283.859
283.822
283.784
283.744
283.705
283.667
283.631
283.599
283.572
283.553
283.541
283.536
283.536
283.54
283.545
283.553
283.561
283.57
283.579
283.59
283.601
283.615
283.633
283.659
283.693
283.727
283.751
283.767
283.78
283.789
283.795
283.8
283.804
283.806
283.807
283.808
283.808
283.808
283.806
283.805
283.805
283.809
283.828
283.875
283.955
284.054
284.147
284.222
284.279
284.329
284.383
284.446
284.514
284.581
284.633
284.659
284.648
284.597
284.507
284.389
284.261
284.148
284.076
284.064
284.12
284.211
284.324
284.014
283.658
283.641
283.66
283.673
283.677
283.673
283.666
283.662
283.662
283.666
283.671
283.676
283.68
283.684
283.691
283.706
283.737
283.793
283.871
283.955
284.022
284.058
284.068
284.065
284.056
284.043
284.025
284.005
283.981
283.954
283.924
283.891
283.856
283.818
283.78
283.74
283.701
283.663
283.627
283.596
283.57
283.55
283.537
283.53
283.529
283.532
283.538
283.546
283.555
283.566
283.577
283.588
283.599
283.612
283.628
283.65
283.677
283.706
283.729
283.745
283.757
283.767
283.774
283.78
283.784
283.787
283.79
283.792
283.794
283.794
283.795
283.796
283.8
283.813
283.844
283.901
283.985
284.082
284.173
284.249
284.309
284.362
284.416
284.474
284.532
284.582
284.614
284.617
284.583
284.513
284.412
284.293
284.177
284.085
284.039
284.052
284.127
284.22
284.326
284.009
283.658
283.636
283.652
283.662
283.662
283.658
283.656
283.66
283.666
283.674
283.68
283.685
283.688
283.692
283.701
283.722
283.765
283.833
283.917
283.996
284.048
284.07
284.074
284.07
284.06
284.046
284.028
284.007
283.982
283.954
283.923
283.89
283.854
283.817
283.778
283.739
283.699
283.662
283.627
283.595
283.569
283.549
283.536
283.529
283.527
283.53
283.537
283.546
283.557
283.569
283.581
283.593
283.605
283.618
283.632
283.65
283.671
283.692
283.711
283.725
283.737
283.746
283.754
283.76
283.765
283.77
283.773
283.777
283.78
283.782
283.785
283.79
283.799
283.82
283.859
283.922
284.005
284.097
284.185
284.26
284.322
284.377
284.429
284.479
284.525
284.558
284.57
284.551
284.496
284.413
284.307
284.195
284.096
284.03
284.011
284.052
284.142
284.233
284.329
284.003
283.658
283.631
283.643
283.649
283.647
283.649
283.657
283.668
283.678
283.686
283.691
283.694
283.696
283.701
283.715
283.746
283.801
283.88
283.965
284.03
284.065
284.079
284.081
284.075
284.065
284.05
284.031
284.009
283.984
283.955
283.924
283.89
283.855
283.817
283.779
283.739
283.701
283.663
283.629
283.598
283.571
283.551
283.538
283.53
283.529
283.532
283.54
283.55
283.562
283.575
283.588
283.6
283.613
283.625
283.638
283.652
283.667
283.682
283.697
283.709
283.719
283.728
283.735
283.742
283.748
283.753
283.758
283.763
283.767
283.772
283.777
283.786
283.801
283.827
283.87
283.933
284.011
284.097
284.181
284.254
284.316
284.37
284.418
284.459
284.492
284.508
284.5
284.462
284.392
284.302
284.199
284.101
284.025
283.987
283.999
284.066
284.165
284.247
284.331
283.997
283.656
283.627
283.634
283.636
283.641
283.654
283.669
283.683
283.693
283.699
283.701
283.702
283.704
283.712
283.735
283.778
283.847
283.931
284.004
284.053
284.078
284.088
284.087
284.081
284.069
284.054
284.035
284.013
283.987
283.958
283.927
283.893
283.857
283.82
283.782
283.743
283.705
283.668
283.633
283.602
283.576
283.556
283.542
283.534
283.533
283.537
283.545
283.555
283.568
283.581
283.594
283.606
283.618
283.629
283.64
283.651
283.663
283.674
283.686
283.696
283.704
283.712
283.719
283.726
283.732
283.739
283.745
283.75
283.756
283.763
283.771
283.783
283.802
283.831
283.875
283.934
284.006
284.084
284.16
284.23
284.289
284.339
284.381
284.412
284.431
284.432
284.408
284.356
284.277
284.187
284.096
284.017
283.968
283.963
284.01
284.095
284.19
284.26
284.333
283.991
283.655
283.624
283.626
283.632
283.649
283.67
283.688
283.7
283.707
283.709
283.709
283.709
283.713
283.729
283.763
283.821
283.898
283.974
284.033
284.071
284.089
284.095
284.094
284.086
284.075
284.059
284.04
284.018
283.992
283.963
283.932
283.898
283.863
283.826
283.788
283.75
283.712
283.675
283.641
283.61
283.584
283.563
283.548
283.54
283.538
283.541
283.549
283.559
283.571
283.584
283.596
283.608
283.619
283.63
283.64
283.649
283.658
283.667
283.676
283.684
283.692
283.699
283.706
283.713
283.72
283.726
283.733
283.74
283.747
283.756
283.766
283.781
283.802
283.832
283.873
283.926
283.989
284.058
284.125
284.188
284.241
284.285
284.319
284.341
284.347
284.335
284.3
284.241
284.161
284.078
284.004
283.951
283.936
283.97
284.04
284.129
284.214
284.273
284.333
283.984
283.657
283.621
283.622
283.641
283.669
283.692
283.707
283.715
283.717
283.716
283.714
283.716
283.727
283.754
283.802
283.869
283.942
284.008
284.056
284.085
284.099
284.103
284.1
284.093
284.081
284.065
284.046
284.024
283.998
283.97
283.939
283.905
283.871
283.834
283.797
283.76
283.722
283.686
283.652
283.621
283.595
283.573
283.557
283.548
283.544
283.546
283.553
283.562
283.573
283.585
283.596
283.607
283.618
283.627
283.636
283.644
283.652
283.66
283.667
283.675
283.682
283.688
283.695
283.702
283.709
283.716
283.723
283.731
283.74
283.75
283.762
283.777
283.798
283.827
283.864
283.91
283.963
284.021
284.078
284.131
284.177
284.213
284.238
284.251
284.247
284.226
284.185
284.125
284.053
283.983
283.932
283.914
283.939
283.999
284.08
284.164
284.237
284.284
284.331
283.978
283.663
283.622
283.628
283.662
283.691
283.711
283.721
283.724
283.723
283.721
283.721
283.728
283.749
283.787
283.843
283.911
283.978
284.035
284.074
284.097
284.108
284.11
284.107
284.099
284.087
284.072
284.053
284.031
284.006
283.978
283.948
283.915
283.881
283.846
283.81
283.773
283.736
283.701
283.667
283.636
283.609
283.586
283.569
283.558
283.552
283.552
283.556
283.563
283.573
283.583
283.594
283.604
283.614
283.623
283.631
283.639
283.646
283.653
283.66
283.666
283.673
283.679
283.686
283.693
283.7
283.708
283.716
283.724
283.733
283.744
283.756
283.772
283.792
283.818
283.849
283.887
283.931
283.977
284.023
284.065
284.102
284.129
284.146
284.15
284.14
284.114
284.073
284.019
283.961
283.913
283.895
283.914
283.967
284.042
284.123
284.198
284.256
284.292
284.325
283.971
283.675
283.629
283.647
283.685
283.711
283.726
283.73
283.729
283.727
283.726
283.731
283.746
283.775
283.822
283.881
283.947
284.008
284.056
284.089
284.107
284.116
284.117
284.114
284.106
284.095
284.08
284.062
284.04
284.016
283.989
283.96
283.928
283.895
283.861
283.826
283.79
283.755
283.72
283.686
283.655
283.627
283.603
283.584
283.57
283.562
283.559
283.56
283.565
283.572
283.581
283.59
283.6
283.609
283.617
283.625
283.632
283.639
283.646
283.653
283.659
283.666
283.672
283.679
283.686
283.694
283.701
283.709
283.718
283.727
283.738
283.75
283.765
283.783
283.804
283.83
283.86
283.894
283.929
283.964
283.996
284.022
284.041
284.05
284.049
284.035
284.009
283.973
283.932
283.895
283.879
283.895
283.942
284.011
284.088
284.164