/*--------------------------------*- C++ -*----------------------------------*\
| =========                 |                                                 |
| \\      /  F ield         | OpenFOAM: The Open Source CFD Toolbox           |
|  \\    /   O peration     | Version:  4.1                                   |
|   \\  /    A nd           | Web:      www.OpenFOAM.org                      |
|    \\/     M anipulation  |                                                 |
\*---------------------------------------------------------------------------*/
FoamFile
{
    version     2.0;
    format      ascii;
    class       volScalarField;
    location    "1400";
    object      T;
}
// * * * * * * * * * * * * * * * * * * * * * * * * * * * * * * * * * * * * * //

dimensions      [0 0 0 1 0 0 0];

internalField   nonuniform List<scalar> 
1600
(
286.734
286.308
285.9
285.759
285.898
286.136
286.387
286.682
287.01
287.34
287.824
288.059
287.427
286.99
286.57
286.286
285.982
285.69
285.411
285.233
285.332
285.439
285.558
285.696
285.854
286.037
286.244
286.466
286.689
286.914
287.141
287.369
287.597
287.825
288.054
288.286
288.526
288.784
289.067
289.437
285.782
284.675
284.694
284.696
284.681
284.673
284.668
284.665
284.666
284.686
285.225
286.936
285.94
284.727
284.59
284.596
284.606
284.62
284.64
284.658
284.664
284.666
284.665
284.662
284.656
284.65
284.643
284.645
284.669
284.715
284.783
284.875
284.991
285.131
285.291
285.461
285.631
285.764
286.091
287.632
285.494
284.676
284.728
284.722
284.698
284.681
284.668
284.658
284.649
284.643
284.813
286.476
285.555
284.618
284.57
284.585
284.603
284.625
284.652
284.669
284.68
284.687
284.69
284.688
284.683
284.675
284.666
284.655
284.644
284.636
284.632
284.637
284.654
284.686
284.738
284.808
284.894
284.991
285.283
286.868
285.368
284.675
284.775
284.753
284.723
284.699
284.681
284.668
284.657
284.647
284.706
286.212
285.402
284.603
284.572
284.587
284.609
284.637
284.662
284.678
284.695
284.707
284.713
284.715
284.712
284.705
284.697
284.686
284.675
284.663
284.65
284.639
284.629
284.626
284.631
284.649
284.683
284.742
284.968
286.448
285.327
284.748
284.82
284.783
284.743
284.713
284.692
284.676
284.664
284.652
284.67
286.027
285.333
284.602
284.574
284.59
284.614
284.65
284.668
284.687
284.708
284.725
284.735
284.739
284.738
284.733
284.725
284.716
284.705
284.692
284.679
284.664
284.649
284.634
284.622
284.617
284.622
284.652
284.82
286.184
285.297
284.97
284.877
284.804
284.753
284.721
284.699
284.682
284.669
284.655
284.656
285.88
285.307
284.605
284.576
284.593
284.619
284.658
284.673
284.696
284.721
284.742
284.756
284.763
284.763
284.759
284.752
284.743
284.732
284.72
284.706
284.69
284.673
284.654
284.635
284.619
284.609
284.618
284.743
286.004
285.266
285.032
284.888
284.8
284.748
284.718
284.699
284.684
284.671
284.658
284.649
285.747
285.308
284.611
284.58
284.596
284.627
284.662
284.679
284.706
284.735
284.76
284.777
284.786
284.787
284.784
284.777
284.768
284.757
284.745
284.73
284.714
284.695
284.674
284.651
284.629
284.61
284.605
284.698
285.873
285.232
284.996
284.847
284.766
284.725
284.703
284.692
284.682
284.672
284.659
284.647
285.625
285.319
284.618
284.585
284.6
284.638
284.664
284.685
284.716
284.75
284.779
284.798
284.808
284.81
284.806
284.799
284.789
284.778
284.764
284.748
284.73
284.71
284.688
284.664
284.639
284.614
284.601
284.671
285.773
285.188
284.907
284.774
284.716
284.693
284.683
284.68
284.676
284.67
284.66
284.645
285.512
285.33
284.626
284.589
284.604
284.647
284.666
284.691
284.727
284.766
284.798
284.82
284.83
284.831
284.827
284.818
284.806
284.79
284.773
284.755
284.736
284.716
284.694
284.671
284.645
284.619
284.599
284.653
285.694
284.95
284.76
284.688
284.668
284.665
284.667
284.669
284.67
284.668
284.659
284.644
285.406
285.337
284.633
284.591
284.607
284.653
284.668
284.698
284.74
284.783
284.818
284.841
284.851
284.851
284.844
284.832
284.814
284.791
284.767
284.746
284.727
284.709
284.691
284.671
284.648
284.622
284.599
284.64
285.63
284.608
284.613
284.627
284.643
284.655
284.662
284.665
284.667
284.666
284.659
284.644
285.307
285.34
284.639
284.59
284.61
284.657
284.671
284.706
284.754
284.8
284.837
284.861
284.87
284.868
284.858
284.84
284.811
284.778
284.747
284.723
284.706
284.692
284.68
284.665
284.646
284.622
284.599
284.631
285.577
284.566
284.596
284.625
284.648
284.662
284.668
284.669
284.668
284.666
284.658
284.643
285.216
285.338
284.644
284.59
284.614
284.659
284.673
284.716
284.768
284.817
284.855
284.879
284.887
284.882
284.867
284.838
284.794
284.751
284.718
284.695
284.68
284.671
284.664
284.655
284.641
284.62
284.598
284.623
285.533
284.56
284.601
284.636
284.661
284.675
284.679
284.677
284.673
284.667
284.658
284.643
285.132
285.332
284.646
284.592
284.616
284.662
284.676
284.726
284.783
284.833
284.871
284.894
284.9
284.892
284.872
284.825
284.765
284.718
284.688
284.67
284.659
284.654
284.651
284.646
284.635
284.618
284.597
284.618
285.494
284.555
284.608
284.648
284.674
284.686
284.688
284.684
284.677
284.669
284.659
284.642
285.055
285.323
284.648
284.596
284.619
284.664
284.68
284.738
284.798
284.847
284.884
284.905
284.909
284.898
284.87
284.801
284.731
284.688
284.664
284.654
284.648
284.646
284.643
284.639
284.631
284.616
284.595
284.613
285.461
284.551
284.613
284.658
284.685
284.695
284.694
284.688
284.679
284.67
284.659
284.642
284.988
285.311
284.649
284.603
284.621
284.667
284.684
284.75
284.812
284.858
284.892
284.911
284.912
284.899
284.865
284.772
284.701
284.665
284.651
284.65
284.651
284.65
284.646
284.639
284.629
284.614
284.594
284.609
285.432
284.548
284.617
284.667
284.694
284.702
284.698
284.689
284.679
284.67
284.658
284.641
284.928
285.299
284.65
284.61
284.623
284.67
284.689
284.763
284.824
284.866
284.895
284.911
284.911
284.897
284.856
284.747
284.679
284.652
284.648
284.658
284.667
284.668
284.66
284.648
284.632
284.615
284.594
284.606
285.407
284.544
284.62
284.676
284.704
284.71
284.702
284.688
284.677
284.668
284.657
284.64
284.877
285.287
284.651
284.614
284.625
284.673
284.695
284.776
284.834
284.868
284.892
284.906
284.905
284.891
284.845
284.729
284.666
284.648
284.657
284.679
284.696
284.7
284.687
284.665
284.641
284.617
284.594
284.604
285.385
284.54
284.623
284.684
284.713
284.721
284.71
284.689
284.674
284.665
284.655
284.64
284.836
285.276
284.652
284.616
284.629
284.676
284.701
284.788
284.84
284.865
284.884
284.897
284.896
284.882
284.832
284.72
284.663
284.653
284.675
284.712
284.739
284.746
284.727
284.693
284.655
284.623
284.595
284.602
285.366
284.537
284.625
284.692
284.724
284.734
284.725
284.695
284.673
284.662
284.653
284.639
284.808
285.264
284.654
284.614
284.633
284.679
284.708
284.8
284.842
284.857
284.872
284.884
284.884
284.87
284.816
284.715
284.665
284.666
284.702
284.757
284.798
284.806
284.779
284.729
284.675
284.631
284.597
284.601
285.349
284.534
284.627
284.7
284.736
284.752
284.748
284.709
284.676
284.66
284.651
284.638
284.794
285.249
284.656
284.611
284.638
284.681
284.715
284.809
284.839
284.846
284.858
284.869
284.87
284.855
284.8
284.713
284.672
284.684
284.739
284.814
284.871
284.883
284.843
284.773
284.699
284.641
284.6
284.6
285.335
284.531
284.63
284.709
284.75
284.775
284.779
284.736
284.688
284.662
284.65
284.638
284.794
285.232
284.659
284.609
284.644
284.682
284.723
284.815
284.831
284.832
284.842
284.853
284.854
284.839
284.787
284.713
284.682
284.708
284.782
284.881
284.958
284.974
284.916
284.821
284.726
284.652
284.604
284.6
285.323
284.528
284.633
284.718
284.766
284.801
284.817
284.778
284.71
284.669
284.652
284.639
284.804
285.212
284.664
284.611
284.65
284.684
284.731
284.818
284.821
284.817
284.826
284.836
284.837
284.821
284.775
284.713
284.694
284.735
284.831
284.953
285.052
285.073
284.992
284.87
284.752
284.664
284.608
284.6
285.312
284.526
284.636
284.727
284.784
284.83
284.857
284.831
284.741
284.681
284.656
284.645
284.821
285.191
284.674
284.616
284.657
284.685
284.738
284.816
284.809
284.802
284.81
284.819
284.819
284.803
284.762
284.712
284.707
284.766
284.883
285.023
285.143
285.16
285.063
284.915
284.777
284.675
284.612
284.601
285.303
284.524
284.639
284.737
284.802
284.858
284.892
284.871
284.774
284.696
284.662
284.657
284.841
285.17
284.691
284.625
284.664
284.686
284.743
284.811
284.796
284.787
284.793
284.801
284.8
284.784
284.75
284.713
284.721
284.797
284.931
285.081
285.191
285.208
285.116
284.955
284.801
284.687
284.616
284.603
285.296
284.523
284.643
284.746
284.819
284.883
284.918
284.894
284.806
284.714
284.671
284.677
284.862
285.148
284.713
284.638
284.671
284.687
284.747
284.806
284.784
284.772
284.776
284.783
284.781
284.765
284.737
284.713
284.736
284.823
284.964
285.113
285.215
285.23
285.148
284.989
284.825
284.7
284.621
284.604
285.291
284.521
284.646
284.755
284.835
284.904
284.94
284.914
284.831
284.737
284.687
284.702
284.882
285.128
284.73
284.656
284.679
284.688
284.75
284.8
284.773
284.757
284.76
284.765
284.762
284.747
284.724
284.712
284.743
284.837
284.98
285.127
285.223
285.236
285.163
285.015
284.847
284.714
284.627
284.606
285.287
284.519
284.648
284.762
284.848
284.922
284.959
284.933
284.854
284.762
284.71
284.732
284.901
285.108
284.722
284.677
284.687
284.688
284.751
284.795
284.762
284.742
284.743
284.747
284.743
284.729
284.71
284.706
284.742
284.837
284.98
285.126
285.22
285.232
285.166
285.031
284.867
284.728
284.635
284.609
285.285
284.516
284.649
284.767
284.857
284.935
284.975
284.953
284.879
284.792
284.74
284.764
284.918
285.089
284.688
284.701
284.695
284.687
284.751
284.79
284.752
284.729
284.726
284.728
284.723
284.71
284.695
284.695
284.733
284.825
284.964
285.11
285.206
285.221
285.161
285.04
284.885
284.744
284.645
284.614
285.285
284.513
284.65
284.77
284.863
284.944
284.989
284.974
284.907
284.826
284.775
284.798
284.933
285.079
284.68
284.729
284.705
284.687
284.751
284.786
284.744
284.717
284.71
284.709
284.703
284.692
284.679
284.681
284.717
284.802
284.935
285.08
285.182
285.205
285.153
285.044
284.901
284.761
284.656
284.627
285.284
284.509
284.649
284.771
284.865
284.949
285.001
284.995
284.938
284.865
284.816
284.833
284.948
285.078
284.751
284.759
284.716
284.686
284.751
284.783
284.739
284.708
284.696
284.692
284.686
284.675
284.666
284.668
284.699
284.774
284.895
285.036
285.146
285.183
285.144
285.047
284.915
284.779
284.671
284.648
285.284
284.504
284.646
284.77
284.864
284.95
285.009
285.016
284.971
284.906
284.859
284.868
284.963
285.079
284.859
284.791
284.726
284.685
284.75
284.782
284.738
284.704
284.687
284.68
284.673
284.666
284.66
284.664
284.688
284.746
284.848
284.979
285.095
285.15
285.13
285.049
284.93
284.8
284.69
284.68
285.283
284.498
284.642
284.767
284.858
284.944
285.011
285.032
285.003
284.949
284.904
284.904
284.978
285.081
284.931
284.815
284.736
284.684
284.749
284.783
284.74
284.706
284.687
284.678
284.673
284.671
284.672
284.677
284.692
284.731
284.805
284.915
285.03
285.103
285.107
285.046
284.943
284.822
284.716
284.722
285.282
284.491
284.637
284.761
284.849
284.933
285.006
285.041
285.031
284.99
284.95
284.941
284.995
285.084
284.964
284.83
284.742
284.682
284.747
284.785
284.749
284.718
284.7
284.693
284.694
284.7
284.709
284.717
284.724
284.74
284.782
284.859
284.959
285.042
285.07
285.036
284.953
284.846
284.752
284.775
285.281
284.482
284.629
284.753
284.835
284.915
284.99
285.04
285.049
285.025
284.992
284.978
285.012
285.088
284.972
284.834
284.745
284.679
284.743
284.79
284.764
284.742
284.731
284.732
284.744
284.762
284.78
284.792
284.793
284.791
284.801
284.839
284.91
284.986
285.028
285.018
284.959
284.874
284.801
284.84
285.28
284.469
284.619
284.743
284.819
284.891
284.965
285.024
285.052
285.048
285.026
285.012
285.03
285.083
284.959
284.829
284.745
284.675
284.738
284.796
284.784
284.779
284.783
284.799
284.827
284.859
284.888
284.905
284.905
284.894
284.883
284.889
284.923
284.971
285.006
285.007
284.971
284.912
284.865
284.915
285.279
284.453
284.605
284.731
284.802
284.862
284.929
284.993
285.036
285.052
285.046
285.036
285.044
285.058
284.929
284.815
284.74
284.667
284.729
284.802
284.808
284.825
284.852
284.891
284.937
284.986
285.025
285.048
285.052
285.04
285.021
285.008
285.007
285.02
285.031
285.028
285.004
284.967
284.945
284.996
285.278
284.429
284.584
284.715
284.782
284.832
284.887
284.948
284.999
285.031
285.042
285.04
285.042
285.006
284.889
284.798
284.73
284.654
284.714
284.803
284.828
284.871
284.927
284.991
285.058
285.121
285.17
285.199
285.207
285.197
285.175
285.15
285.127
285.112
285.101
285.087
285.067
285.045
285.038
285.081
285.277
284.393
284.55
284.69
284.76
284.802
284.843
284.893
284.943
284.983
285.008
285.015
285.005
284.938
284.847
284.776
284.711
284.632
284.687
284.792
284.832
284.898
284.981
285.069
285.156
285.233
285.291
285.327
285.34
285.333
285.312
285.283
285.251
285.222
285.198
285.175
285.155
285.139
285.135
285.161
285.276
284.328
284.483
284.634
284.718
284.766
284.801
284.835
284.874
284.912
284.942
284.949
284.926
284.866
284.802
284.738
284.671
284.59
284.632
284.751
284.795
284.874
284.974
285.083
285.188
285.281
285.353
285.401
285.425
285.429
285.417
285.394
285.364
285.331
285.301
285.274
285.251
285.233
285.224
285.23
285.277
284.185
284.318
284.436
284.516
284.575
284.623
284.67
284.712
284.753
284.79
284.782
284.757
284.709
284.652
284.605
284.556
284.485
284.487
284.625
284.664
284.729
284.826
284.942
285.063
285.175
285.267
285.334
285.376
285.396
285.399
285.391
285.375
285.355
285.332
285.311
285.291
285.275
285.264
285.26
285.268
)
;

boundaryField
{
    floor
    {
        type            fixedValue;
        value           uniform 340;
    }
    ceiling
    {
        type            fixedValue;
        value           uniform 280;
    }
    fixedWalls
    {
        type            zeroGradient;
    }
    frontAndBack
    {
        type            empty;
    }
}


// ************************************************************************* //
