/*--------------------------------*- C++ -*----------------------------------*\
| =========                 |                                                 |
| \\      /  F ield         | OpenFOAM: The Open Source CFD Toolbox           |
|  \\    /   O peration     | Version:  4.1                                   |
|   \\  /    A nd           | Web:      www.OpenFOAM.org                      |
|    \\/     M anipulation  |                                                 |
\*---------------------------------------------------------------------------*/
FoamFile
{
    version     2.0;
    format      ascii;
    class       surfaceScalarField;
    location    "760";
    object      phi;
}
// * * * * * * * * * * * * * * * * * * * * * * * * * * * * * * * * * * * * * //

dimensions      [0 3 -1 0 0 0 0];

internalField   nonuniform List<scalar> 
9850
(
-4.27544e-06
4.27544e-06
-6.71944e-06
2.44401e-06
-8.37097e-06
1.65153e-06
-9.67027e-06
1.2993e-06
-1.07636e-05
1.09336e-06
-1.16994e-05
9.35721e-07
-1.24861e-05
7.86693e-07
-1.31153e-05
6.29201e-07
-1.35717e-05
4.56492e-07
-1.38389e-05
2.67179e-07
-1.39006e-05
6.16852e-08
-1.3741e-05
-1.59584e-07
-1.33493e-05
-3.91762e-07
-1.27285e-05
-6.20792e-07
-1.18957e-05
-8.32721e-07
-1.08795e-05
-1.0163e-06
-9.71661e-06
-1.16284e-06
-8.44997e-06
-1.26664e-06
-7.1247e-06
-1.32527e-06
-5.78524e-06
-1.33946e-06
-4.47258e-06
-1.31267e-06
-3.22225e-06
-1.25033e-06
-2.06128e-06
-1.16097e-06
-9.89435e-07
-1.07185e-06
8.31518e-08
-1.07259e-06
1.51983e-06
-1.43667e-06
2.28216e-06
-7.62335e-07
2.84318e-06
-5.61017e-07
3.29053e-06
-4.47349e-07
3.65859e-06
-3.68069e-07
3.96811e-06
-3.09518e-07
4.229e-06
-2.60886e-07
4.44726e-06
-2.18259e-07
4.62885e-06
-1.81589e-07
4.78126e-06
-1.52414e-07
4.91374e-06
-1.32478e-07
5.0306e-06
-1.16859e-07
5.11091e-06
-8.03101e-08
5.05135e-06
5.95598e-08
4.68011e-06
3.7124e-07
4.04192e-06
6.38186e-07
3.64546e-06
3.96467e-07
3.84834e-06
-2.02883e-07
3.22869e-06
6.19647e-07
-1.29815e-06
4.52684e-06
-5.88282e-06
4.58468e-06
-6.90487e-06
1.02204e-06
-6.12269e-06
-7.82178e-07
-4.91132e-06
-1.21137e-06
-3.69219e-06
-1.21912e-06
-2.47203e-06
-1.22016e-06
-1.19667e-06
-1.27537e-06
1.73701e-07
-1.37037e-06
1.63568e-06
-1.46198e-06
3.12116e-06
-1.48548e-06
4.47273e-06
-1.35157e-06
5.44526e-06
-9.7253e-07
5.79878e-06
-3.53515e-07
5.40405e-06
3.94725e-07
3.89855e-06
1.5055e-06
5.56202e-07
3.34235e-06
-5.00849e-06
5.56469e-06
-9.34326e-06
4.33477e-06
-1.13231e-05
1.97982e-06
-1.17321e-05
4.09035e-07
-1.1171e-05
-5.61134e-07
-1.00754e-05
-1.09559e-06
-8.78807e-06
-1.28732e-06
-7.56676e-06
-1.22131e-06
-6.51032e-06
-1.05644e-06
-5.60622e-06
-9.04091e-07
-4.80405e-06
-8.02176e-07
-4.0541e-06
-7.49952e-07
-3.31968e-06
-7.34418e-07
-2.57784e-06
-7.41837e-07
-1.81497e-06
-7.6287e-07
-1.01859e-06
-7.96383e-07
-1.72711e-07
-8.45878e-07
6.00116e-07
-7.72827e-07
1.2319e-06
-6.31786e-07
1.77009e-06
-5.38183e-07
2.2355e-06
-4.65417e-07
2.64479e-06
-4.09292e-07
3.00948e-06
-3.64687e-07
3.33242e-06
-3.22942e-07
3.61011e-06
-2.77691e-07
3.84118e-06
-2.31062e-07
4.03054e-06
-1.89364e-07
4.18861e-06
-1.58066e-07
4.32861e-06
-1.40007e-07
4.46442e-06
-1.35809e-07
4.60986e-06
-1.4544e-07
4.7805e-06
-1.70632e-07
4.99702e-06
-2.1652e-07
5.28745e-06
-2.90436e-07
5.67959e-06
-3.92137e-07
6.14942e-06
-4.69833e-07
6.3723e-06
-2.22879e-07
4.95613e-06
1.41617e-06
4.95613e-06
-3.84257e-06
8.11801e-06
-6.48299e-06
5.08442e-06
-8.37655e-06
3.54509e-06
-9.86088e-06
2.78364e-06
-1.10826e-05
2.31509e-06
-1.21004e-05
1.95351e-06
-1.29308e-05
1.61706e-06
-1.35704e-05
1.2688e-06
-1.40074e-05
8.9348e-07
-1.42274e-05
4.87193e-07
-1.42183e-05
5.2604e-08
-1.39768e-05
-4.01073e-07
-1.3504e-05
-8.64567e-07
-1.28087e-05
-1.31606e-06
-1.19101e-05
-1.73133e-06
-1.08371e-05
-2.08931e-06
-9.62648e-06
-2.37347e-06
-8.31994e-06
-2.57318e-06
-6.96076e-06
-2.68445e-06
-5.59065e-06
-2.70956e-06
-4.24721e-06
-2.65612e-06
-2.96145e-06
-2.53609e-06
-1.75496e-06
-2.36745e-06
-6.45361e-07
-2.18145e-06
3.10729e-07
-2.02868e-06
8.82389e-07
-2.00833e-06
1.64385e-06
-1.5238e-06
2.27812e-06
-1.19528e-06
2.79081e-06
-9.60035e-07
3.19238e-06
-7.69643e-07
3.49408e-06
-6.11213e-07
3.71043e-06
-4.7724e-07
3.85462e-06
-3.62452e-07
3.93687e-06
-2.63841e-07
3.96407e-06
-1.79612e-07
3.94026e-06
-1.08668e-07
3.87434e-06
-5.09401e-08
3.79153e-06
2.50129e-09
3.72938e-06
1.21716e-07
3.69698e-06
4.0364e-07
3.74444e-06
5.90722e-07
3.84662e-06
2.94287e-07
3.75071e-06
-1.06969e-07
2.83056e-06
1.5398e-06
-8.19379e-07
8.17677e-06
-4.30535e-06
8.07065e-06
-5.3813e-06
2.09799e-06
-5.05271e-06
-1.11077e-06
-4.40705e-06
-1.85703e-06
-3.60678e-06
-2.0194e-06
-2.67389e-06
-2.15304e-06
-1.62346e-06
-2.32579e-06
-4.69774e-07
-2.52406e-06
7.70566e-07
-2.70232e-06
2.03178e-06
-2.74669e-06
3.16791e-06
-2.4877e-06
3.94707e-06
-1.75169e-06
4.11797e-06
-5.24418e-07
3.46459e-06
1.04811e-06
1.28618e-06
3.68391e-06
-2.23949e-06
6.86802e-06
-5.85988e-06
9.18507e-06
-8.58021e-06
7.0551e-06
-1.02124e-05
3.61198e-06
-1.06796e-05
8.76217e-07
-1.02664e-05
-9.74245e-07
-9.37269e-06
-1.98935e-06
-8.35581e-06
-2.3042e-06
-7.42071e-06
-2.1564e-06
-6.59987e-06
-1.87729e-06
-5.85431e-06
-1.64965e-06
-5.14016e-06
-1.51633e-06
-4.42674e-06
-1.46337e-06
-3.69736e-06
-1.4638e-06
-2.94656e-06
-1.49263e-06
-2.17717e-06
-1.53226e-06
-1.39887e-06
-1.57469e-06
-6.40173e-07
-1.60458e-06
1.01945e-07
-1.51495e-06
7.61265e-07
-1.29111e-06
1.32116e-06
-1.09808e-06
1.81284e-06
-9.57096e-07
2.25664e-06
-8.53094e-07
2.66279e-06
-7.70835e-07
3.02835e-06
-6.88505e-07
3.34082e-06
-5.90155e-07
3.59438e-06
-4.84627e-07
3.79344e-06
-3.88424e-07
3.94891e-06
-3.13533e-07
4.0742e-06
-2.65301e-07
4.18281e-06
-2.44411e-07
4.28722e-06
-2.49856e-07
4.39818e-06
-2.81593e-07
4.52312e-06
-3.4146e-07
4.66321e-06
-4.30526e-07
4.80927e-06
-5.38199e-07
4.94124e-06
-6.01796e-07
4.92294e-06
-2.04581e-07
3.6449e-06
2.69421e-06
8.60103e-06
-3.18453e-06
1.13025e-05
-5.54705e-06
7.44693e-06
-7.37885e-06
5.37689e-06
-8.88543e-06
4.29021e-06
-1.01573e-05
3.58701e-06
-1.12298e-05
3.02596e-06
-1.21093e-05
2.49657e-06
-1.27888e-05
1.94829e-06
-1.32557e-05
1.36042e-06
-1.34971e-05
7.28537e-07
-1.35022e-05
5.77152e-08
-1.32655e-05
-6.37787e-07
-1.27894e-05
-1.34061e-06
-1.20877e-05
-2.01782e-06
-1.11828e-05
-2.63618e-06
-1.01066e-05
-3.16554e-06
-8.89796e-06
-3.58211e-06
-7.59995e-06
-3.87119e-06
-6.25615e-06
-4.02826e-06
-4.90763e-06
-4.05808e-06
-3.59086e-06
-3.97289e-06
-2.33605e-06
-3.79089e-06
-1.16648e-06
-3.53703e-06
-1.02814e-07
-3.24511e-06
8.04605e-07
-2.9361e-06
1.42842e-06
-2.63215e-06
2.08619e-06
-2.18157e-06
2.65992e-06
-1.76902e-06
3.12234e-06
-1.42245e-06
3.47904e-06
-1.12634e-06
3.73938e-06
-8.71549e-07
3.91513e-06
-6.52997e-07
4.01859e-06
-4.65906e-07
4.06021e-06
-3.05465e-07
4.04733e-06
-1.66731e-07
3.98318e-06
-4.45155e-08
3.86592e-06
6.63198e-08
3.69325e-06
1.75168e-07
3.51315e-06
3.01813e-07
3.45517e-06
4.61621e-07
3.50843e-06
5.37466e-07
3.42628e-06
3.76432e-07
2.95473e-06
3.64589e-07
1.96445e-06
2.53008e-06
-7.54905e-07
1.08961e-05
-3.19075e-06
1.05065e-05
-4.05529e-06
2.96253e-06
-4.19529e-06
-9.70779e-07
-4.00132e-06
-2.051e-06
-3.57479e-06
-2.44593e-06
-2.9774e-06
-2.75043e-06
-2.25031e-06
-3.05289e-06
-1.4281e-06
-3.34627e-06
-5.55085e-07
-3.57533e-06
3.13459e-07
-3.61523e-06
1.07144e-06
-3.24569e-06
1.52717e-06
-2.20742e-06
1.33825e-06
-3.35491e-07
4.87878e-08
2.33757e-06
-2.05579e-06
5.78849e-06
-4.32412e-06
9.13635e-06
-6.12001e-06
1.0981e-05
-7.78364e-06
8.71873e-06
-8.87554e-06
4.70388e-06
-9.1971e-06
1.19778e-06
-8.85971e-06
-1.31164e-06
-8.15673e-06
-2.69232e-06
-7.43165e-06
-3.02928e-06
-6.81384e-06
-2.77421e-06
-6.26229e-06
-2.42884e-06
-5.71809e-06
-2.19385e-06
-5.14645e-06
-2.08797e-06
-4.53334e-06
-2.07648e-06
-3.87793e-06
-2.11922e-06
-3.18801e-06
-2.18255e-06
-2.47848e-06
-2.24179e-06
-1.77377e-06
-2.27939e-06
-1.10489e-06
-2.27346e-06
-4.36236e-07
-2.1836e-06
2.27198e-07
-1.95454e-06
8.09579e-07
-1.68046e-06
1.32815e-06
-1.47567e-06
1.81373e-06
-1.33868e-06
2.28111e-06
-1.23821e-06
2.71852e-06
-1.12592e-06
3.089e-06
-9.60631e-07
3.37497e-06
-7.70605e-07
3.58011e-06
-5.93562e-07
3.71934e-06
-4.5276e-07
3.81083e-06
-3.56795e-07
3.87107e-06
-3.04644e-07
3.91181e-06
-2.90595e-07
3.93787e-06
-3.07655e-07
3.94538e-06
-3.48975e-07
3.92068e-06
-4.05821e-07
3.83729e-06
-4.54811e-07
3.64699e-06
-4.11497e-07
3.31229e-06
1.30119e-07
2.48325e-06
3.52326e-06
1.10843e-05
-2.68949e-06
1.3992e-05
-4.73627e-06
9.49371e-06
-6.43221e-06
7.07283e-06
-7.90806e-06
5.76606e-06
-9.19818e-06
4.87714e-06
-1.03059e-05
4.13365e-06
-1.12215e-05
3.41215e-06
-1.19306e-05
2.65742e-06
-1.24182e-05
1.84803e-06
-1.26709e-05
9.81258e-07
-1.26796e-05
6.63844e-08
-1.24403e-05
-8.77071e-07
-1.19587e-05
-1.82217e-06
-1.12504e-05
-2.72614e-06
-1.03409e-05
-3.54571e-06
-9.26499e-06
-4.24141e-06
-8.06451e-06
-4.78259e-06
-6.78406e-06
-5.15163e-06
-5.46743e-06
-5.34489e-06
-4.15453e-06
-5.37098e-06
-2.8797e-06
-5.24772e-06
-1.66974e-06
-5.00084e-06
-5.45931e-07
-4.66084e-06
4.52181e-07
-4.24322e-06
1.30851e-06
-3.79243e-06
1.98745e-06
-3.31109e-06
2.60205e-06
-2.79616e-06
3.13083e-06
-2.2978e-06
3.55443e-06
-1.84605e-06
3.87342e-06
-1.44533e-06
4.09585e-06
-1.09399e-06
4.23284e-06
-7.89986e-07
4.2969e-06
-5.29966e-07
4.30014e-06
-3.08704e-07
4.25271e-06
-1.19294e-07
4.16183e-06
4.63572e-08
4.03183e-06
1.96327e-07
3.86734e-06
3.39659e-07
3.68816e-06
4.80991e-07
3.53623e-06
6.13547e-07
3.38966e-06
6.84033e-07
3.11663e-06
6.49469e-07
2.54073e-06
9.40488e-07
1.53666e-06
3.53415e-06
-8.06354e-07
1.32391e-05
-2.67973e-06
1.23799e-05
-3.40465e-06
3.68745e-06
-3.73008e-06
-6.45342e-07
-3.78704e-06
-1.99404e-06
-3.63614e-06
-2.59683e-06
-3.33646e-06
-3.05011e-06
-2.9384e-06
-3.45095e-06
-2.48553e-06
-3.79914e-06
-2.02417e-06
-4.0367e-06
-1.61947e-06
-4.01993e-06
-1.37151e-06
-3.49365e-06
-1.44617e-06
-2.13276e-06
-2.04977e-06
2.68102e-07
-3.14698e-06
3.43478e-06
-4.25745e-06
6.89896e-06
-5.28488e-06
1.01638e-05
-6.07912e-06
1.17752e-05
-6.98803e-06
9.62765e-06
-7.66999e-06
5.38584e-06
-7.83625e-06
1.36403e-06
-7.52311e-06
-1.62478e-06
-7.01391e-06
-3.20151e-06
-6.61936e-06
-3.42383e-06
-6.322e-06
-3.07157e-06
-6.0119e-06
-2.73894e-06
-5.63334e-06
-2.57241e-06
-5.17447e-06
-2.54684e-06
-4.64284e-06
-2.60811e-06
-4.05346e-06
-2.70859e-06
-3.42514e-06
-2.81087e-06
-2.78079e-06
-2.88614e-06
-2.14817e-06
-2.91201e-06
-1.55141e-06
-2.87022e-06
-9.87098e-07
-2.74791e-06
-4.0989e-07
-2.53175e-06
1.58306e-07
-2.24866e-06
6.86848e-07
-2.00421e-06
1.20668e-06
-1.8585e-06
1.74942e-06
-1.78096e-06
2.29718e-06
-1.67368e-06
2.76383e-06
-1.42728e-06
3.11188e-06
-1.11865e-06
3.34433e-06
-8.26016e-07
3.48213e-06
-5.90558e-07
3.55066e-06
-4.25322e-07
3.57242e-06
-3.26406e-07
3.56264e-06
-2.80815e-07
3.52608e-06
-2.71094e-07
3.45576e-06
-2.78659e-07
3.33418e-06
-2.84238e-07
3.13576e-06
-2.56391e-07
2.83817e-06
-1.1391e-07
2.47551e-06
4.92781e-07
1.90312e-06
4.09565e-06
1.29874e-05
-2.3071e-06
1.62991e-05
-4.09581e-06
1.12824e-05
-5.6463e-06
8.62333e-06
-7.0512e-06
7.17096e-06
-8.31079e-06
6.13672e-06
-9.40614e-06
5.229e-06
-1.03158e-05
4.32181e-06
-1.10202e-05
3.36181e-06
-1.15022e-05
2.33007e-06
-1.17479e-05
1.22688e-06
-1.17468e-05
6.53626e-08
-1.1497e-05
-1.12692e-06
-1.10044e-05
-2.31477e-06
-1.02871e-05
-3.44348e-06
-9.37377e-06
-4.459e-06
-8.30291e-06
-5.31227e-06
-7.1192e-06
-5.9663e-06
-5.86852e-06
-6.40231e-06
-4.59422e-06
-6.61919e-06
-3.33392e-06
-6.63128e-06
-2.11866e-06
-6.46298e-06
-9.72801e-07
-6.14671e-06
7.96392e-08
-5.71328e-06
1.01834e-06
-5.18193e-06
1.82747e-06
-4.60156e-06
2.51768e-06
-4.00129e-06
3.11317e-06
-3.39166e-06
3.61273e-06
-2.79735e-06
4.00779e-06
-2.24111e-06
4.29754e-06
-1.73508e-06
4.48812e-06
-1.28457e-06
4.58971e-06
-8.91577e-07
4.61486e-06
-5.55108e-07
4.57697e-06
-2.70823e-07
4.48891e-06
-3.12282e-08
4.36082e-06
1.74443e-07
4.2008e-06
3.56349e-07
4.01571e-06
5.24749e-07
3.81102e-06
6.8568e-07
3.59056e-06
8.34004e-07
3.32993e-06
9.44662e-07
2.95836e-06
1.02104e-06
2.33135e-06
1.5675e-06
1.25038e-06
4.61511e-06
-8.78532e-07
1.5368e-05
-2.38279e-06
1.38841e-05
-3.05135e-06
4.35601e-06
-3.48818e-06
-2.08508e-07
-3.71463e-06
-1.76759e-06
-3.77521e-06
-2.53625e-06
-3.73048e-06
-3.09484e-06
-3.63897e-06
-3.54246e-06
-3.55276e-06
-3.88535e-06
-3.51913e-06
-4.07033e-06
-3.58601e-06
-3.95304e-06
-3.80158e-06
-3.27808e-06
-4.18797e-06
-1.74637e-06
-4.70753e-06
7.87662e-07
-5.18013e-06
3.90738e-06
-5.55021e-06
7.26904e-06
-5.70033e-06
1.03139e-05
-5.70766e-06
1.17825e-05
-6.00965e-06
9.92964e-06
-6.36717e-06
5.74335e-06
-6.41826e-06
1.41513e-06
-6.15997e-06
-1.88307e-06
-5.94097e-06
-3.42052e-06
-5.92088e-06
-3.44392e-06
-5.90896e-06
-3.0835e-06
-5.78209e-06
-2.86581e-06
-5.5218e-06
-2.8327e-06
-5.14816e-06
-2.92048e-06
-4.6876e-06
-3.06866e-06
-4.16505e-06
-3.23115e-06
-3.60422e-06
-3.37171e-06
-3.02982e-06
-3.46054e-06
-2.46798e-06
-3.47385e-06
-1.9413e-06
-3.39689e-06
-1.459e-06
-3.23021e-06
-9.96306e-07
-2.99445e-06
-5.12548e-07
-2.73241e-06
-6.84388e-09
-2.50991e-06
5.28312e-07
-2.39366e-06
1.13894e-06
-2.39158e-06
1.81973e-06
-2.35447e-06
2.40635e-06
-2.0139e-06
2.8331e-06
-1.54541e-06
3.10465e-06
-1.09757e-06
3.2504e-06
-7.3631e-07
3.30447e-06
-4.79385e-07
3.29643e-06
-3.18363e-07
3.24605e-06
-2.30444e-07
3.16056e-06
-1.85602e-07
3.03453e-06
-1.52632e-07
2.85574e-06
-1.05444e-07
2.61085e-06
-1.15039e-08
2.29959e-06
1.97352e-07
1.96389e-06
8.28485e-07
1.54016e-06
4.51937e-06
1.45276e-05
-1.99406e-06
1.82932e-05
-3.5697e-06
1.28581e-05
-4.97654e-06
1.00302e-05
-6.28156e-06
8.47598e-06
-7.46861e-06
7.32378e-06
-8.50866e-06
6.26905e-06
-9.37471e-06
5.18786e-06
-1.00442e-05
4.0313e-06
-1.0498e-05
2.78386e-06
-1.07198e-05
1.44864e-06
-1.06968e-05
4.24069e-08
-1.04269e-05
-1.39681e-06
-9.91746e-06
-2.82422e-06
-9.18912e-06
-4.17182e-06
-8.27439e-06
-5.37373e-06
-7.21533e-06
-6.37134e-06
-6.05968e-06
-7.12195e-06
-4.85346e-06
-7.60853e-06
-3.63854e-06
-7.83411e-06
-2.44857e-06
-7.82125e-06
-1.30938e-06
-7.60217e-06
-2.41983e-07
-7.21411e-06
7.23914e-07
-6.67918e-06
1.59317e-06
-6.05118e-06
2.36471e-06
-5.37311e-06
3.03568e-06
-4.67227e-06
3.60931e-06
-3.96528e-06
4.08374e-06
-3.27179e-06
4.45445e-06
-2.61182e-06
4.72025e-06
-2.00089e-06
4.88513e-06
-1.44945e-06
4.95741e-06
-9.6386e-07
4.94871e-06
-5.46408e-07
4.87271e-06
-1.94819e-07
4.74337e-06
9.81076e-08
4.57366e-06
3.44158e-07
4.37376e-06
5.56248e-07
4.15049e-06
7.48021e-07
3.90568e-06
9.30491e-07
3.63338e-06
1.1063e-06
3.31053e-06
1.26751e-06
2.8946e-06
1.43697e-06
2.21335e-06
2.24875e-06
1.03619e-06
5.79227e-06
-9.48907e-07
1.73531e-05
-2.19506e-06
1.51303e-05
-2.87059e-06
5.03153e-06
-3.40891e-06
3.29817e-07
-3.76274e-06
-1.41377e-06
-3.97994e-06
-2.31904e-06
-4.13e-06
-2.94478e-06
-4.27991e-06
-3.39255e-06
-4.48775e-06
-3.67752e-06
-4.79357e-06
-3.76451e-06
-5.20809e-06
-3.53852e-06
-5.69717e-06
-2.78901e-06
-6.16714e-06
-1.2764e-06
-6.44194e-06
1.06246e-06
-6.49129e-06
3.95673e-06
-6.2896e-06
7.06736e-06
-5.79692e-06
9.82122e-06
-5.17778e-06
1.11634e-05
-4.92869e-06
9.68055e-06
-4.96781e-06
5.78248e-06
-4.93025e-06
1.37756e-06
-4.84007e-06
-1.97325e-06
-5.03645e-06
-3.22413e-06
-5.37217e-06
-3.1082e-06
-5.55928e-06
-2.89639e-06
-5.5417e-06
-2.88339e-06
-5.35662e-06
-3.01777e-06
-5.04887e-06
-3.22823e-06
-4.65363e-06
-3.4639e-06
-4.19814e-06
-3.68664e-06
-3.70564e-06
-3.86421e-06
-3.19865e-06
-3.96753e-06
-2.70029e-06
-3.97221e-06
-2.23207e-06
-3.86511e-06
-1.80716e-06
-3.65512e-06
-1.41852e-06
-3.38309e-06
-1.03195e-06
-3.11898e-06
-6.00496e-07
-2.94137e-06
-8.52543e-08
-2.9089e-06
5.56039e-07
-3.03288e-06
1.3563e-06
-3.15473e-06
2.06588e-06
-2.72347e-06
2.57357e-06
-2.0531e-06
2.88625e-06
-1.41025e-06
3.04272e-06
-8.9278e-07
3.0866e-06
-5.23264e-07
3.05527e-06
-2.87037e-07
2.97346e-06
-1.48637e-07
2.85112e-06
-6.32622e-08
2.69099e-06
7.50629e-09
2.48875e-06
9.67963e-08
2.23636e-06
2.40884e-07
1.93046e-06
5.03248e-07
1.60341e-06
1.15553e-06
1.27329e-06
4.84949e-06
1.58008e-05
-1.73195e-06
2.00251e-05
-3.11884e-06
1.4245e-05
-4.37889e-06
1.12902e-05
-5.56194e-06
9.65903e-06
-6.64535e-06
8.40719e-06
-7.59749e-06
7.22119e-06
-8.39003e-06
5.98041e-06
-8.99921e-06
4.64048e-06
-9.40424e-06
3.18889e-06
-9.58659e-06
1.631e-06
-9.52837e-06
-1.5817e-08
-9.2295e-06
-1.69568e-06
-8.69801e-06
-3.35571e-06
-7.95764e-06
-4.91218e-06
-7.0456e-06
-6.28577e-06
-6.00732e-06
-7.40961e-06
-4.89344e-06
-8.23584e-06
-3.74821e-06
-8.75376e-06
-2.61059e-06
-8.97173e-06
-1.50825e-06
-8.92359e-06
-4.62698e-07
-8.64772e-06
5.01306e-07
-8.17811e-06
1.38375e-06
-7.56162e-06
2.18726e-06
-6.85469e-06
2.90942e-06
-6.09527e-06
3.54337e-06
-5.30622e-06
4.08519e-06
-4.5071e-06
4.53108e-06
-3.71768e-06
4.87688e-06
-2.95762e-06
5.1205e-06
-2.2445e-06
5.26367e-06
-1.59262e-06
5.31234e-06
-1.01253e-06
5.27632e-06
-5.10392e-07
5.16864e-06
-8.71335e-08
5.00238e-06
2.64364e-07
4.79191e-06
5.54632e-07
4.54921e-06
7.98947e-07
4.28182e-06
1.01541e-06
3.99207e-06
1.22025e-06
3.67437e-06
1.424e-06
3.31276e-06
1.62912e-06
2.87277e-06
1.87696e-06
2.15403e-06
2.96749e-06
8.87568e-07
7.05874e-06
-1.00679e-06
1.92475e-05
-2.09889e-06
1.62224e-05
-2.8279e-06
5.76054e-06
-3.45873e-06
9.60645e-07
-3.90754e-06
-9.64961e-07
-4.22859e-06
-1.99799e-06
-4.50285e-06
-2.67052e-06
-4.80329e-06
-3.0921e-06
-5.19072e-06
-3.29009e-06
-5.69804e-06
-3.25719e-06
-6.30815e-06
-2.92842e-06
-6.93278e-06
-2.16437e-06
-7.4095e-06
-7.99673e-07
-7.56775e-06
1.22071e-06
-7.34619e-06
3.73517e-06
-6.75295e-06
6.47411e-06
-5.80991e-06
8.87819e-06
-4.71527e-06
1.00688e-05
-3.96351e-06
8.92879e-06
-3.65515e-06
5.47411e-06
-3.54986e-06
1.27227e-06
-3.789e-06
-1.7341e-06
-4.44539e-06
-2.56774e-06
-4.99565e-06
-2.55795e-06
-5.25497e-06
-2.63707e-06
-5.27699e-06
-2.86137e-06
-5.13354e-06
-3.16122e-06
-4.87546e-06
-3.48632e-06
-4.53731e-06
-3.80205e-06
-4.14351e-06
-4.08043e-06
-3.71322e-06
-4.2945e-06
-3.26419e-06
-4.41656e-06
-2.81514e-06
-4.42125e-06
-2.3858e-06
-4.29446e-06
-1.99313e-06
-4.04779e-06
-1.64274e-06
-3.73348e-06
-1.3164e-06
-3.44532e-06
-9.65957e-07
-3.29181e-06
-5.23316e-07
-3.35154e-06
8.2563e-08
-3.63876e-06
9.31996e-07
-4.00416e-06
1.74661e-06
-3.53809e-06
2.32968e-06
-2.63617e-06
2.68432e-06
-1.76488e-06
2.85497e-06
-1.06343e-06
2.89337e-06
-5.61662e-07
2.84474e-06
-2.38405e-07
2.73868e-06
-4.25823e-08
2.59427e-06
8.11538e-08
2.41985e-06
1.8192e-07
2.21079e-06
3.05865e-07
1.9576e-06
4.94069e-07
1.65711e-06
8.03739e-07
1.3391e-06
1.47355e-06
1.07741e-06
5.11118e-06
1.68783e-05
-1.50837e-06
2.15335e-05
-2.7202e-06
1.54568e-05
-3.82723e-06
1.23972e-05
-4.87073e-06
1.07025e-05
-5.82758e-06
9.36404e-06
-6.66747e-06
8.06108e-06
-7.36313e-06
6.67606e-06
-7.891e-06
5.16835e-06
-8.22943e-06
3.52731e-06
-8.35781e-06
1.75938e-06
-8.25345e-06
-1.20177e-07
-7.91641e-06
-2.03271e-06
-7.35775e-06
-3.91438e-06
-6.60493e-06
-5.665e-06
-5.70162e-06
-7.18908e-06
-4.69508e-06
-8.41615e-06
-3.63845e-06
-9.29247e-06
-2.57161e-06
-9.82059e-06
-1.52832e-06
-1.0015e-05
-5.29909e-07
-9.922e-06
4.02928e-07
-9.58055e-06
1.2623e-06
-9.03748e-06
2.0579e-06
-8.35722e-06
2.79022e-06
-7.587e-06
3.45134e-06
-6.7564e-06
4.0345e-06
-5.88938e-06
4.53428e-06
-5.00687e-06
4.94549e-06
-4.12889e-06
5.26319e-06
-3.27531e-06
5.48392e-06
-2.46523e-06
5.60719e-06
-1.7159e-06
5.63636e-06
-1.0417e-06
5.57884e-06
-4.52862e-07
5.4457e-06
4.60029e-08
5.24921e-06
4.60853e-07
5.00349e-06
8.00353e-07
4.72115e-06
1.08128e-06
4.41212e-06
1.32443e-06
4.0811e-06
1.55127e-06
3.72508e-06
1.78001e-06
3.33225e-06
2.02196e-06
2.87826e-06
2.33095e-06
2.13908e-06
3.70667e-06
8.01791e-07
8.39603e-06
-1.03736e-06
2.10867e-05
-2.07912e-06
1.72642e-05
-2.90538e-06
6.5868e-06
-3.61811e-06
1.67337e-06
-4.13065e-06
-4.52418e-07
-4.50568e-06
-1.62296e-06
-4.83609e-06
-2.34011e-06
-5.19705e-06
-2.73115e-06
-5.6489e-06
-2.83824e-06
-6.22216e-06
-2.68393e-06
-6.89374e-06
-2.25684e-06
-7.56374e-06
-1.49437e-06
-8.05796e-06
-3.05455e-07
-8.18985e-06
1.3526e-06
-7.87418e-06
3.4195e-06
-7.08896e-06
5.68889e-06
-5.89148e-06
7.6807e-06
-4.49049e-06
8.66776e-06
-3.34082e-06
7.77912e-06
-2.72173e-06
4.85502e-06
-2.6794e-06
1.22993e-06
-3.35409e-06
-1.0594e-06
-4.21399e-06
-1.70785e-06
-4.74708e-06
-2.02485e-06
-4.97079e-06
-2.41337e-06
-4.98362e-06
-2.84853e-06
-4.85515e-06
-3.28969e-06
-4.63032e-06
-3.71115e-06
-4.33784e-06
-4.09452e-06
-3.99613e-06
-4.42214e-06
-3.61806e-06
-4.67257e-06
-3.21501e-06
-4.81962e-06
-2.80002e-06
-4.83624e-06
-2.38989e-06
-4.70458e-06
-2.0049e-06
-4.43279e-06
-1.66319e-06
-4.07518e-06
-1.3662e-06
-3.74232e-06
-1.07924e-06
-3.57877e-06
-7.27534e-07
-3.70324e-06
-2.16904e-07
-4.14939e-06
5.54908e-07
-4.77597e-06
1.4319e-06
-4.41508e-06
2.07798e-06
-3.28224e-06
2.47683e-06
-2.16373e-06
2.66962e-06
-1.25623e-06
2.71178e-06
-6.03826e-07
2.65454e-06
-1.81164e-07
2.53588e-06
7.60793e-08
2.38184e-06
2.35194e-07
2.20077e-06
3.62985e-07
1.98913e-06
5.17508e-07
1.73935e-06
7.43848e-07
1.44917e-06
1.09392e-06
1.14475e-06
1.77796e-06
9.33312e-07
5.32262e-06
1.78116e-05
-1.31306e-06
2.28466e-05
-2.35906e-06
1.65028e-05
-3.30791e-06
1.33461e-05
-4.19921e-06
1.15938e-05
-5.01326e-06
1.01781e-05
-5.72312e-06
8.77094e-06
-6.30384e-06
7.25679e-06
-6.73315e-06
5.59766e-06
-6.98927e-06
3.78344e-06
-7.04897e-06
1.81909e-06
-6.89247e-06
-2.76679e-07
-6.50779e-06
-2.4174e-06
-5.91738e-06
-4.50479e-06
-5.15233e-06
-6.43005e-06
-4.26609e-06
-8.07532e-06
-3.30446e-06
-9.37778e-06
-2.32153e-06
-1.02754e-05
-1.35004e-06
-1.07921e-05
-4.16119e-07
-1.09489e-05
4.6145e-07
-1.07996e-05
1.27231e-06
-1.03914e-05
2.02965e-06
-9.79482e-06
2.73682e-06
-9.06439e-06
3.38772e-06
-8.2379e-06
3.97674e-06
-7.34542e-06
4.4985e-06
-6.41114e-06
4.94749e-06
-5.45586e-06
5.31782e-06
-4.49922e-06
5.60353e-06
-3.56102e-06
5.79965e-06
-2.66135e-06
5.90355e-06
-1.8198e-06
5.91604e-06
-1.05419e-06
5.84204e-06
-3.78864e-07
5.68952e-06
1.9853e-07
5.46959e-06
6.80779e-07
5.19559e-06
1.07436e-06
4.88076e-06
1.39611e-06
4.53721e-06
1.66798e-06
4.17251e-06
1.91597e-06
3.78695e-06
2.16556e-06
3.3723e-06
2.43661e-06
2.90771e-06
2.79554e-06
2.16806e-06
4.44632e-06
7.88936e-07
9.77515e-06
-1.01408e-06
2.28897e-05
-2.11425e-06
1.83643e-05
-3.08525e-06
7.5578e-06
-3.87748e-06
2.4656e-06
-4.41933e-06
8.94275e-08
-4.80449e-06
-1.2378e-06
-5.13477e-06
-2.00983e-06
-5.48564e-06
-2.38027e-06
-5.91415e-06
-2.40973e-06
-6.4492e-06
-2.14888e-06
-7.07353e-06
-1.63251e-06
-7.70348e-06
-8.64412e-07
-8.18806e-06
1.79126e-07
-8.35579e-06
1.52033e-06
-8.07985e-06
3.14356e-06
-7.29715e-06
4.9062e-06
-6.05546e-06
6.43901e-06
-4.55683e-06
7.16913e-06
-3.22372e-06
6.44601e-06
-2.50605e-06
4.13735e-06
-2.67298e-06
1.39686e-06
-3.49405e-06
-2.38333e-07
-4.18473e-06
-1.01716e-06
-4.55626e-06
-1.65333e-06
-4.68831e-06
-2.28131e-06
-4.66116e-06
-2.87569e-06
-4.52763e-06
-3.42322e-06
-4.32131e-06
-3.91747e-06
-4.06219e-06
-4.35365e-06
-3.76125e-06
-4.72308e-06
-3.42455e-06
-5.00926e-06
-3.05676e-06
-5.18741e-06
-2.66462e-06
-5.22838e-06
-2.26058e-06
-5.10862e-06
-1.86589e-06
-4.82748e-06
-1.5098e-06
-4.43127e-06
-1.21727e-06
-4.03485e-06
-9.78277e-07
-3.81777e-06
-7.21784e-07
-3.95974e-06
-3.49392e-07
-4.52178e-06
2.54786e-07
-5.38015e-06
1.12118e-06
-5.28148e-06
1.80587e-06
-3.96693e-06
2.2474e-06
-2.60526e-06
2.47054e-06
-1.47937e-06
2.52783e-06
-6.61117e-07
2.47405e-06
-1.27377e-07
2.35393e-06
1.96199e-07
2.19735e-06
3.91771e-07
2.01546e-06
5.44876e-07
1.80652e-06
7.26446e-07
1.56453e-06
9.85839e-07
1.28825e-06
1.3702e-06
1.00005e-06
2.06616e-06
8.22936e-07
5.49974e-06
1.86345e-05
-1.139e-06
2.39856e-05
-2.02688e-06
1.73907e-05
-2.81546e-06
1.41347e-05
-3.54739e-06
1.23257e-05
-4.20853e-06
1.08392e-05
-4.77636e-06
9.33876e-06
-5.2291e-06
7.70953e-06
-5.54665e-06
5.91521e-06
-5.70871e-06
3.9455e-06
-5.69202e-06
1.8024e-06
-5.4717e-06
-4.97e-07
-5.03072e-06
-2.85838e-06
-4.40511e-06
-5.13039e-06
-3.62899e-06
-7.20617e-06
-2.77036e-06
-8.93395e-06
-1.86921e-06
-1.02789e-05
-9.77307e-07
-1.11673e-05
-1.15641e-07
-1.16538e-05
6.91577e-07
-1.17562e-05
1.43711e-06
-1.15451e-05
2.13605e-06
-1.10904e-05
2.79183e-06
-1.04506e-05
3.40116e-06
-9.67372e-06
3.9614e-06
-8.79813e-06
4.46962e-06
-7.85364e-06
4.92203e-06
-6.86355e-06
5.3136e-06
-5.84743e-06
5.63808e-06
-4.82371e-06
5.88857e-06
-3.81151e-06
6.05854e-06
-2.83132e-06
6.14326e-06
-1.90452e-06
6.14107e-06
-1.052e-06
6.05435e-06
-2.92148e-07
5.88759e-06
3.65288e-07
5.6511e-06
9.17276e-07
5.3568e-06
1.36866e-06
5.01857e-06
1.73433e-06
4.64996e-06
2.03659e-06
4.26119e-06
2.30475e-06
3.85573e-06
2.57102e-06
3.42801e-06
2.86433e-06
2.96075e-06
3.2628e-06
2.25008e-06
5.15699e-06
8.72896e-07
1.11523e-05
-8.95832e-07
2.46584e-05
-2.17231e-06
1.96408e-05
-3.34234e-06
8.72782e-06
-4.22256e-06
3.34582e-06
-4.76572e-06
6.32588e-07
-5.1231e-06
-8.80417e-07
-5.40916e-06
-1.72376e-06
-5.70243e-06
-2.08701e-06
-6.05575e-06
-2.05641e-06
-6.49474e-06
-1.70989e-06
-7.00783e-06
-1.11942e-06
-7.5335e-06
-3.38738e-07
-7.96102e-06
6.06647e-07
-8.1497e-06
1.709e-06
-7.96624e-06
2.9601e-06
-7.31792e-06
4.25788e-06
-6.22185e-06
5.34294e-06
-4.85775e-06
5.80503e-06
-3.62238e-06
5.21065e-06
-3.01924e-06
3.5342e-06
-3.24699e-06
1.62462e-06
-3.81162e-06
3.26292e-07
-4.19991e-06
-6.28877e-07
-4.37491e-06
-1.47832e-06
-4.3975e-06
-2.25872e-06
-4.31706e-06
-2.95613e-06
-4.16701e-06
-3.57327e-06
-3.96783e-06
-4.11665e-06
-3.73013e-06
-4.59135e-06
-3.45796e-06
-4.99526e-06
-3.15158e-06
-5.31564e-06
-2.81013e-06
-5.52885e-06
-2.43468e-06
-5.60384e-06
-2.03247e-06
-5.51083e-06
-1.62234e-06
-5.2376e-06
-1.23915e-06
-4.81447e-06
-9.29585e-07
-4.34441e-06
-7.18849e-07
-4.0285e-06
-5.52438e-07
-4.12615e-06
-3.21162e-07
-4.75305e-06
8.41982e-08
-5.78551e-06
8.35357e-07
-6.03264e-06
1.52215e-06
-4.65372e-06
1.9984e-06
-3.08151e-06
2.25569e-06
-1.73666e-06
2.33636e-06
-7.41785e-07
2.29563e-06
-8.66439e-08
2.18242e-06
3.09403e-07
2.03033e-06
5.43867e-07
1.85331e-06
7.2189e-07
1.65157e-06
9.28191e-07
1.42069e-06
1.21672e-06
1.16055e-06
1.63034e-06
8.90097e-07
2.33661e-06
7.34497e-07
5.65534e-06
1.9369e-05
-9.82419e-07
2.4968e-05
-1.72027e-06
1.81285e-05
-2.35036e-06
1.47648e-05
-2.92117e-06
1.28966e-05
-3.42512e-06
1.13432e-05
-3.84445e-06
9.75809e-06
-4.16102e-06
8.0261e-06
-4.35766e-06
6.11185e-06
-4.41717e-06
4.005e-06
-4.31892e-06
1.70415e-06
-4.02766e-06
-7.88259e-07
-3.51643e-06
-3.36962e-06
-2.85262e-06
-5.7942e-06
-2.07056e-06
-7.98822e-06
-1.25413e-06
-9.75039e-06
-4.31442e-07
-1.11016e-05
3.54976e-07
-1.19537e-05
1.08482e-06
-1.23836e-05
1.75993e-06
-1.24313e-05
2.39108e-06
-1.21762e-05
2.97931e-06
-1.16786e-05
3.52477e-06
-1.09961e-05
4.0285e-06
-1.01774e-05
4.49129e-06
-9.26092e-06
4.91277e-06
-8.27512e-06
5.29071e-06
-7.2415e-06
5.62071e-06
-6.17743e-06
5.89631e-06
-5.0993e-06
6.10968e-06
-4.02487e-06
6.25279e-06
-2.97443e-06
6.31887e-06
-1.9706e-06
6.30383e-06
-1.03696e-06
6.20745e-06
-1.95769e-07
6.03139e-06
5.41351e-07
5.78405e-06
1.16462e-06
5.47694e-06
1.67577e-06
5.12444e-06
2.08683e-06
4.74122e-06
2.41981e-06
4.33954e-06
2.70643e-06
3.92575e-06
2.98482e-06
3.49699e-06
3.29309e-06
3.0403e-06
3.71949e-06
2.39866e-06
5.79863e-06
1.07779e-06
1.24732e-05
-6.27141e-07
2.63633e-05
-2.20039e-06
2.12141e-05
-3.63341e-06
1.01608e-05
-4.63301e-06
4.34542e-06
-5.16815e-06
1.16774e-06
-5.45662e-06
-5.91949e-07
-5.6629e-06
-1.51749e-06
-5.86879e-06
-1.88112e-06
-6.12268e-06
-1.80251e-06
-6.4456e-06
-1.38698e-06
-6.82849e-06
-7.36528e-07
-7.22658e-06
5.93584e-08
-7.56281e-06
9.42875e-07
-7.73503e-06
1.88122e-06
-7.6297e-06
2.85477e-06
-7.15761e-06
3.78579e-06
-6.31585e-06
4.50119e-06
-5.24877e-06
4.73795e-06
-4.28469e-06
4.24657e-06
-3.81333e-06
3.06284e-06
-3.87832e-06
1.68961e-06
-4.07678e-06
5.24752e-07
-4.1846e-06
-5.21054e-07
-4.18307e-06
-1.47985e-06
-4.10491e-06
-2.33688e-06
-3.97302e-06
-3.08803e-06
-3.80292e-06
-3.74337e-06
-3.60273e-06
-4.31684e-06
-3.37492e-06
-4.81916e-06
-3.11839e-06
-5.25179e-06
-2.82996e-06
-5.60407e-06
-2.50562e-06
-5.85319e-06
-2.14273e-06
-5.96673e-06
-1.74402e-06
-5.90954e-06
-1.32365e-06
-5.65797e-06
-9.14505e-07
-5.22362e-06
-5.74647e-07
-4.68427e-06
-3.66302e-07
-4.23685e-06
-2.66249e-07
-4.2262e-06
-1.6333e-07
-4.85597e-06
5.16954e-08
-6.00054e-06
6.00492e-07
-6.58144e-06
1.24913e-06
-5.30236e-06
1.74734e-06
-3.57972e-06
2.03732e-06
-2.02663e-06
2.14456e-06
-8.49026e-07
2.12202e-06
-6.41072e-08
2.02068e-06
4.10739e-07
1.87718e-06
6.87371e-07
1.70843e-06
8.90636e-07
1.51666e-06
1.11997e-06
1.29899e-06
1.43438e-06
1.05639e-06
1.87295e-06
8.04796e-07
2.5882e-06
6.61269e-07
5.79886e-06
2.00303e-05
-8.41819e-07
2.58098e-05
-1.43946e-06
1.87262e-05
-1.91695e-06
1.52423e-05
-2.33018e-06
1.33098e-05
-2.67834e-06
1.16914e-05
-2.9482e-06
1.0028e-05
-3.12525e-06
8.20315e-06
-3.19568e-06
6.18228e-06
-3.146e-06
3.95533e-06
-2.96436e-06
1.5225e-06
-2.59519e-06
-1.15742e-06
-1.99109e-06
-3.97372e-06
-1.2921e-06
-6.49319e-06
-5.24578e-07
-8.75574e-06
2.37061e-07
-1.0512e-05
9.51188e-07
-1.18157e-05
1.61477e-06
-1.26173e-05
2.22505e-06
-1.29939e-05
2.78909e-06
-1.29953e-05
3.30407e-06
-1.26912e-05
3.77352e-06
-1.2148e-05
4.20245e-06
-1.1425e-05
4.59588e-06
-1.05709e-05
4.95774e-06
-9.62278e-06
5.28987e-06
-8.60725e-06
5.59136e-06
-7.54299e-06
5.85832e-06
-6.44439e-06
6.0841e-06
-5.32508e-06
6.26002e-06
-4.2008e-06
6.37664e-06
-3.09105e-06
6.42522e-06
-2.01919e-06
6.39936e-06
-1.01109e-06
6.29623e-06
-9.26444e-08
6.11582e-06
7.2177e-07
5.86414e-06
1.4163e-06
5.55184e-06
1.98806e-06
5.19352e-06
2.44516e-06
4.80511e-06
2.80822e-06
4.40108e-06
3.11046e-06
3.99095e-06
3.39495e-06
3.57547e-06
3.70857e-06
3.14757e-06
4.14739e-06
2.61979e-06
6.32642e-06
1.40578e-06
1.36872e-05
-1.76033e-07
2.79451e-05
-2.09681e-06
2.31348e-05
-3.86246e-06
1.19265e-05
-5.0466e-06
5.52956e-06
-5.59425e-06
1.71539e-06
-5.78498e-06
-4.01219e-07
-5.88567e-06
-1.4168e-06
-5.98919e-06
-1.7776e-06
-6.13777e-06
-1.65393e-06
-6.34705e-06
-1.1777e-06
-6.60849e-06
-4.7508e-07
-6.88841e-06
3.39275e-07
-7.13086e-06
1.18532e-06
-7.26548e-06
2.01584e-06
-7.2084e-06
2.79769e-06
-6.89104e-06
3.46843e-06
-6.30598e-06
3.91612e-06
-5.55395e-06
3.98592e-06
-4.85703e-06
3.54965e-06
-4.44412e-06
2.64993e-06
-4.30202e-06
1.54751e-06
-4.22361e-06
4.46341e-07
-4.12024e-06
-6.24418e-07
-3.98814e-06
-1.61195e-06
-3.83464e-06
-2.49038e-06
-3.66316e-06
-3.25951e-06
-3.47475e-06
-3.93178e-06
-3.26751e-06