/*--------------------------------*- C++ -*----------------------------------*\
| =========                 |                                                 |
| \\      /  F ield         | OpenFOAM: The Open Source CFD Toolbox           |
|  \\    /   O peration     | Version:  4.1                                   |
|   \\  /    A nd           | Web:      www.OpenFOAM.org                      |
|    \\/     M anipulation  |                                                 |
\*---------------------------------------------------------------------------*/
FoamFile
{
    version     2.0;
    format      ascii;
    class       volVectorField;
    location    "760";
    object      U;
}
// * * * * * * * * * * * * * * * * * * * * * * * * * * * * * * * * * * * * * //

dimensions      [0 1 -1 0 0 0 0];

internalField   nonuniform List<vector> 
5000
(
(-0.00379341 0.00279445 0)
(-0.0057028 0.00140216 0)
(-0.00765309 0.000896933 0)
(-0.00908218 0.000692348 0)
(-0.0102648 0.000577908 0)
(-0.0112767 0.000492866 0)
(-0.0121393 0.000414223 0)
(-0.01285 0.00033244 0)
(-0.0133957 0.000243599 0)
(-0.0137598 0.000146204 0)
(-0.0139251 3.93601e-05 0)
(-0.0138754 -7.82587e-05 0)
(-0.0135952 -0.000205227 0)
(-0.0130814 -0.000333061 0)
(-0.0123454 -0.000453645 0)
(-0.0114108 -0.000560197 0)
(-0.0103113 -0.000647303 0)
(-0.00908751 -0.000711221 0)
(-0.00778407 -0.000750153 0)
(-0.00644647 -0.000764373 0)
(-0.00511811 -0.000756211 0)
(-0.00383707 -0.000730132 0)
(-0.00263194 -0.000695136 0)
(-0.00152555 -0.000677329 0)
(-0.000578005 -0.000746475 0)
(0.000826999 -0.00114155 0)
(0.00191044 -0.000578781 0)
(0.00260478 -0.000362298 0)
(0.00308879 -0.000264303 0)
(0.0034859 -0.000211584 0)
(0.00382471 -0.00018016 0)
(0.00411016 -0.000157881 0)
(0.0043488 -0.000139676 0)
(0.00454764 -0.000124617 0)
(0.00471356 -0.000113429 0)
(0.0048545 -0.000107228 0)
(0.00497764 -0.000103065 0)
(0.00508093 -8.40803e-05 0)
(0.0051064 -8.77832e-07 0)
(0.00491244 0.000193414 0)
(0.00440281 0.000395859 0)
(0.00381065 0.00029755 0)
(0.00367657 -9.13561e-05 0)
(0.00375535 0.000249665 0)
(0.00313207 0.00266135 0)
(-0.00569827 0.00276753 0)
(-0.00679975 0.000370765 0)
(-0.00656384 -0.000583891 0)
(-0.00550774 -0.000818782 0)
(-0.00430815 -0.000809335 0)
(-0.00308826 -0.000796454 0)
(-0.00183463 -0.000823489 0)
(-0.00052567 -0.000885478 0)
(0.000890799 -0.000962314 0)
(0.00239599 -0.00100533 0)
(0.003803 -0.000948953 0)
(0.00495532 -0.000743765 0)
(0.00564166 -0.000387638 0)
(0.00570678 5.14638e-05 0)
(0.00486962 0.000603895 0)
(0.00325338 0.00146461 0)
(-0.00150712 0.00325663 0)
(-0.00847916 0.00274613 0)
(-0.0109264 0.00103928 0)
(-0.0117927 7.31505e-05 0)
(-0.0115609 -0.000442492 0)
(-0.0106366 -0.000740847 0)
(-0.00940719 -0.000858925 0)
(-0.00814822 -0.000826832 0)
(-0.00701701 -0.000724172 0)
(-0.00604529 -0.000619679 0)
(-0.00519889 -0.000542966 0)
(-0.00442766 -0.000497975 0)
(-0.00368802 -0.000478913 0)
(-0.00294804 -0.000478511 0)
(-0.00218838 -0.000492032 0)
(-0.00141563 -0.000520013 0)
(-0.000698226 -0.000562749 0)
(0.000327666 -0.000504219 0)
(0.000928727 -0.000416942 0)
(0.0015011 -0.000353445 0)
(0.00201067 -0.000302253 0)
(0.00245282 -0.00026139 0)
(0.00284011 -0.000228796 0)
(0.00318258 -0.000200398 0)
(0.00348184 -0.000172909 0)
(0.0037356 -0.00014677 0)
(0.00394488 -0.000124494 0)
(0.00411688 -0.000108435 0)
(0.00426356 -9.98342e-05 0)
(0.00439882 -9.88974e-05 0)
(0.00453678 -0.000105551 0)
(0.00469207 -0.000120713 0)
(0.00488258 -0.000147413 0)
(0.00513255 -0.000190656 0)
(0.00546948 -0.000252377 0)
(0.00589263 -0.000305973 0)
(0.0063028 -0.000190682 0)
(0.00593822 0.000633041 0)
(0.00489538 0.00298603 0)
(-0.00331619 0.00610229 0)
(-0.0052841 0.00371079 0)
(-0.00755981 0.00255693 0)
(-0.00919674 0.00200746 0)
(-0.0105321 0.00167739 0)
(-0.0116467 0.00142492 0)
(-0.0125707 0.00118942 0)
(-0.0133075 0.0009439 0)
(-0.0138478 0.000677217 0)
(-0.0141783 0.000386289 0)
(-0.0142847 7.21949e-05 0)
(-0.0141519 -0.000262237 0)
(-0.0137882 -0.000608146 0)
(-0.0131967 -0.000946667 0)
(-0.012391 -0.001259 0)
(-0.0113956 -0.00152921 0)
(-0.0102443 -0.0017448 0)
(-0.00897704 -0.00189753 0)
(-0.00763697 -0.001984 0)
(-0.00626706 -0.00200548 0)
(-0.00490687 -0.00196714 0)
(-0.00358999 -0.00187712 0)
(-0.00234501 -0.00174896 0)
(-0.00120103 -0.00161711 0)
(-0.000134495 -0.00156056 0)
(0.000675848 -0.00172292 0)
(0.00125736 -0.00110462 0)
(0.00195134 -0.000848052 0)
(0.00254392 -0.000683492 0)
(0.00300863 -0.000556169 0)
(0.00336145 -0.000453448 0)
(0.0036198 -0.000366962 0)
(0.00379874 -0.000292278 0)
(0.00391057 -0.000228203 0)
(0.00396413 -0.000175014 0)
(0.00396477 -0.000133448 0)
(0.00391777 -0.000100042 0)
(0.00383323 -5.82648e-05 0)
(0.00375243 9.43293e-05 0)
(0.00371577 0.000429159 0)
(0.00371551 0.000683763 0)
(0.00378126 0.000390128 0)
(0.00380498 -0.000186613 0)
(0.00345526 0.000929241 0)
(0.00283605 0.00608042 0)
(-0.00444974 0.00610908 0)
(-0.00505573 0.0014008 0)
(-0.00521863 -0.00106446 0)
(-0.00473391 -0.00164271 0)
(-0.00402757 -0.00171272 0)
(-0.00315535 -0.00177264 0)
(-0.00215539 -0.00188869 0)
(-0.00104765 -0.00204751 0)
(0.000134196 -0.00220493 0)
(0.00140658 -0.0022658 0)
(0.00259325 -0.00208566 0)
(0.0035285 -0.00154068 0)
(0.00401917 -0.000607375 0)
(0.00390887 0.000572882 0)
(0.00274682 0.00207054 0)
(0.000128274 0.0047646 0)
(-0.00388819 0.0073303 0)
(-0.00793463 0.00556681 0)
(-0.00984406 0.00273328 0)
(-0.0106876 0.00060658 0)
(-0.0105696 -0.000783377 0)
(-0.00980559 -0.00158126 0)
(-0.00882486 -0.00185415 0)
(-0.00786242 -0.00175275 0)
(-0.0070013 -0.00151915 0)
(-0.00622748 -0.00131115 0)
(-0.00550169 -0.00117689 0)
(-0.00478931 -0.00111205 0)
(-0.0040674 -0.00109736 0)
(-0.00332372 -0.0011136 0)
(-0.00255747 -0.00114788 0)
(-0.00179061 -0.00119651 0)
(-0.0010716 -0.00125069 0)
(-0.000241412 -0.00116458 0)
(0.000464288 -0.000950086 0)
(0.00104766 -0.00079698 0)
(0.00157669 -0.000683916 0)
(0.00204747 -0.000599337 0)
(0.00247203 -0.000532921 0)
(0.00285734 -0.000470511 0)
(0.00319686 -0.000401783 0)
(0.00348043 -0.000330795 0)
(0.00370628 -0.000267361 0)
(0.00388197 -0.000219439 0)
(0.00402015 -0.000191028 0)
(0.00413474 -0.000183056 0)
(0.00423905 -0.000195584 0)
(0.00434493 -0.000230352 0)
(0.00446169 -0.000292055 0)
(0.00459373 -0.000386221 0)
(0.00473536 -0.000508386 0)
(0.00485676 -0.00059994 0)
(0.0049249 -0.000295581 0)
(0.00435637 0.00189439 0)
(0.00391164 0.00650839 0)
(-0.00274077 0.00959757 0)
(-0.00438702 0.00621495 0)
(-0.00658476 0.00443235 0)
(-0.0082043 0.00351442 0)
(-0.00958179 0.00293035 0)
(-0.0107512 0.0024696 0)
(-0.0117279 0.00203675 0)
(-0.0125091 0.00158823 0)
(-0.0130841 0.00110629 0)
(-0.0134395 0.000587269 0)
(-0.0135619 3.62645e-05 0)
(-0.0134382 -0.000536656 0)
(-0.0130751 -0.00111813 0)
(-0.0124783 -0.00168137 0)
(-0.0116659 -0.00219761 0)
(-0.0106656 -0.00264124 0)
(-0.00951367 -0.00299205 0)
(-0.00825176 -0.00323726 0)
(-0.0069238 -0.00337241 0)
(-0.00557233 -0.0034008 0)
(-0.00423547 -0.00333187 0)
(-0.00294655 -0.00318027 0)
(-0.00174032 -0.0029693 0)
(-0.000649505 -0.00273853 0)
(0.000404423 -0.00249895 0)
(0.00115274 -0.00230307 0)
(0.00177001 -0.00186978 0)
(0.00237531 -0.00150455 0)
(0.00290183 -0.00120936 0)
(0.00331768 -0.000963193 0)
(0.00362735 -0.000754849 0)
(0.00384458 -0.000577309 0)
(0.00398283 -0.000425237 0)
(0.00405391 -0.000294404 0)
(0.00406699 -0.000181193 0)
(0.00402732 -8.24374e-05 0)
(0.00393535 4.18657e-06 0)
(0.00378847 7.87005e-05 0)
(0.00360442 0.00019599 0)
(0.00347474 0.000405387 0)
(0.0034749 0.00051459 0)
(0.00348277 0.000248809 0)
(0.0031958 1.98633e-05 0)
(0.0024565 0.00196583 0)
(0.00209275 0.00944785 0)
(-0.0035476 0.00923144 0)
(-0.00365473 0.00250252 0)
(-0.00409127 -0.00110736 0)
(-0.0041236 -0.00202741 0)
(-0.00381649 -0.00230803 0)
(-0.00329431 -0.00253301 0)
(-0.00262182 -0.00278131 0)
(-0.00183787 -0.00304283 0)
(-0.000984581 -0.00326747 0)
(-0.000121069 -0.0033413 0)
(0.000688293 -0.00307712 0)
(0.00128022 -0.0022534 0)
(0.00147448 -0.000804621 0)
(0.000992547 0.00127722 0)
(-0.000875604 0.00482647 0)
(-0.0029485 0.00823799 0)
(-0.00502706 0.0101634 0)
(-0.00735357 0.00791614 0)
(-0.00866692 0.00414486 0)
(-0.00923488 0.000985728 0)
(-0.00907959 -0.00121191 0)
(-0.00845275 -0.00244495 0)
(-0.00774093 -0.00278857 0)
(-0.00710935 -0.00257787 0)
(-0.00654706 -0.00224194 0)
(-0.0060053 -0.00198766 0)
(-0.00544691 -0.00185072 0)
(-0.00485202 -0.00180708 0)
(-0.00421424 -0.00182224 0)
(-0.00353683 -0.00186604 0)
(-0.00283229 -0.00191677 0)
(-0.0021254 -0.00196045 0)
(-0.00144758 -0.00197581 0)
(-0.000800219 -0.00189801 0)
(-7.89626e-05 -0.00165467 0)
(0.000531666 -0.00140726 0)
(0.00107741 -0.00122797 0)
(0.00158059 -0.00109969 0)
(0.00205628 -0.000999848 0)
(0.00251034 -0.000897315 0)
(0.0029184 -0.000768093 0)
(0.00324956 -0.000626993 0)
(0.0034952 -0.000497676 0)
(0.00366526 -0.000396105 0)
(0.00377757 -0.000328739 0)
(0.00385058 -0.000295565 0)
(0.00389914 -0.000293886 0)
(0.00393212 -0.000321346 0)
(0.0039503 -0.000376834 0)
(0.00394455 -0.000457572 0)
(0.00389332 -0.000547063 0)
(0.003751 -0.000570489 0)
(0.00338228 -8.94191e-05 0)
(0.00276281 0.00310156 0)
(0.00303947 0.00977097 0)
(-0.00229146 0.012661 0)
(-0.00365798 0.00847662 0)
(-0.00569167 0.00622329 0)
(-0.00722999 0.00502186 0)
(-0.00861045 0.00422375 0)
(-0.00981039 0.00357134 0)
(-0.0108244 0.00294692 0)
(-0.0116391 0.00229705 0)
(-0.0122393 0.00160017 0)
(-0.0126105 0.000852305 0)
(-0.0127397 6.07991e-05 0)
(-0.0126145 -0.000759656 0)
(-0.0122465 -0.00158396 0)
(-0.0116431 -0.00237515 0)
(-0.0108246 -0.00309526 0)
(-0.00982185 -0.00370958 0)
(-0.00867401 -0.00419085 0)
(-0.00742511 -0.00452269 0)
(-0.00611978 -0.00470063 0)
(-0.00479963 -0.00473077 0)
(-0.00350124 -0.00462765 0)
(-0.00225883 -0.00441428 0)
(-0.00110948 -0.0041239 0)
(-3.42028e-05 -0.00377347 0)
(0.00093254 -0.00337279 0)
(0.00166408 -0.00296877 0)
(0.0023083 -0.00249426 0)
(0.00287779 -0.00204167 0)
(0.00335694 -0.00164153 0)
(0.00373151 -0.00129244 0)
(0.00400303 -0.000989476 0)
(0.00418186 -0.000728674 0)
(0.00428076 -0.000505669 0)
(0.00431252 -0.000315181 0)
(0.00428855 -0.000151065 0)
(0.00421742 -6.80637e-06 0)
(0.00410645 0.00012538 0)
(0.00395798 0.000252391 0)
(0.00378284 0.000387057 0)
(0.0036136 0.000529017 0)
(0.00347279 0.000591968 0)
(0.0032843 0.00048979 0)
(0.00285712 0.000646508 0)
(0.0020368 0.00304098 0)
(0.00146495 0.0121429 0)
(-0.00302028 0.011548 0)
(-0.00295767 0.00336356 0)
(-0.00356016 -0.000830192 0)
(-0.00378926 -0.00206081 0)
(-0.00373808 -0.00256937 0)
(-0.00349974 -0.00295958 0)
(-0.003139 -0.00332534 0)
(-0.00270296 -0.0036625 0)
(-0.00223815 -0.00391283 0)
(-0.00180638 -0.00393827 0)
(-0.00150054 -0.0034967 0)
(-0.00144196 -0.00227399 0)
(-0.00175784 2.58665e-07 0)
(-0.00262696 0.00316945 0)
(-0.00358886 0.00660431 0)
(-0.00463246 0.00992998 0)
(-0.0055528 0.011625 0)
(-0.0067364 0.00933081 0)
(-0.00757178 0.00509954 0)
(-0.00790954 0.00126732 0)
(-0.00767622 -0.00151624 0)
(-0.00715531 -0.0030354 0)
(-0.00676469 -0.00332318 0)
(-0.00648299 -0.00299591 0)
(-0.00619711 -0.00263164 0)
(-0.00585087 -0.00241446 0)
(-0.00542585 -0.00234042 0)
(-0.00492428 -0.00236237 0)
(-0.004358 -0.00243414 0)
(-0.00374372 -0.00251883 0)
(-0.00310268 -0.00258876 0)
(-0.00246145 -0.00262313 0)
(-0.00184841 -0.00260206 0)
(-0.00127986 -0.00250168 0)
(-0.000711259 -0.00229035 0)
(-0.000115775 -0.0019896 0)
(0.000430983 -0.00175108 0)
(0.000951143 -0.00159729 0)
(0.00147856 -0.0014916 0)
(0.00202932 -0.00136843 0)
(0.00254754 -0.00116502 0)
(0.00296159 -0.000923634 0)
(0.0032526 -0.00069678 0)
(0.00343479 -0.000515075 0)
(0.00353363 -0.000389143 0)
(0.00357471 -0.000316813 0)
(0.0035781 -0.000289215 0)
(0.00355467 -0.000294797 0)
(0.00350358 -0.00032136 0)
(0.00341206 -0.000354942 0)
(0.00325715 -0.000367786 0)
(0.00299737 -0.000271544 0)
(0.00261019 0.000324192 0)
(0.00192442 0.0038878 0)
(0.00247685 0.0121493 0)
(-0.00194748 0.0152116 0)
(-0.00310039 0.0104244 0)
(-0.004965 0.00786311 0)
(-0.00639504 0.00647278 0)
(-0.00773433 0.0055061 0)
(-0.00891625 0.00467791 0)
(-0.00992268 0.00386192 0)
(-0.0107327 0.0030032 0)
(-0.0113282 0.00208143 0)
(-0.0116932 0.00109553 0)
(-0.0118136 5.78196e-05 0)
(-0.0116759 -0.00101026 0)
(-0.0112962 -0.00207623 0)
(-0.0106821 -0.00309272 0)
(-0.0098566 -0.0040113 0)
(-0.00885405 -0.00478776 0)
(-0.00771705 -0.00538815 0)
(-0.00649176 -0.0057938 0)
(-0.00522274 -0.00600169 0)
(-0.00395018 -0.00602262 0)
(-0.00270961 -0.00587823 0)
(-0.00153614 -0.00560156 0)
(-0.000448324 -0.00522331 0)
(0.000601319 -0.00472612 0)
(0.00144201 -0.00420814 0)
(0.00218667 -0.00366251 0)
(0.0028306 -0.00309987 0)
(0.00337862 -0.00255429 0)
(0.00382737 -0.00205021 0)
(0.00417142 -0.00159662 0)
(0.00441204 -0.00119593 0)
(0.00455725 -0.000848133 0)
(0.00461885 -0.000550845 0)
(0.00461025 -0.000299011 0)
(0.00454454 -8.52232e-05 0)
(0.00443473 9.99966e-05 0)
(0.00428947 0.00026634 0)
(0.00411584 0.000422384 0)
(0.00392029 0.000573307 0)
(0.0037093 0.000711713 0)
(0.00347713 0.000799768 0)
(0.00317791 0.000821035 0)
(0.00270386 0.00124302 0)
(0.00185155 0.0040795 0)
(0.000957069 0.0143778 0)
(-0.00267353 0.0132395 0)
(-0.00257377 0.00405709 0)
(-0.00328314 -0.000436189 0)
(-0.00363009 -0.0019028 0)
(-0.00376593 -0.00259806 0)
(-0.00375838 -0.00311453 0)
(-0.00367661 -0.00355091 0)
(-0.00357617 -0.00390887 0)
(-0.00350905 -0.00412865 0)
(-0.00353034 -0.00405702 0)
(-0.00370066 -0.00342234 0)
(-0.00405244 -0.00189579 0)
(-0.00453342 0.000647689 0)
(-0.00498432 0.00387319 0)
(-0.00531054 0.0073076 0)
(-0.00554761 0.0104718 0)
(-0.00561031 0.0120071 0)
(-0.00594573 0.00995414 0)
(-0.00636188 0.00564453 0)
(-0.00649663 0.00139141 0)
(-0.00619565 -0.00180115 0)
(-0.00589215 -0.00338891 0)
(-0.00591395 -0.00350123 0)
(-0.00596076 -0.00311821 0)
(-0.00589254 -0.00282689 0)
(-0.00568718 -0.0027209 0)
(-0.00535938 -0.00275108 0)
(-0.00493403 -0.00285699 0)
(-0.00443601 -0.00299023 0)
(-0.00388895 -0.00311328 0)
(-0.00331692 -0.0031964 0)
(-0.0027457 -0.00321636 0)
(-0.00220073 -0.00315713 0)
(-0.00169911 -0.00301332 0)
(-0.00123411 -0.00279367 0)
(-0.000765862 -0.0025242 0)
(-0.00026096 -0.00227158 0)
(0.000260774 -0.00212524 0)
(0.000822258 -0.00206725 0)
(0.0014777 -0.00197482 0)
(0.00213265 -0.00168702 0)
(0.00265052 -0.00131054 0)
(0.00300082 -0.000951017 0)
(0.00320548 -0.00066084 0)
(0.00329966 -0.000455592 0)
(0.00331727 -0.000329618 0)
(0.00328455 -0.000265678 0)
(0.00321581 -0.000240527 0)
(0.00311192 -0.000229674 0)
(0.00296324 -0.000208509 0)
(0.00275348 -0.000143818 0)
(0.00246328 3.96325e-05 0)
(0.00213894 0.000669557 0)
(0.00142954 0.00437185 0)
(0.00208936 0.013872 0)
(-0.00167388 0.0173615 0)
(-0.00265565 0.0121108 0)
(-0.00435811 0.0093492 0)
(-0.00566347 0.00783592 0)
(-0.00692416 0.0067372 0)
(-0.0080443 0.00575248 0)
(-0.00900256 0.00475556 0)
(-0.00977419 0.00369487 0)
(-0.0103391 0.0025531 0)
(-0.0106789 0.00133197 0)
(-0.0107761 4.82034e-05 0)
(-0.0106138 -0.00126967 0)
(-0.0102151 -0.0025775 0)
(-0.00958627 -0.00381652 0)
(-0.00875379 -0.00492714 0)
(-0.00775606 -0.00585556 0)
(-0.00663912 -0.00656165 0)
(-0.00545055 -0.00702657 0)
(-0.00423397 -0.0072508 0)
(-0.00302752 -0.00725264 0)
(-0.00186631 -0.00706315 0)
(-0.000775056 -0.00671781 0)
(0.000269579 -0.00621962 0)
(0.00118293 -0.00563398 0)
(0.00199182 -0.00500215 0)
(0.00271407 -0.0043479 0)
(0.00333847 -0.00368752 0)
(0.00386376 -0.00304256 0)
(0.00428756 -0.00243355 0)
(0.00460697 -0.00187433 0)
(0.00482268 -0.00137309 0)
(0.00494055 -0.000934103 0)
(0.00497068 -0.000557916 0)
(0.00492592 -0.000240987 0)
(0.00482006 2.39479e-05 0)
(0.00466908 0.000248998 0)
(0.00448235 0.000445198 0)
(0.00426965 0.000625046 0)
(0.00403571 0.000796619 0)
(0.00377968 0.000958382 0)
(0.00348954 0.00109521 0)
(0.0031373 0.00122137 0)
(0.00263266 0.00189937 0)
(0.00175865 0.0051936 0)
(0.000547239 0.0164012 0)
(-0.00242257 0.0145761 0)
(-0.00235936 0.00471141 0)
(-0.00317524 5.87458e-05 0)
(-0.00361167 -0.00160143 0)
(-0.00388801 -0.00244528 0)
(-0.00405402 -0.00304482 0)
(-0.00418872 -0.0035002 0)
(-0.00435586 -0.00382077 0)
(-0.00460897 -0.00395842 0)
(-0.00498324 -0.00377602 0)
(-0.00547726 -0.00303195 0)
(-0.00601323 -0.00145619 0)
(-0.00642466 0.00100724 0)
(-0.00652522 0.00406316 0)
(-0.00638727 0.00732296 0)
(-0.00600701 0.0102343 0)
(-0.00541737 0.0116519 0)
(-0.00507287 0.00997932 0)
(-0.0050627 0.0058788 0)
(-0.00498004 0.00145342 0)
(-0.00467597 -0.00193249 0)
(-0.00480148 -0.00336315 0)
(-0.00524995 -0.00330027 0)
(-0.00553649 -0.00299922 0)
(-0.00560282 -0.002881 0)
(-0.00548406 -0.00293433 0)
(-0.00522577 -0.00308724 0)
(-0.00486615 -0.00328248 0)
(-0.00443485 -0.00347741 0)
(-0.00395622 -0.00363753 0)
(-0.00345272 -0.00373327 0)
(-0.00294707 -0.00374068 0)
(-0.00246189 -0.00364642 0)
(-0.00201528 -0.00345644 0)
(-0.00161196 -0.00320376 0)
(-0.00123166 -0.00294569 0)
(-0.000830566 -0.00274497 0)
(-0.000362303 -0.00265759 0)
(0.000211063 -0.00270555 0)
(0.000945045 -0.00272141 0)
(0.00173218 -0.00233479 0)
(0.00235721 -0.00177711 0)
(0.0027691 -0.00124214 0)
(0.0029986 -0.000810369 0)
(0.00309157 -0.000502113 0)
(0.00309105 -0.000306306 0)
(0.00302999 -0.000194607 0)
(0.00292598 -0.00013007 0)
(0.00278419 -7.68425e-05 0)
(0.00260469 -5.88905e-06 0)
(0.00237995 0.000114695 0)
(0.0020939 0.000351141 0)
(0.00180592 0.000998973 0)
(0.00108861 0.00472245 0)
(0.00180059 0.0152363 0)
(-0.00145066 0.0192135 0)
(-0.0022872 0.013589 0)
(-0.00382933 0.0106862 0)
(-0.00499543 0.0090864 0)
(-0.00614877 0.00787947 0)
(-0.00717393 0.00675503 0)
(-0.00805248 0.00559016 0)
(-0.00875824 0.00433797 0)
(-0.00927008 0.00298444 0)
(-0.00956706 0.00153402 0)
(-0.00962629 8.48478e-06 0)
(-0.00942732 -0.0015552 0)
(-0.0090029 -0.00309903 0)
(-0.00835591 -0.00455231 0)
(-0.00751799 -0.00584288 0)
(-0.00653177 -0.00690751 0)
(-0.00544657 -0.00770048 0)
(-0.00430994 -0.00820653 0)
(-0.00316416 -0.00843176 0)
(-0.00204475 -0.00840553 0)
(-0.000979237 -0.00816357 0)
(3.61377e-05 -0.0077285 0)
(0.00096826 -0.00714 0)
(0.00179647 -0.006474 0)
(0.00255981 -0.00575234 0)
(0.00324011 -0.00500413 0)
(0.0038299 -0.00424844 0)
(0.0043253 -0.00350493 0)
(0.00472257 -0.00279321 0)
(0.00501846 -0.00212983 0)
(0.00521242 -0.00152732 0)
(0.00530797 -0.000994246 0)
(0.00531295 -0.000534797 0)
(0.00523839 -0.000148156 0)
(0.00509937 0.000172835 0)
(0.00490879 0.000439495 0)
(0.00467987 0.000666576 0)
(0.00442332 0.000870298 0)
(0.00414476 0.00106406 0)
(0.00384337 0.00125437 0)
(0.00350857 0.00143885 0)
(0.00312411 0.00164902 0)
(0.00260322 0.0025987 0)
(0.00172647 0.00640947 0)
(0.000225619 0.0183228 0)
(-0.00223345 0.0157154 0)
(-0.0022822 0.00539917 0)
(-0.00320498 0.000643806 0)
(-0.00370931 -0.00119403 0)
(-0.00408315 -0.00216587 0)
(-0.00436197 -0.00281833 0)
(-0.00463315 -0.00325568 0)
(-0.00496564 -0.00349839 0)
(-0.00541195 -0.00352363 0)
(-0.00598987 -0.00323847 0)
(-0.00665366 -0.00246508 0)
(-0.00726394 -0.00100241 0)
(-0.00761711 0.00119257 0)
(-0.0075439 0.00392239 0)
(-0.00708878 0.00686815 0)
(-0.00627933 0.00946412 0)
(-0.00521471 0.0107539 0)
(-0.00432013 0.00947313 0)
(-0.003861 0.00578366 0)
(-0.00352965 0.00143765 0)
(-0.00339105 -0.00185129 0)
(-0.00409591 -0.00290425 0)
(-0.00481245 -0.00282304 0)
(-0.00519751 -0.00275639 0)
(-0.00531247 -0.00286895 0)
(-0.00523524 -0.00309324 0)
(-0.00502405 -0.0033668 0)
(-0.00471914 -0.00364658 0)
(-0.00434853 -0.00389943 0)
(-0.00393308 -0.00409568 0)
(-0.00349063 -0.00420693 0)
(-0.00303901 -0.00420857 0)
(-0.00259722 -0.00408778 0)
(-0.00218418 -0.00385643 0)
(-0.00181312 -0.00356323 0)
(-0.00147997 -0.00329174 0)
(-0.00115074 -0.00313281 0)
(-0.000768445 -0.00314768 0)
(-0.000268403 -0.00335171 0)
(0.000484039 -0.00357864 0)
(0.00135808 -0.00310695 0)
(0.00207975 -0.00232676 0)
(0.00255243 -0.00157736 0)
(0.00280958 -0.000974294 0)
(0.00290558 -0.000543144 0)
(0.00289235 -0.00026601 0)
(0.00280922 -0.000100663 0)
(0.00267825 4.90223e-06 0)
(0.0025183 9.2097e-05 0)
(0.0023291 0.000199706 0)
(0.00210062 0.000367208 0)
(0.00181475 0.000655566 0)
(0.0015602 0.00132068 0)
(0.000847713 0.0050044 0)
(0.00157844 0.0163865 0)
(-0.00126561 0.0208264 0)
(-0.00197302 0.0148864 0)
(-0.00335275 0.0118726 0)
(-0.00436658 0.010205 0)
(-0.00539087 0.0089056 0)
(-0.00629638 0.00765679 0)
(-0.00707104 0.00633922 0)
(-0.00768874 0.00491031 0)
(-0.00812887 0.00335861 0)
(-0.00836745 0.00169031 0)
(-0.00837401 -6.87093e-05 0)
(-0.00812847 -0.00187334 0)
(-0.00767108 -0.00364436 0)
(-0.00700285 -0.00529992 0)
(-0.00616236 -0.00675296 0)
(-0.00519622 -0.00793303 0)
(-0.00415692 -0.00878954 0)
(-0.00308901 -0.00931666 0)
(-0.00203427 -0.00952786 0)
(-0.0010181 -0.0094624 0)
(-5.05442e-05 -0.00915081 0)
(0.000856319 -0.00863054 0)
(0.00166964 -0.0079852 0)
(0.00243351 -0.00724469 0)
(0.00313172 -0.00644674 0)
(0.00375557 -0.00561573 0)
(0.00429879 -0.00477207 0)
(0.00475602 -0.00393576 0)
(0.00512214 -0.00312665 0)
(0.00539278 -0.00236315 0)
(0.00556567 -0.00166115 0)
(0.00564198 -0.00103323 0)
(0.00562693 -0.000487569 0)
(0.00552904 -2.70214e-05 0)
(0.00536324 0.000355319 0)
(0.00513945 0.000669119 0)
(0.00487262 0.000930874 0)
(0.00457479 0.00116005 0)
(0.00425402 0.00137574 0)
(0.00391218 0.00159252 0)
(0.00354185 0.00181751 0)
(0.00313051 0.00209774 0)
(0.00260077 0.00333079 0)
(0.00174353 0.00771539 0)
(-5.59892e-06 0.0201829 0)
(-0.0020849 0.016758 0)
(-0.00232379 0.0061647 0)
(-0.00334897 0.00131506 0)
(-0.0039061 -0.000709815 0)
(-0.00433373 -0.00181003 0)
(-0.00466774 -0.00250496 0)
(-0.00499734 -0.00291035 0)
(-0.00539282 -0.00306039 0)
(-0.00590444 -0.002963 0)
(-0.00654457 -0.00258108 0)
(-0.00725873 -0.00181502 0)
(-0.00789776 -0.000537632 0)
(-0.00824847 0.00129775 0)
(-0.00813965 0.00360165 0)
(-0.00755574 0.00612054 0)
(-0.00651983 0.00833602 0)
(-0.00516564 0.00945019 0)
(-0.00387232 0.00847803 0)
(-0.0029986 0.00529598 0)
(-0.0025147 0.00131155 0)
(-0.00283643 -0.00141408 0)
(-0.00386056 -0.00210852 0)
(-0.00456868 -0.00226055 0)
(-0.00491603 -0.00250599 0)
(-0.00501309 -0.00284666 0)
(-0.00494232 -0.00322582 0)
(-0.00475772 -0.00360545 0)
(-0.00449424 -0.0039592 0)
(-0.0041742 -0.00426433 0)
(-0.0038124 -0.00449668 0)
(-0.00342026 -0.00462935 0)
(-0.0030093 -0.00463634 0)
(-0.00259383 -0.0045024 0)
(-0.00219247 -0.00423909 0)
(-0.00182652 -0.00390245 0)
(-0.0015096 -0.00359746 0)
(-0.0012259 -0.00345006 0)
(-0.000919433 -0.00355293 0)
(-0.00052971 -0.00392504 0)
(0.0001161 -0.00442823 0)
(0.00100417 -0.00397107 0)
(0.00179635 -0.00294922 0)
(0.00232677 -0.00195677 0)
(0.00261826 -0.00115626 0)
(0.00272657 -0.000582587 0)
(0.00271017 -0.00021176 0)
(0.00261209 1.43608e-05 0)
(0.00247026 0.00015616 0)
(0.00230175 0.000271179 0)
(0.00210715 0.000411504 0)
(0.00187918 0.000620319 0)
(0.00159629 0.000952271 0)
(0.00137608 0.00163178 0)
(0.000679218 0.0052345 0)
(0.0014037 0.0173804 0)
(-0.00110971 0.0222329 0)
(-0.00169782 0.0160151 0)
(-0.00291307 0.0129034 0)
(-0.00376513 0.0111768 0)
(-0.00464516 0.00979614 0)
(-0.0054133 0.00843678 0)
(-0.00606587 0.00698213 0)
(-0.0065778 0.00539283 0)
(-0.0069304 0.00365854 0)
(-0.00709675 0.00178524 0)
(-0.00703545 -0.000198428 0)
(-0.00673848 -0.00223347 0)
(-0.00624008 -0.00421871 0)
(-0.0055476 -0.00605953 0)
(-0.00470942 -0.00765002 0)
(-0.00377388 -0.00891938 0)
(-0.00279789 -0.00981218 0)
(-0.00181657 -0.0103406 0)
(-0.000868726 -0.010521 0)
(3.77314e-05 -0.0103982 0)
(0.000887287 -0.0100127 0)
(0.00166006 -0.00944518 0)
(0.00239158 -0.0087388 0)
(0.00307105 -0.00793828 0)
(0.00369192 -0.00707416 0)
(0.00424863 -0.00617063 0)
(0.00473563 -0.00524872 0)
(0.00514712 -0.00432849 0)
(0.00547701 -0.00342992 0)
(0.00571965 -0.00257273 0)
(0.00587096 -0.00177547 0)
(0.00592976 -0.00105434 0)
(0.00589848 -0.000421623 0)
(0.00578398 0.000116405 0)
(0.00559682 0.000564124 0)
(0.00534712 0.000929781 0)
(0.00504944 0.00123029 0)
(0.00471741 0.00148729 0)
(0.00436175 0.00172473 0)
(0.00398739 0.00196458 0)
(0.00359055 0.00222249 0)
(0.00316024 0.00255913 0)
(0.00262546 0.00407452 0)
(0.00181228 0.00908195 0)
(-0.000129566 0.0220011 0)
(-0.00195044 0.0178022 0)
(-0.00246072 0.00704993 0)
(-0.00359078 0.00206622 0)
(-0.00419257 -0.000174506 0)
(-0.00462843 -0.00142372 0)
(-0.00496858 -0.00216704 0)
(-0.00529392 -0.00254547 0)
(-0.00567375 -0.00260983 0)
(-0.00615398 -0.00239754 0)
(-0.00674709 -0.00192305 0)
(-0.00740995 -0.0011611 0)
(-0.00801567 -5.67656e-05 0)
(-0.00837455 0.00142914 0)
(-0.00833015 0.00326385 0)
(-0.00778555 0.00527834 0)
(-0.00673261 0.00704664 0)
(-0.00530069 0.00791786 0)
(-0.00382281 0.00713345 0)
(-0.00273235 0.00450785 0)
(-0.00239002 0.00128411 0)
(-0.00306225 -0.000614615 0)
(-0.00391854 -0.00130546 0)
(-0.00443212 -0.00180285 0)
(-0.00466091 -0.00232615 0)
(-0.00469892 -0.00285217 0)
(-0.0046097 -0.00335489 0)
(-0.00443465 -0.00381867 0)
(-0.00419925 -0.00423225 0)
(-0.00391801 -0.0045827 0)
(-0.00359874 -0.00485117 0)
(-0.00324613 -0.00501219 0)
(-0.00286509 -0.00503772 0)
(-0.00246425 -0.0049074 0)
(-0.00205993 -0.00462619 0)
(-0.00167874 -0.00424708 0)
(-0.00135234 -0.00388707 0)
(-0.00109315 -0.00371032 0)
(-0.000860331 -0.00386012 0)
(-0.000564646 -0.00437585 0)
(-0.000125187 -0.00513266 0)
(0.00068151 -0.00486776 0)
(0.00149891 -0.00362487 0)
(0.00207637 -0.00238043 0)
(0.00240751 -0.00136476 0)
(0.00253923 -0.000631572 0)
(0.00253086 -0.000154983 0)
(0.00243166 0.000134893 0)
(0.00228688 0.000312539 0)
(0.00211579 0.000453754 0)
(0.00192159 0.000622899 0)
(0.00169922 0.00086722 0)
(0.00142207 0.00123624 0)
(0.00123488 0.00192806 0)
(0.000559898 0.00542408 0)
(0.00126209 0.0182514 0)
(-0.000976312 0.0234558 0)
(-0.00145159 0.016982 0)
(-0.00250258 0.0137744 0)
(-0.00318798 0.011992 0)
(-0.00391476 0.010538 0)
(-0.00453395 0.0090801 0)
(-0.00505166 0.0075033 0)
(-0.00544455 0.00577018 0)
(-0.00569793 0.00387021 0)
(-0.0057831 0.0018073 0)
(-0.00564153 -0.000390008 0)
(-0.00528319 -0.00264461 0)
(-0.0047373 -0.00482638 0)
(-0.00401764 -0.00682901 0)
(-0.00319035 -0.00852219 0)
(-0.0022982 -0.00985173 0)
(-0.00140515 -0.0107525 0)
(-0.000527159 -0.0112601 0)
(0.00030907 -0.0113894 0)
(0.00108101 -0.0112021 0)
(0.0017968 -0.0107717 0)
(0.00247242 -0.0101534 0)
(0.00310419 -0.00939848 0)
(0.0036888 -0.00854553 0)
(0.00422345 -0.00762455 0)
(0.00470476 -0.00665944 0)
(0.00512825 -0.00567061 0)
(0.00548815 -0.00467731 0)
(0.00577772 -0.0036992 0)
(0.00598999 -0.0027567 0)
(0.00611907 -0.00187041 0)
(0.00616146 -0.00105978 0)
(0.00611698 -0.000341198 0)
(0.00599069 0.000276616 0)
(0.0057876 0.00079359 0)
(0.00551946 0.00121586 0)
(0.00519979 0.001559 0)
(0.00484301 0.00184551 0)
(0.00446205 0.0021034 0)
(0.00406477 0.0023618 0)
(0.00365077 0.00264515 0)
(0.00321107 0.00302635 0)
(0.00268241 0.00480552 0)
(0.001946 0.0104704 0)
(-0.000112096 0.0237859 0)
(-0.00179046 0.0189596 0)
(-0.00265974 0.00810233 0)
(-0.00391385 0.00289525 0)
(-0.00455342 0.000368681 0)
(-0.00496418 -0.0010475 0)
(-0.00526646 -0.00185431 0)
(-0.00554219 -0.0022191 0)
(-0.00585719 -0.00221506 0)
(-0.00625173 -0.00190728 0)
(-0.00673834 -0.00135158 0)
(-0.0072852 -0.000580336 0)
(-0.00779445 0.000403006 0)
(-0.0081306 0.0016033 0)
(-0.00815708 0.00301778 0)
(-0.00774148 0.0045288 0)
(-0.00683856 0.00582409 0)
(-0.00554405 0.00641187 0)
(-0.00415351 0.00575141 0)
(-0.00315439 0.00376464 0)
(-0.00301744 0.0014933 0)
(-0.00356594 0.000101179 0)
(-0.00405929 -0.000764991 0)
(-0.00432403 -0.00153355 0)
(-0.00440851 -0.00225088 0)
(-0.00437083 -0.00290633 0)
(-0.00425049 -0.00349559 0)
(-0.00407342 -0.00401914 0)
(-0.00385422 -0.00447756 0)
(-0.00359949 -0.00486587 0)
(-0.00331086 -0.00516963 0)
(-0.00298753 -0.00536461 0)
(-0.00262884 -0.0054206 0)
(-0.00223787 -0.00531085 0)
(-0.00182668 -0.00502928 0)
(-0.00142204 -0.0046157 0)
(-0.00106802 -0.00418343 0)
(-0.000810003 -0.00392907 0)
(-0.000637606 -0.0040683 0)
(-0.000444951 -0.00467841 0)
(-0.000199735 -0.00563692 0)
(0.00042066 -0.00570239 0)
(0.00120048 -0.00432067 0)
(0.00180672 -0.0028425 0)
(0.0021768 -0.00160542 0)
(0.00233949 -0.000699892 0)
(0.00234828 -0.000105965 0)
(0.002258 0.00025287 0)
(0.0021176 0.000468036 0)
(0.00195029 0.000634147 0)
(0.00176158 0.000829007 0)
(0.00154899 0.00110425 0)
(0.00127997 0.00150483 0)
(0.00112376 0.00220725 0)
(0.000473187 0.0055863 0)
(0.00114359 0.0190246 0)
(-0.000860915 0.0245137 0)
(-0.00122903 0.0177944 0)
(-0.00211942 0.0144852 0)
(-0.00263806 0.0126459 0)
(-0.00320852 0.0111238 0)
(-0.00367299 0.00957748 0)
(-0.00404838 0.0078921 0)
(-0.00431303 0.00603145 0)
(-0.00445905 0.00398438 0)
(-0.00445866 0.00175084 0)
(-0.00422886 -0.000648741 0)
(-0.00379342 -0.0031166 0)
(-0.00319329 -0.00546691 0)
(-0.00244587 -0.00760251 0)
(-0.00164539 -0.00935778 0)
(-0.000813256 -0.0107156 0)
(-2.00544e-05 -0.0115952 0)
(0.000747873 -0.0120552 0)
(0.00143789 -0.0121237 0)
(0.0020883 -0.0118916 0)
(0.00269541 -0.0114163 0)
(0.00326007 -0.0107549 0)
(0.00378321 -0.00995603 0)
(0.00426574 -0.00905804 0)
(0.00470786 -0.00809033 0)
(0.00510828 -0.00707551 0)
(0.00546362 -0.00603224 0)
(0.00576833 -0.00497813 0)
(0.00601509 -0.00393179 0)
(0.00619571 -0.00291377 0)
(0.00630249 -0.00194619 0)
(0.00632967 -0.00105135 0)
(0.00627487 -0.000249604 0)
(0.00614002 0.000448198 0)
(0.00592678 0.00103583 0)
(0.00564661 0.00151693 0)
(0.00531325 0.00190509 0)
(0.0049418 0.00222261 0)
(0.00454653 0.00250012 0)
(0.00413778 0.00277298 0)
(0.00371823 0.00307485 0)
(0.00328267 0.00348967 0)
(0.00277969 0.00548946 0)
(0.00215739 0.0118306 0)
(9.18353e-05 0.0255292 0)
(-0.00154128 0.0203471 0)
(-0.00286711 0.00937554 0)
(-0.0042886 0.00381432 0)
(-0.00497886 0.000900269 0)
(-0.00533705 -0.000723057 0)
(-0.00555918 -0.00160724 0)
(-0.00575333 -0.00196887 0)
(-0.00597679 -0.0019118 0)
(-0.00626433 -0.001528 0)
(-0.00662655 -0.000906037 0)
(-0.00703722 -0.000120057 0)
(-0.00742275 0.000786001 0)
(-0.00770191 0.00178794 0)
(-0.00775868 0.00287786 0)
(-0.00747728 0.0039671 0)
(-0.00679948 0.00484364 0)
(-0.00578771 0.00517647 0)
(-0.00468961 0.00463551 0)
(-0.00392963 0.00324631 0)
(-0.00379763 0.00167437 0)
(-0.00400656 0.000467106 0)
(-0.00416314 -0.000531061 0)
(-0.00420126 -0.00145477 0)
(-0.00415372 -0.00228284 0)
(-0.00404433 -0.00301395 0)