/*--------------------------------*- C++ -*----------------------------------*\
| =========                 |                                                 |
| \\      /  F ield         | OpenFOAM: The Open Source CFD Toolbox           |
|  \\    /   O peration     | Version:  4.1                                   |
|   \\  /    A nd           | Web:      www.OpenFOAM.org                      |
|    \\/     M anipulation  |                                                 |
\*---------------------------------------------------------------------------*/
FoamFile
{
    version     2.0;
    format      ascii;
    class       volScalarField;
    location    "1120";
    object      mag(U);
}
// * * * * * * * * * * * * * * * * * * * * * * * * * * * * * * * * * * * * * //

dimensions      [0 1 -1 0 0 0 0];

internalField   nonuniform List<scalar> 
5000
(
0.00252034
0.00235596
0.0019605
0.00230063
0.00271684
0.0027403
0.0023181
0.00217713
0.00664009
0.00812787
0.00815843
0.00743142
0.00638319
0.00524412
0.00414047
0.00311988
0.00219096
0.00135945
0.000642588
0.000284885
0.000661578
0.00115568
0.00167277
0.00218507
0.00269011
0.0031914
0.00369277
0.00419772
0.00470933
0.00522993
0.00576112
0.00630372
0.00685775
0.00742241
0.00799619
0.00857695
0.00916211
0.00974875
0.0103338
0.0109139
0.011486
0.0120469
0.0125937
0.0131234
0.0136333
0.0141207
0.0145826
0.015016
0.0154175
0.0157833
0.0161094
0.0163911
0.0166241
0.0168041
0.0169274
0.0169923
0.0170019
0.016958
0.0168615
0.0167139
0.0165177
0.0162752
0.0159899
0.0156657
0.0153068
0.0149174
0.0145012
0.0140615
0.0135943
0.0130543
0.0122625
0.0108184
0.00757279
0.0018369
0.000774392
0.000385009
0.000383271
0.000859412
0.00140441
0.00196548
0.00253293
0.00310765
0.00368431
0.0042491
0.00478244
0.00526187
0.00566369
0.00596299
0.00613142
0.0061339
0.00592317
0.00544758
0.00466383
0.00358697
0.00239804
0.00165709
0.00285647
0.00414889
0.00458927
0.00468818
0.00352287
0.00306314
0.0025562
0.0014757
0.00122994
0.000973553
0.00220665
0.00610481
0.00771291
0.00757575
0.00748942
0.00709957
0.00637649
0.00549132
0.00458447
0.00372598
0.00293968
0.00222777
0.00156061
0.00098632
0.000931874
0.00126519
0.00174697
0.00227221
0.00281238
0.00336076
0.00391602
0.00447865
0.00504971
0.00563029
0.00622117
0.00682264
0.00743437
0.00805541
0.00868422
0.00931884
0.00995689
0.0105958
0.0112326
0.0118646
0.0124888
0.0131025
0.0137032
0.0142884
0.0148559
0.0154034
0.0159287
0.0164291
0.0169021
0.0173443
0.0177523
0.0181223
0.0184501
0.0187316
0.0189628
0.01914
0.0192562
0.0193063
0.0192892
0.0192055
0.0190563
0.0188435
0.0185697
0.0182381
0.0178516
0.0174121
0.0169193
0.0163663
0.0157319
0.0149612
0.0139671
0.0127972
0.0113187
0.00839042
0.00176088
0.000565875
0.000391633
0.00082435
0.00123362
0.00177239
0.00238797
0.0030291
0.00366646
0.00428072
0.00485473
0.00536954
0.0058023
0.00612599
0.00631056
0.00632451
0.00612922
0.00569775
0.00503789
0.00423987
0.00356804
0.00338965
0.00346424
0.00303317
0.00286217
0.00598201
0.00460501
0.00404486
0.00336723
0.00139475
0.000579564
0.00124245
0.00480934
0.00877383
0.00881106
0.00709362
0.00666128
0.00656665
0.00611216
0.00541857
0.00465755
0.00392391
0.00324858
0.00264515
0.00211905
0.00169966
0.00152778
0.00164208
0.00194496
0.00234673
0.00279941
0.00328217
0.00378565
0.00430578
0.00484099
0.00539068
0.0059545
0.0065319
0.00712196
0.00772328
0.008334
0.00895183
0.00957416
0.0101981
0.0108208
0.0114391
0.0120503
0.0126516
0.0132406
0.0138153
0.0143736
0.0149137
0.0154337
0.0159314
0.0164047
0.0168505
0.0172658
0.0176466
0.0179888
0.0182876
0.0185379
0.0187343
0.0188719
0.0189461
0.0189529
0.0188912
0.0187604
0.0185608
0.0182931
0.0179588
0.0175591
0.0170947
0.016564
0.0159613
0.0152775
0.0145197
0.0137966
0.0135007
0.0136825
0.0125901
0.0075961
0.000514126
0.000485087
0.00113249
0.00156121
0.00197701
0.00248751
0.00308104
0.00371863
0.00436477
0.00498736
0.00555328
0.00602664
0.00636931
0.00654461
0.00652481
0.00631051
0.00593656
0.00547084
0.00504818
0.00487558
0.0050733
0.00511476
0.00283374
0.00195068
0.00784023
0.0053712
0.00476511
0.0039309
0.00123325
0.000741025
0.00284066
0.00684616
0.0104196
0.00962102
0.00689212
0.00618443
0.00626086
0.00603946
0.00550648
0.00486241
0.00423253
0.00365074
0.00313579
0.0026961
0.00234065
0.00210664
0.0020713
0.00220394
0.00245543
0.00278632
0.0031715
0.00359576
0.00405032
0.00453025
0.00503262
0.00555542
0.00609688
0.00665514
0.00722804
0.00781306
0.00840732
0.0090077
0.00961089
0.0102135
0.0108124
0.0114045
0.0119872
0.0125581
0.0131153
0.0136573
0.0141827
0.0146902
0.0151782
0.0156449
0.0160881
0.0165046
0.0168909
0.0172423
0.0175537
0.0178196
0.0180339
0.018191
0.0182868
0.0183145
0.0182722
0.0181586
0.0179722
0.0177126
0.0173798
0.0169743
0.0164967
0.0159477
0.0153288
0.0146491
0.0139603
0.0134803
0.0138009
0.0150875
0.015183
0.011659
0.00487346
0.000765884
0.00136364
0.00197184
0.00245004
0.00295656
0.00353264
0.00415612
0.00478505
0.00537449
0.00588147
0.00626771
0.00650294
0.00657076
0.00647438
0.00626538
0.00601365
0.005816
0.00579604
0.0060498
0.00651631
0.00669623
0.00306305
0.00168705
0.00931305
0.00595672
0.00532549
0.00427297
0.00102172
0.00168221
0.00446953
0.00847038
0.0115072
0.0101434
0.00675303
0.00584563
0.00613402
0.00614649
0.00572669
0.00516512
0.00461323
0.00410194
0.00364735
0.00325471
0.0029264
0.0026669
0.0025229
0.00251453
0.00261779
0.00281099
0.00307616
0.00339871
0.00376784
0.00417587
0.00461744
0.00508846
0.00558549
0.0061053
0.00664455
0.0071997
0.00776698
0.00834244
0.00892207
0.00950195
0.0100784
0.010648
0.0112081
0.0117565
0.0122915
0.0128121
0.0133175
0.0138071
0.0142803
0.0147361
0.0151729
0.0155883
0.0159788
0.01634
0.0166664
0.0169517
0.0171893
0.0173725
0.0174965
0.0175532
0.0175394
0.017453
0.0172922
0.017056
0.0167439
0.0163564
0.0158948
0.0153624
0.0147666
0.0141286
0.0135217
0.0132124
0.0138977
0.0158606
0.0169013
0.0144563
0.00874429
0.00287187
0.00182815
0.00248699
0.00305565
0.00360105
0.004167
0.00473991
0.00528102
0.00574707
0.00610103
0.00631827
0.00639051
0.00633125
0.0061792
0.00603042
0.00596776
0.00608581
0.00645725
0.007076
0.00777993
0.00808326
0.00368614
0.00159478
0.010453
0.00644524
0.00572811
0.00434318
0.000681252
0.00282277
0.00597436
0.00979777
0.0122897
0.0104963
0.00663397
0.00559411
0.00615055
0.00637979
0.00601933
0.00551285
0.00501586
0.00455479
0.0041396
0.00377383
0.00345815
0.00319248
0.0029909
0.00287732
0.00285743
0.00292118
0.00306048
0.00326754
0.00353476
0.00385485
0.00422136
0.0046286
0.00507134
0.00554464
0.00604363
0.00656342
0.00709902
0.00764541
0.00819761
0.00875084
0.00930071
0.00984345
0.010376
0.0108963
0.0114029
0.0118953
0.0123734
0.0128376
0.0132882
0.0137256
0.0141491
0.0145572
0.0149472
0.015315
0.0156549
0.0159604
0.016224
0.0164382
0.0165967
0.0166917
0.0167163
0.0166681
0.0165458
0.0163478
0.0160743
0.0157265
0.0153071
0.0148216
0.0142813
0.0137132
0.0131995
0.0130239
0.0139311
0.0163133
0.0180685
0.0165665
0.0116672
0.00561964
0.0028603
0.00319326
0.0037794
0.00432891
0.00485058
0.00532576
0.00572046
0.0060015
0.00614736
0.00615524
0.00604575
0.0058676
0.00570412
0.0056727
0.0058489
0.00629311
0.0070158
0.00794673
0.00887536
0.0092754
0.00461321
0.00161161
0.011435
0.00683213
0.00590977
0.00409593
0.000763861
0.00405952
0.00729268
0.0108613
0.0128696
0.0107352
0.00651988
0.00541082
0.00627162
0.00668208
0.0063373
0.00586789
0.00540893
0.00498409
0.00459681
0.00424995
0.00394409
0.00367934
0.00346025
0.00329562
0.00319474
0.00316266
0.00319746
0.00329755
0.00346082
0.00368374
0.00396225
0.00429154
0.00466611
0.00508001
0.00552708
0.006001
0.00649552
0.00700435
0.00752138
0.00804075
0.00855716
0.00906609
0.00956411
0.0100489
0.0105192
0.010975
0.0114169
0.0118461
0.0122644
0.0126731
0.0130732
0.0134644
0.013845
0.0142115
0.0145586
0.0148796
0.0151669
0.015412
0.0156072
0.0157462
0.015817
0.0158172
0.0157447
0.0155983
0.0153786
0.015088
0.0147308
0.0143143
0.0138524
0.0133747
0.0129659
0.0129129
0.0139716
0.016619
0.0189182
0.0181951
0.0139948
0.00812482
0.00439712
0.00411639
0.00462689
0.00511406
0.0055381
0.0058676
0.00607148
0.00612846
0.00603579
0.00581656
0.00552478
0.00525185
0.00513955
0.00527847
0.00571895
0.00646475
0.00748035
0.00867454
0.00981965
0.0103093
0.00565871
0.00171119
0.0123411
0.00709341
0.00578498
0.00358487
0.00165721
0.00511141
0.00835577
0.0116791
0.0132896
0.0108894
0.00639731
0.00527059
0.00645019
0.00700126
0.00664666
0.0062035
0.00577227
0.00537569
0.00501233
0.00468486
0.00439423
0.00414098
0.00392699
0.00375562
0.00363035
0.00355376
0.00352866
0.00355733
0.00364048
0.00377719
0.00396775
0.00421049
0.0045022
0.00483909
0.00521592
0.00562648
0.00606359
0.00651984
0.00698791
0.00746082
0.00793217
0.00839652
0.00884976
0.00928922
0.00971361
0.010123
0.0105185
0.0109023
0.0112771
0.0116458
0.0120106
0.0123728
0.0127319
0.0130856
0.0134291
0.013756
0.0140585
0.0143283
0.0145563
0.0147391
0.0148592
0.0149136
0.0148997
0.0148157
0.0146623
0.0144428
0.014163
0.0138317
0.0134641
0.0130907
0.0127961
0.0128643
0.0140431
0.0168682
0.019587
0.0195114
0.0159105
0.0103035
0.00610581
0.00523196
0.00558415
0.00594738
0.00622336
0.00636723
0.00634955
0.00616028
0.00581597
0.00536849
0.00491298
0.00459056
0.00458417
0.00493799
0.00563735
0.00663149
0.00787103
0.00927892
0.0106298
0.0112127
0.00668578
0.00185589
0.0132062
0.00715579
0.00532742
0.00291929
0.00247955
0.0059241
0.00916243
0.0122756
0.0135852
0.0109912
0.00626563
0.00514194
0.00664447
0.00730113
0.00692519
0.00650035
0.00609123
0.00572003
0.00538262
0.00508179
0.00481864
0.00459372
0.00440729
0.00425928
0.00414937
0.00407726
0.00404287
0.00404632
0.00408836
0.004171
0.00429674
0.00446547
0.00467484
0.00492672
0.00521762
0.00554542
0.00590493
0.00628884
0.00668893
0.00709727
0.00750654
0.00791059
0.00830473
0.0086858
0.00905224
0.00940395
0.00974229
0.0100699
0.0103902
0.0107073
0.0110248
0.0113454
0.01167
0.0119973
0.0123235
0.0126428
0.0129477
0.0132301
0.0134812
0.0136977
0.0138653
0.0139753
0.014024
0.0140095
0.0139317
0.0137943
0.0136035
0.013369
0.0131065
0.0128462
0.0126716
0.0128627
0.014152
0.0171122
0.0201628
0.0206211
0.0175289
0.0121948
0.00779246
0.00646639
0.00660731
0.00681241
0.0069073
0.00684037
0.00658518
0.00614236
0.00554716
0.00488134
0.00428914
0.00397614
0.00413285
0.0047222
0.00564511
0.00681944
0.00821202
0.00978226
0.0113203
0.0119985
0.00763089
0.00202727
0.0140444
0.00705317
0.00471083
0.00218586
0.00316081
0.00656291
0.00974991
0.0126834
0.0137903
0.0110801
0.00613158
0.00499183
0.00682444
0.00756105
0.00715601
0.00674138
0.00635213
0.00600855
0.00570535
0.00544493
0.00522768
0.00505277
0.00491784
0.00481918
0.00475263
0.00471455
0.00470233
0.0047146
0.00475132
0.00481377
0.0049036
0.00502226
0.00517219
0.0053561
0.00556729
0.00580874
0.00607795
0.00637217
0.00668562
0.00700976
0.00733704
0.00766147
0.00797861
0.00828535
0.00857983
0.00886162
0.00913185
0.00939314
0.00964936
0.00990513
0.0101652
0.0104332
0.0107115
0.0109995
0.0112943
0.0115907
0.0118821
0.0121614
0.0124211
0.0126568
0.0128629
0.0130231
0.0131335
0.0131913
0.0131947
0.0131466
0.0130531
0.0129237
0.0127736
0.0126319
0.012581
0.0128982
0.0142997
0.0173778
0.0206985
0.0215944
0.0189242
0.0138425
0.00937408
0.00773351
0.00765204
0.00768659
0.0075869
0.00730065
0.00680679
0.00611694
0.00528409
0.00441924
0.00372244
0.00348
0.00384362
0.0046602
0.00575509
0.00704402
0.00852619
0.0102087
0.0119087
0.0126797
0.00846071
0.00221214
0.0148583
0.00689887
0.00400002
0.0015182
0.00373285
0.00706354
0.0101534
0.0129276
0.0139292
0.0111944
0.00600661
0.00477487
0.00695228
0.00775788
0.00731521
0.00690486
0.00653882
0.00623254
0.00597967
0.00578051
0.00563278
0.00553208
0.00547169
0.00544349
0.00543961
0.0054536
0.00548098
0.00551934
0.00556833
0.00562932
0.0057048
0.00579761
0.00591041
0.00604425
0.00619955
0.00637691
0.00656601
0.00676846
0.00698403
0.00720916
0.00743703
0.00766314
0.00788487
0.00810048
0.00830852
0.00850832
0.00870054
0.00888736
0.00907242
0.00926047
0.00945661
0.00966528
0.00988914
0.0101283
0.01038
0.0106395
0.0109013
0.01116
0.0114106
0.0116491
0.0118779
0.0120772
0.0122437
0.0123722
0.012459
0.0125047
0.012514
0.0124952
0.012462
0.012442
0.012517
0.0129635
0.0144839
0.017677
0.0212242
0.0224761
0.0201472
0.0152854
0.0108216
0.00896779
0.00868694
0.00854956
0.00825622
0.00775563
0.00703415
0.00611473
0.00506688
0.00402867
0.00325949
0.00313626
0.00372509
0.00473826
0.0059559
0.0073091
0.00883136
0.0105814
0.0124137
0.0132686
0.0091611
0.00238733
0.0156389
0.00674553
0.00323591
0.00113891
0.00421318
0.0074414
0.0103935
0.0130172
0.0140046
0.0113643
0.00592443
0.00440427
0.00696516
0.00784619
0.00736323
0.00696144
0.00663301
0.00638504
0.00620834
0.0060982
0.00604683
0.00604385
0.00607691
0.00613358
0.00620321
0.00627781
0.00635221
0.00642402
0.00649326
0.00656196
0.0066335
0.00671194
0.0068012
0.00690415
0.00702167
0.00715068
0.00728612
0.00741872
0.00754145
0.00766096
0.00777816
0.00789159
0.00800227
0.00811165
0.00821997
0.00832699
0.00843306
0.00853968
0.00864978
0.00876763
0.00889812
0.00904563
0.00921268
0.00939883
0.00960068
0.00981313
0.0100314
0.0102525
0.0104751
0.0106982
0.0109316
0.0111555
0.0113681
0.0115623
0.0117316
0.0118731
0.0119885
0.0120835
0.0121697
0.0122726
0.012474
0.0130528
0.0147006
0.018013
0.021755
0.0232933
0.0212337
0.0165566
0.0121335
0.0101384
0.0096848
0.00938375
0.0089084
0.00820801
0.00727813
0.00615303
0.00491685
0.00373111
0.00291579
0.00293886
0.00374622
0.00491968
0.00622436
0.00760973
0.00913814
0.0109188
0.0128503
0.0137705
0.00973407
0.00254414
0.0163613
0.00660417
0.00244829
0.00125427
0.00460212
0.00770266
0.0104837
0.0129471
0.0139886
0.0115955
0.00595406
0.00377451
0.00681965
0.00775677
0.0072485
0.00687892
0.00661993
0.00646595
0.00640131
0.00641257
0.0064837
0.00659712
0.00673527
0.00688291
0.00702835
0.00716368
0.0072845
0.00738957
0.00748029
0.00756017
0.00763402
0.00770706
0.00778392
0.00786765
0.00795895
0.0080556
0.00815109
0.00823499
0.00829047
0.0083112
0.00831285
0.00830418
0.00829212
0.00828287
0.00827986
0.00828451
0.00829757
0.00832003
0.00835383
0.00840219
0.00846918
0.00855853
0.00867188
0.00880722
0.0089589
0.00911977
0.00928482
0.00945362
0.00962998
0.00981908
0.0100321
0.010268
0.0105157
0.0107687
0.011018
0.0112554
0.0114782
0.0116886
0.0118948
0.0121203
0.0124479
0.0131612
0.0149448
0.0183834
0.0222962
0.0240617
0.0222088
0.0176842
0.013319
0.0112315
0.0106314
0.010179
0.00953867
0.0086582
0.00754291
0.0062378
0.00483857
0.00352482
0.00267841
0.00285635
0.0038622
0.00516635
0.00653619
0.00793601
0.0094499
0.0112328
0.0132289
0.0141869
0.0101872
0.00269816
0.0169925
0.00646708
0.00164332
0.00169241
0.00490302
0.00785141
0.0104383
0.0127123
0.0138247
0.0118358
0.00621469
0.00277458
0.0064672
0.00740695
0.00692061
0.00663508
0.00649929
0.00648967
0.0065793
0.00674321
0.00695651
0.00719577
0.00744082
0.00767619
0.00789136
0.00808025
0.00824068
0.00837382
0.00848358
0.00857574
0.00865692
0.00873336
0.00880974
0.00888817
0.0089675
0.00904322
0.00910789
0.00915192
0.00915897
0.00910402
0.00899539
0.00885985
0.00871676
0.00857893
0.00845422
0.00834728
0.00826052
0.00819508
0.00815196
0.00813292
0.0081406
0.00817754
0.00824402
0.00833567
0.00844295
0.00855427
0.00866216
0.00876809
0.00888227
0.00901879
0.00919482
0.00942273
0.00969159
0.00999589
0.0103214
0.0106538
0.0109843
0.0113102
0.0116356
0.0119821
0.0124346
0.0132839
0.015211
0.0187828
0.0228471
0.0247895
0.0230912
0.0186919
0.0143919
0.0122436
0.0115211
0.0109314
0.010145
0.00910589
0.00782839
0.00636665
0.00482412
0.00339224
0.00251751
0.00285028
0.00403363
0.00544834
0.00687086
0.00827615
0.00976414
0.0115288
0.0135558
0.0145194
0.010526
0.00284636
0.0175077
0.0063275
0.000889389
0.0022306
0.00513066
0.00789635
0.0102775
0.0123259
0.0134611
0.0119661
0.00671513
0.0015108
0.00585214
0.00672885
0.00635463
0.00623819
0.00629968
0.00649231
0.00677492
0.00711236
0.00747435
0.00783601
0.00817851
0.00848915
0.00876072
0.00899068
0.00918051
0.00933501
0.0094614
0.0095681
0.00966333
0.00975369
0.00984291
0.00993094
0.0100136
0.010083
0.0101282
0.0101372
0.0100977
0.00998824
0.009787
0.00952735
0.00924869
0.00897457
0.00871898
0.00849117
0.00829681
0.00813846
0.00801677
0.00793184
0.00788432
0.00787494
0.00790235
0.00795962
0.00803229
0.00810179
0.00815483
0.00819257
0.00823197
0.00829855
0.00841975
0.00862182
0.00889836
0.00924563
0.00964341
0.0100694
0.0105071
0.0109472
0.0113898
0.0118546
0.0124299
0.0134163
0.0154932
0.019204
0.0234034
0.0254801
0.0238948
0.0196001
0.0153671
0.0131776
0.0123537
0.0116404
0.0107272
0.00955032
0.00813158
0.00653186
0.00485849
0.00330957
0.00240102
0.0028872
0.00423202
0.00574436
0.00721212
0.00861831
0.0100747
0.011807
0.0138348
0.0147718
0.0107625
0.00294782
0.017903
0.00620828
0.000847725
0.00273831
0.00532486
0.00786125
0.010029
0.0118275
0.0128969
0.0118414
0.00724503
0.000533785
0.00493112
0.00571615
0.00558664
0.00575201
0.00609071
0.0065326
0.00702774
0.00753896
0.00803801
0.00850429
0.00892412
0.00929005
0.00959999
0.0098564
0.0100656
0.0102366
0.0103802
0.0105069
0.0106258
0.0107426
0.010859
0.0109717
0.0110728
0.0111499
0.0111882
0.0111722
0.0110879
0.0109235
0.0106548
0.010283
0.0098696
0.00945503
0.00906143
0.00870413
0.00839361
0.00813555
0.00793138
0.00777995
0.00767947
0.00762822
0.00762287
0.0076542
0.00770291
0.00774175
0.00774781
0.00771798
0.00767453
0.00765626
0.00770531
0.0078645
0.00813558
0.00851783
0.00898433
0.00950251
0.010046
0.0105983
0.0111549
0.0117343
0.0124297
0.0135535
0.0157853
0.0196391
0.023958
0.0261337
0.0246302
0.0204266
0.016259
0.0140388
0.0131299
0.0123083
0.0112854
0.00998989
0.00844737
0.00672283
0.00492432
0.0032533
0.00230148
0.00294227
0.00443793
0.00603917
0.00754705
0.00895153
0.0103737
0.0120648
0.0140689
0.0149486
0.0109141
0.00294566
0.0182011
0.00618576
0.00165108
0.00330881
0.00553997
0.00779106
0.00972978
0.0112713
0.0121879
0.0114339
0.00743017
0.000908162
0.00372316
0.00446252
0.00475526
0.00531457
0.00597983
0.00667922
0.00737191
0.00803064
0.00863639
0.00917692
0.00964607
0.0100432
0.0103723
0.0106419
0.0108634
0.01105
0.0112151
0.0113705
0.0115246
0.0116814
0.0118393
0.0119912
0.0121247
0.012223
0.0122669
0.0122367
0.0121157
0.0118935
0.0115665
0.0111048
0.0105658
0.0100116
0.00947669
0.00898364
0.0085491
0.0081835
0.00789062
0.00766908
0.00751486
0.00742316
0.00738816
0.00739868
0.00743175
0.00745153
0.00742226
0.00733128
0.0072025
0.00708813
0.00704914
0.007148
0.00740152
0.00781142
0.00834365
0.00895255
0.00959995
0.0102615
0.0109279
0.0116173
0.0124298
0.013691
0.0160811
0.0200793
0.024503
0.0267487
0.0253061
0.0211861
0.0170803
0.0148326
0.013851
0.0129378
0.0118192
0.0104218
0.00876919
0.00692812
0.00500546
0.00320378
0.00219697
0.00299817
0.00463779
0.00632116
0.00786497
0.00926589
0.0106528
0.012298
0.0142622
0.0150662
0.0109922
0.00276826
0.0184422
0.00640807
0.00262859
0.00395413
0.00581736
0.00774381
0.00942848
0.0107133
0.0114158
0.0108354
0.00730987
0.00129533
0.00246095
0.00324711
0.00414228
0.0051214
0.00607879
0.00698426
0.0078212
0.00857755
0.00924547
0.00982204
0.0103091
0.0107131
0.0110447
0.0113178
0.0115486
0.0117534
0.011947
0.0121411
0.0123426
0.0125523
0.0127652
0.0129698
0.013149
0.0132816
0.0133434
0.0133109
0.013164
0.0128912
0.0124933
0.0119719
0.0113232
0.0106371
0.00996238
0.00933161
0.00876809
0.00828806
0.00789909
0.00760109
0.00738873
0.00725421
0.00718859
0.00717878
0.00719986
0.00720944
0.00715779
0.00701697
0.00680654
0.00658991
0.00644968
0.00646982
0.00669483
0.00712572
0.00772119
0.00841923
0.00916793
0.00993443
0.0107055
0.0114999
0.0124259
0.0138241
0.0163745
0.0205158
0.0250296
0.0273224
0.0259292
0.0218911
0.0178421
0.0155644
0.0145167
0.0135317
0.0123272
0.0108421
0.00908964
0.00713675
0.00508852
0.00314698
0.00207059
0.00304306
0.00482151
0.00658066
0.00815641
0.00955223
0.010904
0.0125015
0.0144174
0.0151494
0.0110471
0.00247004
0.0186634
0.00689429
0.00363324
0.00464472
0.00616599
0.00776595
0.00917798
0.0102055
0.0106601
0.0100663
0.00694882
0.00118357
0.00127769
0.00272648
0.00409519
0.00532741
0.00644596
0.00745765
0.00836049
0.00915139
0.00983071
0.0104033
0.0108781
0.011268
0.0115891
0.0118601
0.0121004
0.0123281
0.0125583
0.0128012
0.0130612
0.013336
0.0136162
0.013886
0.0141237
0.0143032
0.014396
0.0143739
0.0142133
0.0139009
0.0134389
0.0128445
0.0121265
0.0113208
0.0105139
0.00974881
0.00905624
0.00845835
0.00796708
0.00758493
0.00730691
0.0071232
0.00702168
0.0069871
0.00699395
0.00699698
0.00693428
0.00675805
0.00647562
0.00615683
0.00590578
0.005834
0.00601628
0.00646133
0.00711765
0.00790261
0.00874888
0.00961501
0.0104845
0.0113782
0.0124141
0.0139483
0.0166592
0.0209395
0.0255286
0.0278519
0.0265048
0.0225518
0.0185538
0.016238
0.0151264
0.0140899
0.0128066
0.0112457
0.00940131
0.00733902
0.00516188
0.00306985
0.00190947
0.00306986
0.00498099
0.00680894
0.0084124
0.00980175
0.0111191
0.0126692
0.0145352
0.0152092
0.0111351
0.00207126
0.0188774
0.00758771
0.0046291
0.00535373
0.00656678
0.00786677
0.00900883
0.00978182
0.00997536
0.00919167
0.00636598
0.00179783
0.00217322
0.00347076
0.00475711
0.00596526
0.00707538
0.00807278
0.00895073
0.00970812
0.0103506
0.0108838
0.0113208
0.0116801
0.0119818
0.0122479
0.0124996
0.0127556
0.0130302
0.0133315
0.0136606
0.0140113
0.0143701
0.0147167
0.0150251
0.0152645
0.0154015
0.0154034
0.0152426
0.0149035
0.0143886
0.0137216
0.0129395
0.0120484
0.0111213
0.010231
0.00941506
0.00870111
0.00810501
0.00763223
0.00727954
0.00703698
0.00689032
0.00682204
0.00680678
0.00680024
0.00673331
0.00653683
0.00619702
0.00578254
0.00541666
0.00524175
0.00536845
0.00582079
0.00653491
0.00740349
0.0083421
0.00930116
0.010262
0.0112488
0.0123906
0.0140594
0.0169293
0.0213418
0.0259914
0.0283337
0.0270366
0.0231758
0.0192229
0.0168571
0.0156774
0.0146088
0.0132551
0.011626
0.00969694
0.00752784
0.0052184
0.00296293
0.00170263
0.00307427
0.00510887
0.00699742
0.00862397
0.0100055
0.0112894
0.0127945
0.0146159
0.0152571
0.0112655
0.00155247
0.0190972
0.00841407
0.00560182
0.00606155
0.00699059
0.00802099
0.00891259
0.00944642
0.00939865
0.00842198
0.00595421
0.00334995
0.00369502
0.00461487
0.00571183
0.00680132
0.00781306
0.00872177
0.0095172
0.0101963
0.0107609
0.0112263
0.0116073
0.0119242
0.0122009
0.0124611
0.0127273
0.0130177
0.0133449
0.0137139
0.014122
0.0145588
0.0150063
0.0154404
0.0158307
0.0161423
0.0163371
0.0163774
0.016231
0.0158794
0.0153254
0.0145968
0.0137391
0.0127964
0.0117706
0.0107687
0.00983958
0.00901688
0.00831855
0.00775227
0.00731699
0.00700447
0.00680043
0.00668606
0.00663634
0.00661062
0.00653943
0.00633562
0.00595646
0.00545871
0.0049798
0.00469286
0.00475303
0.0052067
0.00597549
0.00692311
0.00794721
0.00899109
0.0100352
0.0111085
0.012352
0.0141535
0.0171788
0.0217143
0.02641
0.0287647
0.0275271
0.0237688
0.0198559
0.0174249
0.0161672
0.0150729
0.0136752
0.0119769
0.00996889
0.00769852
0.00526114
0.00283489
0.001437
0.00305204
0.0051977
0.00713765
0.00878212
0.0101541
0.0114052
0.0128681
0.0146555
0.0152986
0.0114486
0.000867115
0.0193732
0.00930203
0.00653485
0.00675311
0.00741789
0.00820266
0.00886954
0.00919812
0.00897973
0.00798702
0.00618062
0.00492526
0.00519107
0.00585749
0.00672046
0.00762599
0.00849177
0.00927599
0.00995943
0.010537
0.0110124
0.0113966
0.0117102
0.0119775
0.0122259
0.0124817
0.0127676
0.0131005
0.0134899
0.0139365
0.0144332
0.0149648
0.0155097
0.0160399
0.0165218
0.0169167
0.017182
0.0172751
0.0171585
0.0168097
0.016231
0.0154547
0.0145329
0.0135189
0.0124485
0.0113478
0.0103199
0.00939915
0.00860611
0.00794827
0.007426
0.0070335
0.00675875
0.00658373
0.00648436
0.00642475
0.00634144
0.00613779
0.00573847
0.00517509
0.00459088
0.00418838
0.00417217
0.004622
0.00544227
0.00646303
0.00756409
0.00868336
0.00980191
0.0109546
0.0122958
0.014227
0.0174024
0.0220492
0.026777
0.029142
0.0279774
0.0243345
0.0204586
0.017946
0.0165945
0.015464
0.014057
0.0122956
0.0102112
0.00784641
0.00529455
0.0027053
0.00110121
0.00299997
0.00524086
0.00722191
0.00887847
0.0102384
0.011456
0.0128777
0.0146431
0.0153273
0.0116731
0.000282739
0.0196833
0.0101948
0.0074127
0.00741845
0.00784475
0.00840904
0.00888327
0.00905954
0.00877657
0.00795966
0.00684942
0.00628746
0.00650015
0.00700442
0.0076739
0.00839386
0.00909118
0.00972268
0.0102668
0.0107177
0.0110807
0.0113713
0.0116083
0.0118211
0.0120421
0.0122989
0.0126139
0.0130008
0.013464
0.0139987
0.0145924
0.0152257
0.0158736
0.0165056
0.0170858
0.0175726
0.0179196
0.018079
0.0180072
0.0176767
0.0170886
0.0162786
0.0153063
0.0142314
0.0131037
0.0119565
0.0108412
0.00983669
0.00895913
0.00821613
0.00760716
0.00712822
0.00677078
0.00652009
0.00635469
0.00624362
0.00613337
0.0059292
0.0055271
0.00491954
0.00424323
0.0037259
0.00362595
0.00406881
0.00493799
0.00602483
0.00719283
0.00837687
0.00956035
0.0107854
0.0122196
0.0142771
0.0175954
0.0223399
0.0270865
0.0294627
0.0283871
0.0248742
0.0210357
0.0184262
0.0169612
0.0157782
0.0143631
0.0125778
0.0104246
0.00797256
0.00532334
0.00260743
0.000703507
0.00292251
0.00523575
0.00724533
0.00890657
0.01025
0.0114311
0.0128085
0.0145592
0.0153228
0.0119286
0.00089029
0.0198651
0.0110546
0.00822666
0.00805315
0.00827611
0.0086534
0.00897493
0.00905899
0.0088028
0.00823701
0.00762796
0.00739798
0.00758302
0.00797436
0.00848618
0.00903448
0.00956026
0.0100264
0.0104144
0.0107209
0.0109543
0.0111346
0.0112879
0.0114455
0.0116456
0.0119158
0.0122752
0.0127317
0.0132822
0.0139149
0.0146117
0.0153497
0.0161019
0.016837
0.017518
0.0181017
0.0185386
0.0187755
0.0187625
0.0184655
0.0178829
0.0170538
0.0160447
0.0149221
0.013741
0.0125545
0.0113913
0.0103138
0.00936486
0.00854565
0.00785469
0.00728769
0.00683923
0.00649947
0.00625192
0.00607124
0.00591482
0.00570006
0.00530691
0.00467873
0.00392832
0.00330113
0.00311264
0.00354842
0.00446516
0.00561007
0.00683367
0.00807095
0.00930938
0.0105994
0.0121222
0.0143015
0.0177538
0.0225807
0.0273336
0.029724
0.0287542
0.0253873
0.0215909
0.018873
0.0172729
0.0160182
0.0145805
0.0127796
0.0105918
0.00807907
0.00535977
0.00257199
0.00029221
0.00283264
0.005185
0.00720636
0.00886385
0.0101839
0.0113228
0.0126479
0.0143831
0.0152566
0.0121843
0.00162368
0.0197343
0.0118611
0.00897542
0.00865697
0.00871701
0.00894684
0.00915734
0.00919722
0.00901004
0.00866408
0.00835495
0.00828202
0.00844468
0.00874454
0.00911958
0.00950804
0.00986423
0.0101592
0.0103801
0.0105288
0.0106199
0.0106807
0.0107467
0.0108558
0.0110504
0.0113546
0.0117802
0.012325
0.012976
0.0137139
0.0145156
0.0153563
0.0162088
0.0170427
0.0178219
0.0185028
0.0190337
0.0193564
0.0194137
0.0191641
0.0186014
0.0177673
0.0167356
0.0155791
0.0143576
0.013128
0.0119433
0.0108171
0.00980752
0.00892345
0.00815805
0.00750605
0.00696332
0.00652473
0.00618069
0.00591314
0.00569008
0.00544646
0.00506431
0.00443857
0.00363601
0.00290824
0.00262862
0.00306157
0.00402629
0.00522038
0.00648714
0.00776542
0.00904855
0.0103962
0.0120029
0.0142989
0.0178745
0.0227675
0.0275147
0.0299233
0.029075
0.0258704
0.022126
0.0192946
0.0175385
0.0161901
0.0147154
0.012896
0.0106849
0.00813906
0.00539538
0.00261575
0.000271575
0.00275508
0.00509763
0.0071072
0.00874825
0.0100382
0.0111282
0.01239
0.0141016
0.0151067
0.0124271
0.00244269
0.0193214
0.0126059
0.00966211
0.00923086
0.00916755
0.00928832
0.0094225
0.00944411
0.0093233
0.00912591
0.00897647
0.00897036
0.0091013
0.00931451
0.0095622
0.00979761
0.00998583
0.010106
0.010152
0.0101333
0.0100739
0.010012
0.00999552
0.0100746
0.0102898
0.010657
0.0111747
0.0118267
0.0125888
0.0134344
0.0143373
0.0152728
0.016216
0.017139
0.0180083
0.0187817
0.0194059
0.0198186
0.0199547
0.0197637
0.0192338
0.0184082
0.0173676
0.0161907
0.0149421
0.0136827
0.0124669
0.0113304
0.0102739
0.00933468
0.00850471
0.0077741
0.00713897
0.00659685
0.00614534
0.00577555
0.00546647
0.00517105
0.00478943
0.00418517
0.00335385
0.00253981
0.00216907
0.00260953
0.00362448
0.00485769
0.00615417
0.00746072
0.00877821
0.0101764
0.011862
0.0142687
0.0179558
0.0228977
0.0276277
0.0300576
0.0293442
0.0263174
0.0226396
0.0196979
0.0177687
0.016303
0.0147753
0.012935
0.0107139
0.00816867
0.00544846
0.00273349
0.000656013
0.00271787
0.00500494
0.00697657
0.00857018
0.00981473
0.0108506
0.0120381
0.0137129
0.0148605
0.0126302
0.00328037
0.0187023
0.013287
0.0102905
0.00977421
0.00962148
0.00966495
0.00974622
0.00975659
0.00967744
0.0095601
0.00948114
0.00948778
0.00957134
0.00969403
0.00981643
0.00990143
0.00992205
0.00986441
0.00973
0.0095378
0.00932474
0.00914503
0.00906212
0.00914133
0.00941286
0.00987735
0.0105136
0.0112883
0.0121664
0.0131162
0.0141112
0.0151289
0.0161483
0.0171462
0.0180931
0.0189492
0.0196615
0.0201637
0.0203831
0.0202591
0.0197726
0.0189676
0.0179309
0.016747
0.0154843
0.0142076
0.0129732
0.0118174
0.0107518
0.00976733
0.00888175
0.00808181
0.00736
0.00671514
0.00615
0.00566541
0.00525291
0.00488228
0.00447894
0.00390519
0.00307172
0.00218703
0.00172845
0.00219592
0.00326422
0.00452462
0.00583635
0.00715812
0.00849975
0.00994143
0.0117011
0.0142119
0.0179974
0.0229707
0.0276717
0.0301242
0.0295546
0.0267191
0.0231265
0.0200869
0.0179747
0.0163686
0.0147692
0.0129027
0.0106841
0.00816758
0.0055062
0.00289309
0.00105082
0.00272601
0.00491099
0.00681567
0.00835166
0.00953204
0.010497
0.011604
0.0132262
0.0145146
0.0127746
0.00412684
0.0179246
0.0139053
0.0108626
0.0102834
0.0100673
0.0100565
0.0100984
0.010094
0.0100281
0.00993828
0.00987282
0.0098555
0.00987496
0.00989977
0.00989531
0.00983029
0.00968319
0.00944595
0.0091277
0.00875903
0.00839387
0.00810827
0.00798526
0.00810458
0.00847476
0.00907176
0.00984868
0.010755
0.0117473
0.0127924
0.0138662
0.0149503
0.016029
0.0170848
0.0180934
0.0190191
0.01981
0.0203971
0.0207002
0.0206479
0.0202124
0.0194382
0.0184174
0.0172388
0.0159746
0.014693
0.0134518
0.0122861
0.0112087
0.0102118
0.00927985
0.00841915
0.00762026
0.00687823
0.0061988
0.00559107
0.00505998
0.0045927
0.00413919
0.00358563
0.00278542
0.00183798
0.00130024
0.00182973
0.00295222
0.00422484
0.0055362
0.00685999
0.00821584
0.00969442
0.0115232
0.0141308
0.018001
0.0229876
0.0276472
0.0301199
0.0296979
0.0270633
0.0235765
0.0204608
0.0181657