/*--------------------------------*- C++ -*----------------------------------*\
| =========                 |                                                 |
| \\      /  F ield         | OpenFOAM: The Open Source CFD Toolbox           |
|  \\    /   O peration     | Version:  4.1                                   |
|   \\  /    A nd           | Web:      www.OpenFOAM.org                      |
|    \\/     M anipulation  |                                                 |
\*---------------------------------------------------------------------------*/
FoamFile
{
    version     2.0;
    format      ascii;
    class       volScalarField;
    location    "1380";
    object      mag(U);
}
// * * * * * * * * * * * * * * * * * * * * * * * * * * * * * * * * * * * * * //

dimensions      [0 1 -1 0 0 0 0];

internalField   nonuniform List<scalar> 
5000
(
0.00301438
0.00252562
0.00190723
0.00133693
0.00186171
0.00258904
0.00319346
0.00366826
0.00406109
0.0044118
0.00474775
0.0050865
0.00543766
0.00580437
0.00618452
0.00657224
0.00695971
0.00733928
0.00770596
0.00805972
0.00840636
0.00875639
0.00912227
0.00951518
0.00994285
0.010409
0.0109141
0.0114564
0.0120334
0.0126427
0.0132822
0.0139502
0.0146448
0.0153622
0.0160946
0.0168269
0.0175321
0.0181672
0.0186711
0.0189709
0.0190001
0.0187403
0.0182272
0.0175437
0.0168074
0.0161412
0.0156407
0.0153509
0.015264
0.0153153
0.015437
0.015579
0.0157086
0.0158102
0.0158824
0.0159358
0.0159918
0.0160807
0.0162387
0.0165036
0.0169091
0.0174784
0.0182168
0.0190996
0.0200575
0.0209605
0.0216048
0.0216917
0.0207812
0.0183407
0.0137699
0.0069896
0.0018578
0.00299278
0.0042464
0.00467062
0.00461946
0.00424094
0.00363149
0.00287329
0.0019567
0.00111626
0.0018651
0.00357595
0.00524695
0.00624466
0.00591644
0.00210438
0.00322542
0.00372963
0.00342452
0.00303064
0.00250991
0.00188354
0.00118816
0.000719713
0.00124594
0.00225686
0.00302718
0.00347983
0.0041128
0.00176686
0.00249997
0.00189377
0.00166067
0.00198361
0.00242916
0.0028364
0.00319937
0.00354403
0.00389421
0.0042654
0.00466531
0.00509609
0.00555647
0.00604355
0.00655409
0.00708495
0.00763289
0.00819401
0.00876344
0.00933569
0.00990552
0.0104689
0.0110235
0.0115687
0.0121048
0.0126326
0.0131526
0.0136646
0.0141678
0.0146604
0.0151401
0.0156036
0.0160475
0.0164684
0.0168643
0.0172352
0.0175838
0.0179112
0.0182112
0.0184629
0.0186668
0.018841
0.0190074
0.0191786
0.019349
0.0194996
0.0196059
0.0196726
0.0197131
0.0197357
0.0197464
0.0197502
0.0197517
0.0197556
0.0197672
0.0197934
0.0198432
0.01993
0.0200712
0.0202872
0.0205945
0.0209933
0.0214479
0.0218663
0.0220565
0.0217286
0.0206881
0.0189212
0.0165187
0.01339
0.00924551
0.00398247
0.00134282
0.0017544
0.00191797
0.00173677
0.0014702
0.00169732
0.00252611
0.00352458
0.00448924
0.00537931
0.00608117
0.00665035
0.00780857
0.00736163
0.00512954
0.00161467
0.00228723
0.00220701
0.00188439
0.00158653
0.0013733
0.0013472
0.00153732
0.00204246
0.00170598
0.00451757
0.00540737
0.00170524
0.00322427
0.00277395
0.00236685
0.00233667
0.00255636
0.00286128
0.00318187
0.00350838
0.00385108
0.00422132
0.00462543
0.00506449
0.00553596
0.00603544
0.00655803
0.00709894
0.00765357
0.00821721
0.00878489
0.00935152
0.00991239
0.0104638
0.0110034
0.0115301
0.0120438
0.0125448
0.013033
0.013508
0.0139685
0.0144119
0.014835
0.0152338
0.0156042
0.0159436
0.0162524
0.016538
0.0168175
0.0171191
0.0174766
0.0179078
0.0183934
0.0188949
0.0193688
0.0197733
0.0200794
0.0202773
0.0203797
0.0204112
0.0203947
0.0203474
0.0202817
0.0202053
0.0201231
0.0200384
0.0199538
0.0198722
0.0197983
0.0197398
0.0197083
0.019719
0.019786
0.0199118
0.0200705
0.0201961
0.0201753
0.0199363
0.0195114
0.019092
0.018666
0.0175164
0.014862
0.0109122
0.00684094
0.00347753
0.00215029
0.0024474
0.003033
0.00365514
0.00429628
0.0049223
0.00548541
0.00593568
0.00610181
0.00609033
0.00793865
0.0096845
0.00927558
0.00634956
0.000448993
0.00178374
0.00201948
0.00190639
0.00186001
0.00200218
0.00199387
0.00212589
0.0010439
0.00584148
0.00631872
0.00174516
0.00385166
0.00349628
0.00292987
0.00262485
0.00259677
0.00276217
0.00303125
0.0033554
0.0037187
0.00411813
0.00455193
0.00501644
0.00550641
0.00601608
0.00654002
0.00707349
0.0076124
0.00815307
0.00869201
0.00922607
0.00975252
0.0102694
0.0107756
0.0112709
0.0117556
0.0122301
0.0126947
0.0131492
0.0135929
0.0140241
0.0144408
0.0148406
0.0152214
0.0155822
0.0159246
0.0162542
0.016582
0.0169238
0.0172975
0.0177152
0.0181716
0.018639
0.0190757
0.0194453
0.0197274
0.0199194
0.0200331
0.0200852
0.0200913
0.0200632
0.0200095
0.0199352
0.0198443
0.019739
0.0196202
0.0194886
0.0193439
0.0191907
0.019037
0.0188942
0.0187757
0.0186891
0.0186238
0.0185452
0.0184066
0.0182734
0.0183942
0.0190451
0.0198812
0.0197782
0.0180357
0.0151187
0.0119655
0.00920391
0.00696516
0.00584352
0.00560501
0.00570612
0.00590606
0.00611384
0.00628851
0.00639371
0.00631272
0.00596966
0.00732571
0.0100992
0.0111615
0.0098516
0.00671182
0.00138199
0.00164231
0.00209401
0.00228167
0.00258073
0.0024363
0.00218199
0.000987947
0.00671355
0.00698299
0.0017915
0.00432
0.00401429
0.00336078
0.00286883
0.00260177
0.00257267
0.00273299
0.00302161
0.00339356
0.00382221
0.00428933
0.00478187
0.00529006
0.00580664
0.00632633
0.00684542
0.00736129
0.00787199
0.00837604
0.00887237
0.00936031
0.00983963
0.0103106
0.0107739
0.0112303
0.0116807
0.0121254
0.0125647
0.0129977
0.0134235
0.0138404
0.0142468
0.0146412
0.0150233
0.0153944
0.0157586
0.0161228
0.016496
0.0168866
0.017298
0.0177237
0.0181451
0.0185373
0.0188772
0.0191501
0.019352
0.0194874
0.0195652
0.0195953
0.0195862
0.0195439
0.0194733
0.0193774
0.0192571
0.0191129
0.0189443
0.0187517
0.0185315
0.018284
0.018017
0.017742
0.0174709
0.0172086
0.0169481
0.0167085
0.0166668
0.017217
0.01859
0.0201403
0.0206659
0.0196456
0.017546
0.015124
0.0128823
0.0109935
0.00941638
0.00843175
0.0078861
0.00756252
0.00733575
0.00714146
0.00694195
0.00666696
0.0062018
0.00672486
0.00953828
0.0116838
0.011682
0.00978604
0.00653988
0.00197075
0.0017623
0.00251963
0.00302683
0.00284909
0.00220744
0.00090323
0.00728085
0.00750537
0.00185263
0.0045772
0.00429849
0.00364295
0.00308822
0.00268321
0.00248635
0.00250572
0.00271289
0.00305321
0.00348073
0.00395773
0.0044608
0.0049742
0.00548797
0.00599598
0.0064948
0.00698287
0.00745979
0.00792601
0.00838255
0.00883078
0.00927226
0.00970864
0.0101416
0.0105725
0.0110025
0.0114322
0.0118616
0.0122901
0.0127167
0.0131397
0.0135576
0.0139691
0.0143736
0.0147717
0.0151657
0.0155592
0.0159567
0.0163616
0.0167735
0.0171861
0.0175865
0.0179582
0.0182852
0.0185565
0.0187677
0.0189199
0.0190176
0.0190666
0.0190727
0.0190397
0.0189715
0.0188698
0.0187351
0.0185664
0.018362
0.0181196
0.017839
0.0175179
0.0171492
0.0167367
0.0162943
0.015841
0.0153996
0.0150518
0.0150798
0.015956
0.0177892
0.0197283
0.0206496
0.0201978
0.0187749
0.0169538
0.0151375
0.0135229
0.0121249
0.0108772
0.0099083
0.00916385
0.00855926
0.0080417
0.00757548
0.00711861
0.00658438
0.00650458
0.00869358
0.0113873
0.0124457
0.0115723
0.00918505
0.0057834
0.00212803
0.00234868
0.00323142
0.0031698
0.00218369
0.000677896
0.00771778
0.00792243
0.00193586
0.00460584
0.00434354
0.00378791
0.00329573
0.00289456
0.00263967
0.00256657
0.00268306
0.00295158
0.0033328
0.00377769
0.00425736
0.00474804
0.00523508
0.00571007
0.00616918
0.00661176
0.00703907
0.00745376
0.00785911
0.00825858
0.00865548
0.00905275
0.0094529
0.00985781
0.0102687
0.010686
0.0111094
0.0115379
0.01197
0.0124038
0.0128372
0.0132686
0.0136968
0.0141215
0.0145435
0.0149641
0.015385
0.0158067
0.0162271
0.0166404
0.0170372
0.0174056
0.0177344
0.0180152
0.0182434
0.0184181
0.0185406
0.0186136
0.0186402
0.0186222
0.0185619
0.0184604
0.0183171
0.0181304
0.0178972
0.017613
0.0172718
0.0168678
0.0164004
0.0158685
0.0152747
0.0146366
0.0140044
0.01355
0.0136102
0.0146889
0.0167617
0.0188774
0.020054
0.0200441
0.0191669
0.0178528
0.0164169
0.0150345
0.013779
0.0126206
0.0115205
0.0105472
0.00969389
0.0089373
0.0082587
0.0076365
0.00702561
0.00662972
0.00796735
0.0107022
0.0125103
0.0125275
0.0108675
0.00798737
0.00449763
0.00230593
0.00311146
0.00332199
0.00209821
0.000416736
0.00810351
0.00825767
0.0020086
0.00442329
0.00421516
0.00381768
0.00346869
0.00318639
0.00299078
0.0029097
0.0029743
0.00317439
0.00348723
0.00386606
0.00428458
0.00471345
0.00513481
0.0055392
0.0059236
0.0062893
0.00664
0.00698093
0.00731778
0.00765588
0.00799991
0.00835365
0.00871989
0.00910038
0.00949576
0.00990568
0.0103289
0.0107632
0.0112063
0.0116552
0.0121072
0.0125598
0.0130112
0.0134602
0.0139063
0.0143497
0.0147902
0.0152268
0.015657
0.0160757
0.0164757
0.0168485
0.017186
0.0174817
0.0177313
0.017933
0.0180868
0.0181931
0.0182528
0.0182656
0.0182315
0.0181505
0.0180213
0.0178413
0.0176071
0.0173134
0.0169538
0.0165196
0.0160007
0.015387
0.0146784
0.0138947
0.0131045
0.0124914
0.0124692
0.0135635
0.0156535
0.017784
0.0191123
0.0194427
0.0190066
0.0181213
0.0170315
0.0158862
0.014762
0.0136856
0.0126489
0.011626
0.010657
0.00976131
0.00893799
0.00818329
0.00748437
0.00692959
0.00753181
0.00992556
0.0121839
0.0129356
0.0119565
0.00953715
0.0062522
0.00307958
0.00277984
0.00326843
0.00195102
0.000569202
0.00848507
0.00853562
0.00200175
0.00407829
0.00398219
0.00378356
0.00361044
0.0034723
0.00337972
0.00335833
0.00342626
0.00359636
0.00385359
0.00415967
0.00449308
0.00482794
0.00514893
0.00544848
0.00572659
0.00598817
0.0062403
0.0064914
0.00674957
0.00702166
0.00731301
0.00762738
0.00796691
0.00833214
0.00872218
0.00913492
0.00956728
0.0100155
0.0104756
0.0109435
0.0114153
0.0118879
0.0123588
0.0128261
0.0132888
0.0137461
0.0141972
0.0146406
0.0150738
0.0154926
0.0158917
0.0162649
0.0166063
0.016911
0.0171758
0.017399
0.01758
0.0177187
0.0178152
0.0178679
0.0178745
0.0178334
0.0177423
0.0175972
0.0173936
0.0171256
0.0167858
0.0163645
0.0158501
0.01523
0.0144956
0.0136541
0.0127628
0.0120104
0.0118322
0.0127484
0.0146398
0.0166441
0.0180311
0.0186081
0.0185195
0.0179901
0.0172063
0.0162927
0.0153224
0.0143341
0.0133468
0.0123707
0.0114058
0.0104646
0.00956483
0.00871908
0.007935
0.00727947
0.00738188
0.00924985
0.0116885
0.013023
0.0126651
0.0107165
0.00763786
0.00416875
0.00244921
0.00304104
0.00177381
0.00109252
0.00889631
0.00877826
0.00185884
0.00363242
0.00369516
0.00370863
0.00371465
0.0037193
0.00373516
0.00378732
0.00389507
0.00406131
0.00428096
0.00452886
0.00477866
0.00501329
0.00522369
0.00540636
0.00556641
0.00571418
0.00586141
0.00602073
0.00620286
0.0064159
0.00666494
0.00695268
0.00727935
0.00764311
0.0080405
0.00846689
0.00891688
0.00938466
0.00986447
0.010351
0.0108396
0.0113266
0.011809
0.0122848
0.0127527
0.0132118
0.013661
0.0140989
0.0145234
0.0149312
0.0153185
0.0156808
0.0160139
0.0163143
0.0165797
0.0168089
0.0170017
0.0171582
0.0172786
0.0173631
0.0174072
0.0174091
0.0173654
0.0172712
0.0171205
0.0169066
0.0166211
0.016254
0.0157939
0.015228
0.0145458
0.0137494
0.012882
0.0121009
0.0117826
0.0123969
0.0139126
0.0156561
0.0169992
0.0177236
0.0178887
0.0176406
0.0171156
0.0164141
0.0156029
0.0147241
0.0138055
0.0128674
0.0119264
0.0109956
0.0100845
0.00919892
0.00835718
0.00762149
0.00741788
0.00876096
0.011176
0.0129471
0.013148
0.0116695
0.00885585
0.00526528
0.00231252
0.00270397
0.00161219
0.00169886
0.00936471
0.00899968
0.00156776
0.00314294
0.00339274
0.0036087
0.00377814
0.00391267
0.00403079
0.00415688
0.00430793
0.00448906
0.00469058
0.00489821
0.00509
0.00524481
0.00535998
0.00543737
0.00548881
0.00553178
0.00558356
0.0056619
0.00578028
0.00594794
0.00616867
0.00644336
0.00676934
0.00714164
0.00755381
0.00799843
0.00846761
0.00895349
0.00944882
0.00994727
0.0104437
0.0109341
0.0114157
0.0118865
0.0123456
0.0127921
0.0132252
0.0136439
0.0140466
0.0144309
0.014794
0.0151328
0.0154442
0.015726
0.0159765
0.0161952
0.0163821
0.016538
0.0166633
0.0167609
0.016826
0.0168579
0.0168535
0.016808
0.0167152
0.0165677
0.0163571
0.0160737
0.0157068
0.0152455
0.0146816
0.0140169
0.0132847
0.0126003
0.0122365
0.0125567
0.0136207
0.0149971
0.0161861
0.0169485
0.0172679
0.0172207
0.0168978
0.0163752
0.0157098
0.0149428
0.0141054
0.0132221
0.0123135
0.0113961
0.0104829
0.00958434
0.00871599
0.00793375
0.00755263
0.00846692
0.0107343
0.0128125
0.0135061
0.0124928
0.0100039
0.0064631
0.00257956
0.00231481
0.00147576
0.00230916
0.0099085
0.00920985
0.0011505
0.00265563
0.00309917
0.00349353
0.00380408
0.00405054
0.00425809
0.00445352
0.00465371
0.00486269
0.00507265
0.00526596
0.00542338
0.00553202
0.00558256
0.00558287
0.00555157
0.00551354
0.00549139
0.00550759
0.0055783
0.0057138
0.00591617
0.00618509
0.00651473
0.00689721
0.00732326
0.00778268
0.00826505
0.0087606
0.00926081
0.00975874
0.0102491
0.0107281
0.0111935
0.0116439
0.0120787
0.0124977
0.0129005
0.0132867
0.0136551
0.0140041
0.0143318
0.0146359
0.0149144
0.0151657
0.0153889
0.0155838
0.015751
0.0158914
0.0160062
0.0160986
0.0161671
0.016211
0.0162292
0.0162184
0.0161737
0.0160888
0.0159559
0.0157666
0.0155118
0.015183
0.0147748
0.0142907
0.0137567
0.0132516
0.0129496
0.0130902
0.0137633
0.0147476
0.0156996
0.0163961
0.0167687
0.0168371
0.0166508
0.0162615
0.0157143
0.015046
0.0142875
0.013465
0.0126004
0.0117117
0.0108127
0.00991475
0.0090347
0.00822612
0.00773958
0.0083377
0.0104023
0.0126782
0.0137953
0.0132286
0.0111011
0.00776662
0.00344868
0.00188945
0.00133938
0.00289869
0.0105155
0.00941703
0.000653382
0.002209
0.00282746
0.00336833
0.0037938
0.0041317
0.0044182
0.00468473
0.00494635
0.00520238
0.00544108
0.0056448
0.00579576
0.00588081
0.00589885
0.00585896
0.00577992
0.00569123
0.00562198
0.0055968
0.00563481
0.00574676
0.00593461
0.00619863
0.00653025
0.00691935
0.00735375
0.00782008
0.0083053
0.00879792
0.00928857
0.0097702
0.0102379
0.0106888
0.0111214
0.0115353
0.0119306
0.0123078
0.0126673
0.013009
0.0133323
0.0136363
0.0139194
0.0141802
0.0144172
0.0146294
0.0148165
0.0149786
0.0151167
0.015232
0.015326
0.0154011
0.0154601
0.0155019
0.0155272
0.0155352
0.0155229
0.0154865
0.0154205
0.0153185
0.0151736
0.0149797
0.0147337
0.0144397
0.014117
0.0138167
0.0136413
0.0137295
0.0141534
0.0148168
0.0155166
0.0160808
0.0164244
0.0165302
0.0164159
0.0161114
0.0156492
0.0150602
0.0143723
0.0136107
0.0127968
0.0119481
0.0110782
0.0101978
0.00932298
0.00850485
0.00795739
0.00833414
0.0101857
0.0125694
0.014037
0.0138813
0.0121143
0.00906227
0.00484059
0.00147832
0.00117239
0.00348867
0.011121
0.00962962
0.000259144
0.00183973
0.00258382
0.00323327
0.00374544
0.00415947
0.00452392
0.00487021
0.00520652
0.00552509
0.00580974
0.00604185
0.00620545
0.00629153
0.00630145
0.00624797
0.0061534
0.00604537
0.00595423
0.00590547
0.00592252
0.00601661
0.00619172
0.00645
0.00678102
0.00717301
0.00760969
0.00807379
0.00854974
0.00902487
0.00948969
0.00993781
0.0103655
0.010771
0.0111543
0.0115162
0.0118579
0.0121808
0.0124857
0.0127731
0.0130428
0.0132941
0.013526
0.0137373
0.013927
0.0140947
0.0142402
0.0143643
0.0144681
0.014553
0.0146211
0.0146744
0.0147164
0.0147472
0.0147694
0.0147837
0.0147897
0.014786
0.01477
0.0147382
0.0146862
0.0146104
0.014509
0.0143852
0.0142521
0.0141403
0.0141059
0.0142212
0.014528
0.0149847
0.015481
0.0159025
0.0161749
0.0162669
0.016177
0.0159194
0.0155158
0.01499
0.0143658
0.0136655
0.0129082
0.0121097
0.0112821
0.0104349
0.00958237
0.00877254
0.00819537
0.00842036
0.0100713
0.0124913
0.0142358
0.0144434
0.0130102
0.0102163
0.00627648
0.00165725
0.0008833
0.00410019
0.0116008
0.00985027
0.000752429
0.00156514
0.00236531
0.00308433
0.00366106
0.00414694
0.00459514
0.00502922
0.0054481
0.0058378
0.00617931
0.00645388
0.0066473
0.00675327
0.00677556
0.00672845
0.00663513
0.00652475
0.00642842
0.00637297
0.00637991
0.00646351
0.00663058
0.00688375
0.00721334
0.00760498
0.0080376
0.00848946
0.00894294
0.00938507
0.00980721
0.0102045
0.0105749
0.0109187
0.0112374
0.0115335
0.0118093
0.012067
0.0123081
0.0125333
0.0127426
0.0129356
0.0131114
0.0132691
0.013408
0.0135279
0.0136293
0.0137132
0.0137808
0.0138341
0.0138749
0.0139055
0.013929
0.0139463
0.0139609
0.013975
0.0139899
0.0140065
0.0140247
0.0140436
0.0140618
0.0140775
0.01409
0.0141013
0.0141186
0.0141579
0.0142467
0.014418
0.014689
0.0150369
0.0154011
0.0157109
0.0159117
0.0159735
0.0158872
0.0156583
0.0153003
0.0148309
0.0142692
0.0136334
0.0129398
0.0122014
0.0114284
0.0106284
0.00981375
0.00902896
0.00844561
0.00856771
0.0100384
0.0124407
0.0143942
0.0149161
0.0137851
0.0112238
0.00752937
0.00269646
0.0005255
0.00471488
0.0117724
0.0100873
0.00141815
0.00136185
0.00215696
0.00292017
0.00355307
0.00411423
0.0046503
0.00517372
0.00567601
0.00613953
0.00654395
0.00687075
0.00710689
0.00724751
0.00729747
0.00727155
0.00719313
0.00709147
0.00699803
0.00694215
0.00694811
0.00702965
0.00719436
0.00744738
0.00777535
0.00816248
0.00858289
0.00901104
0.00942794
0.00982129
0.0101842
0.0105141
0.0108114
0.0110787
0.0113195
0.011538
0.0117378
0.0119218
0.0120918
0.0122487
0.0123924
0.0125224
0.0126378
0.0127381
0.0128229
0.0128927
0.0129485
0.0129915
0.0130236
0.0130465
0.0130623
0.0130729
0.0130805
0.0130864
0.0130945
0.0131075
0.0131279
0.0131578
0.013199
0.0132529
0.01332
0.0134004
0.0134942
0.0136021
0.0137269
0.0138751
0.0140568
0.0142829
0.0145554
0.0148565
0.0151497
0.0153913
0.0155444
0.0155854
0.015505
0.0153043
0.014992
0.014581
0.0140857
0.0135205
0.0128983
0.0122295
0.0115218
0.010781
0.0100176
0.00927222
0.00870105
0.00875478
0.0100675
0.0124139
0.0145187
0.0153136
0.0144651
0.012129
0.00862739
0.00403756
0.00113987
0.00514956
0.0115647
0.0103397
0.00207689
0.00131078
0.00195688
0.00275631
0.00344542
0.00408237
0.00470195
0.00530809
0.00588858
0.00642416
0.0068938
0.00727893
0.00756685
0.00775297
0.00784215
0.00784883
0.00779598
0.00771275
0.00763115
0.00758207
0.00759147
0.00767684
0.00784445
0.00809706
0.00842418
0.00880052
0.00919845
0.00959007
0.00995594
0.0102851
0.0105734
0.010821
0.0110313
0.0112097
0.0113621
0.0114942
0.0116108
0.0117153
0.0118094
0.0118936
0.0119673
0.0120297
0.0120798
0.0121176
0.0121436
0.0121593
0.0121666
0.0121677
0.012165
0.0121602
0.012155
0.012151
0.012149
0.0121499
0.0121573
0.0121738
0.012202
0.0122446
0.0123042
0.0123834
0.0124841
0.0126077
0.0127549
0.0129261
0.0131211
0.0133405
0.0135847
0.013853
0.0141388
0.0144261
0.0146896
0.014901
0.0150352
0.0150757
0.0150144
0.0148514
0.0145923
0.0142462
0.0138239
0.0133362
0.0127928
0.0122016
0.0115679
0.0108958
0.010194
0.00949968
0.00895515
0.00896597
0.0101424
0.0124091
0.0146197
0.0156562
0.015085
0.0129944
0.00971613
0.00548468
0.00236218
0.00551266
0.0110429
0.0105951
0.00272995
0.00151797
0.00184204
0.00263601
0.00336966
0.004069
0.00475616
0.00543076
0.00607934
0.00668163
0.00721569
0.0076623
0.00800822
0.00824828
0.00838654
0.00843645
0.00842004
0.00836587
0.00830599
0.0082721
0.00829132
0.0083827
0.00855508
0.00880409
0.00912633
0.00948365
0.00984751
0.0101893
0.01049
0.0107408
0.0109406
0.0110933
0.0112057
0.0112862
0.0113433
0.0113844
0.0114149
0.0114379
0.0114545
0.0114637
0.011464
0.0114536
0.0114318
0.0113993
0.0113582
0.0113119
0.0112644
0.0112196
0.0111807
0.0111497
0.0111278
0.0111158
0.0111124
0.0111176
0.0111337
0.0111626
0.0112062
0.0112666
0.0113465
0.0114486
0.0115755
0.0117293
0.0119113
0.0121216
0.012359
0.012621
0.0129034
0.0131998
0.0135
0.0137888
0.0140469
0.0142544
0.0143937
0.0144528
0.0144256
0.0143116
0.0141144
0.0138403
0.0134971
0.0130926
0.0126338
0.0121259
0.0115725
0.0109758
0.0103431
0.00970841
0.00920178
0.00918954
0.0102505
0.0124247
0.0147064
0.015961
0.0156695
0.0138573
0.0108581
0.00701851
0.00375955
0.00583992
0.0102605
0.0108563
0.00339186
0.00193174
0.00190714
0.00260522
0.00335383
0.00408502
0.00481278
0.00553525
0.00623781
0.0068985
0.00749367
0.00800268
0.00841109
0.00871251
0.00890963
0.00901435
0.00904705
0.00903477
0.00900847
0.00899936
0.00903475
0.00913433
0.0093075
0.00955093
0.00985661
0.0101857
0.0105034
0.0107824
0.0110049
0.0111646
0.0112646
0.0113127
0.01132
0.0112983
0.0112588
0.0112099
0.011157
0.0111018
0.0110431
0.0109778
0.0109021
0.0108131
0.0107103
0.0105957
0.0104744
0.0103531
0.0102392
0.0101396
0.0100591
0.0100006
0.00996467
0.00995051
0.00995507
0.00997538
0.0100121
0.0100652
0.0101351
0.0102229
0.0103303
0.0104595
0.0106127
0.0107922
0.0109997
0.0112355
0.0114982
0.0117844
0.0120884
0.012402
0.012714
0.0130105
0.0132761
0.0134953
0.0136551
0.0137465
0.0137643
0.0137077
0.0135788
0.0133817
0.0131215
0.0128035
0.0124322
0.0120109
0.011541
0.0110236
0.0104645
0.00989518
0.00943497
0.00941569
0.0103812
0.0124584
0.0147845
0.0162367
0.0162264
0.0147206
0.0120467
0.00863661
0.00523983
0.00608474
0.00917069
0.0111299
0.00407339
0.00247319
0.00217539
0.00269921
0.00340679
0.00413129
0.00486548
0.00561066
0.00635007
0.00705853
0.00770963
0.00828055
0.00875504
0.00912505
0.00939145
0.00956401
0.00966057
0.00970538
0.00972668
0.00975339
0.0098115
0.00992055
0.0100908
0.0103212
0.0105972
0.0108884
0.011148
0.0113519
0.0114845
0.0115428
0.0115345
0.0114728
0.011373
0.011251
0.0111203
0.0109895
0.0108623
0.0107376
0.0106102
0.0104732
0.0103197
0.0101451
0.00994935
0.00973699
0.00951728
0.00930232
0.00910486
0.00893607
0.00880395
0.00871262
0.00866238
0.00865013
0.00867187
0.00871883
0.00878895
0.00887968
0.00898911
0.00911641
0.00926177
0.00942619
0.00961128
0.0098189
0.0100507
0.0103072
0.0105876
0.0108888
0.0112054
0.0115294
0.0118505
0.0121568
0.0124353
0.0126739
0.0128623
0.0129928
0.0130613
0.0130661
0.013008
0.0128892
0.0127127
0.0124816
0.0121981
0.0118636
0.0114778
0.0110408
0.0105572
0.0100564
0.00964862
0.00963544
0.0105245
0.0125062
0.0148556
0.0164841
0.0167485
0.0155612
0.0132317
0.010261
0.00690189
0.00634622
0.00772168
0.011421
0.00477773
0.00309504
0.00260742
0.00292548
0.00352371
0.00419458
0.00490213
0.00564251
0.00639958
0.00714361
0.00784428
0.00847575
0.00901943
0.00946519
0.00981175
0.0100662
0.0102428
0.0103618
0.0104467
0.010522
0.0106105
0.0107306
0.0108936
0.0111009
0.0113384
0.0115782
0.011769
0.011887
0.0119198
0.0118691
0.0117483
0.0115764
0.0113741
0.0111611
0.010952
0.0107543
0.010568
0.0103868
0.0102
0.00999545
0.0097623
0.00949422
0.00919168
0.00886294
0.00852315
0.00819176
0.00788897
0.00763235
0.00743434
0.00730124
0.00723342
0.00722474
0.00727234
0.00735717
0.00747336
0.0076149
0.0077769
0.00795606
0.00815066
0.00836024
0.00858536
0.00882721
0.00908716
0.00936601
0.00966339
0.00997717
0.0103031
0.0106348
0.0109636
0.0112799
0.0115732
0.0118336
0.0120527
0.0122243
0.012344
0.0124098
0.0124213
0.0123791
0.0122841
0.0121375
0.0119394
0.0116895
0.0113861
0.0110281
0.0106195
0.0101881
0.00983655
0.00984019
0.0106707
0.0125626
0.0149182
0.0166992
0.0172205
0.016342
0.0143412
0.0117543
0.00866932
0.00683465
0.0062149
0.0117321
0.00550062
0.00376381
0.00313911
0.00325088
0.003689
0.00425931
0.00490561
0.00561419
0.00636859
0.00713508
0.00787832
0.00856854
0.00918407
0.00971233
0.0101495
0.0104997
0.0107732
0.0109843
0.0111504
0.0112891
0.0114178
0.0115521
0.0117045
0.01188
0.0120696
0.0122444
0.0123578
0.0123809
0.0123066
0.0121431
0.0119104
0.0116344
0.0113411
0.0110534
0.0107855
0.0105407
0.0103132
0.0100898
0.00985294
0.00958452
0.00926959
0.00890007
0.00847759
0.00801473
0.00753379
0.00706305
0.00663213
0.00626692
0.00598606
0.00579926
0.00570772
0.00570168
0.00578346
0.00591634
0.00608915
0.00629213
0.00651706
0.00675794
0.00701096
0.00727411
0.00754684
0.00782957
0.00812326
0.00842873
0.00874609
0.0090742
0.0094103
0.00974982
0.0100865
0.0104129
0.0107209
0.0110029
0.011252
0.0114628
0.0116314
0.0117551
0.0118324
0.0118625
0.0118447
0.0117781
0.0116612
0.0114919
0.0112672
0.0109851
0.0106491
0.0102861
0.00999279
0.010022
0.010811
0.0126223
0.0149709
0.0168783
0.0176277
0.0170276
0.0153111
0.0130087
0.0102182
0.00768682
0.0052367
0.0120632
0.00623228
0.00445368
0.00372133
0.00364692
0.00389148
0.00430936
0.00486046
0.00550977
0.00623973
0.00701524
0.00779413
0.0085412
0.00923073
0.0098471
0.010384
0.0108423
0.011228
0.0115493
0.0118151
0.0120343
0.0122158
0.0123704
0.012511
0.0126481
0.0127794
0.0128799
0.0129072
0.0128291
0.0126439
0.0123682
0.0120299
0.0116623
0.0112962
0.0109556
0.0106512
0.0103798
0.0101276
0.00987357
0.00959325
0.00926319
0.00886497
0.0083893
0.00783936
0.00723223
0.00659746
0.00597212
0.00539569
0.00490334
0.00452149
0.00426538
0.00413869
0.00413012
0.00424017
0.00443569
0.00467305
0.00494328
0.00523628
0.00554343
0.00585901
0.00617963
0.00650378
0.00683132
0.00716279
0.00749884
0.00783986
0.00818556
0.00853456
0.00888414
0.0092302
0.00956757
0.00989053
0.0101934
0.0104708
0.0107182
0.0109321
0.0111094
0.0112477
0.0113451
0.011399
0.0114071
0.0113661
0.0112723
0.0111215
0.0109108
0.0106437
0.0103468
0.0101122
0.0101742
0.0109383
0.0126817
0.015015
0.0170226
0.0179653
0.0176009
0.0161136
0.0139985
0.0114
0.0085694
0.00500748
0.0124108
0.00695976
0.00514143
0.00431249
0.00406992
0.00411324
0.00433959
0.00474616
0.00531326
0.00599752
0.00676938
0.00757788
0.00838043
0.00914564
0.00985404
0.0104968
0.0110723
0.0115828
0.0120304
0.0124148
0.0127334
0.0129836
0.0131681
0.013299
0.0133935
0.0134583
0.0134768
0.0134106
0.0132286
0.0129325
0.0125505
0.0121189
0.011678
0.0112615
0.0108912
0.010571
0.0102892
0.0100234
0.00974516
0.00942464
0.00903467
0.00855486
0.00797586
0.00730303
0.00655812
0.00577726
0.0050039
0.00428456
0.00366023
0.00316269
0.00281446
0.00262697
0.00259741
0.00269285
0.00296037
0.00326726
0.00360458
0.00396333
0.00433374
0.00470874
0.00508406
0.00545777
0.00582952
0.00619951
0.006568
0.00693534
0.00730183
0.00766722
0.00803026
0.0083887
0.00873943
0.00907876
0.0094028
0.00970773
0.00998998
0.0102462
0.0104734
0.0106685
0.0108281
0.0109487
0.011026
0.0110553
0.0110313
0.0109487
0.0108042
0.0106012
0.0103671
0.010191
0.0102925
0.0110483
0.0127402
0.0150563
0.0171415
0.0182417
0.0180684
0.0167599
0.0147681
0.0122847
0.00932041
0.00523642
0.0127685
0.00766882
0.00580686
0.00488396
0.00448936
0.0043392
0.00435338
0.0045703
0.00501862
0.00563343
0.00638796
0.00722187
0.00808026
0.00892303
0.00972539
0.0104761
0.0111728
0.0118154
0.0124014
0.0129216
0.0133597
0.0136976
0.0139256
0.0140526
0.0141034
0.0140969
0.0140264
0.0138621
0.0135779
0.0131757
0.012698
0.0121898
0.0116971
0.0112532
0.0108734
0.0105529
0.0102701
0.00999533
0.00969482
0.00933568
0.00888942
0.00833583
0.00766737
0.00689328
0.00604143
0.00515522
0.00428247
0.00347411
0.00276596
0.00217842
0.0017241
0.00141788
0.00128476
0.00132324
0.00154946
0.00193109
0.00231865
0.00272559
0.00314474
0.00356776
0.0039887
0.00440543
0.00481774
0.00522506
0.00562645
0.00602182
0.0064118
0.00679696
0.00717723
0.00755181
0.00791925
0.0082776
0.00862457
0.00895768
0.00927426
0.00957145
0.00984605
0.0100944
0.0103123
0.0104947
0.010636
0.01073
0.0107699
0.0107495
0.0106651
0.010521
0.0103457
0.0102277
0.0103754
0.0111405
0.0128017
0.0151056
0.0172515
0.0184762
0.0184523
0.017282
0.0153809
0.0129838
0.00999437
0.00564143
0.0131269
0.00834502
0.00643163
0.00541205
0.0048768
0.00454605
0.0043435
0.00433743
0.00460781
0.00514223
0.0058666
0.00672645
0.00764505
0.00856882
0.00946534
0.0103213
0.0111354
0.0119094
0.0126392
0.0133083
0.0138855
0.0143326
0.0146215
0.0147542
0.0147636
0.0146842
0.014522
0.0142565
0.013871
0.0133779
0.0128209
0.0122565
0.011734
0.0112823
0.010907
0.0105938
0.0103128
0.0100288
0.00970562
0.00930998
0.00881455
0.00820186
0.00746892
0.00663192
0.00572809
0.0048107
0.00393199
0.00315969
0.00251677
0.0019991
0.00158294
0.00123716
0.000935008
0.000678751
0.00051812
0.000646206
0.0010825
0.00152653
0.00198182
0.00244421
0.002903
0.00335739
0.00380815
0.00425242
0.00468661
0.00511001
0.00552398
0.00593008
0.00632934
0.00672217
0.00710854
0.00748793
0.0078594
0.00822156
0.00857253
0.00890976
0.00922996
0.00952888
0.00980133
0.0100411
0.0102411
0.0103937
0.010491
0.010526
0.010495
0.0104039
0.0102836
0.0102237
0.0104254
0.0112191
0.0128746
0.0151783
0.0173737
0.0186928
0.018779
0.0177116
0.0158836
0.0135635
0.0106022
0.00605423
0.0134741
0.00897464
0.00699996
0.005878
0.00521121
0.00471836
0.00430904
0.00405858
0.00410421
0.00452336
0.00520959
0.00610144
0.0070909
0.00810276
0.00909308
0.0100463
0.0109655
0.011859
0.0127273
0.0135509
0.0142841
0.0148632
0.0152337
0.0153854
0.015359
0.0152082
0.0149556
0.0145921
0.0141113
0.0135366
0.0129208
0.0123245
0.0117939
0.0113502
0.0109882
0.010684
0.010403
0.0101075
0.00976132
0.00933294
0.0087985
0.00814573
0.00737909
0.00652488
0.00563263
0.00476865
0.00399924
0.0033691
0.00288548
0.00252025
0.0022283
0.00196769
0.00170902
0.00143643
0.00113791
0.000780295
0.000350013
0.000337346
0.000880521
0.00140031
0.00189528
0.00238216
0.00286784
0.00334451
0.00380469
0.00424861
0.00467984
0.00510158
0.00551601
0.00592457
0.00632832
0.00672782
0.00712308
0.0075135
0.00789765
0.00827313
0.00863634
0.00898233
0.00930488
0.00959655
0.00984892
0.010053
0.0101999
0.0102824
0.0102974
0.010253
0.0101841
0.0101838
0.0104493
0.0112936
0.0129725
0.0152938
0.0175311
0.0189141
0.01907
0.0180699
0.0162996
0.0140482
0.0111108
0.00633575
0.013796
0.00954492
0.00749883
0.00626682
0.00547463
0.0048402
0.00424758
0.00375372
0.0035391
0.0037905
0.00442687
0.00536292
0.00644311
0.00755638
0.00864164
0.00968072
0.0106838
0.0116721
0.0126594
0.0136318
0.0145316
0.0152647
0.0157402
0.0159278
0.0158748
0.0156571
0.0153186
0.0148644
0.0143003
0.0136612
0.0130068
0.012398
0.0118748
0.011448
0.0111028
0.0108083
0.0105263
0.0102191
0.00985263
0.00939934
0.00884113
0.00817301
0.00740796
0.00658092
0.00574811
0.00497709
0.00432676
0.00382561
0.00345949
0.00318507
0.0029541
0.00272974
0.00248998
0.00222376
0.00192387
0.00158236
0.00119685
0.000752997
0.000237482
0.000517143
0.00110177
0.00160294
0.00209736
0.00258234
0.00304828
0.00349714
0.00393378
0.0043619
0.00478408
0.00520219
0.0056181
0.00603319
0.00644813
0.0068628
0.00727599
0.00768521
0.00808633
0.00847346
0.00883927
0.0091751
0.00947125
0.0097176
0.0099046
0.0100251
0.0100775
0.0100735
0.0100537
0.0101169
0.0104595
0.0113802
0.0131156
0.0154755
0.0177466
0.0191579
0.0193375
0.018367
0.0166375
0.0144432
0.0114668
0.00640494
0.0140755
0.0100438
0.00791827
0.00656782
0.0056533
0.0048978
0.00415644
0.0034376
0.0029091
0.00289828
0.00352048
0.00452792
0.00573201
0.00696715
0.00815129
0.00926418
0.0103247
0.0113715