/*--------------------------------*- C++ -*----------------------------------*\
| =========                 |                                                 |
| \\      /  F ield         | OpenFOAM: The Open Source CFD Toolbox           |
|  \\    /   O peration     | Version:  4.1                                   |
|   \\  /    A nd           | Web:      www.OpenFOAM.org                      |
|    \\/     M anipulation  |                                                 |
\*---------------------------------------------------------------------------*/
FoamFile
{
    version     2.0;
    format      ascii;
    class       volScalarField;
    location    "1380";
    object      p;
}
// * * * * * * * * * * * * * * * * * * * * * * * * * * * * * * * * * * * * * //

dimensions      [0 2 -2 0 0 0 0];

internalField   nonuniform List<scalar> 
5000
(
0
4.68668e-06
7.93292e-06
6.84253e-06
5.0413e-06
2.09866e-06
-1.09479e-06
-4.1356e-06
-6.99868e-06
-9.77478e-06
-1.25714e-05
-1.54935e-05
-1.86364e-05
-2.20777e-05
-2.58704e-05
-3.00395e-05
-3.45783e-05
-3.94486e-05
-4.45882e-05
-4.99248e-05
-5.53924e-05
-6.09451e-05
-6.65646e-05
-7.22619e-05
-7.80725e-05
-8.40482e-05
-9.02473e-05
-9.6727e-05
-0.000103539
-0.000110731
-0.000118347
-0.000126437
-0.000135063
-0.000144306
-0.000154266
-0.00016505
-0.000176739
-0.000189314
-0.000202574
-0.000216093
-0.00022951
-0.000242256
-0.000253929
-0.000264197
-0.00027281
-0.000279597
-0.000284533
-0.000287825
-0.00028984
-0.000290989
-0.000291749
-0.000292417
-0.000293079
-0.000293712
-0.000294241
-0.00029457
-0.000294606
-0.000294285
-0.000293602
-0.000292654
-0.000291674
-0.00029107
-0.000291431
-0.000293466
-0.00029778
-0.000304438
-0.000312485
-0.000319756
-0.000323347
-0.00032174
-0.000320587
-0.000333897
-0.000365809
-0.000393493
-0.00040225
-0.00039959
-0.000388715
-0.000370919
-0.000349423
-0.000326523
-0.00030359
-0.000281427
-0.000261963
-0.000248232
-0.000243694
-0.000248418
-0.000252043
-0.000253664
-0.000258487
-0.00025467
-0.00025033
-0.000245284
-0.000240044
-0.000235245
-0.000231447
-0.000228555
-0.000226677
-0.000226423
-0.000229451
-0.000232396
-0.0984297
-0.0984288
-0.0984273
-0.0984265
-0.0984263
-0.098427
-0.0984282
-0.0984294
-0.0984306
-0.0984318
-0.0984333
-0.0984349
-0.098437
-0.0984394
-0.0984422
-0.0984454
-0.0984491
-0.0984532
-0.0984577
-0.0984627
-0.098468
-0.0984737
-0.0984797
-0.0984861
-0.0984927
-0.0984996
-0.0985068
-0.0985142
-0.0985218
-0.0985297
-0.0985378
-0.0985462
-0.0985549
-0.0985637
-0.0985728
-0.0985819
-0.0985912
-0.0986004
-0.0986094
-0.0986182
-0.0986264
-0.0986342
-0.0986416
-0.0986488
-0.0986558
-0.0986624
-0.0986681
-0.0986729
-0.0986768
-0.0986799
-0.0986825
-0.0986847
-0.0986864
-0.0986879
-0.098689
-0.09869
-0.0986908
-0.0986916
-0.0986923
-0.0986932
-0.0986943
-0.0986958
-0.0986983
-0.0987019
-0.0987069
-0.0987127
-0.0987178
-0.0987204
-0.098718
-0.0987102
-0.0987059
-0.0987229
-0.0987589
-0.0987869
-0.0987993
-0.0987987
-0.098786
-0.0987665
-0.0987439
-0.0987217
-0.0987015
-0.098684
-0.0986689
-0.0986565
-0.0986474
-0.0986426
-0.0986424
-0.098653
-0.0986647
-0.0986697
-0.0986689
-0.098665
-0.0986612
-0.0986577
-0.0986548
-0.0986523
-0.0986505
-0.0986496
-0.0986498
-0.0986496
-0.196872
-0.196873
-0.196871
-0.19687
-0.19687
-0.196871
-0.196872
-0.196873
-0.196874
-0.196876
-0.196877
-0.196879
-0.196881
-0.196884
-0.196887
-0.19689
-0.196894
-0.196898
-0.196903
-0.196908
-0.196913
-0.196919
-0.196925
-0.196931
-0.196938
-0.196945
-0.196952
-0.19696
-0.196967
-0.196975
-0.196983
-0.196992
-0.197
-0.197009
-0.197018
-0.197026
-0.197035
-0.197043
-0.197051
-0.197058
-0.197064
-0.19707
-0.197076
-0.197082
-0.197089
-0.197096
-0.197102
-0.197108
-0.197114
-0.197118
-0.197122
-0.197125
-0.197128
-0.19713
-0.197131
-0.197133
-0.197134
-0.197134
-0.197135
-0.197136
-0.197137
-0.197138
-0.19714
-0.197144
-0.197148
-0.197153
-0.197158
-0.197158
-0.197153
-0.197143
-0.19714
-0.197155
-0.197188
-0.19722
-0.197235
-0.197233
-0.197221
-0.197203
-0.197181
-0.197159
-0.197138
-0.197121
-0.197106
-0.197093
-0.197082
-0.197073
-0.197068
-0.197073
-0.197087
-0.197101
-0.197104
-0.197102
-0.197098
-0.197094
-0.197091
-0.197088
-0.197086
-0.197084
-0.197084
-0.197082
-0.295315
-0.295316
-0.295315
-0.295314
-0.295314
-0.295315
-0.295316
-0.295317
-0.295318
-0.295319
-0.295321
-0.295323
-0.295325
-0.295328
-0.295331
-0.295335
-0.295339
-0.295343
-0.295348
-0.295353
-0.295359
-0.295365
-0.295371
-0.295377
-0.295384
-0.295391
-0.295398
-0.295405
-0.295413
-0.295421
-0.295429
-0.295437
-0.295446
-0.295454
-0.295463
-0.295472
-0.29548
-0.295488
-0.295496
-0.295503
-0.29551
-0.295516
-0.295523
-0.295529
-0.295536
-0.295542
-0.295549
-0.295555
-0.29556
-0.295564
-0.295568
-0.295571
-0.295574
-0.295576
-0.295577
-0.295578
-0.295579
-0.29558
-0.29558
-0.29558
-0.295581
-0.295581
-0.295583
-0.295586
-0.29559
-0.295594
-0.295598
-0.295599
-0.295594
-0.295586
-0.295582
-0.295592
-0.295616
-0.29564
-0.295655
-0.295656
-0.295647
-0.295631
-0.295612
-0.295591
-0.295572
-0.295556
-0.295541
-0.295529
-0.295518
-0.295508
-0.295501
-0.295502
-0.295512
-0.295525
-0.295535
-0.295536
-0.295533
-0.295529
-0.295525
-0.295522
-0.29552
-0.295518
-0.295517
-0.295515
-0.393759
-0.39376
-0.393758
-0.393758
-0.393758
-0.393758
-0.393759
-0.39376
-0.393761
-0.393762
-0.393764
-0.393766
-0.393769
-0.393772
-0.393775
-0.393779
-0.393783
-0.393788
-0.393793
-0.393799
-0.393804
-0.39381
-0.393816
-0.393823
-0.393829
-0.393836
-0.393843
-0.393851
-0.393858
-0.393866
-0.393874
-0.393882
-0.393891
-0.393899
-0.393908
-0.393916
-0.393925
-0.393933
-0.393941
-0.393948
-0.393956
-0.393962
-0.393969
-0.393976
-0.393982
-0.393989
-0.393995
-0.394001
-0.394006
-0.39401
-0.394014
-0.394017
-0.39402
-0.394021
-0.394023
-0.394024
-0.394024
-0.394024
-0.394024
-0.394024
-0.394024
-0.394024
-0.394025
-0.394026
-0.394029
-0.394033
-0.394037
-0.394037
-0.394033
-0.394025
-0.394018
-0.394022
-0.394036
-0.394053
-0.394064
-0.394067
-0.394061
-0.394049
-0.394034
-0.394018
-0.394002
-0.393987
-0.393974
-0.393963
-0.393952
-0.393943
-0.393935
-0.393934
-0.39394
-0.39395
-0.393959
-0.393964
-0.393965
-0.393962
-0.393958
-0.393955
-0.393952
-0.39395
-0.393949
-0.393947
-0.492201
-0.492202
-0.492201
-0.492201
-0.492201
-0.492202
-0.492202
-0.492203
-0.492204
-0.492206
-0.492207
-0.49221
-0.492212
-0.492216
-0.492219
-0.492224
-0.492228
-0.492233
-0.492238
-0.492244
-0.49225
-0.492255
-0.492262
-0.492268
-0.492274
-0.492281
-0.492288
-0.492295
-0.492303
-0.49231
-0.492318
-0.492326
-0.492335
-0.492343
-0.492352
-0.49236
-0.492369
-0.492377
-0.492385
-0.492393
-0.4924
-0.492408
-0.492415
-0.492422
-0.492428
-0.492435
-0.492441
-0.492446
-0.492451
-0.492456
-0.49246
-0.492463
-0.492465
-0.492467
-0.492468
-0.492468
-0.492469
-0.492469
-0.492468
-0.492467
-0.492467
-0.492466
-0.492466
-0.492466
-0.492468
-0.49247
-0.492473
-0.492473
-0.492468
-0.492458
-0.492449
-0.492447
-0.492453
-0.492463
-0.492471
-0.492474
-0.492471
-0.492463
-0.492453
-0.49244
-0.492428
-0.492416
-0.492405
-0.492395
-0.492386
-0.492378
-0.492371
-0.492367
-0.49237
-0.492377
-0.492384
-0.492389
-0.492392
-0.492391
-0.492389
-0.492386
-0.492383
-0.492381
-0.49238
-0.492377
-0.590644
-0.590644
-0.590643
-0.590644
-0.590644
-0.590645
-0.590645
-0.590646
-0.590648
-0.590649
-0.590651
-0.590653
-0.590656
-0.59066
-0.590664
-0.590668
-0.590673
-0.590678
-0.590683
-0.590689
-0.590694
-0.5907
-0.590706
-0.590712
-0.590719
-0.590725
-0.590732
-0.590739
-0.590746
-0.590754
-0.590762
-0.59077
-0.590778
-0.590787
-0.590795
-0.590804
-0.590812
-0.590821
-0.590829
-0.590837
-0.590845
-0.590852
-0.590859
-0.590866
-0.590873
-0.59088
-0.590886
-0.590892
-0.590897
-0.590901
-0.590905
-0.590907
-0.59091
-0.590911
-0.590912
-0.590913
-0.590913
-0.590912
-0.590911
-0.59091
-0.590909
-0.590907
-0.590906
-0.590905
-0.590905
-0.590906
-0.590906
-0.590905
-0.590899
-0.590888
-0.590877
-0.590871
-0.590872
-0.590876
-0.590881
-0.590883
-0.590882
-0.590878
-0.590871
-0.590862
-0.590854
-0.590845
-0.590836
-0.590828
-0.59082
-0.590813
-0.590807
-0.590803
-0.590803
-0.590807
-0.590811
-0.590814
-0.590817
-0.590818
-0.590817
-0.590815
-0.590813
-0.590812
-0.590811
-0.590808
-0.689085
-0.689086
-0.689085
-0.689086
-0.689087
-0.689087
-0.689088
-0.68909
-0.689091
-0.689093
-0.689095
-0.689097
-0.689101
-0.689104
-0.689108
-0.689113
-0.689118
-0.689123
-0.689128
-0.689133
-0.689139
-0.689144
-0.68915
-0.689156
-0.689162
-0.689168
-0.689175
-0.689182
-0.689189
-0.689196
-0.689204
-0.689212
-0.689221
-0.689229
-0.689238
-0.689246
-0.689255
-0.689264
-0.689272
-0.68928
-0.689288
-0.689296
-0.689304
-0.689311
-0.689318
-0.689324
-0.689331
-0.689336
-0.689341
-0.689345
-0.689349
-0.689352
-0.689354
-0.689356
-0.689357
-0.689357
-0.689356
-0.689356
-0.689354
-0.689353
-0.689351
-0.689348
-0.689346
-0.689344
-0.689342
-0.68934
-0.689338
-0.689335
-0.689327
-0.689316
-0.689304
-0.689296
-0.689293
-0.689294
-0.689296
-0.689298
-0.689298
-0.689296
-0.689292
-0.689286
-0.68928
-0.689274
-0.689267
-0.68926
-0.689254
-0.689248
-0.689243
-0.689239
-0.689238
-0.689239
-0.68924
-0.689242
-0.689243
-0.689243
-0.689244
-0.689243
-0.689243
-0.689242
-0.689241
-0.689238
-0.787527
-0.787527
-0.787527
-0.787528
-0.787529
-0.78753
-0.787532
-0.787533
-0.787535
-0.787537
-0.787539
-0.787542
-0.787545
-0.787549
-0.787553
-0.787557
-0.787562
-0.787567
-0.787572
-0.787577
-0.787583
-0.787588
-0.787593
-0.787599
-0.787605
-0.787611
-0.787617
-0.787624
-0.787631
-0.787638
-0.787646
-0.787654
-0.787662
-0.787671
-0.78768
-0.787688
-0.787697
-0.787706
-0.787715
-0.787723
-0.787731
-0.787739
-0.787747
-0.787755
-0.787762
-0.787769
-0.787775
-0.787781
-0.787786
-0.78779
-0.787793
-0.787796
-0.787798
-0.7878
-0.7878
-0.787801
-0.7878
-0.787799
-0.787797
-0.787795
-0.787792
-0.78779
-0.787786
-0.787783
-0.787779
-0.787775
-0.787771
-0.787765
-0.787756
-0.787745
-0.787733
-0.787724
-0.787719
-0.787717
-0.787718
-0.787719
-0.787719
-0.787718
-0.787716
-0.787713
-0.787709
-0.787704
-0.787699
-0.787694
-0.787688
-0.787683
-0.787679
-0.787675
-0.787673
-0.787673
-0.787672
-0.787671
-0.787671
-0.787671
-0.787671
-0.787672
-0.787672
-0.787673
-0.787672
-0.787669
-0.885968
-0.885969
-0.885969
-0.88597
-0.885972
-0.885973
-0.885975
-0.885976
-0.885978
-0.885981
-0.885983
-0.885986
-0.885989
-0.885993
-0.885997
-0.886001
-0.886006
-0.886011
-0.886016
-0.886021
-0.886026
-0.886031
-0.886036
-0.886041
-0.886047
-0.886053
-0.886059
-0.886065
-0.886072
-0.88608
-0.886087
-0.886095
-0.886104
-0.886112
-0.886121
-0.88613
-0.886139
-0.886148
-0.886157
-0.886166
-0.886174
-0.886183
-0.886191
-0.886198
-0.886206
-0.886213
-0.886219
-0.886225
-0.88623
-0.886234
-0.886238
-0.88624
-0.886242
-0.886244
-0.886244
-0.886244
-0.886244
-0.886242
-0.88624
-0.886238
-0.886235
-0.886231
-0.886227
-0.886223
-0.886218
-0.886212
-0.886206
-0.886198
-0.886189
-0.886177
-0.886166
-0.886156
-0.88615
-0.886148
-0.886147
-0.886147
-0.886147
-0.886147
-0.886145
-0.886143
-0.88614
-0.886137
-0.886133
-0.886128
-0.886124
-0.886119
-0.886115
-0.886112
-0.886109
-0.886108
-0.886106
-0.886103
-0.886101
-0.8861
-0.8861
-0.886102
-0.886103
-0.886104
-0.886104
-0.886102
-0.98441
-0.984411
-0.984411
-0.984413
-0.984415
-0.984416
-0.984418
-0.98442
-0.984422
-0.984424
-0.984427
-0.98443
-0.984433
-0.984437
-0.984441
-0.984445
-0.984449
-0.984454
-0.984459
-0.984463
-0.984468
-0.984473
-0.984478
-0.984483
-0.984488
-0.984494
-0.9845
-0.984506
-0.984513
-0.984521
-0.984528
-0.984537
-0.984545
-0.984554
-0.984563
-0.984572
-0.984581
-0.98459
-0.984599
-0.984608
-0.984617
-0.984626
-0.984634
-0.984642
-0.984649
-0.984656
-0.984663
-0.984669
-0.984674
-0.984678
-0.984682
-0.984685
-0.984687
-0.984688
-0.984688
-0.984688
-0.984687
-0.984686
-0.984683
-0.984681
-0.984677
-0.984673
-0.984669
-0.984663
-0.984658
-0.984651
-0.984644
-0.984635
-0.984625
-0.984614
-0.984603
-0.984594
-0.984587
-0.984584
-0.984582
-0.984581
-0.984581
-0.98458
-0.984579
-0.984577
-0.984574
-0.984571
-0.984567
-0.984564
-0.98456
-0.984556
-0.984552
-0.984549
-0.984546
-0.984543
-0.984541
-0.984537
-0.984534
-0.984532
-0.984531
-0.984533
-0.984535
-0.984536
-0.984537
-0.984535
-1.08285
-1.08285
-1.08285
-1.08286
-1.08286
-1.08286
-1.08286
-1.08286
-1.08287
-1.08287
-1.08287
-1.08287
-1.08288
-1.08288
-1.08288
-1.08289
-1.08289
-1.0829
-1.0829
-1.08291
-1.08291
-1.08291
-1.08292
-1.08292
-1.08293
-1.08293
-1.08294
-1.08295
-1.08295
-1.08296
-1.08297
-1.08298
-1.08299
-1.083
-1.083
-1.08301
-1.08302
-1.08303
-1.08304
-1.08305
-1.08306
-1.08307
-1.08308
-1.08309
-1.08309
-1.0831
-1.08311
-1.08311
-1.08312
-1.08312
-1.08313
-1.08313
-1.08313
-1.08313
-1.08313
-1.08313
-1.08313
-1.08313
-1.08313
-1.08312
-1.08312
-1.08312
-1.08311
-1.08311
-1.0831
-1.08309
-1.08308
-1.08308
-1.08307
-1.08306
-1.08304
-1.08304
-1.08303
-1.08302
-1.08302
-1.08302
-1.08302
-1.08302
-1.08302
-1.08301
-1.08301
-1.08301
-1.083
-1.083
-1.083
-1.08299
-1.08299
-1.08299
-1.08298
-1.08298
-1.08298
-1.08297
-1.08297
-1.08297
-1.08296
-1.08297
-1.08297
-1.08297
-1.08297
-1.08297
-1.18129
-1.1813
-1.1813
-1.1813
-1.1813
-1.1813
-1.1813
-1.18131
-1.18131
-1.18131
-1.18131
-1.18132
-1.18132
-1.18132
-1.18133
-1.18133
-1.18133
-1.18134
-1.18134
-1.18135
-1.18135
-1.18136
-1.18136
-1.18136
-1.18137
-1.18137
-1.18138
-1.18139
-1.18139
-1.1814
-1.18141
-1.18142
-1.18143
-1.18144
-1.18145
-1.18146
-1.18147
-1.18148
-1.18148
-1.18149
-1.1815
-1.18151
-1.18152
-1.18153
-1.18154
-1.18154
-1.18155
-1.18156
-1.18156
-1.18157
-1.18157
-1.18157
-1.18157
-1.18158
-1.18158
-1.18158
-1.18157
-1.18157
-1.18157
-1.18157
-1.18156
-1.18156
-1.18155
-1.18155
-1.18154
-1.18154
-1.18153
-1.18152
-1.18151
-1.1815
-1.18149
-1.18148
-1.18147
-1.18147
-1.18147
-1.18146
-1.18146
-1.18146
-1.18146
-1.18145
-1.18145
-1.18145
-1.18144
-1.18144
-1.18143
-1.18143
-1.18143
-1.18142
-1.18142
-1.18142
-1.18141
-1.18141
-1.1814
-1.1814
-1.1814
-1.1814
-1.1814
-1.1814
-1.18141
-1.18141
-1.27974
-1.27974
-1.27974
-1.27974
-1.27974
-1.27975
-1.27975
-1.27975
-1.27975
-1.27975
-1.27976
-1.27976
-1.27976
-1.27977
-1.27977
-1.27977
-1.27978
-1.27978
-1.27978
-1.27979
-1.27979
-1.2798
-1.2798
-1.2798
-1.27981
-1.27982
-1.27982
-1.27983
-1.27984
-1.27984
-1.27985
-1.27986
-1.27987
-1.27988
-1.27989
-1.2799
-1.27991
-1.27992
-1.27993
-1.27994
-1.27995
-1.27996
-1.27997
-1.27997
-1.27998
-1.27999
-1.28
-1.28
-1.28001
-1.28001
-1.28001
-1.28002
-1.28002
-1.28002
-1.28002
-1.28002
-1.28002
-1.28002
-1.28001
-1.28001
-1.28001
-1.28
-1.28
-1.27999
-1.27999
-1.27998
-1.27997
-1.27996
-1.27995
-1.27995
-1.27994
-1.27993
-1.27992
-1.27992
-1.27991
-1.27991
-1.2799
-1.2799
-1.2799
-1.27989
-1.27989
-1.27989
-1.27988
-1.27988
-1.27987
-1.27987
-1.27987
-1.27986
-1.27986
-1.27986
-1.27985
-1.27985
-1.27984
-1.27984
-1.27983
-1.27983
-1.27984
-1.27984
-1.27984
-1.27984
-1.37818
-1.37818
-1.37818
-1.37819
-1.37819
-1.37819
-1.37819
-1.37819
-1.3782
-1.3782
-1.3782
-1.3782
-1.37821
-1.37821
-1.37821
-1.37822
-1.37822
-1.37822
-1.37823
-1.37823
-1.37823
-1.37824
-1.37824
-1.37825
-1.37825
-1.37826
-1.37826
-1.37827
-1.37828
-1.37828
-1.37829
-1.3783
-1.37831
-1.37832
-1.37833
-1.37834
-1.37835
-1.37836
-1.37837
-1.37838
-1.37839
-1.3784
-1.37841
-1.37842
-1.37843
-1.37843
-1.37844
-1.37845
-1.37845
-1.37846
-1.37846
-1.37846
-1.37846
-1.37846
-1.37846
-1.37846
-1.37846
-1.37846
-1.37846
-1.37845
-1.37845
-1.37845
-1.37844
-1.37844
-1.37843
-1.37842
-1.37842
-1.37841
-1.3784
-1.37839
-1.37838
-1.37838
-1.37837
-1.37836
-1.37836
-1.37835
-1.37835
-1.37834
-1.37834
-1.37834
-1.37833
-1.37833
-1.37832
-1.37832
-1.37831
-1.37831
-1.3783
-1.3783
-1.3783
-1.37829
-1.37829
-1.37828
-1.37828
-1.37827
-1.37827
-1.37827
-1.37827
-1.37827
-1.37828
-1.37828
-1.47662
-1.47663
-1.47663
-1.47663
-1.47663
-1.47663
-1.47663
-1.47664
-1.47664
-1.47664
-1.47664
-1.47665
-1.47665
-1.47665
-1.47666
-1.47666
-1.47666
-1.47666
-1.47667
-1.47667
-1.47667
-1.47668
-1.47668
-1.47669
-1.47669
-1.4767
-1.4767
-1.47671
-1.47672
-1.47673
-1.47674
-1.47675
-1.47676
-1.47677
-1.47678
-1.47679
-1.4768
-1.47681
-1.47682
-1.47683
-1.47684
-1.47685
-1.47685
-1.47686
-1.47687
-1.47688
-1.47689
-1.47689
-1.4769
-1.4769
-1.4769
-1.47691
-1.47691
-1.47691
-1.47691
-1.47691
-1.47691
-1.4769
-1.4769
-1.4769
-1.47689
-1.47689
-1.47689
-1.47688
-1.47687
-1.47687
-1.47686
-1.47685
-1.47685
-1.47684
-1.47683
-1.47682
-1.47682
-1.47681
-1.4768
-1.4768
-1.47679
-1.47679
-1.47678
-1.47678
-1.47677
-1.47677
-1.47676
-1.47676
-1.47675
-1.47675
-1.47675
-1.47674
-1.47674
-1.47673
-1.47673
-1.47672
-1.47672
-1.47671
-1.4767
-1.4767
-1.4767
-1.4767
-1.47671
-1.47671
-1.57507
-1.57507
-1.57507
-1.57507
-1.57507
-1.57508
-1.57508
-1.57508
-1.57508
-1.57509
-1.57509
-1.57509
-1.57509
-1.5751
-1.5751
-1.5751
-1.5751
-1.57511
-1.57511
-1.57511
-1.57511
-1.57512
-1.57512
-1.57513
-1.57513
-1.57514
-1.57515
-1.57515
-1.57516
-1.57517
-1.57518
-1.57519
-1.5752
-1.57521
-1.57522
-1.57523
-1.57524
-1.57525
-1.57526
-1.57527
-1.57528
-1.57529
-1.5753
-1.57531
-1.57532
-1.57532
-1.57533
-1.57534
-1.57534
-1.57535
-1.57535
-1.57535
-1.57535
-1.57535
-1.57535
-1.57535
-1.57535
-1.57535
-1.57534
-1.57534
-1.57534
-1.57533
-1.57533
-1.57532
-1.57532
-1.57531
-1.57531
-1.5753
-1.57529
-1.57529
-1.57528
-1.57527
-1.57526
-1.57526
-1.57525
-1.57525
-1.57524
-1.57523
-1.57523
-1.57522
-1.57522
-1.57521
-1.57521
-1.5752
-1.5752
-1.57519
-1.57519
-1.57518
-1.57518
-1.57517
-1.57517
-1.57516
-1.57515
-1.57515
-1.57514
-1.57514
-1.57513
-1.57513
-1.57514
-1.57514
-1.67351
-1.67351
-1.67352
-1.67352
-1.67352
-1.67352
-1.67352
-1.67352
-1.67353
-1.67353
-1.67353
-1.67353
-1.67354
-1.67354
-1.67354
-1.67354
-1.67355
-1.67355
-1.67355
-1.67355
-1.67356
-1.67356
-1.67356
-1.67357
-1.67358
-1.67358
-1.67359
-1.6736
-1.6736
-1.67361
-1.67362
-1.67363
-1.67364
-1.67365
-1.67366
-1.67367
-1.67368
-1.67369
-1.6737
-1.67371
-1.67372
-1.67373
-1.67374
-1.67375
-1.67376
-1.67377
-1.67378
-1.67378
-1.67379
-1.67379
-1.67379
-1.67379
-1.6738
-1.6738
-1.6738
-1.67379
-1.67379
-1.67379
-1.67379
-1.67378
-1.67378
-1.67378
-1.67377
-1.67377
-1.67376
-1.67376
-1.67375
-1.67374
-1.67374
-1.67373
-1.67372
-1.67372
-1.67371
-1.6737
-1.6737
-1.67369
-1.67369
-1.67368
-1.67367
-1.67367
-1.67366
-1.67366
-1.67365
-1.67364
-1.67364
-1.67363
-1.67363
-1.67362
-1.67362
-1.67361
-1.67361
-1.6736
-1.67359
-1.67358
-1.67358
-1.67357
-1.67357
-1.67357
-1.67357
-1.67357
-1.77196
-1.77196
-1.77196
-1.77196
-1.77196
-1.77197
-1.77197
-1.77197
-1.77197
-1.77197
-1.77198
-1.77198
-1.77198
-1.77198
-1.77199
-1.77199
-1.77199
-1.77199
-1.77199
-1.772
-1.772
-1.772
-1.77201
-1.77201
-1.77202
-1.77202
-1.77203
-1.77204
-1.77205
-1.77206
-1.77207
-1.77208
-1.77209
-1.7721
-1.77211
-1.77212
-1.77213
-1.77214
-1.77215
-1.77216
-1.77217
-1.77218
-1.77219
-1.7722
-1.77221
-1.77221
-1.77222
-1.77223
-1.77223
-1.77223
-1.77224
-1.77224
-1.77224
-1.77224
-1.77224
-1.77224
-1.77224
-1.77223
-1.77223
-1.77223
-1.77222
-1.77222
-1.77222
-1.77221
-1.77221
-1.7722
-1.7722
-1.77219
-1.77218
-1.77218
-1.77217
-1.77216
-1.77216
-1.77215
-1.77214
-1.77214
-1.77213
-1.77212
-1.77212
-1.77211
-1.77211
-1.7721
-1.77209
-1.77209
-1.77208
-1.77207
-1.77207
-1.77206
-1.77206
-1.77205
-1.77205
-1.77204
-1.77203
-1.77202
-1.77202
-1.77201
-1.772
-1.772
-1.772
-1.772
-1.8704
-1.8704
-1.8704
-1.87041
-1.87041
-1.87041
-1.87041
-1.87042
-1.87042
-1.87042
-1.87042
-1.87043
-1.87043
-1.87043
-1.87043
-1.87043
-1.87043
-1.87044
-1.87044
-1.87044
-1.87044
-1.87045
-1.87045
-1.87045
-1.87046
-1.87047
-1.87047
-1.87048
-1.87049
-1.8705
-1.87051
-1.87052
-1.87053
-1.87054
-1.87055
-1.87056
-1.87057
-1.87058
-1.87059
-1.8706
-1.87061
-1.87062
-1.87063
-1.87064
-1.87065
-1.87066
-1.87067
-1.87067
-1.87068
-1.87068
-1.87068
-1.87068
-1.87068
-1.87068
-1.87068
-1.87068
-1.87068
-1.87068
-1.87067
-1.87067
-1.87067
-1.87066
-1.87066
-1.87066
-1.87065
-1.87065
-1.87064
-1.87063
-1.87063
-1.87062
-1.87062
-1.87061
-1.8706
-1.8706
-1.87059
-1.87058
-1.87058
-1.87057
-1.87056
-1.87056
-1.87055
-1.87054
-1.87054
-1.87053
-1.87052
-1.87052
-1.87051
-1.87051
-1.8705
-1.8705
-1.87049
-1.87048
-1.87047
-1.87046
-1.87046
-1.87045
-1.87044
-1.87044
-1.87044
-1.87044
-1.96885
-1.96885
-1.96885
-1.96885
-1.96885
-1.96886
-1.96886
-1.96886
-1.96886
-1.96887
-1.96887
-1.96887
-1.96887
-1.96888
-1.96888
-1.96888
-1.96888
-1.96888
-1.96888
-1.96888
-1.96889
-1.96889
-1.96889
-1.9689
-1.9689
-1.96891
-1.96892
-1.96893
-1.96894
-1.96895
-1.96896
-1.96897
-1.96898
-1.96899
-1.969
-1.96901
-1.96902
-1.96903
-1.96904
-1.96905
-1.96906
-1.96907
-1.96908
-1.96909
-1.9691
-1.9691
-1.96911
-1.96911
-1.96912
-1.96912
-1.96912
-1.96912
-1.96912
-1.96912
-1.96912
-1.96912
-1.96912
-1.96912
-1.96911
-1.96911
-1.96911
-1.96911
-1.9691
-1.9691
-1.96909
-1.96909
-1.96908
-1.96908
-1.96907
-1.96907
-1.96906
-1.96906
-1.96905
-1.96904
-1.96904
-1.96903
-1.96902
-1.96902
-1.96901
-1.969
-1.96899
-1.96899
-1.96898
-1.96897
-1.96897
-1.96896
-1.96895
-1.96895
-1.96894
-1.96894
-1.96893
-1.96892
-1.96891
-1.9689
-1.9689
-1.96889
-1.96888
-1.96888
-1.96888
-1.96888
-2.06729
-2.0673
-2.0673
-2.0673
-2.0673
-2.0673
-2.06731
-2.06731
-2.06731
-2.06731
-2.06732
-2.06732
-2.06732
-2.06732
-2.06732
-2.06732
-2.06733
-2.06733
-2.06733
-2.06733
-2.06733
-2.06733
-2.06734
-2.06734
-2.06735
-2.06736
-2.06736
-2.06737
-2.06738
-2.06739
-2.0674
-2.06741
-2.06742
-2.06743
-2.06744
-2.06745
-2.06746
-2.06747
-2.06748
-2.06749
-2.0675
-2.06751
-2.06752
-2.06753
-2.06754
-2.06755
-2.06755
-2.06756
-2.06756
-2.06756
-2.06757
-2.06757
-2.06757
-2.06757
-2.06756
-2.06756
-2.06756
-2.06756
-2.06756
-2.06755
-2.06755
-2.06755
-2.06755
-2.06754
-2.06754
-2.06753
-2.06753
-2.06752
-2.06752
-2.06751
-2.06751
-2.0675
-2.06749
-2.06749
-2.06748
-2.06747
-2.06747
-2.06746
-2.06745
-2.06745
-2.06744
-2.06743
-2.06742
-2.06742
-2.06741
-2.0674
-2.0674
-2.06739
-2.06739
-2.06738
-2.06737
-2.06736
-2.06736
-2.06735
-2.06734
-2.06733
-2.06732
-2.06732
-2.06732
-2.06732
-2.16574
-2.16574
-2.16574
-2.16575
-2.16575
-2.16575
-2.16575
-2.16576
-2.16576
-2.16576
-2.16577
-2.16577
-2.16577
-2.16577
-2.16577
-2.16577
-2.16577
-2.16577
-2.16577
-2.16577
-2.16578
-2.16578
-2.16578
-2.16579
-2.16579
-2.1658
-2.16581
-2.16582
-2.16583
-2.16584
-2.16585
-2.16586
-2.16587
-2.16587
-2.16588
-2.16589
-2.1659
-2.16591
-2.16592
-2.16593
-2.16594
-2.16595
-2.16596
-2.16597
-2.16598
-2.16599
-2.166
-2.166
-2.166
-2.16601
-2.16601
-2.16601
-2.16601
-2.16601
-2.16601
-2.166
-2.166
-2.166
-2.166
-2.166
-2.16599
-2.16599
-2.16599
-2.16599
-2.16598
-2.16598
-2.16597
-2.16597
-2.16596
-2.16596
-2.16595
-2.16595
-2.16594
-2.16593
-2.16593
-2.16592
-2.16591
-2.16591
-2.1659
-2.16589
-2.16588
-2.16588
-2.16587
-2.16586
-2.16585
-2.16585
-2.16584
-2.16584
-2.16583
-2.16582
-2.16582
-2.16581
-2.1658
-2.16579
-2.16578
-2.16577
-2.16576
-2.16576
-2.16576
-2.16576
-2.26419
-2.26419
-2.26419
-2.26419
-2.2642
-2.2642
-2.2642
-2.2642
-2.26421
-2.26421
-2.26421
-2.26422
-2.26422
-2.26422
-2.26422
-2.26422
-2.26422
-2.26422
-2.26422
-2.26422
-2.26422
-2.26422
-2.26423
-2.26423
-2.26424
-2.26424
-2.26425
-2.26426
-2.26427
-2.26428
-2.26429
-2.2643
-2.26431
-2.26432
-2.26433
-2.26434
-2.26435
-2.26436
-2.26437
-2.26438
-2.26439
-2.2644
-2.26441
-2.26442
-2.26442
-2.26443
-2.26444
-2.26444
-2.26444
-2.26445
-2.26445
-2.26445
-2.26445
-2.26445
-2.26445
-2.26444
-2.26444
-2.26444
-2.26444
-2.26444
-2.26444
-2.26443
-2.26443
-2.26443
-2.26443
-2.26442
-2.26442
-2.26441
-2.26441
-2.2644
-2.2644
-2.26439
-2.26439
-2.26438
-2.26437
-2.26437
-2.26436
-2.26435
-2.26434
-2.26434
-2.26433
-2.26432
-2.26431
-2.26431
-2.2643
-2.26429
-2.26428
-2.26428
-2.26427
-2.26427
-2.26426
-2.26425
-2.26424
-2.26423
-2.26422
-2.26421
-2.2642
-2.2642
-2.2642
-2.2642
-2.36264
-2.36264
-2.36264
-2.36264
-2.36264
-2.36265
-2.36265
-2.36265
-2.36266
-2.36266
-2.36266
-2.36267
-2.36267
-2.36267
-2.36267
-2.36267
-2.36267
-2.36267
-2.36267
-2.36267
-2.36267
-2.36267
-2.36267
-2.36268
-2.36268
-2.36269
-2.3627
-2.3627
-2.36271
-2.36272
-2.36273
-2.36274
-2.36275
-2.36276
-2.36277
-2.36278
-2.36279
-2.3628
-2.36281
-2.36282
-2.36283
-2.36284
-2.36285
-2.36286
-2.36287
-2.36287
-2.36288
-2.36288
-2.36288
-2.36288
-2.36289
-2.36289
-2.36289
-2.36289
-2.36288
-2.36288
-2.36288
-2.36288
-2.36288
-2.36288
-2.36288
-2.36288
-2.36287
-2.36287
-2.36287
-2.36287
-2.36286
-2.36286
-2.36285
-2.36285
-2.36284
-2.36284
-2.36283
-2.36282
-2.36282
-2.36281
-2.3628
-2.3628
-2.36279
-2.36278
-2.36277
-2.36277
-2.36276
-2.36275
-2.36274
-2.36274
-2.36273
-2.36272
-2.36272
-2.36271
-2.3627
-2.36269
-2.36268
-2.36267
-2.36266
-2.36265
-2.36264
-2.36264
-2.36263
-2.36263
-2.46108
-2.46108
-2.46109
-2.46109
-2.46109
-2.46109
-2.4611
-2.4611
-2.46111
-2.46111
-2.46111
-2.46111
-2.46112
-2.46112
-2.46112
-2.46112
-2.46111
-2.46111
-2.46111
-2.46111
-2.46111
-2.46111
-2.46112
-2.46112
-2.46113
-2.46113
-2.46114
-2.46115
-2.46116
-2.46117
-2.46118
-2.46118
-2.46119
-2.4612
-2.46121
-2.46122
-2.46123
-2.46124
-2.46125
-2.46126
-2.46127
-2.46128
-2.46129
-2.4613
-2.46131
-2.46131
-2.46132
-2.46132
-2.46132
-2.46132
-2.46132
-2.46132
-2.46132
-2.46132
-2.46132
-2.46132
-2.46132
-2.46132
-2.46132
-2.46132
-2.46132
-2.46132
-2.46132
-2.46132
-2.46131
-2.46131
-2.46131
-2.4613
-2.4613
-2.46129
-2.46129
-2.46128
-2.46128
-2.46127
-2.46126
-2.46126
-2.46125
-2.46124
-2.46123
-2.46123
-2.46122
-2.46121
-2.4612
-2.46119
-2.46119
-2.46118
-2.46117
-2.46117
-2.46116
-2.46115
-2.46114
-2.46114
-2.46112
-2.46111
-2.4611
-2.46109
-2.46108
-2.46107
-2.46107
-2.46107
-2.55953
-2.55953
-2.55953
-2.55954
-2.55954
-2.55954
-2.55955
-2.55955
-2.55955
-2.55956
-2.55956
-2.55956
-2.55956
-2.55956
-2.55956
-2.55956
-2.55956
-2.55956
-2.55956
-2.55956
-2.55956
-2.55956
-2.55956
-2.55956
-2.55957
-2.55958
-2.55958
-2.55959
-2.5596
-2.55961
-2.55962
-2.55963
-2.55964
-2.55965
-2.55965
-2.55966
-2.55967
-2.55968
-2.55969
-2.5597
-2.55971
-2.55972
-2.55973
-2.55974
-2.55974
-2.55975
-2.55975
-2.55976
-2.55976
-2.55976
-2.55976
-2.55976
-2.55976
-2.55976
-2.55976
-2.55976
-2.55977
-2.55977
-2.55977
-2.55976
-2.55976
-2.55976
-2.55976
-2.55976
-2.55976
-2.55975
-2.55975
-2.55975
-2.55974
-2.55974
-2.55973
-2.55973
-2.55972
-2.55972
-2.55971
-2.5597
-2.55969
-2.55969
-2.55968
-2.55967
-2.55966
-2.55965
-2.55965
-2.55964
-2.55963
-2.55962
-2.55962
-2.55961
-2.5596
-2.5596
-2.55959
-2.55958
-2.55957
-2.55955
-2.55954
-2.55953
-2.55952
-2.55951
-2.5595
-2.5595
-2.65798
-2.65798
-2.65798
-2.65798
-2.65799
-2.65799
-2.65799
-2.658
-2.658
-2.65801
-2.65801
-2.65801
-2.65801
-2.65801
-2.65801
-2.65801
-2.65801
-2.65801
-2.658
-2.658
-2.658
-2.658
-2.658
-2.65801
-2.65801
-2.65802
-2.65802
-2.65803
-2.65804
-2.65805
-2.65806
-2.65807
-2.65808
-2.65809
-2.6581
-2.65811
-2.65811
-2.65812
-2.65813
-2.65814
-2.65815
-2.65816
-2.65817
-2.65818
-2.65818
-2.65819
-2.65819
-2.6582
-2.6582
-2.6582
-2.6582
-2.6582
-2.6582
-2.6582
-2.6582
-2.65821
-2.65821
-2.65821
-2.65821
-2.65821
-2.65821
-2.65821
-2.65821
-2.6582
-2.6582
-2.6582
-2.6582
-2.65819
-2.65819
-2.65818
-2.65818
-2.65817
-2.65817
-2.65816
-2.65815
-2.65815
-2.65814
-2.65813
-2.65812
-2.65812
-2.65811
-2.6581
-2.65809
-2.65808
-2.65807
-2.65807
-2.65806
-2.65805
-2.65805
-2.65804
-2.65803
-2.65802
-2.65801
-2.65799
-2.65798
-2.65796
-2.65795
-2.65794
-2.65794
-2.65794
-2.75643
-2.75643
-2.75643
-2.75643
-2.75643
-2.75644
-2.75644
-2.75645
-2.75645
-2.75645
-2.75646
-2.75646
-2.75646
-2.75646
-2.75646
-2.75645
-2.75645
-2.75645
-2.75645
-2.75645
-2.75645
-2.75644
-2.75645
-2.75645
-2.75645
-2.75646
-2.75647
-2.75647
-2.75648
-2.75649
-2.7565
-2.75651
-2.75652
-2.75653
-2.75654
-2.75655
-2.75656
-2.75657
-2.75658
-2.75659
-2.75659
-2.7566
-2.75661
-2.75662
-2.75662
-2.75663
-2.75663
-2.75663
-2.75664
-2.75664
-2.75664
-2.75664
-2.75664
-2.75664
-2.75665
-2.75665
-2.75665
-2.75665
-2.75665
-2.75665
-2.75665
-2.75665
-2.75665
-2.75665
-2.75665
-2.75664
-2.75664
-2.75664
-2.75663
-2.75663
-2.75662
-2.75662
-2.75661
-2.75661
-2.7566
-2.75659
-2.75658
-2.75658
-2.75657
-2.75656
-2.75655
-2.75654
-2.75653
-2.75653
-2.75652
-2.75651
-2.7565
-2.7565
-2.75649
-2.75648
-2.75647
-2.75646
-2.75645
-2.75643
-2.75641
-2.7564
-2.75639
-2.75638
-2.75637
-2.75637
-2.85487
-2.85487
-2.85487
-2.85488
-2.85488
-2.85488
-2.85489
-2.85489
-2.8549
-2.8549
-2.8549
-2.8549
-2.8549
-2.8549
-2.8549
-2.8549
-2.85489
-2.85489
-2.85489
-2.85489
-2.85489
-2.85489
-2.85489
-2.85489
-2.85489
-2.8549
-2.85491
-2.85491
-2.85492
-2.85493
-2.85494
-2.85495
-2.85496
-2.85497
-2.85498
-2.85499
-2.855
-2.85501
-2.85502
-2.85503
-2.85503
-2.85504
-2.85505
-2.85506
-2.85506
-2.85507
-2.85507
-2.85507
-2.85508
-2.85508
-2.85508
-2.85508
-2.85508
-2.85509
-2.85509
-2.85509
-2.85509
-2.85509
-2.85509
-2.8551
-2.8551
-2.8551
-2.8551
-2.85509
-2.85509
-2.85509
-2.85509
-2.85508
-2.85508
-2.85507
-2.85507
-2.85506
-2.85506
-2.85505
-2.85504
-2.85504
-2.85503
-2.85502
-2.85501
-2.855
-2.855
-2.85499
-2.85498
-2.85497
-2.85496
-2.85495
-2.85495
-2.85494
-2.85493
-2.85493
-2.85492
-2.8549
-2.85489
-2.85487
-2.85485
-2.85484
-2.85482
-2.85481
-2.85481
-2.85481
-2.95332
-2.95332
-2.95332
-2.95332
-2.95332
-2.95333
-2.95333
-2.95334
-2.95334
-2.95334
-2.95335
-2.95335
-2.95335
-2.95335
-2.95334
-2.95334
-2.95334
-2.95333
-2.95333
-2.95333
-2.95333
-2.95333
-2.95333
-2.95333
-2.95333
-2.95334
-2.95334
-2.95335
-2.95336
-2.95337
-2.95338
-2.95339
-2.9534
-2.95341
-2.95342
-2.95343
-2.95344
-2.95345
-2.95346
-2.95347
-2.95348
-2.95348
-2.95349
-2.9535
-2.9535
-2.95351
-2.95351
-2.95351
-2.95352
-2.95352
-2.95352
-2.95352
-2.95353
-2.95353
-2.95353
-2.95353
-2.95354
-2.95354
-2.95354
-2.95354
-2.95354
-2.95354
-2.95354
-2.95354
-2.95354
-2.95353
-2.95353
-2.95353
-2.95352
-2.95352
-2.95351
-2.95351
-2.9535
-2.95349
-2.95349
-2.95348
-2.95347
-2.95346
-2.95346
-2.95345
-2.95344
-2.95343
-2.95342
-2.95341
-2.95341
-2.9534
-2.95339
-2.95338
-2.95338
-2.95337
-2.95336
-2.95334
-2.95333
-2.9533
-2.95329
-2.95327
-2.95326
-2.95325
-2.95324
-2.95324
-3.05176
-3.05176
-3.05176
-3.05176
-3.05177
-3.05177
-3.05177
-3.05178
-3.05178
-3.05179
-3.05179
-3.05179
-3.05179
-3.05179