/*--------------------------------*- C++ -*----------------------------------*\
| =========                 |                                                 |
| \\      /  F ield         | OpenFOAM: The Open Source CFD Toolbox           |
|  \\    /   O peration     | Version:  4.1                                   |
|   \\  /    A nd           | Web:      www.OpenFOAM.org                      |
|    \\/     M anipulation  |                                                 |
\*---------------------------------------------------------------------------*/
FoamFile
{
    version     2.0;
    format      ascii;
    class       volScalarField;
    location    "1380";
    object      p_rgh;
}
// * * * * * * * * * * * * * * * * * * * * * * * * * * * * * * * * * * * * * //

dimensions      [0 2 -2 0 0 0 0];

internalField   nonuniform List<scalar> 
5000
(
0.0492048
0.0492147
0.0492205
0.0492174
0.0492134
0.0492086
0.0492036
0.0491988
0.0491943
0.04919
0.0491859
0.0491817
0.0491775
0.049173
0.0491682
0.0491631
0.0491577
0.049152
0.0491461
0.0491403
0.0491346
0.0491292
0.049124
0.0491189
0.0491139
0.0491089
0.0491036
0.049098
0.0490919
0.0490854
0.0490783
0.0490705
0.049062
0.0490526
0.049042
0.0490301
0.0490167
0.0490018
0.0489855
0.0489685
0.0489517
0.0489358
0.0489212
0.0489087
0.0488984
0.0488909
0.0488859
0.0488833
0.0488823
0.0488822
0.0488823
0.0488822
0.0488819
0.0488814
0.0488809
0.0488808
0.0488813
0.0488826
0.0488846
0.0488874
0.0488905
0.0488932
0.0488948
0.0488943
0.0488906
0.0488834
0.0488738
0.0488645
0.0488584
0.0488567
0.0488541
0.0488382
0.0488065
0.0487796
0.0487714
0.0487747
0.0487858
0.0488031
0.0488242
0.0488481
0.0488747
0.0489023
0.0489263
0.0489418
0.0489425
0.0489295
0.0489232
0.0489357
0.0489368
0.048943
0.0489487
0.0489552
0.0489621
0.0489686
0.0489734
0.0489767
0.0489786
0.0489791
0.0489724
0.0489654
0.0492043
0.0492353
0.0492356
0.0492367
0.0492373
0.049237
0.0492363
0.0492355
0.0492346
0.0492337
0.0492325
0.0492309
0.049229
0.0492267
0.049224
0.0492208
0.0492171
0.049213
0.0492086
0.0492037
0.0491984
0.0491927
0.0491867
0.0491804
0.0491738
0.0491669
0.0491598
0.0491524
0.0491448
0.0491369
0.0491286
0.0491201
0.0491113
0.0491021
0.0490924
0.0490824
0.0490717
0.0490603
0.0490478
0.0490339
0.0490185
0.0490033
0.0489898
0.048979
0.0489713
0.0489669
0.0489653
0.0489654
0.048966
0.0489666
0.0489672
0.0489677
0.0489681
0.0489685
0.0489689
0.0489692
0.0489694
0.0489696
0.0489697
0.0489696
0.0489691
0.0489679
0.0489656
0.0489616
0.0489554
0.0489466
0.0489345
0.0489162
0.0488942
0.0488725
0.0488508
0.0488248
0.0488106
0.0488265
0.0488384
0.0488445
0.0488603
0.048883
0.0489083
0.0489327
0.0489546
0.0489736
0.04899
0.0490033
0.0490097
0.048987
0.0489457
0.0489288
0.048941
0.0489842
0.0489859
0.0489898
0.0489935
0.0489964
0.0489987
0.0490006
0.049003
0.0490051
0.0490031
0.0489675
0.0491952
0.0492334
0.0492325
0.0492337
0.0492344
0.0492343
0.0492339
0.0492336
0.0492332
0.0492327
0.0492319
0.0492308
0.0492292
0.0492271
0.0492245
0.0492214
0.0492178
0.0492138
0.0492093
0.0492043
0.049199
0.0491933
0.0491873
0.0491809
0.0491743
0.0491673
0.0491601
0.0491527
0.049145
0.0491371
0.0491289
0.0491205
0.049112
0.0491033
0.0490946
0.0490859
0.0490773
0.0490691
0.0490614
0.0490542
0.0490472
0.0490399
0.0490327
0.0490258
0.0490194
0.0490134
0.0490078
0.0490025
0.0489978
0.0489936
0.0489901
0.0489872
0.0489848
0.048983
0.0489815
0.0489803
0.0489794
0.0489787
0.048978
0.0489772
0.0489761
0.0489744
0.0489715
0.048967
0.0489601
0.0489505
0.0489376
0.0489194
0.0488938
0.04886
0.0488211
0.0487853
0.0487688
0.048773
0.0487871
0.0488112
0.0488399
0.0488703
0.048902
0.0489316
0.0489574
0.0489792
0.0489972
0.0490119
0.0490219
0.0490132
0.0489688
0.0489304
0.048925
0.0489445
0.0489796
0.0489877
0.0489916
0.0489942
0.0489958
0.0489971
0.049
0.0490046
0.0490066
0.0489592
0.0491863
0.0492304
0.0492298
0.0492313
0.0492318
0.0492316
0.0492313
0.049231
0.0492308
0.0492305
0.04923
0.0492291
0.0492277
0.0492257
0.0492231
0.04922
0.0492163
0.0492121
0.0492074
0.0492024
0.0491969
0.0491911
0.0491849
0.0491785
0.0491718
0.0491648
0.0491575
0.04915
0.0491422
0.0491342
0.0491259
0.0491175
0.0491089
0.0491002
0.0490915
0.0490829
0.0490744
0.0490663
0.0490586
0.0490515
0.049045
0.0490388
0.0490328
0.0490265
0.04902
0.0490134
0.049007
0.0490011
0.0489959
0.0489915
0.0489878
0.0489848
0.0489825
0.0489807
0.0489793
0.0489784
0.0489778
0.0489775
0.0489773
0.048977
0.0489764
0.0489752
0.0489728
0.0489685
0.0489614
0.0489507
0.0489357
0.0489146
0.0488845
0.0488429
0.0487948
0.0487536
0.0487327
0.048731
0.0487431
0.0487677
0.0488049
0.0488473
0.0488886
0.0489256
0.0489569
0.0489822
0.0490025
0.0490187
0.0490307
0.0490305
0.048995
0.0489459
0.048922
0.048926
0.048944
0.0489738
0.0489887
0.0489913
0.0489924
0.0489933
0.0489965
0.0490031
0.0490096
0.0489529
0.0491782
0.0492262
0.0492281
0.0492301
0.0492306
0.0492304
0.0492301
0.0492298
0.0492297
0.0492295
0.0492291
0.0492282
0.0492268
0.0492247
0.0492219
0.0492185
0.0492145
0.0492099
0.0492049
0.0491995
0.0491937
0.0491877
0.0491813
0.0491747
0.0491678
0.0491607
0.0491533
0.0491456
0.0491377
0.0491296
0.0491213
0.0491127
0.049104
0.0490953
0.0490865
0.0490778
0.0490693
0.0490611
0.0490532
0.0490458
0.0490388
0.0490321
0.0490256
0.0490191
0.0490126
0.0490062
0.0490002
0.0489946
0.0489896
0.0489854
0.0489819
0.0489791
0.048977
0.0489754
0.0489745
0.0489739
0.0489738
0.048974
0.0489744
0.0489749
0.0489752
0.0489749
0.0489735
0.04897
0.0489633
0.0489518
0.0489345
0.04891
0.0488761
0.0488314
0.0487812
0.0487389
0.0487153
0.0487108
0.0487224
0.0487483
0.0487861
0.0488318
0.0488789
0.0489218
0.0489579
0.0489866
0.049009
0.0490263
0.0490392
0.0490434
0.0490198
0.0489703
0.0489324
0.0489206
0.0489284
0.0489469
0.0489736
0.0489884
0.0489902
0.0489906
0.0489934
0.0490015
0.0490122
0.0489496
0.0491708
0.0492217
0.0492277
0.0492301
0.0492309
0.0492308
0.0492305
0.0492304
0.0492303
0.0492302
0.0492297
0.0492287
0.0492269
0.0492243
0.0492209
0.0492169
0.0492122
0.049207
0.0492014
0.0491955
0.0491893
0.0491829
0.0491762
0.0491694
0.0491623
0.049155
0.0491475
0.0491398
0.0491318
0.0491235
0.049115
0.0491064
0.0490976
0.0490887
0.0490798
0.049071
0.0490624
0.0490539
0.0490458
0.0490381
0.0490307
0.0490236
0.0490167
0.04901
0.0490035
0.0489972
0.0489913
0.048986
0.0489812
0.0489772
0.0489739
0.0489714
0.0489695
0.0489683
0.0489677
0.0489676
0.0489679
0.0489687
0.0489697
0.0489709
0.0489722
0.0489731
0.0489732
0.0489714
0.048966
0.048955
0.0489364
0.0489092
0.0488728
0.0488275
0.048779
0.0487385
0.0487149
0.04871
0.0487224
0.0487498
0.0487888
0.0488343
0.0488814
0.0489255
0.0489633
0.0489935
0.0490168
0.0490346
0.0490477
0.0490541
0.0490404
0.0489969
0.048951
0.0489255
0.0489224
0.0489347
0.0489554
0.0489794
0.0489889
0.0489895
0.0489913
0.0489999
0.0490145
0.0489484
0.049164
0.0492181
0.0492285
0.0492313
0.0492323
0.0492325
0.0492325
0.0492324
0.0492323
0.049232
0.0492312
0.0492295
0.0492269
0.0492234
0.0492191
0.0492141
0.0492085
0.0492026
0.0491963
0.0491899
0.0491833
0.0491765
0.0491697
0.0491626
0.0491555
0.0491481
0.0491405
0.0491326
0.0491245
0.0491162
0.0491076
0.0490988
0.0490899
0.049081
0.0490719
0.049063
0.0490542
0.0490456
0.0490373
0.0490292
0.0490215
0.0490141
0.049007
0.0490001
0.0489936
0.0489873
0.0489816
0.0489764
0.0489718
0.048968
0.0489649
0.0489626
0.048961
0.0489601
0.0489598
0.0489601
0.048961
0.0489623
0.0489639
0.0489659
0.0489679
0.04897
0.0489716
0.048972
0.0489692
0.0489606
0.048943
0.048915
0.0488775
0.048833
0.0487876
0.0487507
0.0487294
0.0487261
0.04874
0.0487684
0.0488074
0.0488521
0.0488971
0.0489385
0.0489745
0.0490037
0.0490263
0.0490434
0.0490561
0.0490634
0.0490564
0.0490215
0.0489733
0.0489374
0.0489235
0.048929
0.0489472
0.04897
0.0489866
0.0489896
0.0489902
0.0489984
0.0490167
0.0489489
0.0491581
0.0492164
0.0492303
0.0492335
0.0492347
0.0492351
0.0492352
0.049235
0.0492345
0.0492336
0.0492318
0.0492291
0.0492253
0.0492207
0.0492153
0.0492094
0.049203
0.0491964
0.0491896
0.0491827
0.0491758
0.0491688
0.0491618
0.0491547
0.0491474
0.04914
0.0491323
0.0491244
0.0491163
0.0491079
0.0490992
0.0490904
0.0490814
0.0490724
0.0490633
0.0490542
0.0490453
0.0490365
0.049028
0.0490198
0.0490118
0.0490042
0.0489968
0.0489898
0.0489832
0.048977
0.0489713
0.0489662
0.0489619
0.0489582
0.0489553
0.0489533
0.0489519
0.0489513
0.0489514
0.0489521
0.0489534
0.0489553
0.0489576
0.0489603
0.0489633
0.0489665
0.0489697
0.0489723
0.0489729
0.0489685
0.0489549
0.0489294
0.048893
0.0488504
0.0488088
0.0487762
0.0487584
0.0487575
0.0487726
0.0488009
0.0488383
0.0488799
0.0489212
0.0489588
0.0489906
0.0490165
0.0490368
0.0490524
0.0490641
0.0490714
0.0490685
0.0490423
0.048996
0.048953
0.0489294
0.0489275
0.0489427
0.0489659
0.0489845
0.04899
0.0489896
0.0489966
0.0490189
0.0489505
0.0491527
0.0492166
0.0492326
0.0492362
0.0492376
0.049238
0.0492379
0.0492372
0.0492358
0.0492336
0.0492306
0.0492266
0.0492217
0.049216
0.0492097
0.0492029
0.0491959
0.0491887
0.0491815
0.0491743
0.0491672
0.0491601
0.049153
0.0491459
0.0491386
0.0491312
0.0491235
0.0491156
0.0491075
0.0490991
0.0490905
0.0490816
0.0490727
0.0490636
0.0490544
0.0490453
0.0490363
0.0490274
0.0490187
0.0490103
0.0490022
0.0489943
0.0489868
0.0489797
0.048973
0.0489668
0.0489611
0.0489561
0.0489518
0.0489483
0.0489456
0.0489437
0.0489426
0.0489423
0.0489427
0.0489438
0.0489456
0.0489479
0.0489508
0.0489542
0.0489581
0.0489625
0.0489671
0.0489718
0.0489756
0.0489762
0.0489692
0.0489501
0.0489187
0.0488804
0.0488435
0.0488154
0.0488011
0.0488021
0.0488174
0.0488438
0.0488774
0.0489139
0.0489496
0.0489816
0.0490088
0.0490306
0.0490478
0.0490611
0.0490714
0.0490784
0.0490781
0.0490589
0.049017
0.0489702
0.0489383
0.0489288
0.0489401
0.0489632
0.0489833
0.0489903
0.0489887
0.048994
0.049021
0.0489526
0.0491477
0.0492185
0.0492353
0.0492391
0.0492406
0.0492407
0.0492399
0.0492382
0.0492356
0.0492321
0.0492277
0.0492224
0.0492164
0.0492098
0.0492027
0.0491953
0.0491878
0.0491802
0.0491727
0.0491653
0.049158
0.0491509
0.0491438
0.0491368
0.0491296
0.0491223
0.0491147
0.049107
0.0490989
0.0490906
0.0490821
0.0490733
0.0490644
0.0490553
0.0490461
0.049037
0.0490279
0.0490189
0.0490101
0.0490015
0.0489932
0.0489851
0.0489775
0.0489702
0.0489634
0.0489571
0.0489514
0.0489464
0.0489422
0.0489387
0.0489361
0.0489343
0.0489334
0.0489333
0.048934
0.0489354
0.0489375
0.0489403
0.0489437
0.0489477
0.0489524
0.0489576
0.0489634
0.0489697
0.048976
0.0489808
0.0489808
0.0489711
0.0489493
0.0489192
0.0488887
0.0488656
0.0488543
0.048856
0.0488696
0.0488922
0.0489202
0.04895
0.0489787
0.0490045
0.0490263
0.049044
0.049058
0.0490692
0.049078
0.0490844
0.0490855
0.0490718
0.0490353
0.0489873
0.0489487
0.0489319
0.0489383
0.0489605
0.0489821
0.0489898
0.048987
0.04899
0.0490229
0.0489546
0.049143
0.0492212
0.0492379
0.049242
0.0492433
0.0492429
0.0492411
0.0492381
0.049234
0.0492291
0.0492234
0.0492171
0.0492102
0.0492028
0.0491951
0.0491872
0.0491793
0.0491714
0.0491637
0.0491563
0.049149
0.049142
0.049135
0.0491281
0.0491211
0.049114
0.0491067
0.0490991
0.0490912
0.0490831
0.0490746
0.0490659
0.049057
0.0490479
0.0490387
0.0490295
0.0490203
0.0490112
0.0490023
0.0489935
0.048985
0.0489768
0.048969
0.0489615
0.0489546
0.0489482
0.0489424
0.0489374
0.0489332
0.0489298
0.0489272
0.0489255
0.0489247
0.0489248
0.0489256
0.0489273
0.0489297
0.0489327
0.0489365
0.048941
0.0489461
0.048952
0.0489585
0.0489658
0.0489736
0.0489813
0.0489867
0.0489861
0.048976
0.0489574
0.0489361
0.0489189
0.0489104
0.0489118
0.0489224
0.0489398
0.048961
0.0489836
0.0490053
0.0490248
0.0490416
0.0490554
0.0490668
0.049076
0.0490836
0.0490895
0.0490916
0.0490819
0.0490507
0.0490035
0.0489599
0.0489359
0.048937
0.048957
0.0489793
0.0489881
0.0489841
0.0489844
0.0490235
0.0489554
0.0491385
0.0492243
0.0492404
0.0492448
0.0492458
0.0492445
0.0492414
0.0492369
0.0492313
0.049225
0.0492182
0.049211
0.0492035
0.0491957
0.0491876
0.0491794
0.0491713
0.0491632
0.0491555
0.049148
0.0491408
0.0491339
0.0491271
0.0491205
0.0491137
0.0491069
0.0490998
0.0490924
0.0490847
0.0490767
0.0490683
0.0490596
0.0490506
0.0490415
0.0490322
0.0490229
0.0490136
0.0490044
0.0489953
0.0489863
0.0489777
0.0489693
0.0489612
0.0489536
0.0489465
0.04894
0.0489341
0.048929
0.0489248
0.0489214
0.0489189
0.0489173
0.0489166
0.0489168
0.0489178
0.0489196
0.0489222
0.0489255
0.0489295
0.0489342
0.0489397
0.0489458
0.0489528
0.0489606
0.0489691
0.0489782
0.0489867
0.0489923
0.0489922
0.0489853
0.0489745
0.0489645
0.0489593
0.0489606
0.048968
0.0489802
0.0489952
0.0490111
0.0490267
0.0490409
0.0490534
0.0490641
0.0490732
0.0490811
0.0490878
0.0490935
0.0490963
0.0490898
0.0490636
0.0490183
0.0489712
0.0489408
0.048936
0.0489527
0.0489749
0.0489854
0.0489806
0.0489773
0.0490203
0.0489536
0.0491342
0.0492273
0.0492429
0.0492475
0.049248
0.0492456
0.0492409
0.0492347
0.0492277
0.0492202
0.0492126
0.0492048
0.0491969
0.0491888
0.0491807
0.0491724
0.0491642
0.0491561
0.0491483
0.049141
0.0491339
0.0491272
0.0491207
0.0491143
0.0491078
0.0491012
0.0490943
0.0490871
0.0490795
0.0490714
0.0490629
0.0490541
0.049045
0.0490357
0.0490263
0.0490168
0.0490074
0.048998
0.0489888
0.0489797
0.0489709
0.0489623
0.0489541
0.0489463
0.048939
0.0489323
0.0489264
0.0489212
0.0489168
0.0489134
0.048911
0.0489095
0.0489089
0.0489092
0.0489105
0.0489125
0.0489153
0.0489187
0.0489229
0.0489278
0.0489333
0.0489396
0.0489467
0.0489545
0.0489632
0.0489726
0.0489823
0.0489911
0.0489971
0.048999
0.0489973
0.0489946
0.0489934
0.0489954
0.0490008
0.0490092
0.0490194
0.0490305
0.0490414
0.0490518
0.0490612
0.0490697
0.0490773
0.0490842
0.0490905
0.0490962
0.0490998
0.0490958
0.0490742
0.0490318
0.0489826
0.0489466
0.0489356
0.0489483
0.0489694
0.0489821
0.0489774
0.0489696
0.0490099
0.0489486
0.04913
0.04923
0.0492453
0.04925
0.0492498
0.0492459
0.0492394
0.0492317
0.0492234
0.0492152
0.0492071
0.049199
0.049191
0.0491828
0.0491746
0.0491664
0.0491582
0.0491503
0.0491428
0.0491356
0.0491287
0.0491221
0.0491158
0.0491096
0.0491034
0.0490969
0.0490902
0.0490829
0.0490751
0.0490669
0.0490581
0.049049
0.0490397
0.0490301
0.0490205
0.0490109
0.0490014
0.048992
0.0489827
0.0489736
0.0489647
0.048956
0.0489476
0.0489396
0.0489322
0.0489253
0.0489191
0.0489138
0.0489094
0.0489059
0.0489034
0.048902
0.0489016
0.0489021
0.0489035
0.0489058
0.0489088
0.0489124
0.0489168
0.0489218
0.0489274
0.0489336
0.0489406
0.0489483
0.0489567
0.048966
0.0489757
0.0489855
0.0489943
0.049001
0.0490054
0.0490082
0.0490108
0.0490143
0.0490194
0.0490258
0.0490333
0.0490414
0.0490495
0.0490575
0.0490651
0.0490723
0.0490791
0.0490856
0.0490918
0.0490976
0.049102
0.0491003
0.0490829
0.0490439
0.0489938
0.0489531
0.0489363
0.0489444
0.048964
0.0489787
0.0489754
0.0489624
0.0489913
0.0489417
0.049126
0.0492332
0.0492476
0.0492523
0.049251
0.0492453
0.0492371
0.049228
0.049219
0.0492103
0.049202
0.049194
0.0491859
0.0491779
0.0491698
0.0491617
0.0491537
0.0491461
0.0491387
0.0491318
0.0491252
0.0491189
0.0491126
0.0491065
0.0491003
0.0490939
0.0490869
0.0490794
0.0490713
0.0490626
0.0490534
0.0490439
0.0490342
0.0490244
0.0490147
0.049005
0.0489955
0.0489861
0.0489769
0.0489679
0.048959
0.0489502
0.0489418
0.0489336
0.0489259
0.0489188
0.0489124
0.0489069
0.0489023
0.0488988
0.0488963
0.0488949
0.0488946
0.0488953
0.0488969
0.0488994
0.0489026
0.0489066
0.0489111
0.0489162
0.0489219
0.0489282
0.048935
0.0489424
0.0489505
0.0489592
0.0489685
0.0489782
0.0489877
0.0489963
0.0490037
0.0490099
0.0490153
0.0490205
0.0490261
0.0490321
0.0490385
0.0490452
0.0490521
0.0490589
0.0490657
0.0490723
0.0490788
0.0490853
0.0490917
0.049098
0.0491031
0.0491034
0.0490897
0.0490546
0.0490049
0.0489606
0.0489383
0.0489416
0.0489593
0.0489756
0.0489754
0.0489569
0.0489683
0.0489361
0.049122
0.0492352
0.0492503
0.0492541
0.0492512
0.0492437
0.049234
0.049224
0.0492146
0.0492058
0.0491975
0.0491896
0.0491818
0.049174
0.0491662
0.0491584
0.0491508
0.0491435
0.0491365
0.0491298
0.0491234
0.0491172
0.0491111
0.0491048
0.0490984
0.0490916
0.0490843
0.0490762
0.0490674
0.0490581
0.0490483
0.0490383
0.0490282
0.0490183
0.0490085
0.048999
0.0489897
0.0489806
0.0489716
0.0489628
0.048954
0.0489453
0.0489367
0.0489284
0.0489205
0.0489131
0.0489064
0.0489006
0.0488958
0.0488921
0.0488895
0.0488882
0.0488879
0.0488888
0.0488906
0.0488934
0.0488969
0.0489011
0.0489059
0.0489113
0.0489171
0.0489234
0.0489301
0.0489372
0.0489449
0.0489531
0.0489618
0.0489709
0.0489801
0.0489892
0.0489976
0.0490053
0.0490123
0.0490188
0.0490251
0.0490313
0.0490377
0.0490441
0.0490506
0.0490572
0.0490638
0.0490704
0.049077
0.0490837
0.0490905
0.0490973
0.0491033
0.0491053
0.0490951
0.049064
0.0490156
0.0489686
0.0489414
0.04894
0.0489554
0.0489728
0.0489759
0.0489527
0.0489492
0.048931
0.049118
0.0492359
0.0492521
0.0492553
0.0492506
0.0492413
0.0492305
0.0492199
0.0492103
0.0492016
0.0491936
0.049186
0.0491785
0.0491712
0.0491639
0.0491566
0.0491495
0.0491426
0.049136
0.0491296
0.0491233
0.0491171
0.0491108
0.0491041
0.0490972
0.0490898
0.0490817
0.0490728
0.0490631
0.0490529
0.0490425
0.049032
0.0490217
0.0490118
0.0490022
0.0489931
0.0489843
0.0489756
0.0489671
0.0489586
0.0489501
0.0489415
0.0489328
0.0489243
0.048916
0.0489082
0.0489011
0.0488949
0.0488898
0.0488859
0.0488832
0.0488818
0.0488817
0.0488827
0.0488847
0.0488878
0.0488916
0.0488961
0.0489013
0.0489069
0.0489129
0.0489193
0.048926
0.048933
0.0489404
0.0489481
0.0489562
0.0489647
0.0489733
0.048982
0.0489905
0.0489986
0.0490062
0.0490134
0.0490203
0.049027
0.0490336
0.0490402
0.0490468
0.0490536
0.0490603
0.0490672
0.0490742
0.0490813
0.0490885
0.0490959
0.0491028
0.0491063
0.0490992
0.0490721
0.0490258
0.0489771
0.0489455
0.0489392
0.0489518
0.0489694
0.0489751
0.0489489
0.0489368
0.0489265
0.0491142
0.0492361
0.049253
0.0492554
0.0492491
0.0492382
0.0492265
0.0492157
0.0492061
0.0491977
0.04919
0.0491829
0.049176
0.0491692
0.0491626
0.049156
0.0491496
0.0491433
0.049137
0.0491309
0.0491246
0.0491182
0.0491115
0.0491043
0.0490964
0.049088
0.0490788
0.0490687
0.049058
0.0490469
0.0490358
0.0490249
0.0490146
0.049005
0.048996
0.0489875
0.0489795
0.0489716
0.0489638
0.0489558
0.0489476
0.048939
0.0489302
0.0489213
0.0489125
0.0489042
0.0488965
0.0488898
0.0488843
0.0488801
0.0488773
0.0488759
0.0488758
0.048877
0.0488793
0.0488827
0.0488869
0.0488918
0.0488973
0.0489033
0.0489096
0.0489161
0.0489229
0.0489299
0.0489371
0.0489445
0.0489521
0.04896
0.048968
0.0489761
0.0489842
0.0489922
0.0489998
0.0490072
0.0490144
0.0490214
0.0490283
0.0490352
0.0490421
0.0490491
0.0490562
0.0490634
0.0490707
0.0490783
0.049086
0.049094
0.0491016
0.0491066
0.0491022
0.049079
0.0490354
0.0489858
0.0489502
0.0489389
0.0489481
0.0489648
0.0489726
0.0489499
0.0489312
0.0489216
0.0491106
0.0492358
0.0492532
0.0492547
0.0492466
0.0492345
0.0492223
0.0492113
0.049202
0.0491939
0.0491867
0.0491801
0.0491739
0.0491679
0.0491621
0.0491563
0.0491507
0.049145
0.0491393
0.0491333
0.0491271
0.0491204
0.049113
0.0491048
0.0490958
0.0490859
0.0490753
0.0490638
0.0490519
0.0490398
0.0490282
0.0490173
0.0490073
0.0489982
0.0489901
0.0489828
0.0489758
0.048969
0.048962
0.0489547
0.0489467
0.0489382
0.048929
0.0489196
0.0489101
0.0489009
0.0488925
0.0488851
0.0488792
0.0488747
0.0488717
0.0488704
0.0488704
0.0488719
0.0488745
0.0488783
0.0488829
0.0488883
0.0488942
0.0489005
0.0489072
0.048914
0.048921
0.0489281
0.0489352
0.0489424
0.0489497
0.0489571
0.0489646
0.0489721
0.0489797
0.0489873
0.0489947
0.049002
0.0490091
0.0490162
0.0490232
0.0490303
0.0490374
0.0490446
0.0490519
0.0490594
0.0490671
0.0490751
0.0490833
0.0490918
0.0491002
0.0491063
0.0491043
0.0490849
0.0490443
0.0489945
0.0489552
0.048939
0.048944
0.0489588
0.0489677
0.048952
0.048936
0.0489211
0.0491073
0.0492351
0.0492529
0.0492531
0.0492433
0.0492303
0.0492177
0.0492068
0.0491978
0.0491901
0.0491834
0.0491774
0.0491719
0.0491667
0.0491618
0.049157
0.0491522
0.0491473
0.0491422
0.0491366
0.0491302
0.0491231
0.0491148
0.0491055
0.049095
0.0490834
0.049071
0.049058
0.0490448
0.0490319
0.0490199
0.0490092
0.0489999
0.0489919
0.0489851
0.0489792
0.0489736
0.0489681
0.0489621
0.0489553
0.0489476
0.0489389
0.0489293
0.0489189
0.0489084
0.0488982
0.0488888
0.0488806
0.0488741
0.0488694
0.0488664
0.0488652
0.0488656
0.0488674
0.0488705
0.0488748
0.0488799
0.0488858
0.0488922
0.048899
0.0489061
0.0489133
0.0489205
0.0489277
0.0489348
0.0489419
0.048949
0.0489561
0.0489631
0.0489702
0.0489773
0.0489844
0.0489915
0.0489984
0.0490054
0.0490123
0.0490193
0.0490263
0.0490334
0.0490407
0.0490482
0.0490559
0.0490638
0.0490721
0.0490807
0.0490897
0.0490986
0.0491057
0.0491058
0.0490897
0.0490523
0.0490029
0.0489606
0.0489393
0.0489397
0.0489516
0.04896
0.0489508
0.0489459
0.0489346
0.0491041
0.0492338
0.0492518
0.0492508
0.0492396
0.0492256
0.0492129
0.0492021
0.0491933
0.049186
0.0491798
0.0491744
0.0491696
0.0491653
0.0491613
0.0491574
0.0491536
0.0491496
0.0491452
0.04914
0.0491337
0.049126
0.0491169
0.0491061
0.0490938
0.0490804
0.0490659
0.0490512
0.0490368
0.0490232
0.0490112
0.0490011
0.0489929
0.0489864
0.0489813
0.0489771
0.0489732
0.048969
0.048964
0.0489578
0.0489503
0.0489412
0.0489307
0.0489192
0.0489073
0.0488957
0.0488851
0.0488761
0.0488691
0.0488642
0.0488614
0.0488606
0.0488614
0.0488639
0.0488677
0.0488726
0.0488784
0.0488849
0.0488918
0.0488991
0.0489066
0.048914
0.0489215
0.0489289
0.0489361
0.0489432
0.0489502
0.048957
0.0489638
0.0489705
0.0489772
0.0489838
0.0489904
0.048997
0.0490036
0.0490102
0.0490169
0.0490237
0.0490307
0.0490379
0.0490454
0.0490531
0.0490612
0.0490696
0.0490785
0.0490878
0.0490972
0.0491051
0.0491069
0.0490938
0.0490596
0.049011
0.0489662
0.0489401
0.0489356
0.0489438
0.0489506
0.0489444
0.0489482
0.0489533
0.0491011
0.0492319
0.04925
0.0492479
0.0492356
0.0492209
0.0492078
0.0491971
0.0491885
0.0491816
0.0491758
0.0491709
0.0491667
0.0491631
0.0491599
0.049157
0.0491542
0.0491512
0.0491477
0.0491431
0.049137
0.049129
0.0491188
0.0491065
0.0490922
0.0490766
0.0490601
0.0490436
0.049028
0.0490141
0.0490024
0.0489933
0.0489866
0.048982
0.0489789
0.0489767
0.0489744
0.0489716
0.0489676
0.048962
0.0489544
0.0489447
0.0489332
0.0489203
0.0489067
0.0488935
0.0488815
0.0488715
0.0488641
0.0488593
0.048857
0.0488569
0.0488587
0.048862
0.0488666
0.0488724
0.048879
0.0488861
0.0488936
0.0489013
0.0489091
0.0489168
0.0489244
0.0489319
0.0489392
0.0489464
0.0489533
0.04896
0.0489666
0.048973
0.0489793
0.0489855
0.0489917
0.0489978
0.049004
0.0490102
0.0490165
0.0490229
0.0490296
0.0490365
0.0490437
0.0490513
0.0490594
0.0490678
0.0490769
0.0490864
0.0490962
0.0491047
0.0491078
0.0490973
0.049066
0.0490187
0.0489719
0.0489415
0.0489321
0.0489365
0.048941
0.0489357
0.0489396
0.0489574
0.0490982
0.0492294
0.0492475
0.0492445
0.0492313
0.0492161
0.0492027
0.0491919
0.0491834
0.0491767
0.0491712
0.0491667
0.049163
0.0491599
0.0491574
0.0491554
0.0491536
0.0491516
0.0491491
0.0491455
0.0491399
0.0491318
0.0491207
0.0491067
0.0490903
0.0490723
0.0490537
0.0490354
0.0490189
0.0490048
0.0489939
0.0489861
0.0489813
0.0489789
0.048978
0.0489777
0.0489772
0.0489757
0.0489726
0.0489674
0.0489597
0.0489494
0.0489367
0.0489221
0.0489066
0.0488915
0.048878
0.0488672
0.0488596
0.0488553
0.0488541
0.0488553
0.0488584
0.0488628
0.0488685
0.0488752
0.0488826
0.0488903
0.0488982
0.0489061
0.048914
0.0489218
0.0489295
0.048937
0.0489442
0.0489513
0.0489581
0.0489647
0.0489711
0.0489773
0.0489834
0.0489892
0.048995
0.0490007
0.0490064
0.0490121
0.0490179
0.0490239
0.0490301
0.0490366
0.0490435
0.0490508
0.0490586
0.049067
0.0490761
0.0490857
0.0490957
0.0491047
0.0491087
0.0491003
0.0490718
0.0490258
0.0489776
0.0489434
0.0489295
0.0489303
0.0489327
0.0489273
0.0489282
0.0489489
0.0490952
0.0492263
0.0492445
0.0492408
0.0492269
0.0492113
0.0491977
0.0491867
0.0491781
0.0491714
0.0491661
0.0491619
0.0491585
0.0491558
0.0491538
0.0491523
0.0491513
0.0491504
0.0491492
0.0491467
0.0491421
0.0491342
0.0491225
0.0491068
0.049088
0.0490675
0.0490467
0.049027
0.0490096
0.0489957
0.0489858
0.0489798
0.0489772
0.048977
0.0489783
0.04898
0.0489811
0.0489809
0.0489786
0.0489738
0.0489661
0.0489551
0.0489412
0.0489248
0.0489073
0.0488903
0.0488754
0.048864
0.0488567
0.0488534
0.0488538
0.0488569
0.0488619
0.0488682
0.0488748
0.0488822
0.0488901
0.0488981
0.0489061
0.048914
0.0489217
0.0489293
0.0489366
0.0489438
0.0489508
0.0489576
0.0489643
0.0489707
0.048977
0.048983
0.0489888
0.0489944
0.0489999
0.0490052
0.0490104
0.0490157
0.049021
0.0490264
0.0490321
0.0490381
0.0490446
0.0490515
0.0490591
0.0490673
0.0490763
0.049086
0.049096
0.0491052
0.04911
0.0491032
0.049077
0.0490324
0.0489831
0.0489457
0.0489279
0.0489254
0.0489259
0.0489201
0.0489183
0.0489397
0.0490922
0.0492227
0.0492411
0.0492371
0.0492228
0.0492068
0.0491928
0.0491816
0.0491728
0.0491661
0.049161
0.0491569
0.0491537
0.0491511
0.0491492
0.049148
0.0491475
0.0491476
0.0491476
0.0491467
0.0491434
0.0491364
0.0491243
0.0491071
0.0490858
0.0490626
0.0490395
0.0490183
0.0490005
0.0489871
0.0489785
0.0489745
0.0489741
0.0489762
0.0489796
0.0489831
0.0489857
0.0489866
0.0489852
0.048981
0.0489733
0.0489619
0.0489469
0.0489289
0.0489096
0.0488908
0.0488748
0.0488632
0.0488567
0.0488551
0.0488576
0.0488631
0.0488706
0.0488789
0.0488868
0.0488941
0.0489019
0.0489097
0.0489172
0.0489245
0.0489315
0.0489384
0.048945
0.0489516
0.0489581
0.0489645
0.0489709
0.0489771
0.0489832
0.0489891
0.0489948
0.0490003
0.0490055
0.0490106
0.0490156
0.0490204
0.0490253
0.0490303
0.0490354
0.049041
0.0490469
0.0490535
0.0490607
0.0490687
0.0490775
0.0490872
0.0490973
0.0491066
0.0491117
0.0491059
0.0490815
0.0490381
0.048988
0.0489479
0.0489267
0.0489214
0.0489201
0.0489133
0.0489092
0.0489341
0.0490891
0.0492187
0.0492376
0.0492336
0.0492192
0.0492029
0.0491885
0.0491769
0.049168
0.0491613
0.0491563
0.0491525
0.0491494
0.0491467
0.0491445
0.0491431
0.0491427
0.0491433
0.0491445
0.0491453
0.0491439
0.0491382
0.0491263
0.0491077
0.0490839
0.0490579
0.0490324
0.0490099
0.0489918
0.0489792
0.0489721
0.0489701
0.0489719
0.0489761
0.0489814
0.0489864
0.0489903
0.0489924
0.0489921
0.0489886
0.0489813
0.0489698
0.0489541
0.0489351
0.0489144
0.0488945
0.0488779
0.0488668
0.0488616
0.0488619
0.0488664
0.0488739
0.0488831
0.0488933
0.0489028
0.0489105
0.0489167
0.0489232
0.0489296
0.0489356
0.0489414
0.0489472
0.048953
0.0489588
0.0489647
0.0489707
0.0489767
0.0489828
0.0489888
0.0489947
0.0490004
0.0490059
0.0490112
0.0490162
0.0490211
0.0490257
0.0490303
0.0490349
0.0490397
0.0490448
0.0490504
0.0490565
0.0490635
0.0490712
0.0490799
0.0490895
0.0490996
0.0491088
0.049114
0.0491088
0.0490855
0.0490428
0.0489919
0.0489496
0.0489256
0.0489177
0.0489145
0.0489061
0.0489
0.0489319
0.0490858
0.0492145
0.0492342
0.0492308
0.0492166
0.0492001
0.0491853
0.0491734
0.0491643
0.0491576
0.0491531
0.0491498
0.0491469
0.049144
0.0491411
0.0491389
0.0491378
0.0491382
0.0491401
0.0491425
0.0491435
0.0491399
0.0491288
0.049109
0.0490826
0.0490536
0.0490257
0.0490018
0.0489837
0.048972
0.0489666
0.0489666
0.0489703
0.0489763
0.0489831
0.0489895
0.0489947
0.0489981
0.0489989
0.0489964
0.04899
0.0489789
0.0489633
0.0489439
0.0489229
0.048903
0.048887
0.0488768
0.0488728
0.0488743
0.0488798
0.0488879
0.048897
0.0489064
0.048915
0.0489224
0.0489286
0.0489347
0.0489392
0.048944
0.0489489
0.048954
0.0489591
0.0489644
0.0489699
0.0489755
0.0489814
0.0489873
0.0489933
0.0489993
0.0490051
0.0490108
0.0490163
0.0490215
0.0490264
0.0490311
0.0490356
0.04904
0.0490446
0.0490494
0.0490547
0.0490606
0.0490673
0.0490749
0.0490835
0.049093
0.049103
0.0491121
0.0491169
0.0491116
0.0490887
0.0490462
0.0489944
0.0489501
0.0489238
0.0489138
0.0489086
0.048898
0.0488905
0.0489332
0.0490825
0.0492102
0.0492311
0.0492288
0.0492153
0.049199
0.0491839
0.0491715
0.0491622
0.0491558
0.0491522
0.0491498
0.0491474
0.0491443
0.0491404
0.0491367
0.049134
0.0491334
0.0491351
0.0491388
0.0491423
0.0491415
0.0491318
0.0491113
0.0490823
0.0490501
0.0490197
0.0489945
0.0489763
0.0489655
0.0489616
0.0489633
0.0489688
0.0489763
0.0489844
0.0489921
0.0489986
0.0490034
0.0490056
0.0490046
0.0489995
0.0489897
0.0489751
0.0489568
0.0489366
0.0489175
0.0489022
0.0488925
0.0488889
0.0488907
0.0488961
0.0489038
0.0489123
0.0489208
0.0489285
0.0489354
0.0489412
0.0489458
0.048949
0.0489511
0.0489563
0.0489625
0.0489675
0.0489719
0.0489762
0.0489809
0.0489859
0.0489914
0.0489971
0.049003
0.049009
0.0490149
0.0490207
0.0490261
0.0490313
0.0490362
0.0490408
0.0490453
0.0490498
0.0490545
0.0490596
0.0490654
0.049072
0.0490796
0.0490883
0.0490978
0.0491076
0.0491162
0.0491204
0.0491144
0.049091
0.0490479
0.0489949
0.048949
0.048921
0.0489092
0.0489018
0.0488886
0.0488814
0.0489384
0.0490791
0.0492061
0.0492286
0.049228
0.0492158
0.0492001
0.0491849
0.0491723
0.0491629
0.049157
0.0491543
0.0491534
0.0491521
0.0491489
0.0491438
0.049138
0.049133
0.0491301
0.0491306
0.0491347
0.0491405
0.0491431
0.0491357
0.0491148
0.0490832
0.0490477
0.0490146
0.048988
0.0489696
0.0489597
0.0489571
0.0489602
0.048967
0.0489758
0.048985
0.048994
0.0490018
0.0490081
0.049012
0.0490128
0.0490097
0.049002
0.0489897
0.0489735
0.0489554
0.0489379
0.0489237
0.0489146
0.0489113
0.048913
0.0489185
0.0489264
0.0489354
0.0489447
0.0489536
0.0489617
0.0489689
0.0489751
0.0489804
0.0489849
0.048986
0.048987
0.0489859
0.0489847
0.0489852
0.0489873
0.0489908
0.0489953
0.0490005
0.0490063
0.0490123
0.0490185
0.0490245
0.0490304
0.0490359
0.0490411
0.049046
0.0490506
0.0490553
0.0490601
0.0490653
0.0490711
0.0490778
0.0490855
0.0490942
0.0491037
0.0491133
0.0491212
0.0491243
0.0491168
0.0490918
0.0490473
0.0489928
0.0489456
0.0489166
0.0489036
0.0488936
0.0488777
0.0488747
0.0489464
0.0490756
0.0492021
0.0492265
0.0492283
0.0492183
0.049204
0.0491893
0.0491765
0.049167
0.0491615
0.0491598
0.049161
0.0491611
0.0491579
0.0491517
0.0491439
0.0491361
0.04913
0.0491276
0.0491307
0.0491384
0.0491448
0.0491405
0.0491197
0.0490855
0.0490465
0.0490106
0.0489825
0.0489638
0.0489545
0.0489529
0.0489571
0.0489649
0.0489746
0.0489848
0.0489948
0.049004
0.0490118
0.0490176
0.0490206
0.04902
0.0490153
0.0490062
0.0489933
0.0489784
0.0489637
0.0489515
0.0489437
0.0489412