/*--------------------------------*- C++ -*----------------------------------*\
| =========                 |                                                 |
| \\      /  F ield         | OpenFOAM: The Open Source CFD Toolbox           |
|  \\    /   O peration     | Version:  4.1                                   |
|   \\  /    A nd           | Web:      www.OpenFOAM.org                      |
|    \\/     M anipulation  |                                                 |
\*---------------------------------------------------------------------------*/
FoamFile
{
    version     2.0;
    format      ascii;
    class       volScalarField;
    location    "1380";
    object      T;
}
// * * * * * * * * * * * * * * * * * * * * * * * * * * * * * * * * * * * * * //

dimensions      [0 0 0 1 0 0 0];

internalField   nonuniform List<scalar> 
5000
(
285.249
284.753
284.508
284.706
284.909
285.092
285.265
285.43
285.585
285.728
285.858
285.975
286.082
286.18
286.274
286.364
286.45
286.529
286.595
286.641
286.661
286.65
286.611
286.549
286.471
286.384
286.297
286.214
286.14
286.077
286.028
285.998
285.989
286.009
286.066
286.169
286.33
286.557
286.848
287.177
287.499
287.803
288.076
288.297
288.449
288.523
288.524
288.463
288.362
288.26
288.178
288.125
288.096
288.084
288.074
288.052
288.003
287.915
287.783
287.611
287.411
287.205
287.017
286.877
286.817
286.865
287.021
287.208
287.446
287.761
288.124
288.367
288.349
288.276
288.217
288.161
288.136
288.185
288.227
288.128
287.776
287.256
286.831
286.66
287.024
287.816
288.073
286.722
286.16
285.932
285.798
285.659
285.509
285.345
285.251
285.206
285.203
285.182
285.532
285.92
284.631
283.672
283.713
283.704
283.69
283.676
283.663
283.65
283.639
283.63
283.623
283.618
283.614
283.611
283.609
283.607
283.606
283.605
283.604
283.604
283.603
283.601
283.6
283.599
283.597
283.596
283.595
283.595
283.595
283.596
283.598
283.603
283.61
283.621
283.639
283.667
283.712
283.782
283.891
284.056
284.284
284.519
284.712
284.827
284.848
284.779
284.649
284.493
284.353
284.232
284.131
284.047
283.977
283.919
283.871
283.831
283.796
283.766
283.739
283.717
283.699
283.686
283.682
283.693
283.731
283.825
284.047
284.546
285.323
286.259
287.084
287.371
286.68
285.285
284.51
284.338
284.239
284.139
284.052
283.984
283.929
283.88
283.837
283.811
283.896
284.769
286.088
286.286
285.53
283.996
283.971
283.969
283.975
283.989
284.011
284.028
284.012
283.972
284.031
285.168
284.432
283.687
283.737
283.725
283.715
283.704
283.691
283.675
283.66
283.644
283.63
283.618
283.608
283.6
283.593
283.587
283.583
283.579
283.576
283.574
283.572
283.571
283.57
283.57
283.57
283.57
283.57
283.571
283.571
283.572
283.573
283.573
283.574
283.574
283.575
283.574
283.574
283.574
283.574
283.577
283.589
283.613
283.637
283.65
283.647
283.631
283.612
283.597
283.586
283.578
283.573
283.568
283.565
283.562
283.559
283.557
283.556
283.555
283.555
283.556
283.559
283.565
283.577
283.6
283.644
283.728
283.896
284.232
284.821
285.643
286.455
286.84
286.532
285.852
285.292
284.859
284.541
284.314
284.131
283.989
283.882
283.803
283.747
283.711
283.726
284.066
285.012
285.64
285.475
284.84
284.123
284
284.005
284.028
284.063
284.089
284.073
284.012
283.983
284.923
284.326
283.712
283.744
283.73
283.723
283.717
283.708
283.698
283.685
283.671
283.657
283.644
283.632
283.622
283.613
283.606
283.601
283.596
283.593
283.591
283.59
283.59
283.59
283.591
283.592
283.593
283.595
283.597
283.599
283.601
283.603
283.605
283.606
283.607
283.608
283.608
283.608
283.607
283.605
283.603
283.601
283.599
283.597
283.595
283.594
283.593
283.592
283.591
283.59
283.589
283.587
283.586
283.583
283.581
283.579
283.577
283.575
283.573
283.572
283.572
283.574
283.579
283.589
283.612
283.655
283.737
283.888
284.165
284.639
285.318
286.029
286.451
286.415
286.098
285.737
285.385
285.007
284.646
284.348
284.118
283.95
283.833
283.754
283.705
283.693
283.828
284.408
285.059
285.243
285.009
284.642
284.217
284.058
284.071
284.108
284.139
284.13
284.061
283.983
284.784
284.262
283.743
283.74
283.722
283.716
283.711
283.706
283.699
283.689
283.678
283.665
283.653
283.641
283.632
283.624
283.618
283.615
283.613
283.612
283.612
283.613
283.615
283.617
283.62
283.623
283.626
283.63
283.633
283.637
283.64
283.644
283.647
283.65
283.652
283.654
283.655
283.656
283.656
283.655
283.654
283.653
283.651
283.65
283.648
283.647
283.646
283.644
283.643
283.641
283.638
283.636
283.633
283.629
283.626
283.622
283.618
283.615
283.611
283.608
283.605
283.604
283.606
283.613
283.631
283.671
283.751
283.898
284.149
284.553
285.117
285.717
286.128
286.227
286.095
285.85
285.548
285.211
284.85
284.512
284.231
284.019
283.87
283.772
283.711
283.685
283.737
284.068
284.61
284.946
284.964
284.784
284.532
284.244
284.121
284.139
284.171
284.17
284.104
283.999
284.69
284.219
283.772
283.731
283.71
283.702
283.697
283.692
283.686
283.677
283.667
283.656
283.646
283.638
283.632
283.628
283.627
283.628
283.63
283.633
283.637
283.641
283.646
283.651
283.656
283.661
283.666
283.671
283.676
283.681
283.685
283.69
283.694
283.698
283.701
283.704
283.706
283.707
283.708
283.708
283.708
283.708
283.707
283.706
283.704
283.703
283.701
283.699
283.697
283.694
283.691
283.688
283.684
283.679
283.675
283.67
283.665
283.66
283.656
283.651
283.646
283.642
283.64
283.641
283.653
283.686
283.76
283.9
284.135
284.492
284.967
285.467
285.836
285.985
285.94
285.764
285.503
285.192
284.865
284.55
284.272
284.053
283.893
283.786
283.719
283.685
283.701
283.881
284.287
284.659
284.823
284.79
284.637
284.435
284.231
284.172
284.192
284.198
284.14
284.021
284.619
284.188
283.789
283.719
283.696
283.685
283.679
283.673
283.667
283.659
283.65
283.642
283.637
283.634
283.634
283.637
283.641
283.647
283.654
283.661
283.668
283.675
283.682
283.688
283.695
283.702
283.708
283.714
283.72
283.726
283.732
283.737
283.741
283.746
283.75
283.753
283.755
283.757
283.758
283.759
283.759
283.759
283.758
283.757
283.756
283.754
283.752
283.749
283.747
283.743
283.739
283.735
283.731
283.726
283.721
283.715
283.71
283.704
283.698
283.693
283.687
283.682
283.677
283.674
283.678
283.7
283.759
283.884
284.1
284.419
284.822
285.236
285.551
285.701
285.691
285.555
285.331
285.054
284.759
284.48
284.237
284.039
283.891
283.789
283.724
283.687
283.686
283.782
284.067
284.417
284.655
284.726
284.66
284.508
284.334
284.219
284.21
284.219
284.17
284.042
284.561
284.164
283.792
283.706
283.681
283.669
283.661
283.655
283.648
283.642
283.637
283.635
283.636
283.64
283.646
283.655
283.664
283.674
283.684
283.693
283.703
283.712
283.72
283.728
283.736
283.744
283.751
283.758
283.765
283.771
283.777
283.782
283.787
283.792
283.795
283.798
283.801
283.803
283.804
283.804
283.805
283.804
283.803
283.802
283.8
283.798
283.795
283.792
283.789
283.785
283.781
283.776
283.771
283.766
283.76
283.754
283.748
283.742
283.735
283.729
283.722
283.716
283.71
283.704
283.701
283.71
283.749
283.847
284.033
284.311
284.652
284.992
285.252
285.383
285.383
285.272
285.082
284.846
284.596
284.358
284.153
283.99
283.868
283.781
283.724
283.691
283.682
283.733
283.926
284.227
284.492
284.632
284.636
284.533
284.38
284.259
284.228
284.234
284.195
284.058
284.511
284.143
283.783
283.694
283.668
283.655
283.646
283.64
283.636
283.634
283.635
283.639
283.646
283.655
283.667
283.679
283.692
283.705
283.717
283.728
283.739
283.75
283.759
283.768
283.777
283.785
283.793
283.8
283.807
283.813
283.818
283.823
283.828
283.832
283.835
283.837
283.839
283.841
283.841
283.842
283.841
283.841
283.839
283.838
283.836
283.833
283.83
283.827
283.823
283.819
283.815
283.81
283.805
283.799
283.793
283.787
283.78
283.773
283.766
283.759
283.752
283.745
283.737
283.729
283.723
283.722
283.74
283.803
283.943
284.168
284.447
284.721
284.93
285.037
285.039
284.951
284.797
284.607
284.408
284.22
284.058
283.929
283.834
283.766
283.721
283.693
283.682
283.71
283.839
284.085
284.35
284.531
284.588
284.529
284.4
284.284
284.241
284.247
284.216
284.068
284.466
284.124
283.767
283.682
283.656
283.642
283.634
283.631
283.631
283.634
283.641
283.65
283.662
283.676
283.691
283.707
283.722
283.736
283.75
283.763
283.775
283.786
283.796
283.806
283.814
283.822
283.83
283.837
283.843
283.848
283.853
283.857
283.861
283.864
283.866
283.868
283.869
283.869
283.87
283.869
283.869
283.867
283.866
283.864
283.862
283.859
283.856
283.853
283.849
283.845
283.841
283.836
283.831
283.825
283.819
283.813
283.806
283.799
283.792
283.785
283.777
283.769
283.761
283.752
283.743
283.737
283.74
283.771
283.858
284.015
284.224
284.434
284.597
284.684
284.689
284.625
284.511
284.369
284.222
284.084
283.966
283.872
283.801
283.752
283.718
283.696
283.686
283.701
283.787
283.983
284.231
284.434
284.53
284.509
284.404
284.295
284.249
284.256
284.236
284.072
284.425
284.107
283.749
283.672
283.646
283.633
283.627
283.627
283.632
283.641
283.652
283.667
283.682
283.699
283.716
283.733
283.75
283.765
283.78
283.794
283.806
283.818
283.828
283.838
283.846
283.853
283.86
283.866
283.871
283.875
283.879
283.882
283.884
283.886
283.887
283.888
283.889
283.889
283.888
283.888
283.887
283.885
283.884
283.882
283.88
283.877
283.874
283.871
283.867
283.863
283.859
283.855
283.85
283.844
283.838
283.832
283.826
283.819
283.812
283.805
283.797
283.789
283.781
283.772
283.762
283.753
283.748
283.757
283.799
283.89
284.025
284.171
284.291
284.359
284.369
284.33
284.254
284.159
284.06
283.967
283.887
283.823
283.775
283.74
283.716
283.7
283.691
283.698
283.757
283.911
284.136
284.346
284.47
284.481
284.4
284.3
284.253
284.263
284.254
284.075
284.391
284.091
283.731
283.662
283.637
283.625
283.622
283.627
283.637
283.651
283.667
283.685
283.703
283.721
283.739
283.756
283.773
283.79
283.805
283.819
283.832
283.844
283.854
283.863
283.87
283.877
283.882
283.887
283.89
283.893
283.896
283.898
283.899
283.9
283.901
283.901
283.901
283.901
283.9
283.899
283.898
283.896
283.895
283.893
283.891
283.888
283.886
283.883
283.879
283.876
283.872
283.867
283.863
283.857
283.852
283.846
283.84
283.833
283.827
283.82
283.813
283.805
283.797
283.788
283.779
283.769
283.761
283.758
283.772
283.813
283.885
283.972
284.05
284.099
284.113
284.094
284.051
283.995
283.934
283.877
283.827
283.787
283.755
283.733
283.716
283.704
283.696
283.699
283.74
283.861
284.06
284.269
284.412
284.448
284.391
284.303
284.255
284.265
284.271
284.086
284.367
284.075
283.715
283.653
283.629
283.619
283.621
283.631
283.646
283.664
283.684
283.703
283.722
283.74
283.758
283.775
283.792
283.808
283.824
283.838
283.851
283.862
283.872
283.88
283.886
283.891
283.896
283.899
283.902
283.904
283.905
283.907
283.908
283.908
283.909
283.909
283.908
283.908
283.907
283.905
283.904
283.902
283.9
283.899
283.897
283.894
283.892
283.89
283.887
283.884
283.88
283.876
283.872
283.867
283.861
283.856
283.85
283.843
283.837
283.83
283.824
283.816
283.809
283.801
283.793
283.784
283.775
283.767
283.767
283.78
283.81
283.852
283.895
283.926
283.938
283.932
283.911
283.882
283.848
283.816
283.787
283.763
283.744
283.73
283.719
283.709
283.703
283.703
283.73
283.825
283.999
284.201
284.355
284.414
284.379
284.304
284.254
284.264
284.285
284.119
284.355
284.06
283.701
283.645
283.621
283.615
283.622
283.637
283.657
283.678
283.699
283.718
283.737
283.755
283.772
283.789
283.806
283.821
283.836
283.85
283.862
283.873
283.882
283.889
283.895
283.899
283.902
283.905
283.907
283.908
283.91
283.911
283.912
283.913
283.913
283.913
283.912
283.911
283.909
283.908
283.906
283.904
283.902
283.9
283.898
283.897
283.895
283.893
283.891
283.888
283.885
283.882
283.878
283.873
283.868
283.862
283.857
283.85
283.844
283.837
283.831
283.824
283.817
283.81
283.803
283.795
283.787
283.779
283.773
283.773
283.781
283.796
283.815
283.831
283.838
283.837
283.829
283.814
283.798
283.781
283.765
283.752
283.74
283.731
283.723
283.716
283.709
283.707
283.726
283.799
283.95
284.141
284.302
284.379
284.364
284.303
284.253
284.259
284.296
284.175
284.354
284.044
283.687
283.637
283.616
283.614
283.626
283.646
283.668
283.69
283.711
283.73
283.748
283.765
283.781
283.797
283.813
283.828
283.843
283.856
283.867
283.877
283.885
283.892
283.897
283.9
283.903
283.905
283.907
283.909
283.911
283.913
283.914
283.915
283.915
283.915
283.914
283.912
283.91
283.907
283.905
283.903
283.901
283.899
283.897
283.896
283.894
283.893
283.892
283.89
283.888
283.885
283.882
283.877
283.873
283.867
283.861
283.855
283.849
283.842
283.835
283.829
283.822
283.816
283.809
283.802
283.795
283.788
283.781
283.777
283.776
283.778
283.784
283.789
283.792
283.792
283.788
283.781
283.773
283.765
283.756
283.748
283.741
283.735
283.729
283.722
283.716
283.712
283.724
283.781
283.909
284.088
284.251
284.342
284.347
284.3
284.253
284.253
284.304
284.242
284.356
284.029
283.678
283.628
283.611
283.614
283.631
283.655
283.679
283.701
283.721
283.738
283.755
283.77
283.786
283.8
283.815
283.829
283.843
283.855
283.866
283.875
283.883
283.888
283.893
283.897
283.9
283.903
283.906
283.908
283.911
283.914
283.916
283.917
283.917
283.916
283.914
283.911
283.908
283.905
283.901
283.898
283.896
283.894
283.892
283.891
283.891
283.89
283.89
283.889
283.888
283.886
283.884
283.88
283.876
283.871
283.865
283.858
283.852
283.845
283.838
283.831
283.825
283.818
283.812
283.806
283.8
283.794
283.788
283.783
283.779
283.777
283.776
283.776
283.776
283.775
283.773
283.769
283.765
283.76
283.755
283.75
283.745
283.74
283.735
283.729
283.722
283.717
283.724
283.767
283.876
284.04
284.203
284.306
284.328
284.295
284.253
284.249
284.31
284.297
284.36
284.015
283.672
283.622
283.609
283.617
283.638
283.663
283.687
283.708
283.727
283.743
283.758
283.772
283.785
283.799
283.812
283.825
283.837
283.849
283.859
283.868
283.875
283.881
283.886
283.89
283.895
283.899
283.903
283.907
283.911
283.915
283.917
283.918
283.918
283.916
283.912
283.908
283.904
283.899
283.895
283.891
283.888
283.886
283.885
283.884
283.885
283.886
283.886
283.887
283.887
283.886
283.884
283.881
283.878
283.873
283.867
283.86
283.853
283.846
283.839
283.832
283.825
283.818
283.813
283.807
283.802
283.797
283.792
283.787
283.783
283.78
283.777
283.775
283.773
283.772
283.769
283.767
283.764
283.761
283.757
283.754
283.75
283.746
283.741
283.735
283.728
283.722
283.724
283.757
283.849
283.999
284.158
284.269
284.307
284.289
284.253
284.246
284.313
284.331
284.364
284.002
283.668
283.619
283.608
283.621
283.645
283.671
283.694
283.714
283.73
283.744
283.757
283.769
283.781
283.793
283.804
283.816
283.827
283.837
283.847
283.856
283.863
283.87
283.876
283.882
283.888
283.894
283.901
283.907
283.913
283.917
283.919
283.92
283.918
283.915
283.91
283.904
283.897
283.891
283.885
283.88
283.877
283.875
283.874
283.875
283.877
283.879
283.882
283.884
283.885
283.885
283.884
283.882
283.879
283.874
283.868
283.861
283.854
283.846
283.838
283.83
283.823
283.816
283.81
283.805
283.8
283.795
283.791
283.788
283.784
283.781
283.778
283.776
283.774
283.772
283.77
283.768
283.766
283.763
283.761
283.758
283.754
283.75
283.745
283.739
283.732
283.726
283.725
283.75
283.827
283.961
284.115
284.233
284.285
284.28
284.251
284.244
284.301
284.34
284.368
283.988
283.664
283.617
283.609
283.625
283.651
283.676
283.699
283.717
283.731
283.743
283.754
283.764
283.774
283.784
283.794
283.803
283.813
283.823
283.832
283.841
283.849
283.857
283.865
283.873
283.881
283.89
283.899
283.908
283.915
283.92
283.922
283.921
283.918
283.912
283.905
283.896
283.887
283.879
283.872
283.866
283.863
283.862
283.862
283.865
283.869
283.873
283.877
283.881
283.883
283.884
283.884
283.882
283.879
283.874
283.868
283.861
283.853
283.844
283.836
283.827
283.819
283.812
283.805
283.8
283.795
283.79
283.787
283.784
283.781
283.779
283.777
283.775
283.773
283.771
283.77
283.768
283.767
283.765
283.763
283.76
283.757
283.753
283.749
283.743
283.736
283.728
283.726
283.744
283.808
283.928
284.075
284.197
284.261
284.269
284.249
284.243
284.282
284.317
284.357
283.975
283.661
283.615
283.61
283.629
283.656
283.681
283.701
283.718
283.73
283.741
283.75
283.758
283.766
283.773
283.781
283.789
283.797
283.806
283.815
283.824
283.833
283.843
283.853
283.864
283.875
283.888
283.899
283.91
283.918
283.923
283.924
283.922
283.916
283.908
283.898
283.886
283.875
283.865
283.856
283.85
283.847
283.847
283.85
283.854
283.86
283.867
283.873
283.879
283.882
283.884
283.884
283.883
283.879
283.874
283.867
283.859
283.85
283.841
283.831
283.822
283.813
283.805
283.798
283.792
283.786
283.782
283.779
283.776
283.774
283.772
283.771
283.77
283.769
283.768
283.767
283.766
283.765
283.764
283.763
283.761
283.758
283.755
283.75
283.745
283.738
283.73
283.726
283.739
283.792
283.899
284.039
284.163
284.237
284.256
284.245
284.241
284.267
284.278
284.307
283.961
283.658
283.614
283.612
283.633
283.66
283.684
283.703
283.717
283.728
283.737
283.744
283.75
283.756
283.762
283.768
283.775
283.781
283.789
283.797
283.806
283.816
283.828
283.841
283.855
283.87
283.886
283.901
283.913
283.922
283.927
283.927
283.922
283.913
283.902
283.888
283.874
283.86
283.848
283.839
283.833
283.83
283.832
283.837
283.844
283.854
283.863
283.872
283.879
283.883
283.885
283.885
283.883
283.879
283.872
283.864
283.855
283.845
283.835
283.824
283.814
283.804
283.795
283.787
283.781
283.775
283.77
283.767
283.764
283.763
283.761
283.761
283.76
283.76
283.76
283.76
283.76
283.76
283.76
283.76
283.759
283.757
283.754
283.75
283.745
283.738
283.73
283.725
283.734
283.779
283.874
284.005
284.129
284.212
284.243
284.24
284.24
284.259
284.251
284.242
283.947
283.656
283.613
283.614
283.636
283.663
283.685
283.703
283.715
283.725
283.732
283.738
283.743
283.748
283.752
283.757
283.761
283.766
283.772
283.78
283.789
283.8
283.814
283.83
283.848
283.867
283.886
283.903
283.917
283.927
283.93
283.928
283.921
283.909
283.893
283.876
283.859
283.843
283.83
283.82
283.814
283.813
283.817
283.825
283.836
283.849
283.861
283.872
283.881
283.885
283.887
283.886
283.882
283.876
283.868
283.859
283.848
283.837
283.826
283.814
283.803
283.792
283.783
283.774
283.767
283.761
283.756
283.752
283.75
283.748
283.747
283.747
283.747
283.748
283.749
283.75
283.751
283.752
283.753
283.754
283.754
283.753
283.751
283.748
283.743
283.736
283.729
283.723
283.73
283.767
283.851
283.974
284.098
284.186
284.228
284.234
284.238
284.255
284.247
284.211
283.932
283.653
283.612
283.615
283.638
283.664
283.686
283.702
283.713
283.722
283.728
283.733
283.737
283.74
283.744
283.747
283.75
283.754
283.758
283.764
283.773
283.784
283.8
283.819
283.841
283.864
283.886
283.907
283.922
283.931
283.934
283.929
283.918
283.902
283.884
283.863
283.844
283.826
283.811
283.801
283.795
283.796
283.802
283.813
283.829
283.845
283.861
283.874
283.883
283.888
283.888
283.885
283.878
283.87
283.86
283.849
283.837
283.824
283.812
283.799
283.788
283.777
283.767
283.758
283.75
283.744
283.739
283.735
283.732
283.731
283.73
283.73
283.731
283.733
283.734
283.737
283.739
283.741
283.744
283.745
283.746
283.747
283.746
283.743
283.739
283.733
283.726
283.72
283.725
283.756
283.831
283.946
284.068
284.162
284.212
284.227
284.235
284.254
284.252
284.212
283.918
283.651
283.612
283.615
283.638
283.664
283.685
283.7
283.711
283.718
283.723
283.728
283.731
283.734
283.737
283.74
283.742
283.744
283.747
283.751
283.758
283.77
283.787
283.809
283.835
283.862
283.888
283.911
283.927
283.936
283.936
283.928
283.914
283.895
283.873
283.85
283.828
283.809
283.793
283.782
283.777
283.779
283.788
283.803
283.822
283.843
283.862
283.876
283.885
283.888
283.886
283.879
283.869
283.857
283.845
283.832
283.819
283.805
283.792
283.78
283.768
283.757
283.748
283.739
283.731
283.725
283.72
283.716
283.713
283.712
283.711
283.712
283.713
283.715
283.718
283.721
283.725
283.728
283.731
283.734
283.737
283.738
283.738
283.737
283.733
283.728
283.721
283.716
283.719
283.746
283.814
283.922
284.042
284.139
284.197
284.22
284.233
284.253
284.259
284.218
283.905
283.65
283.611
283.615
283.637
283.662
283.683
283.697
283.708
283.714
283.719
283.723
283.726
283.729
283.733
283.735
283.737
283.738
283.739
283.741
283.746
283.757
283.775
283.8
283.83
283.861
283.891
283.915
283.932
283.94
283.938
283.927
283.91
283.887
283.862
283.837
283.813
283.793
283.776
283.764
283.76
283.763
283.774
283.792
283.815
283.839
283.86
283.876
283.883
283.884
283.877
283.866
283.851
283.836
283.821
283.808
283.794
283.781
283.768
283.756
283.746
283.736
283.727
283.719
283.712
283.707
283.702
283.698
283.695
283.694
283.693
283.694
283.695
283.698
283.701
283.705
283.709
283.713
283.718
283.722
283.726
283.728
283.729
283.728
283.726
283.721
283.715
283.71
283.713
283.737
283.799
283.9
284.018
284.119
284.182
284.212
284.23
284.254
284.267
284.221
283.892
283.649
283.61
283.614
283.635
283.66
283.68
283.694
283.704
283.71
283.714
283.717
283.72
283.724
283.729
283.732
283.735
283.735
283.735
283.735
283.737
283.746
283.763
283.791
283.825
283.861
283.894
283.92
283.937
283.944
283.939
283.926
283.905
283.88
283.853
283.826
283.8
283.778
283.76
283.748
283.743
283.747
283.759
283.779
283.805
283.831
283.854
283.869
283.874
283.871
283.861
283.846
283.828
283.809
283.791
283.777
283.765
283.754
283.743
283.733
283.724
283.716
283.709
283.702
283.696
283.691
283.686
283.682
283.68
283.678
283.677
283.677
283.679
283.681
283.684
283.689
283.693
283.699
283.704
283.709
283.713
283.717
283.719
283.719
283.717
283.713
283.707
283.703
283.705
283.728
283.786
283.883
283.999
284.101
284.17
284.206
284.229
284.256
284.274
284.218
283.881
283.649
283.61
283.612
283.632
283.655
283.675
283.689
283.699
283.704
283.707
283.71
283.713
283.718
283.724
283.729
283.734
283.735
283.734
283.732
283.731
283.736
283.753
283.782
283.82
283.861
283.897
283.925
283.942
283.947
283.94
283.924
283.901
283.874
283.845
283.816
283.79
283.766
283.746
283.733
283.727
283.73
283.743
283.764
283.79
283.817
283.838
283.851
283.855
283.849
283.837
283.822
283.804
283.786
283.77
283.756
283.744
283.733
283.725
283.717
283.709
283.701
283.695
283.688
283.683
283.678
283.674
283.67
283.667
283.665
283.664
283.664
283.665
283.667
283.67
283.674
283.679
283.684
283.69
283.696
283.701
283.705
283.707
283.708
283.706
283.703
283.698
283.694
283.697
283.72
283.775
283.869
283.984
284.088
284.161
284.201
284.229
284.261
284.282
284.208
283.871
283.649
283.609
283.609
283.627
283.65
283.669
283.683
283.692
283.697
283.698
283.699
283.702
283.708
283.716
283.725
283.732
283.737
283.736
283.733
283.728
283.729
283.743
283.774
283.815
283.86
283.9
283.93
283.947
283.95
283.941
283.923
283.898
283.869
283.839
283.809
283.781
283.756
283.735
283.719
283.712
283.713
283.724
283.744
283.768
283.793
283.813
283.825
283.828
283.822
283.81
283.795
283.779
283.762
283.747
283.734
283.722
283.713
283.707
283.703
283.694
283.684
283.677
283.672
283.669
283.665
283.662
283.659
283.657
283.655
283.653
283.653
283.653
283.655
283.657
283.661
283.666
283.671
283.677
283.683
283.688
283.692
283.695
283.696
283.695
283.692
283.687
283.684
283.689
283.712
283.767
283.86
283.974
284.08
284.155
284.199
284.231
284.268
284.288
284.192
283.864
283.65
283.609
283.606
283.621
283.642
283.66
283.674
283.683
283.687
283.686
283.685
283.686
283.693
283.704
283.717
283.729
283.738
283.74
283.736
283.728
283.725
283.735
283.765
283.811
283.86
283.904
283.935
283.952
283.954
283.943
283.923
283.897
283.867
283.836
283.805
283.775
283.748
283.725
283.707
283.697
283.695
283.703
283.719
283.74
283.762
283.779
283.79
283.792
283.786
283.774
283.758
283.741
283.723
283.706
283.69
283.676
283.663
283.653
283.644
283.642
283.64
283.644
283.648
283.651
283.651
283.651
283.65
283.648
283.646
283.645
283.644
283.644
283.645
283.647
283.65
283.654
283.659
283.665
283.671
283.676
283.68
283.683
283.684
283.682
283.679
283.676
283.674
283.681
283.706
283.762
283.855
283.97
284.077
284.154
284.201
284.237
284.277
284.29
284.173
283.858
283.652
283.61
283.603
283.614
283.632
283.649
283.663
283.671
283.674
283.672
283.667
283.667
283.674
283.688
283.705
283.722
283.736
283.744
283.742
283.732
283.722
283.728
283.758
283.806
283.86
283.907
283.94
283.956
283.958
283.946
283.925
283.898
283.867
283.835
283.803
283.772
283.744
283.718
283.697
283.683
283.677
283.68
283.69
283.706
283.722
283.736
283.744
283.745
283.738
283.725
283.708
283.69
283.671
283.655
283.64
283.629
283.621
283.615
283.612
283.611
283.616
283.623
283.631
283.637
283.64
283.642
283.642
283.641
283.639
283.638
283.636
283.636
283.636
283.637
283.64
283.643
283.648
283.653
283.659
283.664
283.667
283.67
283.67
283.669
283.666
283.663
283.664
283.673
283.702
283.762
283.858
283.975
284.082
284.158
284.206
284.246
284.287
284.287
284.152
283.855
283.656
283.612
283.6
283.607
283.62
283.635
283.648
283.656
283.659
283.656
283.648
283.646
283.654
283.669
283.69
283.711
283.731
283.746
283.748
283.738
283.723
283.722
283.75
283.801
283.859
283.91
283.944
283.961
283.962
283.95
283.929
283.901
283.87
283.838
283.805
283.773
283.742
283.714
283.69
283.672
283.661
283.657
283.661
283.669
283.68
283.688
283.693
283.691
283.683
283.671
283.655
283.639
283.625
283.613
283.604
283.599
283.597
283.599
283.602
283.607
283.612
283.618
283.624
283.628
283.632
283.634
283.634
283.633
283.632
283.63
283.628
283.627
283.627
283.628
283.63
283.633
283.637
283.642
283.647
283.651
283.654
283.656
283.656
283.654
283.652
283.651
283.654
283.668
283.701
283.769
283.872
283.989
284.092
284.165
284.214
284.257
284.294
284.278
284.131
283.854
283.665
283.616
283.6
283.601
283.609
283.62
283.629
283.637
283.64
283.637
283.629
283.627
283.636
283.653
283.674
283.698
283.723
283.744
283.754
283.746
283.726
283.718
283.743
283.797
283.859
283.913
283.949
283.967
283.968
283.955
283.934
283.906
283.875
283.843
283.81
283.777
283.745
283.714
283.687
283.665
283.648
283.638
283.634
283.635
283.639
283.642
283.642
283.639
283.632
283.621
283.609
283.597
283.587
283.58
283.577
283.577
283.58
283.586
283.593
283.6
283.606
283.611
283.615
283.619
283.622
283.623
283.624
283.623
283.622
283.62
283.619
283.618
283.617
283.618
283.62
283.623
283.626
283.63
283.634
283.638
283.64
283.641
283.641
283.639
283.638
283.639
283.646
283.667
283.713
283.791
283.897
284.01
284.107
284.177
284.227
284.27
284.298
284.262
284.109
283.853
283.678
283.626
283.606
283.601
283.603
283.609
283.614
283.618
283.619
283.614
283.615
283.617
283.626
283.642
283.662
283.686
283.712
283.739
283.758
283.755
283.731
283.715
283.737
283.792
283.858
283.915
283.954
283.972
283.973
283.961
283.94
283.913
283.883
283.851
283.818
283.784
283.751
283.719
283.69
283.663
283.642
283.625
283.614
283.608
283.604
283.602
283.599
283.595
283.588
283.579
283.571
283.563
283.557
283.554
283.554
283.556
283.561
283.568
283.576
283.584
283.591
283.596
283.601
283.605
283.607
283.609
283.609
283.609
283.608
283.607
283.607
283.606
283.606
283.607
283.609
283.611
283.614
283.617
283.621
283.623
283.625
283.625
283.624
283.624
283.625
283.631
283.646
283.68
283.738
283.824
283.929
284.036
284.126
284.192
284.241
284.281
284.297
284.241
284.09
283.853
283.693
283.641
283.618
283.609
283.607
283.608
283.609
283.611
283.611
283.61
283.613
283.618
283.628
283.641
283.658
283.678
283.702
283.731
283.759
283.764
283.738
283.714
283.731
283.787
283.857
283.918
283.958
283.978
283.98
283.969
283.949
283.923
283.893
283.862
283.83
283.796
283.763
283.729
283.698
283.668
283.642
283.62
283.603
283.59
283.58
283.573
283.567
283.56
283.554
283.547
283.54
283.535
283.531
283.53
283.531
283.534
283.539
283.546
283.553
283.561
283.568
283.574
283.58
283.584
283.587
283.589
283.59
283.591
283.591
283.591
283.591
283.592
283.592
283.594
283.595
283.598
283.6
283.603
283.605
283.607
283.608
283.609
283.609
283.611
283.618
283.633
283.661
283.708
283.777
283.866
283.968
284.066
284.148
284.21
284.257
284.29
284.289
284.216
284.073
283.853
283.711
283.66
283.638
283.627
283.623
283.621
283.62
283.621
283.621
283.623
283.627
283.632
283.64
283.65
283.662
283.678
283.697
283.724
283.756
283.772
283.746
283.714
283.726
283.783
283.856
283.92
283.963
283.984
283.987
283.977
283.958
283.934
283.906
283.876
283.845
283.812
283.779
283.745
283.712
283.681
283.652
283.626
283.603
283.585
283.57
283.557
283.547
283.538
283.53
283.523
283.517
283.513
283.51
283.508
283.509
283.511
283.516
283.521
283.527
283.534
283.541
283.548
283.553
283.558
283.562
283.565
283.568
283.57
283.571
283.572
283.573
283.574
283.576
283.578
283.58
283.582
283.584
283.587
283.589
283.591
283.593
283.595
283.6
283.609
283.625
283.653
283.695
283.752
283.827
283.916
284.011
284.1
284.174
284.231
284.272
284.294
284.276
284.189
284.06
283.853
283.73
283.684
283.663
283.653
283.649
283.647
283.646
283.646
283.646
283.648
283.651
283.654
283.658
283.664
283.671
283.682
283.698
283.72
283.751
283.777
283.754
283.715
283.722
283.779
283.855
283.922
283.967
283.99
283.995
283.986
283.97
283.947
283.921
283.893
283.863
283.832
283.8
283.767
283.734
283.702
283.671
283.642
283.616
283.593
283.574
283.557
283.542
283.53
283.52
283.512
283.504
283.499
283.495
283.492
283.491
283.492
283.494
283.498
283.503
283.508
283.514
283.521
283.526
283.531
283.536
283.54
283.543
283.546
283.549
283.551
283.553
283.556
283.558
283.56
283.563
283.566
283.569
283.572
283.575
283.579
283.585
283.593
283.605
283.625
283.654
283.693
283.745
283.809
283.885
283.97
284.057
284.136
284.201
284.251
284.284
284.293
284.258
284.161
284.052
283.854
283.748
283.709
283.692
283.685
283.681
283.68
283.678
283.678
283.677
283.677
283.676
283.676
283.676
283.678
283.681
283.688
283.701
283.72
283.749
283.78
283.763
283.717
283.718
283.775
283.854
283.923
283.971
283.996
284.003
283.997
283.982
283.962
283.939
283.913
283.886
283.857
283.826
283.795
283.763
283.732
283.701
283.671
283.643
283.617
283.594
283.574
283.556
283.54
283.527
283.515
283.506
283.498
283.491
283.486
283.483
283.481
283.481
283.482
283.484
283.488
283.492
283.498
283.503
283.508
283.512
283.517
283.521
283.525
283.528
283.532
283.535
283.538
283.542
283.546
283.55
283.554
283.559
283.565
283.572
283.582
283.594
283.611
283.635
283.665
283.703
283.751
283.808
283.874
283.948
284.027
284.103
284.172
284.228