/*--------------------------------*- C++ -*----------------------------------*\
| =========                 |                                                 |
| \\      /  F ield         | OpenFOAM: The Open Source CFD Toolbox           |
|  \\    /   O peration     | Version:  4.1                                   |
|   \\  /    A nd           | Web:      www.OpenFOAM.org                      |
|    \\/     M anipulation  |                                                 |
\*---------------------------------------------------------------------------*/
FoamFile
{
    version     2.0;
    format      ascii;
    class       volScalarField;
    location    "520";
    object      mag(U);
}
// * * * * * * * * * * * * * * * * * * * * * * * * * * * * * * * * * * * * * //

dimensions      [0 1 -1 0 0 0 0];

internalField   nonuniform List<scalar> 
5000
(
0.00579979
0.00611461
0.00666923
0.00648471
0.00618145
0.00584973
0.00546982
0.00501582
0.00446952
0.00381762
0.00305096
0.00217177
0.0012386
0.000715077
0.00164654
0.00305089
0.00454805
0.00603704
0.00744608
0.00872401
0.0098427
0.0107956
0.0115915
0.0122463
0.0127778
0.0132014
0.0135285
0.0137662
0.0139187
0.0139877
0.0139784
0.0138946
0.013741
0.0135245
0.0132542
0.0129406
0.0125952
0.0122292
0.0118527
0.011474
0.0110993
0.0107326
0.0103757
0.0100282
0.00968769
0.00935046
0.00901219
0.00866888
0.00831809
0.00796014
0.00759873
0.00724057
0.00689225
0.00655144
0.00618715
0.00570788
0.0049399
0.00369062
0.0020485
0.00220325
0.00632632
0.00806695
0.00925837
0.0100519
0.0107082
0.0113255
0.0119242
0.0125064
0.0130689
0.0136067
0.0141125
0.0145778
0.0149927
0.0153469
0.0156297
0.0158314
0.0159422
0.0159525
0.0158532
0.0156376
0.0153037
0.014853
0.0142899
0.0136203
0.0128508
0.0119876
0.0110357
0.00999778
0.00887314
0.00765405
0.00632004
0.00484741
0.00330503
0.0021991
0.00235575
0.00332747
0.00423216
0.00465766
0.00459005
0.00462966
0.00768923
0.00498233
0.00526089
0.00532002
0.00520638
0.00500224
0.00471849
0.00435137
0.00389459
0.00334702
0.00272494
0.0021016
0.00172631
0.00203595
0.00306461
0.00435751
0.0057254
0.00708029
0.00836378
0.00953597
0.0105754
0.011478
0.0122519
0.0129113
0.0134715
0.0139452
0.0143414
0.0146647
0.0149162
0.0150948
0.0151958
0.0152158
0.0151592
0.0150327
0.0148456
0.0146091
0.0143351
0.014035
0.0137189
0.0133949
0.0130694
0.0127465
0.0124281
0.0121136
0.0118
0.0114818
0.0111518
0.0108019
0.0104249
0.0100159
0.00957234
0.00909368
0.00857861
0.00801956
0.00739393
0.00665931
0.00577827
0.00474596
0.00344071
0.00525466
0.00816815
0.0080781
0.0091316
0.0100646
0.0108518
0.0115662
0.0122371
0.0128737
0.0134764
0.0140411
0.0145612
0.0150278
0.0154308
0.0157596
0.0160037
0.0161535
0.0161998
0.0161336
0.0159539
0.0156609
0.0152541
0.014737
0.0141153
0.0133963
0.0125883
0.0116999
0.0107389
0.00971276
0.00862768
0.00748885
0.00630435
0.00511193
0.00406207
0.00348991
0.0033106
0.00243011
0.0025641
0.00280925
0.00274783
0.00604945
0.010391
0.00457224
0.00380685
0.00418563
0.00434934
0.00432149
0.00417996
0.00394938
0.00364498
0.00329026
0.00294043
0.00271834
0.00281744
0.00341872
0.00441891
0.0055499
0.00669493
0.00779572
0.00882001
0.0097495
0.0105765
0.0113032
0.0119392
0.0124972
0.0129899
0.0134272
0.0138147
0.0141536
0.0144409
0.0146698
0.0148329
0.0149198
0.0149247
0.0148539
0.0147175
0.0145276
0.0142973
0.0140387
0.0137624
0.0134765
0.0131877
0.0129004
0.0126166
0.0123358
0.0120537
0.0117629
0.0114529
0.0111109
0.0107246
0.0102837
0.00978057
0.00921032
0.00856981
0.00785924
0.00709173
0.0063259
0.00571952
0.0053805
0.00485608
0.00834744
0.0107143
0.00791316
0.00800212
0.0088137
0.00964787
0.0104296
0.0111648
0.0118597
0.0125136
0.0131218
0.0136769
0.0141698
0.0145903
0.0149284
0.0151745
0.0153204
0.0153584
0.0152812
0.0150919
0.0147903
0.0143802
0.0138673
0.0132591
0.0125653
0.011797
0.0109663
0.0100861
0.00917055
0.00823614
0.00730404
0.0064084
0.0056153
0.00503924
0.00477975
0.00468893
0.00339042
0.00227646
0.00210123
0.00177253
0.0079613
0.0126555
0.00494054
0.00319402
0.00345763
0.00372698
0.00383173
0.00382783
0.00374957
0.00362544
0.00349765
0.00343997
0.00356195
0.0039696
0.00474394
0.00571326
0.00666485
0.00752812
0.0082865
0.00894938
0.00953325
0.0100528
0.0105207
0.0109488
0.0113485
0.011729
0.0120963
0.0124523
0.0127947
0.0131169
0.0134083
0.0136535
0.0138455
0.0139463
0.0139591
0.0138957
0.0137697
0.0135961
0.0133888
0.0131591
0.0129162
0.0126677
0.0124194
0.012175
0.0119352
0.0116965
0.0114509
0.011185
0.0108821
0.010525
0.0100996
0.00959602
0.00900892
0.00833871
0.00759805
0.0068327
0.00617426
0.0058921
0.00611465
0.00632054
0.0108446
0.013467
0.00843442
0.00733364
0.00783066
0.008608
0.00940381
0.0101733
0.0109051
0.0115915
0.0122248
0.0127967
0.0132983
0.0137204
0.0140545
0.0142931
0.0144301
0.0144599
0.0143782
0.0141896
0.0138939
0.0134956
0.0130019
0.0124225
0.0117692
0.0110563
0.0102994
0.00951659
0.00872844
0.00795973
0.00724205
0.00661833
0.00614518
0.00587625
0.0058
0.00570112
0.00463587
0.00239511
0.0017151
0.00157461
0.00942217
0.0144081
0.00543105
0.00299109
0.00303255
0.00330341
0.00350624
0.00363262
0.00370992
0.00377281
0.00387366
0.00408646
0.00448894
0.00512288
0.00599878
0.00689427
0.00761861
0.0081308
0.00845719
0.00865698
0.00879351
0.00891271
0.00904177
0.00919577
0.00938293
0.00960727
0.00986927
0.0101661
0.0104916
0.0108366
0.0111882
0.0115291
0.0118383
0.0120956
0.0122448
0.0122975
0.0122739
0.0121921
0.0120678
0.0119126
0.0117367
0.011549
0.011358
0.0111705
0.0109911
0.01082
0.0106506
0.0104678
0.01025
0.00997498
0.00962611
0.00919398
0.00867624
0.00807976
0.00743001
0.00679586
0.00634041
0.00634117
0.00690187
0.00760714
0.0127295
0.0160694
0.0093509
0.0072167
0.00731989
0.0079465
0.00867975
0.00942192
0.0101397
0.0108158
0.0114386
0.011999
0.0124884
0.0128987
0.0132229
0.0134545
0.0135889
0.0136211
0.0135482
0.0133736
0.0130975
0.0127255
0.012266
0.0117306
0.0111332
0.0104902
0.00982037
0.00914496
0.0084882
0.00787823
0.00734797
0.00693477
0.00667459
0.00658263
0.00660857
0.00653262
0.00570791
0.00281101
0.00151587
0.00152375
0.010523
0.0158618
0.00594741
0.00302581
0.0028254
0.00306161
0.00332611
0.00356767
0.00379067
0.00403156
0.00434771
0.00480356
0.00543961
0.0062407
0.00714495
0.00791798
0.00836071
0.00846029
0.00828211
0.00793828
0.00754733
0.007194
0.00692438
0.0067571
0.00669552
0.00673472
0.00686591
0.00707808
0.00735944
0.00769801
0.00808111
0.00849418
0.00891009
0.0093397
0.0096866
0.0099026
0.0100202
0.0100689
0.0100633
0.0100135
0.00992953
0.00982231
0.00970352
0.00958557
0.00948089
0.00939893
0.0093395
0.00928613
0.00920917
0.00907878
0.00887527
0.00859062
0.00822658
0.00779665
0.00733558
0.006921
0.00670905
0.00692649
0.00765859
0.00866892
0.0141773
0.0184374
0.0104143
0.00750407
0.00723794
0.00765947
0.00826524
0.00892145
0.00957661
0.0102043
0.0107884
0.011318
0.0117838
0.0121775
0.0124918
0.0127204
0.0128584
0.0129004
0.0128444
0.0126926
0.0124467
0.0121131
0.0117017
0.0112249
0.0106978
0.0101377
0.00956398
0.0089985
0.00846524
0.00799042
0.00760171
0.00732591
0.00718284
0.00717175
0.00723879
0.00719336
0.00652417
0.0034661
0.00150117
0.00151812
0.0114294
0.0171425
0.00648785
0.00323361
0.00280997
0.00298581
0.00328131
0.0036152
0.00396579
0.00436857
0.00488282
0.00555518
0.00638265
0.00729531
0.00815652
0.00876326
0.00889275
0.00855325
0.00785407
0.00695732
0.00603994
0.00522416
0.00457493
0.00411128
0.00382576
0.00369822
0.00370255
0.0038123
0.00400712
0.00427267
0.00460056
0.00498652
0.00542206
0.00588698
0.00644646
0.00686123
0.00714317
0.00734637
0.00748453
0.0075596
0.00757929
0.00755541
0.00750271
0.0074408
0.00739719
0.00740519
0.00748435
0.00761361
0.00774141
0.00782368
0.00783866
0.00777992
0.00765072
0.00746649
0.00726353
0.00711398
0.00714604
0.00752671
0.00834108
0.00954027
0.0153624
0.0205592
0.0115095
0.00804049
0.00748227
0.00769118
0.00813459
0.00866577
0.0092237
0.00977546
0.0103007
0.0107854
0.0112182
0.0115893
0.01189
0.0121132
0.0122536
0.0123054
0.0122673
0.0121429
0.0119353
0.0116519
0.0113028
0.0109001
0.0104578
0.00999176
0.00951951
0.00906032
0.00863477
0.00826412
0.00796902
0.00776718
0.00766952
0.00767226
0.00773413
0.00770509
0.00710618
0.00428207
0.00162479
0.00151911
0.0122066
0.0183042
0.00704904
0.00357595
0.00297391
0.00307105
0.00337213
0.00376577
0.00422073
0.00476603
0.00545909
0.00631961
0.00729557
0.00826392
0.00904845
0.0094428
0.00927593
0.0085439
0.00742087
0.00613564
0.0049333
0.00397486
0.00331788
0.00293767
0.00274087
0.0026364
0.00256676
0.00250264
0.00243182
0.00235609
0.00228942
0.00226303
0.00232473
0.0025031
0.00289854
0.00350689
0.00393466
0.0042846
0.00456562
0.00475924
0.00486557
0.00489229
0.00484973
0.00475603
0.00465811
0.00466417
0.00489739
0.00532446
0.00579729
0.00621491
0.00654778
0.00679756
0.00697241
0.0070886
0.0071791
0.00730365
0.00756045
0.00807096
0.00893225
0.0102664
0.0163759
0.0224687
0.0125744
0.00870764
0.0079434
0.00796633
0.00824438
0.00863516
0.00907726
0.00953532
0.00998564
0.0104111
0.0107975
0.0111329
0.0114073
0.0116133
0.011746
0.0118005
0.0117768
0.0116825
0.0115217
0.0113019
0.0110315
0.0107197
0.0103769
0.0100145
0.00964547
0.00928461
0.00894771
0.00865084
0.00840904
0.00823456
0.00813464
0.00810756
0.00812835
0.00808999
0.00756046
0.00504856
0.00183375
0.00150246
0.012883
0.0193806
0.00763437
0.00403117
0.00330497
0.00331858
0.0035989
0.00401759
0.00454796
0.00521377
0.0060631
0.00708051
0.00816428
0.00914759
0.00983128
0.0100225
0.00960532
0.00862525
0.00731846
0.0060234
0.00505431
0.0045309
0.00434719
0.00432251
0.00433098
0.00431542
0.00425843
0.00415428
0.0039976
0.0037811
0.00349482
0.00312533
0.00265956
0.00209041
0.00134985
0.000503325
0.000721143
0.00121817
0.00164199
0.00194289
0.00212093
0.00218759
0.00216406
0.00205804
0.00182427
0.00142001
0.00152823
0.00238544
0.00346451
0.00438143
0.00513362
0.00575286
0.00626592
0.00669665
0.00707683
0.00745559
0.00790861
0.00852881
0.00943068
0.0108868
0.0172915
0.0241846
0.0135644
0.00942261
0.00852918
0.00840843
0.00854047
0.00879515
0.00911648
0.00947019
0.00983097
0.0101793
0.010499
0.0107769
0.0110033
0.0111722
0.0112814
0.0113285
0.0113153
0.0112561
0.0111543
0.0110156
0.0108439
0.010642
0.010413
0.0101615
0.00989444
0.00962148
0.00935418
0.00910504
0.0088861
0.00870752
0.00857602
0.00849323
0.00844771
0.00837171
0.0079047
0.0057122
0.00210859
0.00146198
0.0134783
0.0203988
0.00825484
0.00459157
0.00379004
0.00372552
0.00395855
0.00437055
0.00494075
0.00570274
0.00668235
0.00782464
0.00898291
0.00995964
0.0105485
0.0105837
0.0100105
0.00895757
0.00773655
0.00671377
0.00611196
0.00589586
0.0058858
0.00593302
0.00596616
0.00596241
0.00591804
0.00583345
0.00570769
0.00553698
0.00531458
0.00503185
0.00468124
0.00425661
0.00374672
0.00313621
0.00247415
0.00198663
0.00180953
0.00184988
0.00202364
0.00222934
0.00237152
0.00233289
0.00197027
0.00119248
0.000440093
0.000609951
0.00142397
0.00270956
0.00383066
0.00479126
0.00561742
0.00633354
0.00696863
0.00756413
0.00818105
0.00889613
0.00984319
0.0114278
0.0181538
0.0257296
0.0144614
0.0101371
0.0091746
0.00895311
0.00896815
0.00910243
0.00930696
0.00955033
0.00980728
0.0100575
0.0102849
0.0104774
0.0106283
0.0107358
0.0108029
0.010832
0.010828
0.0108133
0.0107887
0.0107544
0.0107053
0.0106333
0.0105312
0.0103951
0.0102259
0.0100291
0.00981388
0.0095914
0.00937324
0.00916998
0.00898972
0.00883751
0.0087113
0.00857479
0.00815104
0.00624751
0.00242985
0.00140231
0.0140082
0.0213814
0.00892351
0.00525605
0.00441596
0.00428148
0.00444471
0.0048177
0.00538835
0.00622138
0.0073036
0.0085413
0.00975161
0.0107194
0.0112449
0.0111973
0.0105805
0.00957801
0.00850967
0.00767855
0.00720548
0.00701391
0.00696291
0.00695169
0.00693212
0.00688694
0.00681269
0.00671115
0.00658507
0.00643579
0.00626191
0.00605906
0.00582064
0.00553795
0.00519928
0.00479578
0.00433955
0.00386576
0.0034856
0.00324662
0.00312043
0.00304077
0.00290077
0.00256006
0.00188414
0.00100364
0.000973369
0.00112268
0.00099197
0.00147027
0.00274737
0.00397436
0.00506585
0.00602331
0.0068691
0.00763983
0.00838843
0.00918442
0.0101826
0.0119091
0.0189852
0.0271287
0.0152677
0.010828
0.00983891
0.00955249
0.00947951
0.00951265
0.00960845
0.00973842
0.00987842
0.0100093
0.0101171
0.010194
0.010239
0.0102583
0.0102633
0.010264
0.0102713
0.0103167
0.0103946
0.0104941
0.0105945
0.0106724
0.0107078
0.0106883
0.0106101
0.010477
0.0102979
0.010085
0.00985161
0.00961016
0.00937114
0.00914292
0.0089298
0.00871719
0.00830847
0.00665033
0.00277493
0.00133258
0.0144848
0.0223457
0.00965152
0.00602359
0.00516883
0.00496886
0.00503976
0.0053348
0.00588179
0.00675583
0.00791283
0.00922116
0.0104719
0.0114422
0.0119454
0.0118817
0.0112915
0.0103707
0.00940076
0.00860887
0.00806959
0.00773271
0.00751459
0.00735102
0.00720282
0.00704865
0.00687936
0.00669375
0.00649477
0.0062865
0.00607184
0.00585113
0.0056213
0.00537573
0.00510452
0.00479604
0.00444262
0.0040477
0.00364114
0.00324665
0.00291441
0.00261273
0.0022595
0.00171739
0.000861526
0.00028968
0.00110887
0.00152698
0.001492
0.00119599
0.0019315
0.00329768
0.00460864
0.00577127
0.00679086
0.00770069
0.00855164
0.00941393
0.0104665
0.0123492
0.0197966
0.0284002
0.0160001
0.0114837
0.0104966
0.0101723
0.0100357
0.00998569
0.00998174
0.00999741
0.0100101
0.010003
0.00996613
0.00989783
0.00980584
0.00970746
0.00962772
0.00958893
0.00961338
0.00974205
0.00995632
0.010225
0.0105037
0.0107492
0.0109286
0.011023
0.0110265
0.0109439
0.0107865
0.0105694
0.0103086
0.0100195
0.00971589
0.00940908
0.00910737
0.0088098
0.00838617
0.00692822
0.00311701
0.001263
0.014918
0.0233049
0.0104463
0.0068897
0.00603333
0.00576765
0.00572744
0.00591326
0.00640932
0.00729105
0.0084946
0.00985315
0.01114
0.0121299
0.012648
0.0126144
0.0120825
0.0112352
0.0103093
0.00948091
0.00880945
0.00827542
0.00784219
0.00748004
0.00716338
0.00686843
0.00657649
0.00627646
0.00596437
0.00564117
0.00531023
0.00497465
0.0046352
0.00429077
0.00394048
0.00357887
0.00319258
0.00278032
0.00235508
0.00196262
0.00155339
0.0011602
0.000838029
0.000713231
0.000973904
0.00127527
0.00159529
0.00186812
0.00192888
0.00164067
0.00159107
0.00278556
0.00424101
0.005578
0.0067457
0.00776742
0.00869564
0.00960895
0.0107152
0.0127651
0.0205929
0.0295542
0.0166845
0.0120907
0.0111293
0.0107868
0.0106059
0.0104877
0.0103926
0.0102953
0.0101746
0.0100162
0.00981434
0.00957401
0.00931299
0.00906357
0.00887137
0.00878064
0.00883337
0.00907866
0.00947319
0.00995113
0.0104358
0.010862
0.0111865
0.0113876
0.0114612
0.0114157
0.0112667
0.0110334
0.0107356
0.0103928
0.0100203
0.00963349
0.00924367
0.00885771
0.00839309
0.00709191
0.00343131
0.00120283
0.0153155
0.0242689
0.0113102
0.00784515
0.00699192
0.00665683
0.00648983
0.00653891
0.00695581
0.00780679
0.00903023
0.0104217
0.0117434
0.0127686
0.0133297
0.0133544
0.0128938
0.0121117
0.011214
0.0103539
0.00958912
0.00891667
0.00832255
0.00779846
0.00733428
0.00691209
0.00650965
0.0061073
0.00569241
0.00526013
0.00481159
0.00435032
0.00387798
0.0033938
0.00290236
0.0024172
0.00191896
0.00138407
0.000857126
0.000548804
0.000828011
0.00134372
0.00187253
0.00232437
0.00261223
0.00275149
0.00277612
0.00271164
0.00256286
0.00226363
0.00195166
0.00257047
0.00398966
0.00545072
0.00674568
0.00786039
0.00884564
0.00979441
0.0109491
0.0131718
0.0213742
0.0305231
0.017465
0.0126386
0.0117228
0.0113757
0.0111652
0.010991
0.0108134
0.010607
0.010352
0.0100359
0.00965591
0.0092216
0.00876009
0.00832138
0.00798108
0.00782123
0.00792072
0.00833092
0.00896046
0.00968944
0.0104021
0.0110146
0.0114783
0.0117747
0.0119048
0.0118826
0.0117293
0.0114701
0.0111274
0.0107248
0.0102799
0.00981348
0.00933838
0.00886336
0.00833711
0.00715227
0.00369595
0.00116062
0.0156835
0.0252439
0.0122403
0.00887581
0.00802488
0.00761488
0.00730881
0.00719425
0.00748727
0.00828323
0.00949858
0.010907
0.012262
0.0133347
0.0139587
0.0140596
0.0136777
0.0129575
0.0120887
0.0112219
0.0104243
0.00970188
0.0090442
0.00844495
0.00789869
0.0073936
0.00691114
0.00643139
0.00593929
0.00542843
0.00490147
0.00436694
0.00383364
0.00330708
0.00279353
0.00236553
0.00205762
0.00188703
0.001936
0.00220733
0.00262796
0.00310405
0.00355321
0.00391482
0.00415244
0.00424622
0.00418379
0.00396503
0.0036142
0.00316874
0.00272679
0.00282308
0.00393756
0.00541465
0.00680473
0.00799739
0.00902416
0.00999328
0.0111868
0.0135801
0.0221346
0.0313082
0.0183692
0.013137
0.0122654
0.0119221
0.0116937
0.011474
0.0112223
0.0109137
0.0105292
0.0100573
0.00949521
0.00885333
0.0081633
0.00749167
0.00695402
0.0067022
0.00688156
0.00752403
0.00845201
0.00946829
0.0104199
0.0112135
0.0118036
0.0121796
0.0123503
0.0123379
0.012169
0.0118736
0.011478
0.0110109
0.0104967
0.00995097
0.0093898
0.00882601
0.00822914
0.00711391
0.00389115
0.00114553
0.0160269
0.0262322
0.0132278
0.0099633
0.00911083
0.00862121
0.00816736
0.00786757
0.0079983
0.00870472
0.00987995
0.0112869
0.0126715
0.0138002
0.0145022
0.0146943
0.0143993
0.0137415
0.0129005
0.0120354
0.0112326
0.01051
0.00985555
0.0092545
0.00869487
0.00816299
0.0076416
0.00711275
0.00656322
0.00598945
0.00539954
0.00481106
0.00424551
0.00372229
0.00322923
0.0029126
0.00281825
0.00288541
0.00310814
0.00346498
0.00391315
0.00439578
0.00485254
0.00523093
0.00549082
0.00560272
0.00554499
0.00530569
0.00489288
0.00434991
0.00378418
0.00354802
0.00419186
0.00551825
0.00694127
0.00819238
0.00924856
0.0102244
0.0114436
0.0139982
0.0228693
0.0319288
0.0193121
0.0136668
0.0127416
0.0124117
0.0121759
0.0119199
0.0116034
0.011202
0.0106982
0.0100806
0.00934421
0.00849454
0.00755889
0.00661102
0.00581123
0.00542757
0.00573948
0.00671126
0.00800089
0.00932411
0.0105084
0.0114663
0.0121621
0.0125983
0.0127933
0.0127758
0.0125789
0.0122369
0.0117877
0.0112567
0.010668
0.010042
0.00939604
0.00874488
0.00807235
0.00699047
0.00400152
0.00116713
0.0163504
0.0272328
0.0142587
0.0110861
0.0102273
0.00965581
0.00905039
0.00854918
0.00848069
0.00905419
0.010152
0.011538
0.0129463
0.0141368
0.0149305
0.01523
0.0150361
0.0144492
0.0136372
0.0127706
0.0119621
0.0112497
0.0106238
0.0100595
0.00953236
0.00901925
0.00849808
0.00794941
0.00736109
0.00673332
0.0060812
0.00543254
0.00482103
0.00427945
0.00378994
0.00355958
0.00355703
0.00371596
0.00400863
0.00440863
0.00488068
0.00538018
0.00585811
0.00626748
0.00656761
0.00672571
0.00671706
0.00652576
0.00614995
0.00561294
0.00502146
0.00459322
0.00479991
0.00582167
0.00718023
0.008456
0.00952956
0.0105009
0.0117313
0.014432
0.0235756
0.03239
0.0203114
0.0142244
0.0131466
0.0128357
0.0126009
0.0123165
0.0119447
0.0114622
0.0108537
0.0101081
0.00921747
0.008178
0.0070017
0.00574784
0.00460069
0.00401484
0.00456123
0.00598491
0.00767632
0.00929541
0.0106837
0.0117772
0.0125544
0.0130274
0.0132279
0.0131886
0.0129554
0.0125667
0.0120569
0.0114569
0.0107927
0.0100864
0.00935663
0.00861965
0.00786897
0.00679272
0.00401778
0.00123578
0.0166586
0.0282409
0.0153151
0.0122206
0.0113512
0.0106988
0.00994245
0.00922858
0.00892213
0.00930396
0.0102963
0.011639
0.0130621
0.0143172
0.015215
0.0156412
0.015571
0.0150761
0.0143069
0.0134411
0.0126202
0.0119118
0.0113181
0.0108071
0.0103388
0.00987512
0.00938319
0.0088378
0.00822565
0.0075504
0.00683533
0.00611997
0.00544982
0.00486973
0.0044179
0.00427933
0.00435697
0.00457801
0.00490445
0.00530994
0.00576783
0.00624572
0.00670617
0.00711032
0.00742177
0.00760934
0.00764891
0.00752376
0.00722995
0.00678586
0.00624562
0.00575285
0.00567454
0.00634789
0.00754372
0.00879522
0.00987074
0.0108289
0.0120566
0.0148847
0.024249
0.0327077
0.0213312
0.0148138
0.0135055
0.0131956
0.0129618
0.0126554
0.0122378
0.0116869
0.010991
0.0101409
0.0091267
0.00793634
0.00656075
0.00501761
0.00343624
0.00249345
0.00348844
0.00547357
0.00754627
0.00941584
0.010959
0.0121489
0.0129782
0.0134595
0.0136453
0.0135783
0.0133019
0.0128576
0.0122831
0.0116115
0.0108706
0.0100841
0.00927169
0.00845061
0.00762078
0.0065294
0.00393668
0.00136154
0.0169566
0.0292488
0.0163767
0.0133425
0.0124593
0.0117306
0.0108295
0.00989918
0.00932405
0.00945954
0.0103065
0.0115754
0.0129967
0.014315
0.015327
0.0159003
0.0159825
0.0156128
0.014916
0.014068
0.0132358
0.012524
0.011958
0.0115061
0.0111127
0.0107201
0.0102791
0.00975484
0.00913058
0.00841329
0.00763603
0.00685271
0.0061237
0.00550871
0.00514796
0.00514005
0.00531071
0.00558342
0.00591974
0.00629861
0.00670371
0.0071155
0.00750931
0.0078571
0.00813058
0.00830435
0.00835835
0.00827786
0.00806248
0.00771409
0.00726949
0.00682653
0.00663625
0.00704029
0.00802899
0.00920879
0.0102681
0.0112066
0.0124203
0.0153554
0.0248832
0.0328931
0.0223324
0.0154458
0.01383
0.0134947
0.0132594
0.0129321
0.0124764
0.0118701
0.0111055
0.0101774
0.00907833
0.00779398
0.00630308
0.00458198
0.00259877
0.000912868
0.00281363
0.00530983
0.00766226
0.00970607
0.0113395
0.0125705
0.0134094
0.0138883
0.014051
0.0139441
0.013615
0.0131087
0.0124653
0.0117198
0.0109017
0.0100356
0.00914223
0.00823899
0.00732994
0.00620778
0.0037603
0.00155353
0.0172496
0.0302467
0.017422
0.014428
0.0135291
0.0127323
0.0116984
0.0105568
0.00969449
0.00952894
0.0101631
0.0113329
0.0127306
0.0141051
0.0152366
0.0159749
0.0162403
0.0160364
0.0154549
0.0146575
0.013828
0.01311
0.0125645
0.0121714
0.0118626
0.0115577
0.0111861
0.0106987
0.0100739
0.00932192
0.00848744
0.00764254
0.00686912
0.0062447
0.00602439
0.00614874
0.00639805
0.00669527
0.00700979
0.00733055
0.0076522
0.00796703
0.00826196
0.00851927
0.00871927
0.00884351
0.00887733
0.00881325
0.00864644
0.00838177
0.00804571
0.00770426
0.00752545
0.00778747
0.00859592
0.00968085
0.0107092
0.0116246
0.0128172
0.0158395
0.0254709
0.0329696
0.023291
0.0161191
0.0141352
0.013733
0.0134853
0.0131435
0.0126587
0.0120109
0.0111961
0.0102139
0.00906182
0.00772979
0.00619632
0.00441783
0.00233252
0.000632349
0.00293142
0.00555884
0.00799852
0.0100951
0.0117806
0.0130325
0.0138668
0.0143201
0.0144413
0.0142815
0.0138911
0.0133172
0.0126018
0.0117814
0.0108865
0.00994244
0.00897018
0.00798714
0.00699953
0.00583475
0.003495
0.0018185
0.0175436
0.0312235
0.0184303
0.0154548
0.0145396
0.0136863
0.0125373
0.0111984
0.0100443
0.00953363
0.00988152
0.0109081
0.0122531
0.013668
0.0149161
0.0158306
0.0163063
0.0163106
0.0158956
0.0151959
0.0143978
0.0136793
0.0131472
0.0128076
0.0125881
0.0123842
0.0120986
0.0116638
0.0110511
0.0102743
0.0093919
0.0084985
0.00770559
0.0071111
0.00704789
0.0072672
0.00754861
0.00782226
0.00807096
0.00829678
0.00850587
0.00870114
0.0088793
0.00903115
0.00914396
0.00920469
0.00920363
0.00913746
0.00900285
0.00880923
0.00857778
0.00835518
0.00825513
0.00848483
0.00918103
0.0101801
0.0111732
0.0120663
0.0132359
0.0163277
0.0260016
0.0329636
0.0242
0.0168324
0.0144283
0.0139145
0.0136396
0.0132795
0.0127691
0.0120898
0.0112403
0.0102253
0.00904857
0.00770941
0.00619997
0.00450644
0.00274127
0.00193576
0.00361083
0.00609628
0.00852357
0.0106294
0.0123099
0.0135405
0.0143387
0.0147444
0.0148085
0.0145849
0.0141259
0.0134803
0.0126912
0.011796
0.0108259
0.00980652
0.00875849
0.00769873
0.00663415
0.00541799
0.0031527
0.00216147
0.0178449
0.0321678
0.0193829
0.0164035
0.0154718
0.0145758
0.013334
0.011821
0.0103846
0.00950075
0.00949995
0.0103205
0.0115682
0.0129926
0.0143431
0.0154347
0.0161397
0.0163907
0.0161964
0.0156526
0.0149303
0.01423
0.0137077
0.0134129
0.0132823
0.0131893
0.013005
0.0126385
0.0120518
0.0112622
0.0103441
0.00941886
0.00863466
0.00811106
0.00818157
0.00843943
0.0086891
0.00887899
0.00900975
0.00909833
0.00916281
0.00921615
0.00926374
0.00930356
0.00932828
0.00932839
0.00929729
0.009232
0.00912982
0.00900498
0.00887683
0.00877998
0.0087931
0.00906552
0.0097226
0.0106674
0.0116329
0.0125095
0.0136594
0.0168063
0.0264613
0.0329021
0.0250672
0.0175941
0.014716
0.0140408
0.0137216
0.0133382
0.0128055
0.0121038
0.011234
0.0102052
0.00902848
0.00771524
0.00628061
0.00476366
0.00339105
0.00304243
0.00450957
0.00683659
0.00919747
0.0112602
0.0128965
0.0140749
0.0148126
0.0151518
0.015145
0.0148479
0.0143147
0.0135947
0.0127318
0.0117637
0.0107214
0.0096305
0.00851102
0.00737881
0.00624023
0.00496701
0.0027498
0.00258417
0.0181598
0.0330691
0.0202642
0.0172576
0.0163095
0.0153856
0.0140766
0.0124197
0.0107258
0.00946193
0.00904159
0.00954965
0.0106851
0.0120796
0.0135076
0.0147635
0.0157033
0.0162297
0.0163075
0.0159841
0.0153971
0.0147502
0.0142434
0.0139836
0.013936
0.0139599
0.0138909
0.0136085
0.0130625
0.0122739
0.0113336
0.0103944
0.0096443
0.00922088
0.00937577
0.00960759
0.00975652
0.00979889
0.00975705
0.00966382
0.00954924
0.00943585
0.00933726
0.00925843
0.00919712
0.00914645
0.00910164
0.00905425
0.00900172
0.00895986
0.00894571
0.00898513
0.00913323
0.00949669
0.0101751
0.0111045
0.0120587
0.0129282
0.0140662
0.0172565
0.026832
0.0328066
0.0259042
0.0184253
0.0150171
0.014115
0.0137294
0.0133161
0.0127624
0.0120455
0.0111673
0.0101404
0.00898286
0.00771969
0.00638953
0.00506962
0.00401972
0.00397463
0.00543224
0.00767547
0.00996568
0.0119591
0.0135214
0.0146207
0.0152762
0.0155317
0.015442
0.015064
0.0144524
0.0136572
0.0127221
0.0116843
0.0105745
0.00941744
0.00823241
0.00703378
0.00582633
0.00449421
0.00231385
0.00308497
0.0184941
0.033918
0.0210618
0.0180047
0.0170392
0.0161028
0.014755
0.0129911
0.0110789
0.00946045
0.00859485
0.00870965
0.00964303
0.0109575
0.0124208
0.0138098
0.0149709
0.0157849
0.016176
0.0161377
0.0157574
0.0152178
0.014747
0.0145158
0.0145408
0.0146826
0.0147405
0.0145578
0.0140685
0.0132954
0.0123473
0.0114108
0.0107133
0.0103984
0.0105783
0.0107167
0.0106978
0.0105326
0.0102679
0.00995211
0.00962594
0.00932028
0.0090566
0.00884751
0.00869758
0.00860426
0.00856494
0.00856203
0.0085893
0.0086591
0.00878283
0.00897714
0.00927981
0.00976681
0.010511
0.0114605
0.0124219
0.0132958
0.0144321
0.0176565
0.0270938
0.032687
0.0267188
0.0193517
0.0153727
0.0141489
0.013664
0.0132109
0.012635
0.0119067
0.0110277
0.0100134
0.00888864
0.00769105
0.00647619
0.0053377
0.00454867
0.00478363
0.00635191
0.00857569
0.0107983
0.0127025
0.0141656
0.0151622
0.0157159
0.0158732
0.0156905
0.0152258
0.0145339
0.0136644
0.0126603
0.0115579
0.0103867
0.00917067
0.00792786
0.00667116
0.00540314
0.00401592
0.00189209
0.00365802
0.0188517
0.0347073
0.0217675
0.0186358
0.0176509
0.0167167
0.0153607
0.0135321
0.0114511
0.00952297
0.00821795
0.00788485
0.00851489
0.00968232
0.011122
0.0125929
0.0139369
0.0150262
0.0157529
0.0160557
0.0159586
0.015598
0.0152037
0.0150045
0.0150898
0.0153447
0.0155378
0.0154697
0.0150535
0.0143114
0.0133694
0.0124491
0.0118124
0.0115919
0.0117368
0.011717
0.0114714
0.0110509
0.0105269
0.00996114
0.00940111
0.0088826
0.00843311
0.00807392
0.00782052
0.00768089
0.00765884
0.00773092
0.00787638
0.00809674
0.00839177
0.00876603
0.00924302
0.00987654
0.0107166
0.0117131
0.012698
0.0135869
0.0147325
0.0179832
0.0272264
0.0325401
0.0275065
0.0203881
0.0158476
0.0141751
0.0135354
0.0130252
0.0124219
0.0116822
0.0108059
0.00981052
0.00872751
0.00760405
0.00650336
0.00552462
0.00498044
0.0055421
0.00729317
0.00952742
0.011676
0.0134702
0.0148105
0.0156833
0.0161179
0.0161646
0.0158813
0.0153262
0.0145539
0.0136129
0.0125448
0.0113844
0.0101598
0.00889355
0.00760284
0.00629922
0.00498306
0.00355296
0.00159235
0.00429653
0.019234
0.0354316
0.0223764
0.0191453
0.0181362
0.0172168
0.0158833
0.0140358
0.0118402
0.00965533
0.0079377
0.00711953
0.00735724
0.00832856
0.0096818
0.0111691
0.01263
0.0139485
0.0150025
0.0156827
0.0159404
0.0158422
0.0155869
0.0154403
0.0155763
0.0159347
0.0162671
0.016327
0.0160003
0.0153049
0.0143814
0.0134856
0.0129065
0.0127475
0.012801
0.0125681
0.0120537
0.0113528
0.0105596
0.00974324
0.00895055
0.00821481
0.00756394
0.00702631
0.00663351
0.00641688
0.00640022
0.00657197
0.00687516
0.00728893
0.0077918
0.00837208
0.00904065
0.00983524
0.0107881
0.0118479
0.0128674
0.01378
0.0149457
0.0182151
0.0272123
0.0323496
0.0282486
0.0215257
0.0165109
0.0142578
0.0133705
0.0127705
0.0121281
0.0113724
0.0104978
0.00952368
0.00848747
0.00744193
0.00645076
0.00562577
0.00537764
0.00633557
0.00829111
0.0105291
0.0125834
0.0142434
0.0154379
0.0161673
0.0164683
0.0163944
0.0160049
0.0153581
0.0145074
0.0134995
0.0123741
0.0111638
0.00989515
0.00858933
0.00726273
0.00592646
0.00457947
0.00312991
0.00158617
0.00499545
0.019642
0.0360879
0.0228871
0.0195307
0.0184885
0.0175912
0.0163079
0.0144889
0.0122376
0.00985363
0.00776137
0.00644125
0.00621716
0.0069718
0.00819866
0.0096412
0.0111293
0.0125888
0.0139171
0.0149753
0.015641
0.0158903
0.0158556
0.0158047
0.0159919
0.0164416
0.0169126
0.0171114
0.0168906
0.0162573
0.0153624
0.014493
0.0139571
0.0138156
0.0137268
0.013244
0.0124455
0.0114739
0.010441
0.00941428
0.00842934
0.00750562
0.00666007
0.00591857
0.00532697
0.00495548
0.00487831
0.00514805
0.00563948
0.00628393
0.00702493
0.00783076
0.00870043
0.00965991
0.0107294
0.0118578
0.0129169
0.0138593
0.0150547
0.018335
0.0270387
0.0320913
0.0289141
0.0227278
0.0174033
0.0144912
0.0132232
0.0124734
0.0117678
0.0109846
0.0101058
0.00915183
0.00816518
0.00720014
0.00631979
0.00568101
0.00584689
0.00724187
0.00936909
0.0115752
0.0135038
0.0150025
0.016029
0.0165977
0.0167527
0.0165509
0.0160524
0.0153148
0.0143896
0.0133213
0.0121468
0.0108963
0.00959434
0.00826095
0.00691256
0.00556135
0.00420762
0.00278851
0.00191899
0.00574752
0.020075
0.0366753
0.0233017
0.0197931
0.018703
0.0178266
0.0166134
0.0148679
0.012626
0.0101114
0.00768864
0.00585687
0.00515354
0.00564812
0.00676579
0.00814683
0.00957589
0.011049
0.0125379
0.013919
0.0150086
0.0156769
0.0159547
0.0160666
0.0163227
0.0168538
0.0174585
0.0178047
0.017705
0.0171488
0.0162904
0.0154433
0.0149282
0.0147533
0.0144824
0.0137394
0.0126749
0.0114826
0.0102829
0.00913013
0.0080376
0.00700106
0.00601436
0.00508296
0.00424251
0.00359026
0.00328866
0.00357565
0.00425693
0.00515587
0.00615631
0.00719625
0.0082621
0.00937451
0.01055
0.0117418
0.0128402
0.0138167
0.0150497
0.0183318
0.0267001
0.031739
0.029465
0.0239337
0.0185113
0.0149683
0.0131799
0.0121824
0.0113687
0.0105355
0.00964093
0.00870358
0.00776946
0.00689208
0.00614331
0.00579212
0.00651029
0.00830984
0.0105306
0.0126511
0.0144166
0.0157265
0.0165641
0.0169574
0.0169572
0.016623
0.0160153
0.0151902
0.0141967
0.0130762
0.0118622
0.0105822