/*--------------------------------*- C++ -*----------------------------------*\
| =========                 |                                                 |
| \\      /  F ield         | OpenFOAM: The Open Source CFD Toolbox           |
|  \\    /   O peration     | Version:  4.1                                   |
|   \\  /    A nd           | Web:      www.OpenFOAM.org                      |
|    \\/     M anipulation  |                                                 |
\*---------------------------------------------------------------------------*/
FoamFile
{
    version     2.0;
    format      ascii;
    class       volScalarField;
    location    "520";
    object      p_rgh;
}
// * * * * * * * * * * * * * * * * * * * * * * * * * * * * * * * * * * * * * //

dimensions      [0 2 -2 0 0 0 0];

internalField   nonuniform List<scalar> 
5000
(
0.0492087
0.0492048
0.0492077
0.0492112
0.0492132
0.0492145
0.0492155
0.0492161
0.0492164
0.049216
0.049215
0.0492129
0.0492095
0.0492047
0.0491989
0.0491912
0.0491807
0.0491675
0.0491522
0.0491359
0.0491196
0.0491041
0.0490901
0.0490775
0.0490665
0.0490569
0.0490485
0.0490413
0.049035
0.0490296
0.0490252
0.0490217
0.0490191
0.0490173
0.0490163
0.0490159
0.0490161
0.0490166
0.0490175
0.0490187
0.04902
0.0490215
0.0490231
0.0490248
0.0490267
0.0490288
0.0490311
0.0490336
0.0490362
0.049039
0.0490418
0.0490445
0.049047
0.0490489
0.0490501
0.0490506
0.0490505
0.0490509
0.0490528
0.0490519
0.0490468
0.0490436
0.0490438
0.0490451
0.0490466
0.0490481
0.0490494
0.0490507
0.049052
0.0490534
0.0490551
0.0490572
0.0490599
0.0490635
0.0490682
0.049074
0.0490813
0.04909
0.0491002
0.0491117
0.0491245
0.0491383
0.0491528
0.0491678
0.049183
0.049198
0.0492126
0.0492267
0.0492399
0.0492521
0.0492631
0.0492727
0.0492795
0.0492818
0.0492779
0.0492674
0.0492553
0.0492456
0.0492374
0.0492332
0.0492071
0.049244
0.0492671
0.0492694
0.0492673
0.0492648
0.049262
0.049259
0.0492558
0.0492523
0.0492482
0.0492434
0.0492374
0.0492303
0.049222
0.0492117
0.0491991
0.0491845
0.0491685
0.0491522
0.0491365
0.0491221
0.0491094
0.0490983
0.0490889
0.049081
0.0490743
0.0490688
0.0490643
0.0490609
0.0490583
0.0490564
0.0490552
0.0490547
0.0490549
0.0490556
0.0490567
0.0490583
0.0490602
0.0490624
0.0490648
0.0490675
0.0490703
0.0490733
0.0490764
0.0490798
0.0490833
0.0490869
0.0490906
0.0490944
0.0490982
0.0491017
0.0491047
0.0491066
0.0491064
0.049103
0.0490958
0.0490891
0.0490939
0.0490698
0.0490552
0.0490826
0.0490986
0.0491045
0.0491069
0.0491083
0.0491093
0.0491101
0.0491106
0.0491111
0.0491116
0.0491123
0.0491135
0.0491153
0.0491178
0.0491213
0.0491259
0.0491317
0.0491389
0.0491477
0.0491581
0.0491697
0.0491823
0.0491955
0.049209
0.0492224
0.0492354
0.0492478
0.0492594
0.0492698
0.049279
0.0492864
0.0492913
0.0492927
0.0492908
0.0492868
0.0492824
0.0492795
0.0492715
0.0492314
0.0491793
0.0492504
0.049273
0.0492725
0.0492696
0.0492664
0.049263
0.0492594
0.0492556
0.0492514
0.0492466
0.0492409
0.0492339
0.0492257
0.0492161
0.0492042
0.0491902
0.0491743
0.0491577
0.0491412
0.0491259
0.0491121
0.0491002
0.0490901
0.0490815
0.0490743
0.0490683
0.0490632
0.0490591
0.0490559
0.0490538
0.0490527
0.0490527
0.0490536
0.0490554
0.0490578
0.0490607
0.049064
0.0490674
0.0490711
0.0490748
0.0490785
0.0490824
0.0490863
0.0490903
0.0490946
0.049099
0.0491037
0.0491087
0.049114
0.0491194
0.0491247
0.0491297
0.0491336
0.0491355
0.0491335
0.0491261
0.0491168
0.0491187
0.0490698
0.0490399
0.0491013
0.0491294
0.049137
0.0491382
0.0491375
0.0491357
0.0491333
0.0491305
0.0491274
0.0491243
0.0491215
0.0491194
0.0491182
0.0491183
0.0491199
0.0491231
0.0491283
0.0491353
0.0491442
0.0491546
0.0491663
0.049179
0.0491922
0.0492057
0.049219
0.0492319
0.0492441
0.0492553
0.0492653
0.049274
0.0492809
0.0492855
0.0492874
0.0492863
0.0492833
0.0492794
0.0492777
0.0492755
0.0492139
0.049147
0.04925
0.0492743
0.0492736
0.0492705
0.0492669
0.049263
0.0492588
0.0492542
0.0492491
0.0492433
0.0492365
0.0492281
0.0492184
0.0492069
0.0491931
0.049177
0.0491596
0.049142
0.0491253
0.0491103
0.0490975
0.0490867
0.0490777
0.0490703
0.049064
0.0490586
0.049054
0.0490502
0.0490472
0.0490452
0.0490444
0.0490447
0.0490462
0.0490487
0.0490519
0.0490557
0.0490599
0.0490642
0.0490687
0.0490731
0.0490775
0.0490819
0.0490862
0.0490906
0.0490952
0.0491
0.0491052
0.049111
0.0491173
0.0491241
0.0491311
0.049138
0.0491443
0.0491488
0.0491494
0.049144
0.0491346
0.0491312
0.0490609
0.0490096
0.049106
0.049144
0.049152
0.0491517
0.0491488
0.0491445
0.0491395
0.0491341
0.0491287
0.0491235
0.049119
0.0491155
0.0491134
0.0491128
0.049114
0.0491171
0.0491223
0.0491295
0.0491385
0.0491492
0.0491611
0.049174
0.0491875
0.049201
0.0492144
0.0492272
0.0492392
0.0492502
0.0492599
0.0492682
0.0492749
0.0492796
0.049282
0.0492819
0.0492797
0.049275
0.0492739
0.0492728
0.0491954
0.0491179
0.0492489
0.0492754
0.0492749
0.0492716
0.0492675
0.0492629
0.0492579
0.0492522
0.049246
0.049239
0.0492307
0.0492207
0.049209
0.0491953
0.049179
0.0491606
0.0491413
0.0491226
0.0491058
0.0490916
0.04908
0.0490706
0.0490631
0.0490569
0.0490517
0.049047
0.0490429
0.0490394
0.0490365
0.0490344
0.0490334
0.0490339
0.0490359
0.049039
0.049043
0.0490476
0.0490526
0.0490576
0.0490626
0.0490676
0.0490724
0.0490771
0.0490816
0.049086
0.0490906
0.0490954
0.0491007
0.0491067
0.0491136
0.0491212
0.0491294
0.0491379
0.0491459
0.0491525
0.0491557
0.0491528
0.0491445
0.0491364
0.0490505
0.0489719
0.0491033
0.0491494
0.0491573
0.0491557
0.0491511
0.0491451
0.0491384
0.0491314
0.0491247
0.0491184
0.0491131
0.049109
0.0491064
0.0491055
0.0491067
0.0491099
0.0491152
0.0491227
0.049132
0.0491431
0.0491554
0.0491686
0.0491824
0.0491961
0.0492096
0.0492225
0.0492344
0.0492452
0.0492547
0.0492628
0.0492693
0.0492742
0.0492772
0.0492781
0.0492763
0.0492706
0.0492698
0.0492689
0.0491784
0.0490913
0.0492478
0.0492766
0.0492763
0.0492727
0.0492681
0.0492626
0.0492564
0.0492495
0.0492419
0.0492335
0.0492238
0.0492121
0.0491982
0.0491819
0.0491629
0.0491419
0.0491207
0.0491011
0.0490846
0.0490715
0.0490615
0.049054
0.0490481
0.0490433
0.0490391
0.0490352
0.0490316
0.0490283
0.0490254
0.0490231
0.0490218
0.049022
0.0490241
0.0490279
0.0490327
0.0490382
0.0490438
0.0490496
0.0490552
0.0490605
0.0490657
0.0490705
0.0490751
0.0490794
0.0490836
0.049088
0.0490931
0.0490991
0.0491061
0.0491142
0.0491232
0.0491327
0.0491421
0.0491503
0.0491555
0.0491551
0.0491486
0.0491374
0.0490403
0.0489312
0.0490966
0.0491496
0.0491571
0.0491544
0.0491486
0.0491414
0.0491336
0.0491257
0.0491181
0.0491113
0.0491054
0.049101
0.0490982
0.0490972
0.0490984
0.0491018
0.0491074
0.0491151
0.0491249
0.0491364
0.0491492
0.0491629
0.049177
0.0491911
0.0492049
0.0492179
0.0492298
0.0492406
0.04925
0.049258
0.0492646
0.0492696
0.0492732
0.0492749
0.0492736
0.049267
0.0492655
0.049265
0.0491621
0.0490663
0.049247
0.0492781
0.0492779
0.0492739
0.0492684
0.0492618
0.0492542
0.0492459
0.049237
0.0492272
0.0492161
0.0492027
0.0491865
0.0491674
0.0491455
0.0491221
0.0490993
0.0490794
0.0490638
0.0490525
0.0490446
0.0490391
0.049035
0.0490317
0.0490287
0.0490257
0.0490227
0.0490198
0.049017
0.0490147
0.0490131
0.0490125
0.0490141
0.049018
0.0490234
0.0490295
0.0490357
0.0490419
0.0490479
0.0490536
0.0490588
0.0490637
0.0490681
0.049072
0.0490755
0.0490792
0.0490836
0.0490892
0.0490963
0.0491047
0.0491142
0.0491245
0.0491348
0.0491442
0.049151
0.0491528
0.0491485
0.0491358
0.049029
0.0488902
0.0490878
0.0491467
0.0491536
0.0491501
0.0491433
0.0491353
0.0491267
0.0491182
0.0491101
0.0491028
0.0490967
0.049092
0.0490891
0.0490881
0.0490893
0.0490928
0.0490986
0.0491066
0.0491168
0.0491288
0.0491422
0.0491565
0.0491712
0.0491859
0.0492
0.0492133
0.0492255
0.0492364
0.049246
0.049254
0.0492607
0.049266
0.04927
0.0492725
0.0492719
0.0492646
0.0492612
0.049261
0.0491464
0.0490424
0.0492463
0.0492798
0.0492795
0.0492746
0.049268
0.04926
0.0492509
0.0492413
0.0492312
0.0492203
0.0492078
0.0491927
0.0491743
0.0491526
0.0491279
0.0491026
0.049079
0.0490597
0.0490458
0.0490368
0.0490315
0.0490283
0.0490262
0.0490244
0.0490227
0.0490207
0.0490186
0.0490163
0.0490141
0.049012
0.0490103
0.0490093
0.0490099
0.0490129
0.0490181
0.0490243
0.0490305
0.0490366
0.0490425
0.049048
0.0490529
0.0490572
0.0490607
0.0490633
0.0490653
0.0490676
0.049071
0.0490764
0.0490837
0.0490928
0.0491031
0.0491142
0.0491254
0.0491358
0.0491439
0.0491477
0.0491454
0.0491322
0.0490173
0.048849
0.0490777
0.0491418
0.0491481
0.0491437
0.0491362
0.0491275
0.0491184
0.0491094
0.0491009
0.0490934
0.049087
0.0490821
0.049079
0.0490779
0.049079
0.0490824
0.0490882
0.0490965
0.049107
0.0491196
0.0491337
0.0491489
0.0491644
0.0491799
0.0491948
0.0492087
0.0492214
0.0492327
0.0492425
0.0492508
0.0492578
0.0492634
0.0492678
0.0492708
0.0492711
0.0492633
0.0492571
0.0492571
0.0491311
0.0490195
0.0492459
0.0492815
0.0492807
0.0492747
0.0492665
0.049257
0.0492465
0.0492357
0.0492246
0.0492129
0.0491993
0.0491826
0.0491622
0.049138
0.0491115
0.049085
0.0490615
0.0490437
0.0490322
0.0490261
0.0490236
0.0490227
0.0490224
0.0490221
0.0490215
0.0490205
0.0490191
0.0490175
0.0490158
0.0490142
0.0490129
0.0490121
0.0490126
0.0490151
0.0490192
0.0490243
0.0490295
0.0490345
0.0490389
0.0490424
0.0490445
0.0490451
0.0490445
0.0490433
0.049044
0.0490472
0.0490525
0.0490595
0.0490684
0.0490788
0.0490904
0.0491026
0.0491148
0.0491262
0.0491355
0.0491408
0.0491405
0.0491274
0.0490048
0.0488084
0.049067
0.0491356
0.0491411
0.0491359
0.0491277
0.0491184
0.0491088
0.0490995
0.0490907
0.0490829
0.0490762
0.049071
0.0490676
0.0490661
0.0490668
0.0490698
0.0490754
0.0490837
0.0490947
0.049108
0.0491232
0.0491395
0.0491563
0.0491729
0.0491889
0.0492038
0.0492173
0.0492292
0.0492396
0.0492484
0.0492557
0.0492617
0.0492665
0.04927
0.0492711
0.0492632
0.0492534
0.0492533
0.0491162
0.0489972
0.0492455
0.0492828
0.0492812
0.0492738
0.0492637
0.0492523
0.0492407
0.0492291
0.0492175
0.0492052
0.0491907
0.0491728
0.0491507
0.0491249
0.0490972
0.0490705
0.0490481
0.0490324
0.0490236
0.0490201
0.0490198
0.0490206
0.0490216
0.0490222
0.0490222
0.0490217
0.0490209
0.0490198
0.0490187
0.0490177
0.0490168
0.0490164
0.0490166
0.0490178
0.0490202
0.0490231
0.0490263
0.0490292
0.0490314
0.0490328
0.0490332
0.0490329
0.0490322
0.0490314
0.0490336
0.0490377
0.0490415
0.0490473
0.0490554
0.0490658
0.0490779
0.0490908
0.0491039
0.0491161
0.0491264
0.0491331
0.0491345
0.0491215
0.0489915
0.0487688
0.0490563
0.0491286
0.0491332
0.0491271
0.0491182
0.0491083
0.0490983
0.0490886
0.0490795
0.0490712
0.0490641
0.0490583
0.0490541
0.0490518
0.0490516
0.049054
0.0490591
0.0490676
0.0490792
0.0490937
0.0491102
0.0491281
0.0491465
0.0491647
0.0491822
0.0491984
0.049213
0.0492259
0.0492371
0.0492465
0.0492544
0.0492608
0.049266
0.04927
0.0492718
0.0492642
0.0492506
0.0492496
0.0491018
0.0489754
0.049245
0.0492835
0.0492807
0.0492714
0.0492592
0.0492461
0.0492335
0.0492215
0.0492097
0.0491972
0.0491823
0.0491636
0.0491407
0.0491142
0.0490863
0.0490602
0.049039
0.0490249
0.0490178
0.0490159
0.0490168
0.0490186
0.0490201
0.049021
0.0490213
0.0490211
0.0490206
0.0490199
0.0490192
0.0490185
0.0490179
0.0490176
0.0490177
0.0490184
0.0490197
0.0490215
0.0490231
0.0490244
0.0490252
0.049025
0.0490239
0.0490218
0.049019
0.0490171
0.049021
0.0490282
0.049035
0.0490404
0.0490467
0.0490555
0.0490668
0.0490797
0.0490931
0.049106
0.0491172
0.0491251
0.0491278
0.0491149
0.0489775
0.0487302
0.0490459
0.0491212
0.0491247
0.0491176
0.049108
0.0490975
0.049087
0.0490767
0.0490671
0.0490582
0.0490502
0.0490434
0.049038
0.0490343
0.049033
0.0490344
0.0490391
0.0490478
0.0490604
0.0490764
0.0490948
0.0491147
0.0491352
0.0491555
0.0491747
0.0491926
0.0492086
0.0492227
0.0492349
0.0492452
0.0492537
0.0492607
0.0492663
0.0492707
0.0492731
0.0492662
0.0492489
0.0492462
0.0490877
0.0489536
0.0492439
0.0492831
0.0492787
0.0492672
0.0492528
0.0492382
0.0492249
0.0492128
0.0492012
0.0491889
0.049174
0.0491554
0.0491325
0.0491063
0.0490791
0.0490539
0.0490337
0.0490201
0.0490131
0.0490112
0.0490121
0.049014
0.0490156
0.0490166
0.049017
0.0490171
0.0490169
0.0490166
0.0490165
0.0490165
0.0490167
0.0490172
0.0490179
0.0490188
0.0490199
0.0490208
0.0490214
0.0490208
0.0490194
0.0490168
0.0490127
0.0490074
0.0490019
0.0490006
0.0490063
0.0490151
0.0490251
0.0490339
0.0490407
0.0490477
0.0490573
0.0490694
0.0490828
0.0490961
0.049108
0.0491169
0.0491208
0.0491078
0.0489628
0.0486926
0.0490358
0.0491135
0.0491158
0.0491077
0.0490972
0.049086
0.0490748
0.0490639
0.0490535
0.0490436
0.0490344
0.049026
0.0490189
0.0490135
0.0490105
0.0490109
0.0490153
0.0490246
0.0490386
0.0490565
0.0490772
0.0490997
0.0491227
0.0491453
0.0491668
0.0491865
0.0492042
0.0492198
0.0492331
0.0492444
0.0492538
0.0492614
0.0492675
0.0492723
0.0492752
0.0492691
0.0492488
0.0492432
0.0490741
0.0489316
0.0492419
0.0492813
0.0492749
0.049261
0.0492445
0.0492284
0.0492146
0.0492028
0.0491918
0.04918
0.0491658
0.0491479
0.0491261
0.0491013
0.0490755
0.0490516
0.0490318
0.0490179
0.0490099
0.0490066
0.0490063
0.0490074
0.0490086
0.0490094
0.0490097
0.0490096
0.0490092
0.0490088
0.0490085
0.0490084
0.0490087
0.0490092
0.04901
0.0490109
0.0490118
0.0490124
0.0490126
0.0490118
0.0490087
0.0490035
0.0489967
0.0489887
0.048985
0.0489857
0.0489909
0.0490003
0.0490122
0.0490242
0.0490343
0.0490414
0.0490494
0.0490601
0.0490728
0.0490862
0.0490986
0.0491085
0.0491134
0.0491003
0.0489478
0.0486564
0.049025
0.0491057
0.0491067
0.0490976
0.0490861
0.049074
0.049062
0.0490503
0.0490388
0.0490276
0.0490167
0.0490063
0.0489969
0.0489893
0.0489846
0.0489839
0.0489882
0.0489985
0.0490143
0.0490346
0.0490582
0.0490836
0.0491094
0.0491347
0.0491586
0.0491805
0.0492001
0.0492172
0.0492319
0.0492442
0.0492545
0.0492628
0.0492694
0.0492746
0.0492779
0.0492729
0.0492502
0.0492405
0.0490607
0.048909
0.0492387
0.0492777
0.0492689
0.0492525
0.049234
0.0492168
0.0492026
0.0491913
0.0491811
0.0491703
0.0491573
0.049141
0.0491212
0.0490987
0.0490752
0.0490529
0.049034
0.0490198
0.0490106
0.0490057
0.0490038
0.0490036
0.0490039
0.0490042
0.049004
0.0490033
0.0490021
0.0490007
0.0489993
0.0489979
0.0489969
0.0489962
0.0489958
0.0489954
0.048995
0.0489942
0.0489928
0.0489903
0.0489869
0.0489821
0.0489768
0.0489724
0.0489706
0.0489718
0.0489768
0.0489859
0.0489982
0.0490119
0.0490247
0.0490344
0.0490421
0.0490513
0.049063
0.0490761
0.049089
0.0490998
0.0491056
0.0490923
0.0489325
0.0486237
0.0490092
0.0490983
0.0490978
0.0490875
0.0490749
0.0490618
0.0490488
0.049036
0.0490232
0.0490103
0.0489973
0.0489844
0.0489724
0.0489624
0.0489557
0.0489541
0.0489586
0.0489702
0.0489884
0.0490116
0.0490383
0.049067
0.049096
0.0491242
0.0491507
0.0491748
0.0491963
0.0492151
0.0492311
0.0492446
0.0492559
0.0492649
0.0492721
0.0492776
0.0492813
0.0492774
0.0492531
0.0492384
0.0490477
0.0488856
0.0492339
0.0492721
0.0492608
0.0492417
0.0492212
0.0492031
0.0491888
0.049178
0.0491687
0.0491592
0.049148
0.0491341
0.0491171
0.0490977
0.0490772
0.0490574
0.0490401
0.0490265
0.0490172
0.0490117
0.049009
0.049008
0.0490077
0.0490073
0.0490065
0.0490049
0.0490026
0.0489997
0.0489966
0.0489934
0.0489904
0.0489878
0.0489854
0.0489834
0.0489817
0.0489798
0.0489774
0.0489743
0.0489706
0.0489666
0.0489628
0.04896
0.0489591
0.0489607
0.0489655
0.0489739
0.0489855
0.0489991
0.0490128
0.0490251
0.0490341
0.0490426
0.0490531
0.0490657
0.0490789
0.0490905
0.0490973
0.0490838
0.0489173
0.0485952
0.0489872
0.0490914
0.0490892
0.0490777
0.0490639
0.0490497
0.0490355
0.0490214
0.049007
0.0489921
0.0489768
0.0489612
0.0489463
0.0489336
0.0489249
0.0489224
0.0489276
0.0489411
0.0489619
0.0489884
0.0490186
0.0490506
0.0490829
0.0491141
0.0491433
0.0491697
0.0491932
0.0492136
0.0492311
0.0492458
0.049258
0.0492678
0.0492755
0.0492814
0.0492853
0.0492823
0.0492575
0.049237
0.049035
0.0488611
0.0492273
0.0492643
0.0492502
0.0492284
0.0492061
0.0491871
0.0491727
0.0491624
0.0491541
0.0491462
0.0491372
0.0491262
0.0491128
0.0490971
0.0490803
0.0490636
0.0490486
0.0490367
0.0490283
0.0490234
0.0490211
0.0490204
0.0490201
0.0490195
0.0490181
0.0490156
0.0490121
0.0490079
0.0490031
0.0489983
0.0489936
0.0489891
0.0489848
0.0489814
0.0489788
0.0489762
0.0489732
0.0489698
0.0489659
0.0489619
0.0489583
0.0489557
0.0489547
0.048956
0.0489599
0.0489667
0.0489764
0.0489881
0.0490008
0.0490135
0.0490243
0.0490332
0.0490429
0.0490548
0.0490681
0.0490806
0.0490884
0.0490747
0.0489021
0.0485713
0.048961
0.0490828
0.0490813
0.0490686
0.0490534
0.0490379
0.0490224
0.0490068
0.0489907
0.0489738
0.0489559
0.0489374
0.0489195
0.0489041
0.0488935
0.0488903
0.0488966
0.0489124
0.0489363
0.0489661
0.0489998
0.0490353
0.0490709
0.049105
0.0491368
0.0491655
0.049191
0.0492131
0.0492319
0.0492477
0.0492608
0.0492713
0.0492796
0.0492858
0.04929
0.0492877
0.0492629
0.0492364
0.0490227
0.0488354
0.0492189
0.0492544
0.0492374
0.0492129
0.0491887
0.0491687
0.0491541
0.0491441
0.0491369
0.0491306
0.0491242
0.0491165
0.049107
0.0490957
0.049083
0.04907
0.0490578
0.0490478
0.0490408
0.049037
0.0490357
0.0490357
0.0490359
0.0490354
0.0490337
0.0490307
0.0490263
0.0490209
0.0490151
0.0490092
0.0490037
0.0489987
0.0489942
0.0489913
0.0489893
0.0489873
0.0489846
0.0489813
0.0489773
0.048973
0.0489687
0.0489652
0.0489628
0.0489622
0.0489636
0.0489674
0.0489735
0.0489817
0.0489914
0.0490022
0.049013
0.0490224
0.0490319
0.0490432
0.0490565
0.0490697
0.0490787
0.049065
0.0488872
0.0485519
0.0489303
0.0490723
0.0490744
0.0490604
0.0490438
0.0490268
0.0490099
0.0489928
0.0489749
0.0489558
0.0489355
0.0489142
0.0488934
0.0488751
0.0488627
0.0488592
0.0488673
0.0488858
0.0489128
0.0489461
0.0489831
0.0490218
0.0490605
0.0490974
0.0491317
0.0491626
0.0491898
0.0492135
0.0492336
0.0492505
0.0492644
0.0492756
0.0492843
0.0492908
0.0492952
0.0492935
0.0492693
0.0492368
0.0490107
0.0488084
0.0492085
0.0492424
0.0492225
0.0491952
0.0491689
0.0491479
0.0491329
0.049123
0.0491167
0.0491121
0.0491081
0.0491039
0.0490987
0.0490921
0.049084
0.0490751
0.0490661
0.0490582
0.0490525
0.0490497
0.0490491
0.0490499
0.0490506
0.0490504
0.0490486
0.0490449
0.0490397
0.0490334
0.0490268
0.0490204
0.0490149
0.0490104
0.049008
0.0490078
0.0490081
0.0490079
0.0490067
0.0490045
0.0490011
0.0489968
0.0489922
0.0489875
0.0489833
0.04898
0.048978
0.0489775
0.048979
0.0489825
0.0489878
0.0489943
0.0490023
0.0490108
0.0490199
0.0490308
0.049044
0.049058
0.0490681
0.0490547
0.0488726
0.0485373
0.0488966
0.0490596
0.0490685
0.0490535
0.0490352
0.0490168
0.0489984
0.0489797
0.0489601
0.048939
0.0489164
0.0488926
0.048869
0.0488481
0.0488339
0.0488309
0.0488415
0.048863
0.048893
0.0489293
0.0489692
0.0490107
0.0490522
0.0490916
0.049128
0.0491609
0.04919
0.0492151
0.0492364
0.0492542
0.0492688
0.0492805
0.0492896
0.0492964
0.0493008
0.0492996
0.0492762
0.0492381
0.0489992
0.04878
0.0491963
0.0492286
0.0492058
0.0491757
0.0491472
0.0491246
0.0491088
0.0490989
0.0490932
0.04909
0.0490885
0.0490877
0.0490868
0.0490851
0.0490822
0.0490778
0.0490724
0.049067
0.0490627
0.0490606
0.0490607
0.049062
0.0490632
0.0490632
0.049061
0.0490567
0.0490503
0.0490429
0.0490353
0.0490286
0.0490233
0.0490199
0.0490209
0.0490241
0.049027
0.0490289
0.0490294
0.0490284
0.049026
0.0490225
0.049018
0.049013
0.0490079
0.0490029
0.0489983
0.0489943
0.0489916
0.0489903
0.0489902
0.0489913
0.0489943
0.0489997
0.0490073
0.0490176
0.0490307
0.0490453
0.0490567
0.0490437
0.0488584
0.0485274
0.0488619
0.0490444
0.0490631
0.0490478
0.0490282
0.0490081
0.0489882
0.048968
0.0489467
0.0489239
0.0488993
0.0488734
0.0488476
0.0488246
0.048809
0.0488076
0.0488215
0.0488455
0.0488778
0.0489167
0.0489588
0.0490027
0.0490462
0.0490878
0.0491264
0.0491611
0.0491917
0.049218
0.0492402
0.0492587
0.0492739
0.049286
0.0492954
0.0493023
0.0493069
0.049306
0.0492834
0.0492403
0.048988
0.0487505
0.0491827
0.0492136
0.0491879
0.0491548
0.0491238
0.0490993
0.0490822
0.0490717
0.0490663
0.0490645
0.049065
0.0490673
0.0490705
0.0490739
0.0490763
0.0490772
0.0490762
0.0490738
0.0490714
0.0490701
0.0490706
0.0490724
0.049074
0.0490741
0.0490717
0.0490663
0.0490586
0.0490496
0.0490408
0.0490334
0.0490282
0.0490263
0.0490308
0.0490366
0.0490414
0.0490446
0.049046
0.0490456
0.0490438
0.0490408
0.0490369
0.0490323
0.0490274
0.0490222
0.0490167
0.0490112
0.0490059
0.0490008
0.0489961
0.0489921
0.0489896
0.0489903
0.0489951
0.049004
0.0490167
0.0490319
0.0490444
0.0490321
0.0488448
0.0485222
0.0488276
0.0490271
0.0490577
0.0490434
0.0490225
0.0490011
0.0489797
0.0489579
0.0489351
0.0489107
0.0488845
0.0488571
0.0488301
0.0488065
0.0487921
0.0487933
0.0488088
0.0488344
0.048868
0.0489079
0.048952
0.0489978
0.0490434
0.049087
0.0491273
0.0491634
0.049195
0.0492222
0.0492451
0.0492641
0.0492796
0.049292
0.0493016
0.0493086
0.0493131
0.0493125
0.0492907
0.0492432
0.0489772
0.04872
0.0491681
0.0491978
0.0491693
0.0491333
0.0490995
0.0490726
0.0490538
0.0490424
0.0490369
0.0490359
0.0490378
0.0490425
0.0490494
0.0490575
0.0490655
0.0490721
0.0490764
0.0490782
0.0490783
0.0490783
0.0490794
0.0490816
0.0490837
0.049084
0.0490811
0.0490747
0.0490653
0.0490544
0.0490439
0.0490356
0.0490305
0.0490304
0.049038
0.0490454
0.0490509
0.0490541
0.0490551
0.0490544
0.0490523
0.0490493
0.0490456
0.0490416
0.0490374
0.0490329
0.049028
0.0490226
0.0490164
0.0490094
0.0490018
0.0489939
0.0489869
0.0489828
0.0489838
0.0489905
0.0490025
0.0490179
0.0490316
0.04902
0.048832
0.0485212
0.0487948
0.0490077
0.0490522
0.0490398
0.0490181
0.0489953
0.0489725
0.0489493
0.0489251
0.0488993
0.0488719
0.0488438
0.048817
0.0487951
0.0487835
0.0487865
0.0488026
0.0488289
0.0488634
0.0489045
0.0489498
0.0489971
0.0490442
0.0490892
0.0491307
0.0491678
0.0492001
0.0492278
0.0492511
0.0492703
0.049286
0.0492985
0.0493081
0.0493151
0.0493195
0.049319
0.0492979
0.0492465
0.0489668
0.0486889
0.0491529
0.0491819
0.0491509
0.0491118
0.0490751
0.0490455
0.0490245
0.0490117
0.0490056
0.0490048
0.0490075
0.0490138
0.0490233
0.0490355
0.0490488
0.0490616
0.0490721
0.0490792
0.049083
0.0490851
0.0490872
0.0490899
0.0490925
0.0490931
0.0490898
0.0490822
0.0490708
0.0490577
0.0490454
0.0490361
0.049031
0.0490331
0.0490431
0.0490512
0.0490562
0.0490582
0.0490578
0.0490557
0.0490525
0.0490488
0.049045
0.0490413
0.0490378
0.0490343
0.0490307
0.0490264
0.0490207
0.0490134
0.0490046
0.0489945
0.0489843
0.0489763
0.0489735
0.0489776
0.0489883
0.0490038
0.0490183
0.0490075
0.0488202
0.048524
0.0487641
0.0489864
0.0490461
0.0490369
0.0490146
0.0489908
0.0489667
0.0489421
0.0489165
0.0488896
0.0488616
0.0488336
0.0488082
0.0487891
0.0487806
0.0487854
0.0488024
0.0488292
0.0488642
0.0489059
0.0489522
0.0490006
0.0490487
0.0490945
0.0491366
0.0491742
0.0492069
0.0492347
0.0492579
0.0492772
0.0492928
0.0493052
0.0493147
0.0493216
0.0493259
0.0493253
0.0493047
0.04925
0.0489566
0.0486576
0.0491378
0.0491665
0.0491331
0.0490912
0.0490513
0.0490189
0.0489955
0.048981
0.0489739
0.0489726
0.0489758
0.0489824
0.0489931
0.049008
0.0490259
0.0490446
0.0490619
0.0490755
0.0490846
0.04909
0.0490937
0.0490973
0.0491005
0.0491014
0.049098
0.0490891
0.0490756
0.04906
0.0490455
0.0490351
0.0490304
0.0490348
0.0490464
0.0490543
0.0490577
0.0490575
0.0490547
0.0490505
0.0490456
0.0490408
0.0490364
0.0490327
0.0490297
0.0490273
0.0490252
0.0490225
0.0490182
0.0490118
0.0490031
0.0489923
0.0489805
0.0489698
0.0489639
0.0489655
0.0489747
0.0489899
0.049005
0.0489949
0.0488096
0.0485298
0.0487354
0.0489626
0.0490391
0.0490343
0.0490119
0.0489872
0.0489619
0.0489361
0.0489094
0.0488818
0.0488536
0.0488266
0.0488035
0.0487876
0.0487821
0.048789
0.0488069
0.0488341
0.0488695
0.0489118
0.0489587
0.0490078
0.0490565
0.0491027
0.0491451
0.0491826
0.0492151
0.0492426
0.0492656
0.0492845
0.0492998
0.049312
0.0493213
0.049328
0.0493321
0.0493314
0.0493111
0.0492535
0.0489466
0.0486264
0.0491232
0.0491522
0.0491169
0.0490722
0.0490293
0.0489939
0.0489683
0.0489524
0.0489447
0.0489427
0.048945
0.0489505
0.0489606
0.0489762
0.048997
0.0490208
0.0490449
0.0490659
0.0490818
0.0490921
0.0490986
0.0491035
0.0491076
0.0491091
0.0491056
0.0490955
0.0490797
0.0490613
0.0490444
0.0490329
0.0490288
0.0490354
0.0490479
0.0490546
0.0490554
0.049052
0.0490461
0.0490391
0.0490321
0.0490257
0.0490205
0.0490166
0.0490141
0.0490128
0.0490123
0.0490115
0.0490091
0.0490044
0.0489969
0.0489866
0.0489743
0.0489625
0.0489546
0.0489541
0.0489619
0.0489765
0.048992
0.0489825
0.0488005
0.048538
0.048709
0.0489358
0.0490301
0.0490316
0.0490096
0.0489841
0.0489579
0.0489311
0.0489036
0.0488756
0.048848
0.0488228
0.0488024
0.0487897
0.0487872
0.0487962
0.0488149
0.0488424
0.0488784
0.0489213
0.0489689
0.0490185
0.0490674
0.0491137
0.0491557
0.0491927
0.0492246
0.0492515
0.0492738
0.0492922
0.049307
0.0493188
0.0493278
0.0493342
0.049338
0.0493371
0.0493169
0.0492566
0.0489365
0.0485958
0.0491098
0.0491396
0.0491028
0.0490556
0.0490097
0.0489715
0.0489439
0.0489276
0.0489201
0.0489179
0.0489183
0.0489217
0.048929
0.0489426
0.0489635
0.0489906
0.0490206
0.0490494
0.0490733
0.0490904
0.0491012
0.0491084
0.0491137
0.0491162
0.0491128
0.0491015
0.0490834
0.049062
0.0490424
0.0490298
0.0490266
0.0490348
0.0490474
0.0490517
0.0490489
0.0490416
0.0490321
0.049022
0.0490126
0.0490045
0.0489982
0.048994
0.0489918
0.0489916
0.0489929
0.0489943
0.0489942
0.0489917
0.048986
0.048977
0.0489656
0.0489537
0.0489451
0.0489434
0.0489501
0.0489642
0.0489797
0.0489707
0.0487933
0.0485479
0.0486851
0.0489058
0.0490178
0.0490284
0.0490074
0.0489813
0.0489542
0.0489267
0.0488988
0.0488711
0.0488447
0.0488217
0.0488044
0.0487949
0.0487952
0.0488057
0.048825
0.0488532
0.0488901
0.048934
0.0489823
0.0490323
0.0490812
0.0491269
0.0491682
0.0492043
0.0492352
0.049261
0.0492824
0.0492999
0.0493141
0.0493254
0.049334
0.04934
0.0493435
0.0493423
0.0493219
0.0492593
0.0489265
0.048566
0.0490978
0.0491292
0.0490914
0.0490421
0.0489933
0.0489524
0.0489234
0.0489074
0.0489019
0.0489009
0.0489
0.0489003
0.0489027
0.0489112
0.0489286
0.0489556
0.0489894
0.0490254
0.0490581
0.0490836
0.0491008
0.0491116
0.0491188
0.0491225
0.0491196
0.0491075
0.049087
0.0490623
0.0490398
0.049026
0.0490238
0.0490331
0.0490448
0.0490458
0.0490385
0.0490267
0.0490133
0.0490001
0.0489882
0.0489783
0.0489707
0.0489659
0.0489639
0.0489646
0.0489676
0.0489715
0.0489741
0.0489742
0.0489709
0.048964
0.0489541
0.0489434
0.0489353
0.0489334
0.0489396
0.0489532
0.0489686
0.0489597
0.0487881
0.0485592
0.0486639
0.048873
0.0490008
0.0490238
0.0490049
0.0489783
0.0489506
0.0489227
0.0488949
0.048868
0.0488435
0.0488232
0.0488089
0.0488023
0.048805
0.0488163
0.0488363
0.0488657
0.0489041
0.0489493
0.0489986
0.0490488
0.0490973
0.0491422
0.0491823
0.049217
0.0492464
0.0492709
0.0492911
0.0493076
0.049321
0.0493316
0.0493397
0.0493453
0.0493485
0.0493468
0.0493261
0.0492613
0.0489163
0.0485375
0.0490877
0.0491213
0.0490831
0.0490322
0.0489808
0.0489373
0.048907
0.0488925
0.048891
0.0488943
0.0488945
0.0488905
0.0488869
0.0488875
0.0488972
0.0489192
0.0489531
0.0489942
0.0490355
0.0490706
0.0490961
0.0491124
0.0491226
0.0491281
0.0491262
0.0491135
0.0490908
0.0490627
0.0490371
0.0490219
0.0490209
0.0490307
0.0490403
0.0490371
0.0490248
0.0490083
0.0489909
0.0489746
0.0489603
0.0489485
0.0489396
0.0489338
0.0489315
0.0489327
0.0489373
0.0489441
0.0489499
0.0489529
0.0489523
0.0489479
0.0489404
0.0489318
0.0489253
0.0489242
0.0489305
0.0489438
0.0489589
0.04895
0.0487853
0.0485718
0.048646
0.0488387
0.0489781
0.0490166
0.0490019
0.0489752
0.048947
0.0489189
0.0488917
0.0488663
0.0488442
0.0488267
0.0488151
0.0488107
0.0488148
0.0488266
0.048848
0.0488797
0.0489203
0.0489673
0.0490174
0.0490677
0.0491155
0.0491591
0.0491975
0.0492304
0.049258
0.0492809
0.0492996
0.049315
0.0493275
0.0493374
0.0493449
0.0493501
0.0493528
0.0493507
0.0493294
0.0492624
0.0489059
0.0485103
0.0490797
0.0491162
0.0490783
0.0490263
0.0489729
0.0489268
0.0488949
0.0488817
0.0488853
0.0488954
0.0488995
0.0488937
0.0488849
0.0488768
0.0488753
0.048887
0.0489152
0.0489574
0.0490056
0.0490508
0.0490863
0.0491101
0.0491248
0.0491329
0.0491326
0.0491199
0.0490952
0.0490638
0.0490347
0.0490179
0.0490179
0.0490278
0.0490343
0.0490265
0.0490089
0.0489878
0.0489668
0.0489477
0.0489311
0.0489173
0.0489068
0.0488998
0.0488966
0.0488976
0.0489029
0.0489132
0.0489223
0.0489284
0.0489308
0.0489294
0.048925
0.0489196
0.0489157
0.0489162
0.0489231
0.0489362
0.048951
0.048942
0.0487851
0.0485857
0.0486319
0.0488044
0.0489498
0.0490051
0.048998
0.0489719
0.0489434
0.0489156
0.0488896
0.0488662
0.0488465
0.0488315
0.0488219
0.0488186
0.0488228
0.048836
0.0488602
0.0488952
0.0489387
0.0489877
0.0490388
0.0490888
0.0491354
0.0491772
0.0492135
0.0492441
0.0492696
0.0492906
0.0493078
0.0493219
0.0493334
0.0493425
0.0493495
0.0493541
0.0493564
0.0493539
0.0493317
0.0492627
0.0488954
0.0484847
0.0490739
0.049114
0.049077
0.049025
0.0489702
0.0489217
0.0488874
0.0488739
0.0488814
0.0488991
0.0489106
0.0489065
0.0488951
0.048881
0.0488685
0.0488659
0.0488814
0.0489183
0.0489697
0.0490239
0.0490704
0.0491038
0.0491247
0.0491366
0.0491386
0.0491267
0.0491005
0.049066
0.0490333
0.0490146
0.0490151
0.0490251
0.0490276
0.0490149
0.0489923
0.0489672
0.0489431
0.0489215
0.0489027
0.0488871
0.0488749
0.0488664
0.048862
0.048862
0.0488664
0.0488796
0.0488917
0.0489012
0.0489073
0.0489096
0.0489092
0.0489076
0.048907
0.0489097
0.0489175
0.0489305
0.0489448
0.0489357
0.0487876
0.0486008
0.0486222
0.0487719
0.0489176
0.0489882
0.048992
0.0489687
0.0489404
0.0489133
0.0488887
0.0488674
0.0488498
0.0488363
0.0488273
0.0488241
0.0488289
0.0488451
0.0488737
0.0489129
0.0489599
0.0490108
0.0490624
0.0491116
0.0491565
0.049196
0.0492296
0.0492577
0.0492808
0.0492998
0.0493153
0.0493281
0.0493386
0.049347
0.0493533
0.0493575
0.0493593
0.0493562
0.049333
0.049262
0.0488848
0.0484608
0.0490704
0.0491147
0.0490794
0.0490282
0.0489731
0.0489229
0.0488857
0.0488694
0.0488768
0.0488995
0.0489198
0.0489218
0.0489111
0.0488958
0.0488772
0.0488614
0.048859
0.0488824
0.0489304
0.0489906
0.049048
0.0490925
0.0491217
0.0491388
0.0491443
0.049134
0.0491073
0.0490699
0.0490334
0.0490124
0.0490132
0.0490228
0.0490212
0.0490036
0.0489768
0.0489484
0.0489218
0.0488981
0.0488775
0.0488602
0.0488465
0.0488366
0.0488309
0.0488297