/*--------------------------------*- C++ -*----------------------------------*\
| =========                 |                                                 |
| \\      /  F ield         | OpenFOAM: The Open Source CFD Toolbox           |
|  \\    /   O peration     | Version:  4.1                                   |
|   \\  /    A nd           | Web:      www.OpenFOAM.org                      |
|    \\/     M anipulation  |                                                 |
\*---------------------------------------------------------------------------*/
FoamFile
{
    version     2.0;
    format      ascii;
    class       surfaceScalarField;
    location    "520";
    object      phi;
}
// * * * * * * * * * * * * * * * * * * * * * * * * * * * * * * * * * * * * * //

dimensions      [0 3 -1 0 0 0 0];

internalField   nonuniform List<scalar> 
9850
(
-5.00392e-06
5.00392e-06
-6.58602e-06
1.5821e-06
-6.6231e-06
3.7082e-08
-6.32925e-06
-2.93854e-07
-6.00629e-06
-3.22955e-07
-5.65313e-06
-3.53164e-07
-5.23732e-06
-4.15811e-07
-4.73614e-06
-5.01178e-07
-4.13375e-06
-6.02393e-07
-3.4171e-06
-7.16647e-07
-2.57564e-06
-8.41458e-07
-1.60457e-06
-9.71067e-07
-5.10232e-07
-1.09434e-06
7.28799e-07
-1.23903e-06
2.13554e-06
-1.40674e-06
3.66476e-06
-1.52922e-06
5.2209e-06
-1.55615e-06
6.71355e-06
-1.49265e-06
8.07875e-06
-1.3652e-06
9.28327e-06
-1.20452e-06
1.03181e-05
-1.03485e-06
1.11899e-05
-8.71821e-07
1.19136e-05
-7.23615e-07
1.25063e-05
-5.92794e-07
1.29845e-05
-4.78167e-07
1.3361e-05
-3.76441e-07
1.36446e-05
-2.836e-07
1.38406e-05
-1.96011e-07
1.3952e-05
-1.11418e-07
1.39824e-05
-3.03815e-08
1.39352e-05
4.71773e-08
1.38159e-05
1.19262e-07
1.36304e-05
1.85533e-07
1.33865e-05
2.43912e-07
1.30941e-05
2.92344e-07
1.27645e-05
3.29641e-07
1.24089e-05
3.55602e-07
1.20379e-05
3.7099e-07
1.16606e-05
3.77267e-07
1.12843e-05
3.7631e-07
1.09141e-05
3.70252e-07
1.05527e-05
3.61358e-07
1.02009e-05
3.51867e-07
9.85703e-06
3.4382e-07
9.51817e-06
3.38864e-07
9.18015e-06
3.3802e-07
8.83873e-06
3.41416e-07
8.4907e-06
3.48034e-07
8.13507e-06
3.5563e-07
7.77403e-06
3.61039e-07
7.41303e-06
3.61005e-07
7.05915e-06
3.53879e-07
6.7157e-06
3.43445e-07
6.36835e-06
3.47353e-07
5.95668e-06
4.11666e-07
5.33424e-06
6.2244e-07
4.27024e-06
1.064e-06
2.69832e-06
1.57192e-06
1.23822e-06
1.4601e-06
-2.19382e-06
3.43204e-06
-6.65071e-06
4.4569e-06
-8.67401e-06
2.02329e-06
-9.67554e-06
1.00154e-06
-1.03825e-05
7.06926e-07
-1.1014e-05
6.31482e-07
-1.16203e-05
6.06374e-07
-1.22101e-05
5.89789e-07
-1.27821e-05
5.71976e-07
-1.3332e-05
5.49948e-07
-1.38539e-05
5.2182e-07
-1.43397e-05
4.85872e-07
-1.47804e-05
4.40681e-07
-1.51657e-05
3.85306e-07
-1.54851e-05
3.19368e-07
-1.57281e-05
2.43015e-07
-1.5885e-05
1.56875e-07
-1.59466e-05
6.1589e-08
-1.59033e-05
-4.3223e-08
-1.57471e-05
-1.56287e-07
-1.54729e-05
-2.74142e-07
-1.50807e-05
-3.92262e-07
-1.45731e-05
-5.07511e-07
-1.39554e-05
-6.17722e-07
-1.32337e-05
-7.21683e-07
-1.24145e-05
-8.19208e-07
-1.15033e-05
-9.11232e-07
-1.05034e-05
-9.99931e-07
-9.41451e-06
-1.08886e-06
-8.23159e-06
-1.18292e-06
-6.94357e-06
-1.28802e-06
-5.53193e-06
-1.41164e-06
-3.96033e-06
-1.5716e-06
-2.13897e-06
-1.82136e-06
1.22375e-07
-2.26134e-06
2.49387e-06
-2.3715e-06
3.80525e-06
-1.31138e-06
4.42548e-06
-6.20231e-07
4.71346e-06
-2.87984e-07
4.13405e-06
5.79412e-07
4.13405e-06
-3.71177e-06
8.7157e-06
-5.13136e-06
3.00168e-06
-5.3297e-06
2.35424e-07
-5.25273e-06
-3.70828e-07
-5.08105e-06
-4.94627e-07
-4.82634e-06
-6.07879e-07
-4.48392e-06
-7.58228e-07
-4.04251e-06
-9.42592e-07
-3.48828e-06
-1.15662e-06
-2.80665e-06
-1.39828e-06
-1.98378e-06
-1.66432e-06
-1.00854e-06
-1.94632e-06
1.29361e-07
-2.23224e-06
1.45174e-06
-2.56141e-06
2.92547e-06
-2.88046e-06
4.4646e-06
-3.06835e-06
5.993e-06
-3.08455e-06
7.44251e-06
-2.94216e-06
8.764e-06
-2.68669e-06
9.93242e-06
-2.37293e-06
1.09437e-05
-2.04615e-06
1.18079e-05
-1.73604e-06
1.25419e-05
-1.45763e-06
1.31639e-05
-1.21479e-06
1.36898e-05
-1.00407e-06
1.41315e-05
-8.18126e-07
1.44963e-05
-6.48388e-07
1.47873e-05
-4.8701e-07
1.50043e-05
-3.28385e-07
1.51442e-05
-1.70336e-07
1.52043e-05
-1.28717e-08
1.51847e-05
1.38814e-07
1.50912e-05
2.79098e-07
1.49321e-05
4.02999e-07
1.47182e-05
5.06237e-07
1.44613e-05
5.8649e-07
1.41733e-05
6.43649e-07
1.38647e-05
6.79584e-07
1.35446e-05
6.97388e-07
1.32201e-05
7.008e-07
1.28964e-05
6.93987e-07
1.25763e-05
6.81429e-07
1.22604e-05
6.67757e-07
1.19467e-05
6.57527e-07
1.16307e-05
6.54851e-07
1.13059e-05
6.62825e-07
1.09645e-05
6.82762e-07
1.05991e-05
7.13458e-07
1.02037e-05
7.51013e-07
9.77505e-06
7.89724e-07
9.31194e-06
8.24115e-07
8.81353e-06
8.52291e-07
8.27476e-06
8.82217e-07
7.6777e-06
9.44412e-07
6.976e-06
1.11337e-06
6.07645e-06
1.52199e-06
4.84981e-06
2.29064e-06
3.22974e-06
3.19199e-06
1.25896e-06
3.43087e-06
-2.27758e-06
6.96858e-06
-6.12272e-06
8.30203e-06
-8.30057e-06
4.20114e-06
-9.53011e-06
2.23108e-06
-1.04141e-05
1.59095e-06
-1.11703e-05
1.38766e-06
-1.18661e-05
1.3022e-06
-1.25227e-05
1.24639e-06
-1.31453e-05
1.19453e-06
-1.37322e-05
1.13681e-06
-1.4278e-05
1.06766e-06
-1.4775e-05
9.82893e-07
-1.52137e-05
8.79412e-07
-1.55837e-05
7.55253e-07
-1.5874e-05
6.09677e-07
-1.60741e-05
4.43084e-07
-1.6174e-05
2.56855e-07
-1.61655e-05
5.30252e-08
-1.60434e-05
-1.65309e-07
-1.5806e-05
-3.93708e-07
-1.54522e-05
-6.2793e-07
-1.49839e-05
-8.60551e-07
-1.44056e-05
-1.08584e-06
-1.37236e-05
-1.29966e-06
-1.29457e-05
-1.49958e-06
-1.20798e-05
-1.6851e-06
-1.11333e-05
-1.8578e-06
-1.01117e-05
-2.0215e-06
-9.01825e-06
-2.18229e-06
-7.85286e-06
-2.34831e-06
-6.61135e-06
-2.52953e-06
-5.28331e-06
-2.73968e-06
-3.85196e-06
-3.00295e-06
-2.32174e-06
-3.35158e-06
-8.36144e-07
-3.74694e-06
7.28338e-07
-3.93598e-06
2.0463e-06
-2.62934e-06
2.64767e-06
-1.2216e-06
2.84828e-06
-4.8859e-07
2.60771e-06
8.19981e-07
6.74176e-06
-2.58154e-06
1.12972e-05
-3.58105e-06
4.00119e-06
-4.03512e-06
6.89494e-07
-4.26741e-06
-1.38535e-07
-4.29486e-06
-4.67177e-07
-4.17434e-06
-7.28399e-07
-3.932e-06
-1.00057e-06
-3.5717e-06
-1.3029e-06
-3.08442e-06
-1.64389e-06
-2.45433e-06
-2.02837e-06
-1.66381e-06
-2.45484e-06
-6.97877e-07
-2.91225e-06
4.55038e-07
-3.38515e-06
1.7948e-06
-3.90117e-06
3.25437e-06
-4.34003e-06
4.74938e-06
-4.56336e-06
6.20011e-06
-4.53528e-06
7.54539e-06
-4.28744e-06
8.74661e-06
-3.88791e-06
9.79054e-06
-3.41687e-06
1.06839e-05
-2.93951e-06
1.14451e-05
-2.49723e-06
1.20967e-05
-2.1092e-06
1.26599e-05
-1.77803e-06
1.31518e-05
-1.49599e-06
1.35838e-05
-1.25013e-06
1.39616e-05
-1.02613e-06
1.42854e-05
-8.10829e-07
1.4551e-05
-5.94037e-07
1.47505e-05
-3.69818e-07
1.48755e-05
-1.37792e-07
1.49193e-05
9.49564e-08
1.48824e-05
3.15993e-07
1.47738e-05
5.11563e-07
1.46056e-05
6.7448e-07
1.43912e-05
8.00863e-07
1.41437e-05
8.91151e-07
1.38743e-05
9.48975e-07
1.35923e-05
9.79417e-07
1.33049e-05
9.8818e-07
1.30174e-05
9.8148e-07
1.27328e-05
9.66088e-07
1.24512e-05
9.4929e-07
1.217e-05
9.38737e-07
1.18829e-05
9.41992e-07
1.15802e-05
9.65536e-07
1.12498e-05
1.01313e-06
1.08792e-05
1.08412e-06
1.04571e-05
1.17305e-06
9.97535e-06
1.2715e-06
9.42789e-06
1.37157e-06
8.80988e-06
1.4703e-06
8.11573e-06
1.57636e-06
7.33773e-06
1.72242e-06
6.46495e-06
1.98615e-06
5.47902e-06
2.50793e-06
4.34296e-06
3.4267e-06
2.98615e-06
4.5488e-06
1.11673e-06
5.30029e-06
-1.6383e-06
9.72362e-06
-4.91911e-06
1.15828e-05
-6.8362e-06
6.11823e-06
-8.06424e-06
3.45912e-06
-9.03719e-06
2.5639e-06
-9.8895e-06
2.23997e-06
-1.06712e-05
2.08392e-06
-1.14032e-05
1.97839e-06
-1.20922e-05
1.8835e-06
-1.27371e-05
1.78169e-06
-1.33323e-05
1.66292e-06
-1.38698e-05
1.52034e-06
-1.43397e-05
1.3493e-06
-1.47315e-05
1.1471e-06
-1.50347e-05
9.12896e-07
-1.52393e-05
6.47605e-07
-1.53362e-05
3.5381e-07
-1.53188e-05
3.5639e-08
-1.51834e-05
-3.00706e-07
-1.49284e-05
-6.48731e-07
-1.45566e-05
-9.99743e-07
-1.40722e-05
-1.34492e-06
-1.34817e-05
-1.67638e-06
-1.27934e-05
-1.98795e-06
-1.20172e-05
-2.27582e-06
-1.11633e-05
-2.53895e-06
-1.02418e-05
-2.77929e-06
-9.26145e-06
-3.00187e-06
-8.22908e-06
-3.21466e-06
-7.14911e-06
-3.42828e-06
-6.02276e-06
-3.65588e-06
-4.84835e-06
-3.91409e-06
-3.62937e-06
-4.22193e-06
-2.3962e-06
-4.58475e-06
-1.1959e-06
-4.94724e-06
-1.23062e-08
-5.11957e-06
1.31574e-06
-3.95738e-06
1.87095e-06
-1.77682e-06
1.93577e-06
-5.53405e-07
1.70052e-06
1.05523e-06
8.44228e-06
-2.01359e-06
1.33108e-05
-2.78851e-06
4.77611e-06
-3.27188e-06
1.17287e-06
-3.59366e-06
1.83246e-07
-3.73158e-06
-3.29261e-07
-3.71316e-06
-7.46816e-07
-3.56293e-06
-1.15079e-06
-3.28465e-06
-1.58119e-06
-2.86606e-06
-2.06248e-06
-2.28651e-06
-2.60792e-06
-1.52467e-06
-3.21668e-06
-5.65733e-07
-3.87119e-06
5.90104e-07
-4.54099e-06
1.91461e-06
-5.22568e-06
3.32361e-06
-5.74903e-06
4.72616e-06
-5.9659e-06
6.04439e-06
-5.85351e-06
7.22401e-06
-5.46706e-06
8.23818e-06
-4.90208e-06
9.08908e-06
-4.26777e-06
9.79826e-06
-3.64869e-06
1.03959e-05
-3.0949e-06
1.09125e-05
-2.62577e-06
1.13735e-05
-2.23905e-06
1.17976e-05
-1.92004e-06
1.21959e-05
-1.64846e-06
1.25728e-05
-1.40305e-06
1.29264e-05
-1.16439e-06
1.32491e-05
-9.1675e-07
1.35286e-05
-6.49366e-07
1.37486e-05
-3.57728e-07
1.38934e-05
-4.99096e-08
1.3943e-05
2.66426e-07
1.39089e-05
5.45681e-07
1.38045e-05
7.78906e-07
1.36463e-05
9.59068e-07
1.34495e-05
1.08789e-06
1.32268e-05
1.17173e-06
1.29881e-05
1.21806e-06
1.27418e-05
1.2345e-06
1.24941e-05
1.22922e-06
1.2249e-05
1.21115e-06
1.2008e-05
1.19031e-06
1.17688e-05
1.1779e-06
1.15247e-05
1.18615e-06
1.12634e-05
1.22682e-06
1.09685e-05
1.30802e-06
1.06222e-05
1.43045e-06
1.02087e-05
1.58648e-06
9.71636e-06
1.76386e-06
9.13674e-06
1.9512e-06
8.46413e-06
2.14291e-06
7.69526e-06
2.34523e-06
6.83084e-06
2.58684e-06
5.88014e-06
2.93684e-06
4.86484e-06
3.52323e-06
3.80355e-06
4.48799e-06
2.64806e-06
5.70429e-06
1.1477e-06
6.80064e-06
-9.15272e-07
1.17866e-05
-3.84406e-06
1.45116e-05
-5.52286e-06
7.79704e-06
-6.69081e-06
4.62707e-06
-7.70119e-06
3.57427e-06
-8.62216e-06
3.16094e-06
-9.47775e-06
2.93951e-06
-1.02792e-05
2.77985e-06
-1.10295e-05
2.63379e-06
-1.17261e-05
2.47828e-06
-1.2363e-05
2.29983e-06
-1.29323e-05
2.0896e-06
-1.34247e-05
1.84178e-06
-1.38309e-05
1.55321e-06
-1.41412e-05
1.2232e-06
-1.43469e-05
8.53349e-07
-1.44407e-05
4.47573e-07
-1.44172e-05
1.22034e-08
-1.42737e-05
-4.44276e-07
-1.40096e-05
-9.12768e-07
-1.36275e-05
-1.38191e-06
-1.31325e-05
-1.83992e-06
-1.25329e-05
-2.27598e-06
-1.18393e-05
-2.68145e-06
-1.10644e-05
-3.0508e-06
-1.02211e-05
-3.38219e-06
-9.32271e-06
-3.6777e-06
-8.38133e-06
-3.94326e-06
-7.40772e-06
-4.18828e-06
-6.41072e-06
-4.42528e-06
-5.3971e-06
-4.6695e-06
-4.373e-06
-4.9382e-06
-3.3486e-06
-5.24633e-06
-2.34139e-06
-5.59196e-06
-1.3672e-06
-5.92143e-06
-4.5729e-07
-6.02949e-06
7.30576e-07
-5.14525e-06
1.34155e-06
-2.38779e-06
1.50279e-06
-7.14648e-07
1.32792e-06
1.2301e-06
9.7702e-06
-1.66738e-06
1.49782e-05
-2.33514e-06
5.44388e-06
-2.80961e-06
1.64733e-06
-3.15718e-06
5.30812e-07
-3.36305e-06
-1.23388e-07
-3.42967e-06
-6.80194e-07
-3.36643e-06
-1.21403e-06
-3.1689e-06
-1.77873e-06
-2.81736e-06
-2.41401e-06
-2.28594e-06
-3.13934e-06
-1.55328e-06
-3.94934e-06
-6.12083e-07
-4.81239e-06
5.20107e-07
-5.67318e-06
1.77998e-06
-6.48555e-06
3.07936e-06
-7.04841e-06
4.32436e-06
-7.2109e-06
5.43987e-06
-6.96902e-06
6.38018e-06
-6.40737e-06
7.13283e-06
-5.65472e-06
7.71881e-06
-4.85376e-06
8.17758e-06
-4.10745e-06
8.55322e-06
-3.47054e-06
8.88475e-06
-2.9573e-06
9.20179e-06
-2.55609e-06
9.52403e-06
-2.24228e-06
9.86218e-06
-1.98661e-06
1.02193e-05
-1.76019e-06
1.05921e-05
-1.53719e-06
1.09713e-05
-1.29593e-06
1.13419e-05
-1.01992e-06
1.16834e-05
-6.99283e-07
1.19655e-05
-3.31997e-07
1.21603e-05
7.16512e-08
1.22478e-05
4.58121e-07
1.22471e-05
7.79687e-07
1.21803e-05
1.02583e-06
1.20661e-05
1.20205e-06
1.19184e-05
1.31945e-06
1.17481e-05
1.38836e-06
1.15646e-05
1.41801e-06
1.13759e-05
1.41794e-06
1.11885e-05
1.39854e-06
1.10069e-05
1.3719e-06
1.0832e-05
1.35279e-06
1.06586e-05
1.35955e-06
1.04728e-05
1.41265e-06
1.02525e-05
1.52825e-06
9.97371e-06
1.70929e-06
9.61619e-06
1.944e-06
9.16603e-06
2.21402e-06
8.61442e-06
2.50281e-06
7.95671e-06
2.80062e-06
7.19265e-06
3.10929e-06
6.32863e-06
3.45085e-06
5.38343e-06
3.88204e-06
4.39601e-06
4.51064e-06
3.41756e-06
5.46644e-06
2.43868e-06
6.68317e-06
1.24327e-06
7.99606e-06
-3.51782e-07
1.33816e-05
-2.96298e-06
1.71228e-05
-4.4587e-06
9.29275e-06
-5.56329e-06
5.73166e-06
-6.57699e-06
4.58798e-06
-7.52963e-06
4.11358e-06
-8.42612e-06
3.836e-06
-9.26816e-06
3.62189e-06
-1.00546e-05
3.42018e-06
-1.07815e-05
3.20524e-06
-1.14433e-05
2.96162e-06
-1.20327e-05
2.67903e-06
-1.25417e-05
2.35071e-06
-1.29614e-05
1.97291e-06
-1.3283e-05
1.5448e-06
-1.3498e-05
1.0684e-06
-1.35991e-05
5.48656e-07
-1.35805e-05
-6.36786e-09
-1.34385e-05
-5.8628e-07
-1.31719e-05
-1.17943e-06
-1.2783e-05
-1.77076e-06
-1.22786e-05
-2.3444e-06
-1.16688e-05
-2.88576e-06
-1.09671e-05
-3.38317e-06
-1.01888e-05
-3.8291e-06
-9.35017e-06
-4.22077e-06
-8.46753e-06
-4.56034e-06
-7.55626e-06
-4.85452e-06
-6.63051e-06
-5.11402e-06
-5.70295e-06
-5.35283e-06
-4.78502e-06
-5.58744e-06
-3.8879e-06
-5.83531e-06
-3.0236e-06
-6.11063e-06
-2.20268e-06
-6.41287e-06
-1.42869e-06
-6.69542e-06
-6.86529e-07
-6.77165e-06
2.59699e-07
-6.09148e-06
9.56031e-07
-3.08412e-06
1.19459e-06
-9.53204e-07
1.07393e-06
1.35076e-06
1.08441e-05
-1.42222e-06
1.64004e-05
-2.03966e-06
6.06132e-06
-2.51902e-06
2.1267e-06
-2.8976e-06
9.09386e-07
-3.16413e-06
1.43149e-07
-3.31166e-06
-5.32672e-07
-3.33335e-06
-1.19234e-06
-3.21461e-06
-1.89746e-06
-2.92772e-06
-2.7009e-06
-2.44449e-06
-3.62257e-06
-1.74974e-06
-4.64409e-06
-8.5151e-07
-5.71063e-06
2.13028e-07
-6.73772e-06
1.3498e-06
-7.62232e-06
2.47377e-06
-8.17239e-06
3.49178e-06
-8.22891e-06
4.33412e-06
-7.81136e-06
4.96598e-06
-7.03923e-06
5.39242e-06
-6.08116e-06
5.65627e-06
-5.11761e-06
5.81677e-06
-4.26795e-06
5.93205e-06
-3.58582e-06
6.04877e-06
-3.07402e-06
6.19839e-06
-2.70571e-06
6.39917e-06
-2.44306e-06
6.65911e-06
-2.24655e-06
6.97857e-06
-2.07965e-06
7.35256e-06
-1.91119e-06
7.77151e-06
-1.71487e-06
8.22082e-06
-1.46923e-06
8.68021e-06
-1.15868e-06
9.12375e-06
-7.75529e-07
9.50666e-06
-3.11263e-07
9.76745e-06
1.97333e-07
9.91284e-06
6.34297e-07
9.97545e-06
9.63221e-07
9.97878e-06
1.19872e-06
9.93688e-06
1.36135e-06
9.86098e-06
1.46425e-06
9.76151e-06
1.51748e-06
9.64877e-06
1.53067e-06
9.53335e-06
1.51397e-06
9.4259e-06
1.47935e-06
9.33514e-06
1.44355e-06
9.26212e-06
1.43258e-06
9.19172e-06
1.48304e-06
9.09313e-06
1.62685e-06
8.93298e-06
1.86944e-06
8.68596e-06
2.19102e-06
8.33561e-06
2.56438e-06
7.87288e-06
2.96554e-06
7.29488e-06
3.37861e-06
6.60462e-06
3.79956e-06
5.81254e-06
4.24293e-06
4.94176e-06
4.75282e-06
4.03669e-06
5.41572e-06
3.16057e-06
6.34255e-06
2.32676e-06
7.51699e-06
1.35687e-06
8.96594e-06
5.92295e-08
1.46793e-05
-2.24773e-06
1.94298e-05
-3.59877e-06
1.06438e-05
-4.64452e-06
6.77741e-06
-5.64077e-06
5.58423e-06
-6.59593e-06
5.06874e-06
-7.50462e-06
4.74469e-06
-8.36272e-06
4.47999e-06
-9.16642e-06
4.22388e-06
-9.91127e-06
3.9501e-06
-1.05918e-05
3.64211e-06
-1.12011e-05
3.28836e-06
-1.17312e-05
2.8808e-06
-1.21729e-05
2.41462e-06
-1.25164e-05
1.88833e-06
-1.2752e-05
1.304e-06
-1.28707e-05
6.673e-07
-1.28652e-05
-1.18557e-08
-1.27298e-05
-7.21661e-07
-1.24628e-05
-1.44642e-06
-1.20673e-05
-2.16622e-06
-1.15517e-05
-2.86001e-06
-1.09288e-05
-3.50864e-06
-1.0215e-05
-4.09698e-06
-9.42875e-06
-4.61537e-06
-8.58933e-06
-5.0602e-06
-7.71583e-06
-5.43384e-06
-6.82633e-06
-5.74403e-06
-5.93754e-06
-6.00282e-06
-5.06478e-06
-6.22559e-06
-4.22239e-06
-6.42983e-06
-3.42423e-06
-6.63347e-06
-2.68322e-06
-6.85163e-06
-2.0078e-06
-7.0883e-06
-1.39268e-06
-7.31054e-06
-7.96078e-07
-7.36825e-06
-9.68712e-08
-6.79068e-06
6.84544e-07
-3.86553e-06
9.59761e-07
-1.22842e-06
8.84982e-07
1.42554e-06
1.17291e-05
-1.25123e-06
1.76516e-05
-1.84681e-06
6.65691e-06
-2.34829e-06
2.62818e-06
-2.77393e-06
1.33502e-06
-3.10876e-06
4.77984e-07
-3.34214e-06
-2.99297e-07
-3.44974e-06
-1.08473e-06
-3.40828e-06
-1.93892e-06
-3.18534e-06
-2.92384e-06
-2.7561e-06
-4.05181e-06
-2.11761e-06
-5.28257e-06
-1.29758e-06
-6.53066e-06
-3.58212e-07
-7.67709e-06
5.99956e-07
-8.58049e-06
1.48812e-06
-9.06055e-06
2.21902e-06
-8.95981e-06
2.73412e-06
-8.32647e-06
3.01325e-06
-7.31836e-06
3.08327e-06
-6.15118e-06
3.01084e-06
-5.04518e-06
2.87391e-06
-4.13102e-06
2.7434e-06
-3.45532e-06
2.6691e-06
-2.99972e-06
2.67786e-06
-2.71447e-06
2.7811e-06
-2.5463e-06
2.97775e-06
-2.44319e-06
3.26076e-06
-2.36266e-06
3.62126e-06
-2.27169e-06
4.04964e-06
-2.14325e-06
4.53475e-06
-1.95434e-06
5.0623e-06
-1.68624e-06
5.61198e-06
-1.3252e-06
6.15816e-06
-8.57446e-07
6.62689e-06
-2.71402e-07
6.94658e-06
3.14614e-07
7.1635e-06
7.46297e-07
7.3057e-06
1.05653e-06
7.38642e-06
1.28062e-06
7.4158e-06
1.43488e-06
7.40426e-06
1.52902e-06
7.36391e-06
1.57102e-06
7.31032e-06
1.56756e-06
7.26546e-06
1.52421e-06
7.25831e-06
1.4507e-06
7.31179e-06
1.37909e-06
7.40738e-06
1.38745e-06
7.48862e-06
1.54561e-06
7.50515e-06
1.85291e-06
7.42737e-06
2.2688e-06
7.23611e-06
2.75563e-06
6.92176e-06
3.2799e-06
6.4827e-06
3.81767e-06
5.92437e-06
4.35789e-06
5.26005e-06
4.90726e-06
4.51472e-06
5.49814e-06
3.73236e-06
6.19807e-06
2.97569e-06
7.09923e-06
2.26777e-06
8.2249e-06
1.47169e-06
9.76202e-06
3.89751e-07
1.57612e-05
-1.66896e-06
2.14885e-05
-2.9003e-06
1.18751e-05
-3.88795e-06
7.76506e-06
-4.85343e-06
6.54971e-06
-5.79281e-06
6.00812e-06
-6.69607e-06
5.64795e-06
-7.55636e-06
5.34028e-06
-8.36861e-06
5.03613e-06
-9.12788e-06
4.70936e-06
-9.82824e-06
4.34247e-06
-1.04622e-05
3.92229e-06
-1.10203e-05
3.43898e-06
-1.14918e-05
2.88608e-06
-1.18646e-05
2.26111e-06
-1.21265e-05
1.56595e-06
-1.22664e-05
8.0717e-07
-1.22747e-05
-3.54716e-09
-1.2145e-05
-8.51376e-07
-1.18752e-05
-1.71622e-06
-1.14698e-05
-2.57162e-06
-1.09394e-05
-3.39036e-06
-1.03e-05
-4.14813e-06
-9.57083e-06
-4.82611e-06
-8.77361e-06
-5.41259e-06
-7.93034e-06
-5.90347e-06
-7.06239e-06
-6.30179e-06
-6.18976e-06
-6.61666e-06
-5.33074e-06
-6.86184e-06
-4.50205e-06
-7.05428e-06
-3.71923e-06
-7.21266e-06
-2.99698e-06
-7.35572e-06
-2.34866e-06
-7.49995e-06
-1.78271e-06
-7.65425e-06
-1.29152e-06
-7.80172e-06
-8.27262e-07
-7.83251e-06
-3.08971e-07
-7.30898e-06
4.81273e-07
-4.65578e-06
7.81965e-07
-1.52911e-06
7.5054e-07
1.45696e-06
1.24796e-05
-1.13565e-06
1.87873e-05
-1.73098e-06
7.25224e-06
-2.27158e-06
3.16878e-06
-2.76023e-06
1.82367e-06
-3.17689e-06
8.94649e-07
-3.50194e-06
2.57489e-08
-3.6982e-06
-8.8847e-07
-3.73365e-06
-1.90347e-06
-3.57819e-06
-3.0793e-06
-3.21659e-06
-4.41341e-06
-2.66196e-06
-5.83721e-06
-1.96047e-06
-7.23214e-06
-1.19096e-06
-8.4466e-06
-4.59979e-07
-9.31148e-06
1.39588e-07
-9.66011e-06
5.57394e-07
-9.37762e-06
7.34584e-07
-8.50366e-06
6.73899e-07
-7.25768e-06
4.29599e-07
-5.90688e-06
8.99007e-08
-4.70548e-06
-2.50017e-07
-3.79111e-06
-5.24925e-07
-3.18041e-06
-6.9185e-07
-2.83279e-06
-7.36499e-07
-2.66982e-06
-6.67719e-07
-2.61508e-06
-4.98966e-07
-2.61195e-06
-2.44663e-07
-2.61696e-06
8.18197e-08
-2.59817e-06
4.71055e-07
-2.53249e-06
9.18913e-07
-2.4022e-06
1.42278e-06
-2.1901e-06
1.97481e-06
-1.87723e-06
2.5602e-06
-1.44283e-06
3.15234e-06
-8.63546e-07
3.65766e-06
-1.90704e-07
4.02146e-06
3.82497e-07
4.29197e-06
7.86016e-07
4.47936e-06
1.09323e-06
4.59023e-06
1.32401e-06
4.63122e-06
1.48803e-06
4.61066e-06
1.59159e-06
4.54115e-06
1.63706e-06
4.4532e-06
1.61216e-06
4.424e-06
1.47991e-06
4.58635e-06
1.21674e-06
4.93782e-06
1.03598e-06
5.33248e-06
1.15095e-06
5.65519e-06
1.5302e-06
5.85346e-06
2.07053e-06
5.90506e-06
2.70404e-06
5.80537e-06
3.37958e-06
5.55921e-06
4.06383e-06
5.17781e-06
4.73929e-06
4.67904e-06
5.40602e-06
4.09025e-06
6.08694e-06
3.45368e-06
6.83465e-06
2.82665e-06
7.72626e-06
2.23378e-06
8.81776e-06
1.56227e-06
1.04335e-05
5.97286e-07
1.67262e-05
-1.22939e-06
2.33152e-05
-2.3355e-06
1.29812e-05
-3.25942e-06
8.68898e-06
-4.18439e-06
7.47467e-06
-5.09724e-06
6.92097e-06
-5.98568e-06
6.5364e-06
-6.84159e-06
6.19618e-06
-7.65906e-06
5.8536e-06
-8.43226e-06
5.48257e-06
-9.15401e-06
5.06422e-06
-9.81499e-06
4.58327e-06
-1.04036e-05
4.0276e-06
-1.09064e-05
3.38884e-06
-1.13086e-05
2.66333e-06
-1.15955e-05
1.85289e-06
-1.17537e-05
9.65293e-07
-1.17716e-05
1.44376e-08
-1.16427e-05
-9.80341e-07
-1.13652e-05
-1.99365e-06
-1.09457e-05
-2.99119e-06
-1.03973e-05
-3.93874e-06
-9.73911e-06
-4.80632e-06
-8.9938e-06
-5.57142e-06
-8.18573e-06
-6.22066e-06
-7.3392e-06
-6.74999e-06
-6.47726e-06
-7.16373e-06
-5.621e-06
-7.47292e-06
-4.78937e-06
-7.69346e-06
-3.99939e-06
-7.84426e-06
-3.26651e-06
-7.94554e-06
-2.60499e-06
-8.01724e-06
-2.02771e-06
-8.07724e-06
-1.54356e-06
-8.1384e-06
-1.14794e-06
-8.19734e-06
-7.98959e-07
-8.18149e-06
-3.9992e-07
-7.70802e-06
3.16022e-07
-5.37172e-06
6.42541e-07
-1.85563e-06
6.50878e-07
1.44863e-06
1.31305e-05
-1.0586e-06
1.98459e-05
-1.67324e-06
7.86688e-06
-2.27072e-06
3.76625e-06
-2.83774e-06
2.39069e-06
-3.34761e-06
1.40452e-06
-3.76923e-06
4.47374e-07
-4.0581e-06
-5.99604e-07
-4.17233e-06
-1.78924e-06
-4.09347e-06
-3.15817e-06
-3.82021e-06
-4.68667e-06
-3.38167e-06
-6.27574e-06
-2.83728e-06
-7.77653e-06
-2.27157e-06
-9.01232e-06
-1.78355e-06
-9.79949e-06
-1.46322e-06
-9.98045e-06
-1.35866e-06
-9.48217e-06
-1.47366e-06
-8.38866e-06
-1.78189e-06
-6.94944e-06
-2.20495e-06
-5.48383e-06
-2.64833e-06
-4.26209e-06
-3.02833e-06
-3.41111e-06
-3.29121e-06
-2.91753e-06
-3.4267e-06
-2.6973e-06
-3.44801e-06
-2.64852e-06
-3.37584e-06
-2.68725e-06
-3.23173e-06
-2.75605e-06
-3.03133e-06
-2.81736e-06
-2.78321e-06
-2.84629e-06
-2.49067e-06
-2.82504e-06
-2.15416e-06
-2.7387e-06
-1.77173e-06
-2.57254e-06
-1.33649e-06
-2.31247e-06
-8.31463e-07
-1.94786e-06
-2.38477e-07
-1.45653e-06
3.59158e-07
-7.88338e-07
8.48841e-07
-1.07186e-07
1.18781e-06
4.4705e-07
1.40783e-06
8.7321e-07
1.50561e-06
1.22623e-06
1.47851e-06
1.51513e-06
1.33277e-06
1.73733e-06
1.09824e-06
1.87159e-06
8.51798e-07
1.8586e-06
7.49961e-07
1.58174e-06
1.06295e-06
9.03749e-07
1.82208e-06
2.76854e-07
2.75887e-06
2.14158e-07
3.59837e-06
6.90692e-07
4.18134e-06
1.48756e-06
4.53433e-06
2.35104e-06
4.68007e-06
3.23385e-06
4.64264e-06
4.10126e-06
4.44683e-06
4.9351e-06
4.11915e-06
5.73371e-06
3.69076e-06
6.51533e-06
3.20228e-06
7.32313e-06
2.70405e-06
8.22449e-06
2.21692e-06
9.3049e-06
1.64082e-06
1.10096e-05
7.49081e-07
1.76179e-05
-8.86975e-07
2.49512e-05
-1.87228e-06
1.39666e-05
-2.72968e-06
9.54638e-06
-3.60818e-06
8.35318e-06
-4.48835e-06
7.80114e-06
-5.35668e-06
7.40473e-06
-6.20413e-06
7.04363e-06
-7.02378e-06
6.67325e-06
-7.80829e-06
6.26708e-06
-8.54849e-06
5.80441e-06
-9.23274e-06
5.26752e-06
-9.847e-06
4.64187e-06
-1.03753e-05
3.91718e-06
-1.08008e-05
3.08874e-06
-1.11063e-05
2.1584e-06
-1.12763e-05
1.13535e-06
-1.12982e-05
3.63263e-08
-1.11647e-05
-1.1138e-06
-1.08755e-05
-2.28292e-06
-1.04389e-05
-3.42781e-06
-9.87123e-06
-4.50637e-06
-9.19487e-06
-5.48267e-06
-8.43555e-06
-6.33075e-06
-7.62005e-06
-7.03616e-06
-6.77439e-06
-7.59565e-06
-5.92258e-06
-8.01554e-06
-5.08606e-06
-8.30943e-06
-4.28367e-06
-8.49585e-06
-3.53186e-06
-8.59607e-06
-2.84515e-06
-8.63225e-06
-2.23653e-06
-8.62586e-06
-1.71751e-06
-8.59625e-06
-1.29676e-06
-8.55915e-06
-9.73653e-07
-8.52045e-06
-7.15645e-07
-8.43949e-06
-4.14979e-07
-8.00868e-06
1.85956e-07
-5.97266e-06
5.33766e-07
-2.20344e-06
5.73153e-07
1.40924e-06
1.37037e-05
-1.00888e-06
2.08548e-05
-1.66004e-06
8.51803e-06
-2.33026e-06
4.43648e-06
-2.98831e-06
3.04874e-06
-3.59964e-06
2.01585e-06
-4.12142e-06
9.69157e-07
-4.50592e-06
-2.15107e-07
-4.70389e-06
-1.59127e-06
-4.71518e-06
-3.14687e-06
-4.55368e-06
-4.84818e-06
-4.26053e-06
-6.5689e-06
-3.90083e-06
-8.13623e-06
-3.55581e-06
-9.35734e-06
-3.31004e-06
-1.00453e-05
-3.23048e-06
-1.006e-05
-3.3423e-06
-9.37035e-06
-3.62173e-06
-8.10923e-06
-4.00888e-06
-6.5623e-06
-4.42512e-06
-5.06758e-06
-4.80109e-06
-3.88613e-06
-5.08989e-06
-3.1223e-06
-5.26994e-06
-2.73748e-06
-5.34561e-06
-2.62163e-06
-5.33467e-06
-2.65946e-06
-5.25792e-06
-2.764e-06
-5.13378e-06
-2.88019e-06
-4.97566e-06
-2.97548e-06
-4.79197e-06
-3.02998e-06
-4.58724e-06
-3.02976e-06
-4.36276e-06
-2.96319e-06
-4.11605e-06
-2.81924e-06
-3.84133e-06
-2.58719e-06
-3.53405e-06
-2.25513e-06
-3.18242e-06
-1.80816e-06
-2.72629e-06
-1.24447e-06
-2.23454e-06
-5.98936e-07
-1.82029e-06
3.28014e-08
-1.53344e-06
5.86367e-07
-1.3668e-06
1.05959e-06
-1.30649e-06
1.45481e-06
-1.32362e-06
1.75446e-06
-1.36342e-06
1.91138e-06
-1.33837e-06
1.83355e-06
-1.13424e-06
1.37761e-06
-6.65065e-07
4.34578e-07
5.45867e-08
-4.42798e-07
9.76072e-07
-7.07327e-07
1.98966e-06
-3.22894e-07
2.84379e-06
6.3343e-07
3.41541e-06
1.77942e-06
3.74663e-06
2.90264e-06
3.87275e-06
3.97514e-06
3.82748e-06
4.98036e-06
3.64343e-06
5.91776e-06
3.35399e-06
6.80476e-06
2.9972e-06
7.67992e-06
2.61539e-06
8.60629e-06
2.22189e-06
9.6984e-06
1.71953e-06
1.1512e-05
8.71366e-07
1.84661e-05
-6.04294e-07
2.64269e-05
-1.47853e-06
1.48408e-05
-2.27155e-06
1.03394e-05
-3.10136e-06
9.18299e-06
-3.94505e-06
8.64483e-06
-4.78881e-06
8.24848e-06
-5.62277e-06
7.87759e-06
-6.43858e-06
7.48907e-06
-7.227e-06
7.05549e-06
-7.9767e-06
6.55411e-06
-8.674e-06
5.96482e-06
-9.30305e-06
5.27092e-06
-9.84634e-06
4.46047e-06
-1.02853e-05
3.52775e-06
-1.06014e-05
2.47446e-06
-1.07771e-05
1.31106e-06
-1.07978e-05
5.69675e-08
-1.06562e-05
-1.2554e-06
-1.03528e-05
-2.58631e-06
-9.89855e-06
-3.88205e-06
-9.31305e-06
-5.09187e-06
-8.62188e-06
-6.17384e-06
-7.85357e-06
-7.09906e-06
-7.0369e-06
-7.85283e-06
-6.19894e-06
-8.43361e-06
-5.36405e-06
-8.85043e-06
-4.55337e-06
-9.12011e-06
-3.78498e-06
-9.26424e-06
-3.07421e-06
-9.30684e-06
-2.43416e-06
-9.27231e-06
-1.87608e-06
-9.18394e-06
-1.40969e-06
-9.06264e-06
-1.04258e-06
-8.92626e-06
-7.76647e-07
-8.78639e-06
-5.89895e-07
-8.62625e-06
-3.81115e-07
-8.21746e-06
8.95872e-08
-6.44336e-06
4.51525e-07
-2.56538e-06
5.10961e-07
1.3498e-06
1.42146e-05
-9.79792e-07
2.18346e-05
-1.68168e-06
9.21992e-06
-2.43599e-06
5.19079e-06
-3.19282e-06
3.80557e-06
-3.90991e-06
2.73294e-06
-4.53608e-06
1.59533e-06
-5.01251e-06
2.61319e-07
-5.30421e-06
-1.29957e-06
-5.42093e-06
-3.03015e-06
-5.39116e-06
-4.87795e-06
-5.26169e-06
-6.69837e-06
-5.09467e-06
-8.30324e-06
-4.95857e-06
-9.49345e-06
-4.91487e-06
-1.0089e-05
-4.99998e-06
-9.9749e-06
-5.20946e-06
-9.16087e-06
-5.49919e-06
-7.8195e-06
-5.80653e-06
-6.25496e-06
-6.077e-06
-4.79711e-06
-6.27996e-06
-3.68317e-06
-6.40474e-06
-2.99751e-06
-6.45153e-06
-2.69069e-06
-6.42754e-06
-2.64563e-06
-6.34475e-06
-2.74225e-06
-6.2179e-06
-2.89085e-06
-6.06247e-06
-3.03562e-06
-5.89297e-06
-3.14499e-06
-5.72147e-06
-3.20148e-06
-5.55616e-06
-3.19506e-06
-5.40003e-06
-3.11933e-06
-5.25009e-06
-2.96919e-06
-5.0981e-06
-2.73918e-06
-4.93076e-06
-2.42247e-06
-4.72406e-06
-2.01487e-06
-4.4439e-06
-1.52463e-06
-4.07074e-06
-9.72092e-07
-3.66955e-06
-3.68388e-07
-3.28215e-06
1.9896e-07
-2.94539e-06
7.22834e-07
-2.65619e-06
1.16561e-06
-2.38909e-06
1.48737e-06
-2.10154e-06
1.62383e-06
-1.732e-06
1.46401e-06
-1.24576e-06
8.91368e-07
-7.90473e-07
-2.07059e-08
-3.16474e-07
-9.16797e-07
2.69529e-07
-1.29333e-06
1.04953e-06
-1.10289e-06
1.92942e-06
-2.46467e-07
2.62059e-06
1.08825e-06
3.07524e-06
2.44799e-06
3.31409e-06
3.73628e-06
3.37479e-06
4.91966e-06
3.29514e-06
5.99741e-06
3.11108e-06
6.98882e-06
2.85858e-06
7.93242e-06
2.57228e-06
8.8926e-06
2.25589e-06
1.00148e-05
1.80823e-06
1.19597e-05
9.87596e-07
1.92867e-05
-3.50886e-07
2.77654e-05
-1.1305e-06
1.56204e-05
-1.86314e-06
1.1072e-05
-2.64313e-06
9.96298e-06
-3.44658e-06
9.44828e-06
-4.26001e-06
9.06191e-06
-5.07274e-06
8.69032e-06
-5.87477e-06
8.2911e-06
-6.65495e-06
7.83567e-06
-7.40034e-06
7.2995e-06
-8.09609e-06
6.66058e-06
-8.72573e-06
5.90055e-06
-9.2713e-06
5.00603e-06
-9.71356e-06
3.97001e-06
-1.00325e-05
2.79341e-06
-1.02087e-05
1.48725e-06
-1.02243e-05
7.25703e-08
-1.00727e-05
-1.40702e-06
-9.75498e-06
-2.90401e-06
-9.28494e-06
-4.35208e-06
-8.68555e-06
-5.69126e-06
-7.98554e-06
-6.87385e-06
-7.21579e-06
-7.86881e-06
-6.40643e-06
-8.66219e-06
-5.58498e-06
-9.25506e-06
-4.77552e-06
-9.65989e-06
-3.9984e-06
-9.89723e-06
-3.27051e-06
-9.99214e-06
-2.60571e-06
-9.97163e-06
-2.01543e-06
-9.86259e-06
-1.50909e-06
-9.69028e-06
-1.09447e-06
-9.47726e-06
-7.77576e-07
-9.24315e-06
-5.61209e-07
-9.00275e-06
-4.32615e-07
-8.75484e-06
-3.08395e-07
-8.34168e-06
3.41119e-08
-6.78586e-06
3.93463e-07
-2.92473e-06
4.6081e-07
1.28246e-06
1.46754e-05
-9.66686e-07
2.28012e-05
-1.72982e-06
9.98305e-06
-2.57354e-06
6.03451e-06
-3.43049e-06
4.66253e-06
-4.25085e-06
3.5533e-06
-4.97589e-06
2.32037e-06
-5.55003e-06
8.35458e-07
-5.94617e-06
-9.03434e-07
-6.18085e-06
-2.79546e-06
-6.29409e-06
-4.76472e-06
-6.33176e-06
-6.66069e-06
-6.3455e-06
-8.2895e-06
-6.38419e-06
-9.45476e-06
-6.48226e-06
-9.99089e-06
-6.64688e-06
-9.81028e-06
-6.85166e-06
-8.95609e-06
-7.04631e-06
-7.62484e-06
-7.18061e-06
-6.12067e-06
-7.22771e-06
-4.75002e-06
-7.19029e-06
-3.72059e-06
-7.08678e-06
-3.10102e-06
-6.93377e-06
-2.8437e-06
-6.74007e-06
-2.83933e-06
-6.51158e-06
-2.97073e-06
-6.25714e-06
-3.14529e-06
-5.9901e-06
-3.30267e-06
-5.72646e-06
-3.40862e-06
-5.4818e-06
-3.44614e-06
-5.2681e-06
-3.40877e-06
-5.09116e-06
-3.29626e-06
-4.94924e-06
-3.11111e-06
-4.83277e-06
-2.85565e-06
-4.72442e-06
-2.53081e-06
-4.59811e-06
-2.14118e-06
-4.42213e-06
-1.70061e-06
-4.17205e-06
-1.22217e-06
-3.82343e-06
-7.17008e-07
-3.4265e-06
-1.97967e-07
-2.97099e-06
2.67325e-07
-2.49886e-06
6.93482e-07
-2.00527e-06
9.93773e-07
-1.48259e-06
1.10115e-06
-9.04187e-07
8.85608e-07
-3.63555e-07
3.50736e-07
-3.23857e-08
-3.51875e-07
1.10341e-07
-1.05952e-06
3.19813e-07
-1.5028e-06
7.39699e-07
-1.52278e-06
1.42156e-06
-9.28331e-07
2.13572e-06
3.741e-07
2.66172e-06
1.92199e-06
2.9755e-06
3.42251e-06
3.10564e-06
4.78951e-06
3.09345e-06
6.0096e-06
2.97939e-06
7.10289e-06
2.79985e-06
8.11196e-06
2.58361e-06
9.10883e-06
2.32475e-06
1.02737e-05
1.91447e-06
1.23699e-05
1.11485e-06
2.00864e-05
-9.45849e-08
2.89748e-05
-8.16706e-07
1.63425e-05
-1.48924e-06
1.17446e-05
-2.21651e-06
1.06902e-05
-2.97422e-06
1.0206e-05
-3.74931e-06
9.837e-06
-4.53013e-06
9.47114e-06
-5.3051e-06
9.06606e-06
-6.0616e-06
8.59217e-06
-6.78595e-06
8.02385e-06
-7.46342e-06
7.33804e-06
-8.07815e-06
6.51529e-06
-8.61283e-06
5.54071e-06
-9.04814e-06
4.40532e-06
-9.3628e-06
3.10806e-06
-9.5352e-06
1.65966e-06
-9.54275e-06
8.01172e-08