/*--------------------------------*- C++ -*----------------------------------*\
| =========                 |                                                 |
| \\      /  F ield         | OpenFOAM: The Open Source CFD Toolbox           |
|  \\    /   O peration     | Version:  4.1                                   |
|   \\  /    A nd           | Web:      www.OpenFOAM.org                      |
|    \\/     M anipulation  |                                                 |
\*---------------------------------------------------------------------------*/
FoamFile
{
    version     2.0;
    format      ascii;
    class       volScalarField;
    location    "520";
    object      T;
}
// * * * * * * * * * * * * * * * * * * * * * * * * * * * * * * * * * * * * * //

dimensions      [0 0 0 1 0 0 0];

internalField   nonuniform List<scalar> 
5000
(
284.877
284.512
284.234
283.953
283.755
283.576
283.401
283.235
283.081
282.942
282.817
282.707
282.611
282.527
282.443
282.369
282.318
282.29
282.281
282.288
282.307
282.337
282.374
282.418
282.468
282.524
282.586
282.654
282.729
282.811
282.894
282.977
283.058
283.139
283.22
283.301
283.382
283.463
283.545
283.627
283.71
283.794
283.879
283.965
284.053
284.142
284.232
284.324
284.417
284.513
284.611
284.712
284.818
284.928
285.046
285.175
285.321
285.496
285.695
285.943
286.156
285.91
285.705
285.52
285.342
285.167
284.996
284.827
284.661
284.497
284.335
284.176
284.02
283.866
283.714
283.564
283.416
283.269
283.127
283
282.886
282.785
282.693
282.609
282.533
282.461
282.394
282.33
282.267
282.204
282.141
282.075
282.001
281.916
281.994
282.284
282.606
282.89
283.259
283.67
283.793
282.214
281.363
281.207
281.19
281.183
281.179
281.178
281.178
281.18
281.183
281.188
281.195
281.203
281.214
281.226
281.237
281.247
281.255
281.262
281.267
281.27
281.272
281.273
281.272
281.272
281.27
281.268
281.265
281.262
281.265
281.276
281.294
281.319
281.349
281.383
281.418
281.455
281.491
281.525
281.558
281.588
281.617
281.645
281.672
281.701
281.733
281.77
281.813
281.865
281.927
282
282.092
282.215
282.395
282.674
283.071
283.477
283.56
284.515
284.881
283.675
282.978
282.65
282.451
282.287
282.134
281.989
281.853
281.727
281.613
281.511
281.423
281.349
281.289
281.245
281.217
281.205
281.203
281.202
281.2
281.198
281.196
281.194
281.191
281.188
281.185
281.182
281.178
281.175
281.171
281.168
281.164
281.162
281.162
281.176
281.182
281.184
281.407
282.788
283.363
281.747
281.215
281.156
281.15
281.151
281.154
281.16
281.167
281.177
281.188
281.201
281.215
281.232
281.25
281.269
281.286
281.302
281.315
281.326
281.334
281.34
281.344
281.346
281.346
281.345
281.343
281.339
281.335
281.329
281.322
281.315
281.308
281.303
281.299
281.296
281.296
281.297
281.299
281.302
281.306
281.31
281.315
281.319
281.324
281.33
281.338
281.349
281.363
281.383
281.41
281.447
281.499
281.575
281.696
281.898
282.213
282.567
282.706
283.805
284.246
282.8
282.093
281.815
281.669
281.565
281.48
281.409
281.351
281.305
281.27
281.245
281.228
281.218
281.214
281.212
281.212
281.213
281.213
281.212
281.211
281.208
281.206
281.202
281.199
281.194
281.19
281.185
281.18
281.175
281.17
281.164
281.159
281.156
281.156
281.172
281.181
281.177
281.213
282.469
283.123
281.575
281.188
281.149
281.146
281.15
281.157
281.167
281.179
281.195
281.212
281.23
281.25
281.272
281.296
281.319
281.342
281.364
281.383
281.398
281.411
281.42
281.427
281.431
281.433
281.433
281.432
281.429
281.425
281.418
281.41
281.4
281.389
281.378
281.367
281.356
281.347
281.338
281.33
281.323
281.317
281.312
281.308
281.304
281.301
281.299
281.298
281.297
281.299
281.303
281.311
281.324
281.348
281.387
281.458
281.585
281.802
282.072
282.241
283.322
283.887
282.37
281.728
281.512
281.413
281.352
281.309
281.278
281.257
281.244
281.237
281.234
281.233
281.234
281.235
281.236
281.237
281.236
281.234
281.232
281.228
281.224
281.219
281.214
281.208
281.202
281.196
281.189
281.183
281.176
281.169
281.162
281.156
281.152
281.151
281.166
281.192
281.188
281.196
282.296
282.967
281.491
281.176
281.145
281.145
281.151
281.163
281.178
281.196
281.218
281.24
281.264
281.287
281.313
281.34
281.368
281.397
281.425
281.45
281.471
281.489
281.502
281.511
281.517
281.521
281.523
281.523
281.522
281.518
281.511
281.503
281.492
281.478
281.463
281.447
281.432
281.418
281.404
281.392
281.38
281.37
281.361
281.352
281.345
281.339
281.333
281.328
281.323
281.318
281.314
281.312
281.312
281.318
281.334
281.371
281.447
281.589
281.784
281.952
282.956
283.669
282.13
281.552
281.386
281.32
281.285
281.265
281.254
281.249
281.248
281.249
281.252
281.254
281.256
281.257
281.257
281.256
281.253
281.249
281.244
281.238
281.232
281.225
281.218
281.211
281.203
281.196
281.189
281.181
281.174
281.166
281.159
281.152
281.146
281.145
281.158
281.201
281.199
281.2
282.19
282.859
281.441
281.169
281.143
281.145
281.155
281.172
281.193
281.218
281.244
281.271
281.297
281.322
281.35
281.38
281.414
281.45
281.485
281.517
281.544
281.565
281.581
281.592
281.6
281.604
281.607
281.607
281.606
281.602
281.596
281.588
281.577
281.562
281.543
281.524
281.505
281.487
281.47
281.453
281.439
281.425
281.414
281.403
281.395
281.387
281.379
281.372
281.365
281.357
281.349
281.34
281.333
281.328
281.329
281.344
281.385
281.474
281.61
281.762
282.676
283.526
281.984
281.459
281.329
281.285
281.267
281.26
281.258
281.26
281.264
281.268
281.271
281.273
281.274
281.273
281.271
281.267
281.262
281.256
281.249
281.242
281.234
281.225
281.217
281.209
281.2
281.192
281.184
281.176
281.169
281.161
281.154
281.147
281.141
281.139
281.15
281.204
281.209
281.208
282.12
282.777
281.408
281.164
281.142
281.147
281.162
281.184
281.211
281.242
281.272
281.301
281.329
281.355
281.383
281.417
281.457
281.5
281.543
281.582
281.614
281.637
281.652
281.662
281.668
281.671
281.672
281.67
281.667
281.662
281.656
281.647
281.637
281.624
281.605
281.584
281.562
281.541
281.522
281.503
281.487
281.472
281.459
281.449
281.44
281.433
281.426
281.42
281.412
281.402
281.391
281.378
281.364
281.352
281.343
281.342
281.36
281.412
281.504
281.635
282.47
283.419
281.887
281.405
281.302
281.274
281.266
281.266
281.27
281.275
281.28
281.284
281.287
281.288
281.287
281.284
281.28
281.274
281.267
281.26
281.252
281.243
281.234
281.224
281.215
281.205
281.195
281.186
281.178
281.17
281.162
281.155
281.148
281.141
281.135
281.133
281.143
281.199
281.218
281.215
282.071
282.713
281.384
281.16
281.142
281.152
281.172
281.2
281.233
281.267
281.3
281.329
281.356
281.383
281.414
281.451
281.498
281.548
281.598
281.642
281.674
281.696
281.707
281.712
281.712
281.709
281.705
281.7
281.693
281.686
281.678
281.669
281.658
281.647
281.632
281.613
281.592
281.571
281.551
281.533
281.517
281.503
281.492
281.485
281.482
281.482
281.484
281.482
281.474
281.461
281.444
281.425
281.404
281.383
281.365
281.353
281.355
281.381
281.44
281.55
282.318
283.334
281.818
281.372
281.289
281.272
281.271
281.276
281.283
281.29
281.295
281.298
281.3
281.299
281.296
281.292
281.286
281.28
281.273
281.266
281.257
281.248
281.238
281.226
281.215
281.203
281.192
281.181
281.172
281.163
281.155
281.148
281.141
281.135
281.13
281.127
281.135
281.19
281.227
281.223
282.035
282.66
281.365
281.156
281.144
281.159
281.185
281.219
281.256
281.293
281.325
281.353
281.38
281.407
281.441
281.482
281.534
281.59
281.645
281.689
281.718
281.732
281.735
281.731
281.725
281.717
281.709
281.701
281.692
281.684
281.674
281.664
281.653
281.642
281.627
281.608
281.591
281.574
281.559
281.545
281.536
281.533
281.537
281.551
281.57
281.591
281.598
281.589
281.568
281.541
281.512
281.481
281.45
281.42
281.393
281.371
281.36
281.368
281.403
281.495
282.208
283.265
281.766
281.35
281.284
281.275
281.279
281.288
281.296
281.303
281.308
281.31
281.31
281.309
281.305
281.301
281.295
281.29
281.285
281.278
281.27
281.259
281.247
281.233
281.219
281.205
281.191
281.178
281.167
281.157
281.148
281.141
281.134
281.129
281.124
281.121
281.127
281.178
281.233
281.231
282.008
282.615
281.349
281.154
281.147
281.168
281.201
281.24
281.28
281.316
281.347
281.373
281.398
281.426
281.462
281.508
281.563
281.623
281.678
281.719
281.741
281.747
281.742
281.733
281.722
281.712
281.703
281.695
281.687
281.678
281.669
281.659
281.649
281.638
281.626
281.614
281.603
281.593
281.585
281.58
281.579
281.583
281.592
281.606
281.621
281.637
281.634
281.622
281.611
281.59
281.563
281.53
281.493
281.456
281.422
281.392
281.371
281.365
281.383
281.459
282.129
283.207
281.724
281.336
281.282
281.28
281.288
281.299
281.308
281.315
281.32
281.322
281.322
281.32
281.317
281.314
281.311
281.308
281.305
281.299
281.29
281.278
281.263
281.246
281.229
281.211
281.194
281.179
281.165
281.153
281.143
281.135
281.128
281.123
281.118
281.116
281.12
281.165
281.237
281.239
281.988
282.575
281.334
281.153
281.152
281.18
281.22
281.263
281.303
281.338
281.365
281.389
281.412
281.439
281.476
281.524
281.581
281.641
281.695
281.733
281.752
281.754
281.746
281.735
281.724
281.715
281.707
281.699
281.692
281.685
281.678
281.67
281.662
281.654
281.646
281.638
281.63
281.622
281.617
281.615
281.616
281.621
281.631
281.645
281.663
281.678
281.668
281.646
281.625
281.61
281.591
281.564
281.529
281.49
281.451
281.415
281.386
281.37
281.374
281.438
282.073
283.157
281.689
281.326
281.283
281.286
281.298
281.31
281.32
281.327
281.332
281.334
281.335
281.335
281.335
281.335
281.336
281.336
281.335
281.329
281.319
281.304
281.286
281.265
281.243
281.221
281.2
281.181
281.165
281.15
281.139
281.129
281.122
281.117
281.113
281.11
281.113
281.153
281.237
281.247
281.972
282.538
281.321
281.153
281.159
281.194
281.239
281.284
281.323
281.355
281.379
281.399
281.42
281.446
281.482
281.529
281.586
281.646
281.699
281.738
281.759
281.763
281.758
281.749
281.739
281.732
281.725
281.719
281.713
281.707
281.7
281.692
281.684
281.675
281.667
281.659
281.652
281.647
281.643
281.645
281.65
281.659
281.674
281.695
281.717
281.725
281.708
281.681
281.651
281.625
281.606
281.586
281.556
281.519
281.478
281.438
281.403
281.378
281.372
281.428
282.033
283.115
281.659
281.319
281.285
281.293
281.307
281.321
281.332
281.34
281.345
281.349
281.352
281.355
281.359
281.364
281.369
281.373
281.373
281.367
281.354
281.335
281.312
281.286
281.26
281.233
281.208
281.186
281.166
281.15
281.136
281.125
281.117
281.111
281.108
281.105
281.107
281.141
281.233
281.254
281.96
282.505
281.309
281.154
281.167
281.208
281.258
281.304
281.342
281.369
281.39
281.406
281.423
281.447
281.48
281.525
281.579
281.637
281.69
281.733
281.759
281.771
281.773
281.769
281.764
281.759
281.755
281.751
281.748
281.744
281.739
281.734
281.727
281.719
281.712
281.705
281.699
281.694
281.691
281.691
281.698
281.713
281.733
281.757
281.768
281.766
281.75
281.721
281.686
281.65
281.621
281.601
281.577
281.543
281.503
281.461
281.421
281.39
281.376
281.425
282.006
283.079
281.635
281.314
281.288
281.3
281.316
281.332
281.344
281.353
281.36
281.366
281.373
281.38
281.39
281.4
281.41
281.416
281.417
281.409
281.393
281.37
281.341
281.31
281.278
281.247
281.218
281.192
281.169
281.15
281.134
281.122
281.113
281.107
281.103
281.101
281.102
281.131
281.225
281.261
281.95
282.473
281.299
281.156
281.176
281.223
281.276
281.322
281.357
281.381
281.397
281.409
281.423
281.443
281.472
281.511
281.561
281.615
281.667
281.712
281.744
281.764
281.774
281.778
281.778
281.777
281.776
281.776
281.777
281.777
281.777
281.777
281.775
281.773
281.77
281.768
281.766
281.765
281.767
281.772
281.778
281.788
281.799
281.807
281.808
281.801
281.784
281.757
281.721
281.682
281.645
281.616
281.593
281.563
281.526
281.483
281.44
281.404
281.384
281.427
281.987
283.038
281.633
281.31
281.292
281.307
281.326
281.343
281.357
281.368
281.377
281.387
281.398
281.411
281.427
281.443
281.457
281.465
281.466
281.455
281.434
281.405
281.371
281.334
281.297
281.261
281.227
281.198
281.172
281.151
281.133
281.12
281.11
281.103
281.098
281.096
281.097
281.121
281.215
281.266
281.943
282.443
281.289
281.159
281.186
281.238
281.293
281.338
281.37
281.39
281.402
281.41
281.42
281.434
281.458
281.491
281.534
281.583
281.632
281.675
281.709
281.733
281.747
281.756
281.761
281.764
281.767
281.771
281.776
281.782
281.788
281.794
281.799
281.803
281.806
281.809
281.811
281.814
281.818
281.823
281.828
281.834
281.838
281.839
281.835
281.825
281.807
281.782
281.748
281.71
281.672
281.636
281.608
281.581
281.546
281.504
281.46
281.42
281.395
281.433
281.973
282.993
281.655
281.308
281.295
281.313
281.335
281.354
281.37
281.384
281.396
281.41
281.426
281.445
281.467
281.489
281.507
281.517
281.516
281.501
281.475
281.441
281.401
281.358
281.315
281.274
281.237
281.204
281.175
281.152
281.133
281.118
281.107
281.099
281.094
281.092
281.093
281.113
281.203
281.27
281.937
282.415
281.281
281.163
281.196
281.252
281.308
281.353
281.382
281.398
281.406
281.411
281.416
281.425
281.441
281.467
281.503
281.544
281.588
281.627
281.659
281.683
281.698
281.708
281.715
281.721
281.728
281.735
281.745
281.755
281.766
281.777
281.787
281.796
281.805
281.813
281.817
281.822
281.826
281.831
281.835
281.839
281.841
281.84
281.835
281.825
281.81
281.788
281.761
281.728
281.694
281.658
281.626
281.597
281.564
281.524
281.479
281.437
281.407
281.442
281.963
282.943
281.694
281.312
281.299
281.32
281.344
281.366
281.384
281.4
281.416
281.434
281.456
281.482
281.51
281.537
281.559
281.57
281.566
281.546
281.514
281.473
281.428
281.379
281.332
281.286
281.245
281.209
281.178
281.153
281.132
281.116
281.104
281.096
281.09
281.088
281.089
281.106
281.19
281.272
281.932
282.389
281.273
281.167
281.206
281.266
281.323
281.366
281.393
281.407
281.411
281.412
281.412
281.416
281.425
281.443
281.47
281.504
281.542
281.577
281.606
281.628
281.642
281.652
281.659
281.667
281.676
281.687
281.699
281.713
281.727
281.74
281.752
281.763
281.773
281.778
281.781
281.783
281.785
281.788
281.791
281.794
281.796
281.797
281.795
281.79
281.781
281.768
281.75
281.729
281.703
281.674
281.643
281.613
281.581
281.542
281.498
281.454
281.422
281.452
281.955
282.888
281.745
281.324
281.302
281.326
281.353
281.377
281.398
281.418
281.438
281.46
281.487
281.519
281.553
281.586
281.611
281.621
281.612
281.587
281.549
281.502
281.451
281.398
281.346
281.297
281.252
281.213
281.181
281.154
281.132
281.114
281.102
281.092
281.087
281.084
281.085
281.1
281.178
281.273
281.928
282.364
281.267
281.171
281.215
281.278
281.336
281.379
281.405
281.416
281.418
281.416
281.412
281.41
281.412
281.422
281.44
281.466
281.497
281.529
281.556
281.576
281.59
281.599
281.607
281.616
281.627
281.641
281.656
281.672
281.689
281.703
281.715
281.724
281.727
281.725
281.721
281.717
281.713
281.711
281.711
281.713
281.715
281.717
281.719
281.721
281.721
281.719
281.714
281.705
281.692
281.676
281.653
281.626
281.596
281.56
281.517
281.472
281.437
281.464
281.949
282.829
281.8
281.345
281.306
281.331
281.361
281.388
281.412
281.435
281.459
281.486
281.518
281.555
281.594
281.632
281.66
281.669
281.653
281.621
281.577
281.526
281.47
281.413
281.356
281.305
281.258
281.217
281.182
281.154
281.13
281.112
281.099
281.089
281.083
281.08
281.081
281.094
281.166
281.271
281.924
282.342
281.263
281.175
281.223
281.289
281.349
281.392
281.417
281.427
281.428
281.423
281.415
281.408
281.404
281.406
281.415
281.433
281.457
281.484
281.509
281.529
281.543
281.553
281.562
281.572
281.585
281.601
281.62
281.64
281.658
281.673
281.684
281.69
281.685
281.674
281.662
281.65
281.641
281.634
281.629
281.627
281.627
281.629
281.633
281.638
281.644
281.651
281.657
281.661
281.662
281.659
281.651
281.633
281.608
281.575
281.534
281.489
281.452
281.477
281.942
282.765
281.856
281.373
281.311
281.336
281.368
281.398
281.426
281.452
281.48
281.511
281.547
281.588
281.632
281.674
281.704
281.708
281.685
281.647
281.598
281.543
281.484
281.424
281.365
281.311
281.262
281.219
281.182
281.152
281.128
281.11
281.096
281.086
281.08
281.077
281.077
281.089
281.155
281.268
281.92
282.321
281.259
281.178
281.231
281.299
281.36
281.405
281.431
281.441
281.441
281.434
281.424
281.412
281.402
281.396
281.397
281.405
281.421
281.443
281.466
281.485
281.5
281.511
281.52
281.532
281.547
281.567
281.59
281.614
281.635
281.651
281.662
281.663
281.65
281.631
281.614
281.598
281.584
281.574
281.566
281.561
281.558
281.558
281.56
281.565
281.573
281.583
281.595
281.608
281.621
281.631
281.636
281.631
281.615
281.587
281.549
281.505
281.467
281.49
281.936
282.698
281.907
281.407
281.319
281.34
281.375
281.408
281.439
281.468
281.5
281.535
281.574
281.619
281.665
281.708
281.734
281.732
281.704
281.663
281.612
281.554
281.493
281.431
281.37
281.313
281.262
281.218
281.181
281.15
281.126
281.106
281.092
281.082
281.076
281.073
281.074
281.085
281.145
281.264
281.916
282.303
281.256
281.181
281.237
281.308
281.371
281.417
281.445
281.457
281.457
281.448
281.437
281.423
281.408
281.395
281.387
281.385
281.393
281.408
281.426
281.445
281.46
281.472
281.482
281.495
281.513
281.536
281.563
281.591
281.616
281.634
281.644
281.641
281.62
281.597
281.577
281.559
281.544
281.532
281.523
281.516
281.512
281.51
281.51
281.513
281.519
281.529
281.543
281.56
281.579
281.598
281.614
281.622
281.616
281.596
281.562
281.52
281.482
281.502
281.928
282.628
281.952
281.444
281.329
281.345
281.381
281.417
281.451
281.484
281.519
281.557
281.6
281.646
281.692
281.729
281.749
281.742
281.714
281.671
281.619
281.56
281.497
281.432
281.37
281.312
281.26
281.215
281.177
281.146
281.122
281.103
281.088
281.079
281.072
281.07
281.071
281.081
281.136
281.259
281.911
282.287
281.253
281.184
281.242
281.315
281.38
281.429
281.459
281.473
281.474
281.466
281.455
281.44
281.422
281.404
281.387
281.376
281.373
281.379
281.392
281.408
281.423
281.435
281.446
281.459
281.479
281.506
281.538
281.57
281.599
281.619
281.628
281.62
281.594
281.569
281.547
281.53
281.516
281.506
281.497
281.491
281.485
281.482
281.48
281.481
281.484
281.492
281.504
281.522
281.543
281.567
281.591
281.608
281.612
281.6
281.572
281.534
281.496
281.515
281.92
282.558
281.99
281.485
281.341
281.351
281.387
281.425
281.462
281.499
281.537
281.578
281.622
281.668
281.71
281.742
281.755
281.745
281.715
281.671
281.618
281.559
281.495
281.429
281.366
281.307
281.255
281.21
281.172
281.141
281.117
281.098
281.084
281.075
281.069
281.066
281.067
281.077
281.129
281.253
281.906
282.273
281.251
281.185
281.245
281.32
281.388
281.439
281.472
281.488
281.491
281.485
281.474
281.46
281.442
281.421
281.398
281.378
281.364
281.359
281.364
281.375
281.388
281.4
281.412
281.426
281.447
281.477
281.514
281.551
281.584
281.606
281.613
281.601
281.571
281.545
281.525
281.51
281.499
281.491
281.485
281.479
281.475
281.471
281.468
281.466
281.466
281.471
281.48
281.496
281.517
281.543
281.57
281.594
281.606
281.601
281.58
281.545
281.509
281.526
281.911
282.488
282.021
281.528
281.356
281.357
281.393
281.433
281.473
281.513
281.554
281.597
281.642
281.685
281.723
281.748
281.755
281.74
281.709
281.665
281.612
281.552
281.488
281.422
281.358
281.299
281.247
281.202
281.165
281.135
281.111
281.093
281.08
281.071
281.065
281.063
281.064
281.073
281.122
281.247
281.9
282.262
281.25
281.186
281.247
281.324
281.394
281.448
281.483
281.5
281.504
281.501
281.492
281.481
281.466
281.446
281.42
281.392
281.367
281.35
281.344
281.348
281.358
281.369
281.38
281.395
281.417
281.45
281.491
281.534
281.571
281.594
281.6
281.582
281.549
281.525
281.508
281.498
281.492
281.488
281.485
281.482
281.478
281.474
281.47
281.466
281.464
281.465
281.471
281.483
281.502
281.527
281.555
281.582
281.599
281.601
281.585
281.554
281.521
281.537
281.9
282.42
282.046
281.575
281.375
281.365
281.4
281.442
281.484
281.526
281.569
281.613
281.657
281.697
281.729
281.747
281.749
281.731
281.699
281.655
281.602
281.541
281.476
281.41
281.347
281.288
281.237
281.193
281.157
281.128
281.105
281.088
281.075
281.066
281.061
281.059
281.061
281.07
281.117
281.242
281.893
282.253
281.249
281.186
281.247
281.325
281.397
281.454
281.49
281.507
281.511
281.508
281.503
281.497
281.489
281.474
281.45
281.418
281.384
281.355
281.336
281.329
281.333
281.341
281.352
281.365
281.389
281.424
281.469
281.517
281.558
281.583
281.586
281.565
281.532
281.51
281.499
281.495
281.495
281.496
281.496
281.496
281.495
281.492
281.487
281.481
281.475
281.472
281.474
281.482
281.497
281.52
281.547
281.574
281.594
281.6
281.588
281.562
281.531
281.547
281.888
282.355
282.066
281.626
281.401
281.374
281.408
281.451
281.495
281.538
281.583
281.626
281.668
281.704
281.73
281.742
281.738
281.718
281.686
281.642
281.589
281.527
281.461
281.395
281.332
281.274
281.224
281.182
281.147
281.12
281.098
281.082
281.07
281.062
281.057
281.056
281.058
281.067
281.112
281.237
281.886
282.247
281.249
281.185
281.245
281.324
281.398
281.457
281.493
281.508
281.508
281.502
281.501
281.502
281.503
281.499
281.482
281.453
281.414
281.374
281.341
281.321
281.315
281.319
281.326
281.339
281.362
281.399
281.448
281.501
281.547
281.573
281.574
281.55
281.518
281.502
281.498
281.501
281.507
281.514
281.519
281.523
281.523
281.521
281.516
281.508
281.499
281.491
281.488
281.492
281.503
281.522
281.546
281.571
281.591
281.599
281.591
281.568
281.54
281.556
281.874
282.294
282.08
281.679
281.434
281.386
281.417
281.46
281.506
281.55
281.595
281.637
281.675
281.705
281.726
281.733
281.725
281.705
281.672
281.628
281.573
281.51
281.443
281.377
281.315
281.258
281.21
281.17
281.137
281.111
281.092
281.077
281.066
281.058
281.054
281.052
281.055
281.064
281.107
281.232
281.878
282.242
281.249
281.184
281.242
281.321
281.396
281.456
281.493
281.504
281.495
281.482
281.48
281.489
281.502
281.512
281.511
281.491
281.453
281.406
281.36
281.325
281.306
281.302
281.306
281.316
281.338
281.376
281.429
281.487
281.536
281.564
281.563
281.538
281.509
281.5
281.504
281.515
281.528
281.541
281.551
281.558
281.562
281.562
281.557
281.548
281.536
281.522
281.514
281.512
281.518
281.532
281.552
281.574
281.592
281.6
281.593
281.573
281.547
281.564
281.859
282.238
282.089
281.733
281.476
281.403
281.426
281.471
281.517
281.562
281.605
281.644
281.678
281.703
281.719
281.722
281.713
281.692
281.659
281.612
281.555
281.49
281.422
281.356
281.295
281.241
281.195
281.157
281.127
281.103
281.085
281.071
281.061
281.054
281.05
281.049
281.052
281.061
281.104
281.227
281.87
282.239
281.249
281.181
281.238
281.315
281.391
281.452
281.489
281.496
281.478
281.453
281.445
281.458
281.48
281.507
281.525
281.524
281.497
281.449
281.393
281.343
281.309
281.293
281.29
281.297
281.317
281.355
281.41
281.472
281.527
281.556
281.553
281.528
281.505
281.504
281.517
281.536
281.556
281.574
281.589
281.6
281.607
281.609
281.606
281.598
281.583
281.564
281.549
281.541
281.542
281.551
281.565
281.582
281.596
281.601
281.595
281.577
281.554
281.571
281.843
282.185
282.093
281.784
281.526
281.428
281.438
281.481
281.527
281.572
281.613
281.648
281.677
281.698
281.71
281.712
281.703
281.681
281.645
281.595
281.534
281.467
281.399
281.334
281.274
281.223
281.179
281.144
281.116
281.095
281.078
281.066
281.056
281.05
281.047
281.046
281.049
281.059
281.101
281.224
281.861
282.238
281.25
281.179
281.232
281.307
281.382
281.445
281.483
281.489
281.463
281.425
281.405
281.415
281.443
281.481
281.519
281.542
281.537
281.498
281.438
281.374
281.324
281.293
281.282
281.283
281.299
281.335
281.392
281.459
281.518
281.549
281.545
281.521
281.505
281.512
281.535
281.562
281.588
281.611
281.63
281.644
281.654
281.659
281.658
281.651
281.638
281.613
281.592
281.579
281.573
281.575
281.583
281.593
281.601
281.603
281.596
281.58
281.559
281.577
281.827
282.137
282.092
281.832
281.582
281.461
281.453
281.491
281.536
281.579
281.617
281.649
281.674
281.692
281.703
281.706
281.697
281.672
281.63
281.575
281.51
281.441
281.373
281.309
281.252
281.204
281.164
281.132
281.107
281.087
281.072
281.061
281.052
281.047
281.043
281.043
281.046
281.056
281.099
281.221
281.852
282.238
281.251
281.176
281.225
281.297
281.371
281.434
281.475
281.483
281.456
281.41
281.375
281.376
281.403
281.444
281.492
281.538
281.562
281.545
281.49
281.418
281.351
281.305
281.281
281.275
281.285
281.319
281.375
281.445
281.509
281.544
281.539
281.517
281.509
281.525
281.555
281.588
281.619
281.646
281.668
281.686
281.698
281.705
281.706
281.701
281.69
281.677
281.641
281.62
281.607
281.602
281.602
281.605
281.607
281.606
281.598
281.582
281.564
281.582
281.809
282.092
282.085
281.874
281.64
281.503
281.474
281.501
281.543
281.584
281.619
281.648
281.672
281.69
281.702
281.705
281.692
281.661
281.613
281.552
281.483
281.413
281.345
281.284
281.23
281.186
281.149
281.12
281.098
281.08
281.067
281.057
281.049
281.043
281.041
281.041
281.044
281.054
281.098
281.218
281.842
282.239
281.252
281.173
281.217
281.285
281.358
281.42
281.462
281.473
281.452
281.409
281.37
281.355
281.374
281.41
281.459
281.514
281.564
281.579
281.544
281.472
281.392
281.328
281.289
281.273
281.276
281.305
281.36
281.431
281.5
281.538
281.535
281.515
281.514
281.538
281.574
281.612
281.647
281.676
281.701
281.721
281.735
281.743
281.746
281.742
281.731
281.713
281.681
281.657
281.64
281.629
281.622
281.617
281.614
281.609
281.599
281.584
281.568
281.586
281.791
282.05
282.075
281.908
281.696
281.552
281.502
281.516
281.551
281.588
281.621
281.649
281.673
281.693
281.707
281.707
281.688
281.647
281.591
281.524
281.452
281.382
281.316
281.258
281.209
281.169
281.136
281.11
281.09
281.075
281.062
281.053
281.046
281.041
281.038
281.038
281.042
281.053
281.097
281.216
281.832
282.241
281.254
281.17
281.21
281.274
281.342
281.401
281.443
281.457
281.443
281.409
281.376
281.361
281.365
281.39
281.433
281.486
281.546
281.59
281.588
281.529
281.443
281.362
281.307
281.279
281.273
281.295
281.346
281.417
281.49
281.534
281.533
281.515
281.519
281.549
281.59
281.631
281.668
281.7
281.727
281.749
281.765
281.775
281.779
281.776
281.767
281.75
281.719
281.694
281.672
281.655
281.642
281.63
281.621
281.612
281.601
281.586
281.571
281.589
281.773
282.011
282.061
281.933
281.747
281.603
281.539
281.536
281.562
281.595
281.626
281.655
281.681
281.703
281.717
281.709
281.678
281.628
281.563
281.491
281.419
281.349
281.287
281.234
281.189
281.153
281.125
281.102
281.084
281.07
281.059
281.05
281.043
281.038
281.036
281.036
281.04
281.051
281.096
281.215
281.82
282.245
281.256
281.168
281.202
281.262
281.325
281.379
281.418
281.434
281.426
281.401
281.376
281.363
281.365
281.386
281.423
281.471
281.525
281.578
281.61
281.582
281.501
281.408
281.336
281.293
281.276
281.289
281.334
281.403
281.48
281.53
281.532
281.515
281.523
281.557
281.601
281.644
281.683
281.717
281.746
281.77
281.788
281.799
281.805
281.804
281.797
281.784
281.761
281.729
281.704
281.682
281.662
281.645
281.63
281.616
281.603
281.587
281.574
281.591
281.757
281.976
282.044
281.952
281.792
281.655
281.581
281.565
281.581
281.608
281.638
281.668
281.697
281.72
281.726
281.706
281.662
281.6
281.529
281.454
281.382
281.316
281.259
281.211
281.172
281.141
281.116
281.096
281.08
281.067
281.056
281.047
281.041
281.036
281.034
281.034
281.038
281.05
281.096
281.215
281.808
282.253
281.261
281.166
281.196
281.25
281.306
281.354
281.389
281.405
281.401
281.386
281.369
281.361
281.366
281.388
281.423
281.467
281.517
281.567
281.609
281.617
281.559
281.463
281.375
281.317
281.287
281.289
281.324
281.39
281.469
281.525
281.531
281.515
281.523
281.56
281.606
281.651
281.691
281.727
281.758
281.783
281.803
281.817
281.824
281.824
281.818
281.806
281.788
281.76
281.734
281.709
281.683
281.66
281.639
281.622
281.605
281.589
281.576
281.593
281.742
281.946
282.027
281.963
281.828
281.702
281.627
281.601
281.608
281.631
281.66
281.691
281.72
281.738
281.729
281.693
281.635
281.564
281.488
281.413
281.345
281.284
281.233
281.192
281.158
281.131
281.11
281.092
281.077
281.064
281.054
281.045
281.039
281.034
281.032
281.033
281.038
281.05
281.097
281.216
281.794
282.263
281.278
281.168
281.192
281.238
281.286
281.327
281.357
281.372
281.373
281.366
281.359
281.359
281.372
281.397
281.433
281.475
281.52
281.566
281.607
281.628
281.605
281.523
281.424
281.35
281.306
281.294
281.318
281.376
281.456
281.52
281.531
281.513
281.521
281.558
281.605
281.651
281.692
281.728
281.761
281.789
281.812
281.828
281.837
281.838
281.832
281.82
281.803
281.78
281.755
281.73
281.703
281.675
281.65
281.628
281.609
281.591
281.578
281.596
281.731
281.921
282.01
281.969
281.857
281.744
281.672
281.642
281.644
281.663
281.692
281.723
281.748
281.749
281.721
281.667
281.597
281.519
281.442
281.371
281.308
281.255
281.212
281.177
281.149
281.126
281.106
281.089
281.075
281.062
281.052
281.044
281.038
281.033
281.031
281.033
281.037
281.05
281.098
281.217
281.78
282.273
281.32
281.181
281.193
281.23
281.269
281.302
281.327
281.342
281.348
281.35
281.354
281.365
281.387
281.418
281.455
281.495
281.536
281.575
281.612
281.635
281.628
281.575
281.481
281.393
281.334
281.308
281.317
281.364
281.442
281.514
281.532
281.512
281.516
281.552
281.598
281.644
281.685
281.722
281.756
281.787
281.812
281.832
281.845
281.849
281.845
281.833
281.814
281.791
281.765
281.742
281.717
281.689
281.66
281.634
281.612
281.593
281.581
281.599
281.725
281.904
281.998
281.972
281.878
281.78
281.714
281.686
281.686
281.704
281.731
281.757
281.768
281.747
281.696
281.626
281.547
281.467
281.394
281.33
281.276
281.232
281.197
281.168
281.144
281.124
281.105
281.088
281.073
281.061
281.051
281.043
281.037
281.033
281.031
281.033
281.038
281.05
281.1
281.219
281.766
282.282
281.389
281.217
281.209
281.233
281.263
281.29
281.312
281.328
281.34
281.353
281.369
281.391
281.421
281.456
281.492
281.529
281.563
281.595
281.625
281.646
281.645
281.608
281.534
281.444
281.371
281.33
281.322
281.355
281.427
281.507
281.533
281.51
281.509
281.541
281.586
281.63
281.67
281.707
281.742
281.774
281.804
281.828
281.846
281.856
281.856
281.847
281.829
281.804
281.775
281.748
281.724
281.697
281.668
281.641
281.616
281.597
281.585
281.606
281.728
281.899
281.99
281.973
281.894
281.81
281.754
281.73
281.731
281.749
281.772
281.787
281.771
281.722
281.65
281.569
281.487
281.412
281.347
281.294
281.251
281.217
281.189
281.166
281.145
281.125
281.105
281.088
281.072
281.06
281.05
281.042
281.036