# vtk DataFile Version 2.0
RBConvection
ASCII
DATASET UNSTRUCTURED_GRID
POINTS 882 float
0 0 0 0.05 0 0 0.1 0 0 0.15 0
0 0.2 0 0 0.25 0 0 0.3 0 0
0.35 0 0 0.4 0 0 0.45 0 0 0.5
0 0 0.55 0 0 0.6 0 0 0.65 0
0 0.7 0 0 0.75 0 0 0.8 0 0
0.85 0 0 0.9 0 0 0.95 0 0 1
0 0 0 0.05 0 0.05 0.05 0 0.1 0.05
0 0.15 0.05 0 0.2 0.05 0 0.25 0.05 0
0.3 0.05 0 0.35 0.05 0 0.4 0.05 0 0.45
0.05 0 0.5 0.05 0 0.55 0.05 0 0.6 0.05
0 0.65 0.05 0 0.7 0.05 0 0.75 0.05 0
0.8 0.05 0 0.85 0.05 0 0.9 0.05 0 0.95
0.05 0 1 0.05 0 0 0.1 0 0.05 0.1
0 0.1 0.1 0 0.15 0.1 0 0.2 0.1 0
0.25 0.1 0 0.3 0.1 0 0.35 0.1 0 0.4
0.1 0 0.45 0.1 0 0.5 0.1 0 0.55 0.1
0 0.6 0.1 0 0.65 0.1 0 0.7 0.1 0
0.75 0.1 0 0.8 0.1 0 0.85 0.1 0 0.9
0.1 0 0.95 0.1 0 1 0.1 0 0 0.15
0 0.05 0.15 0 0.1 0.15 0 0.15 0.15 0
0.2 0.15 0 0.25 0.15 0 0.3 0.15 0 0.35
0.15 0 0.4 0.15 0 0.45 0.15 0 0.5 0.15
0 0.55 0.15 0 0.6 0.15 0 0.65 0.15 0
0.7 0.15 0 0.75 0.15 0 0.8 0.15 0 0.85
0.15 0 0.9 0.15 0 0.95 0.15 0 1 0.15
0 0 0.2 0 0.05 0.2 0 0.1 0.2 0
0.15 0.2 0 0.2 0.2 0 0.25 0.2 0 0.3
0.2 0 0.35 0.2 0 0.4 0.2 0 0.45 0.2
0 0.5 0.2 0 0.55 0.2 0 0.6 0.2 0
0.65 0.2 0 0.7 0.2 0 0.75 0.2 0 0.8
0.2 0 0.85 0.2 0 0.9 0.2 0 0.95 0.2
0 1 0.2 0 0 0.25 0 0.05 0.25 0
0.1 0.25 0 0.15 0.25 0 0.2 0.25 0 0.25
0.25 0 0.3 0.25 0 0.35 0.25 0 0.4 0.25
0 0.45 0.25 0 0.5 0.25 0 0.55 0.25 0
0.6 0.25 0 0.65 0.25 0 0.7 0.25 0 0.75
0.25 0 0.8 0.25 0 0.85 0.25 0 0.9 0.25
0 0.95 0.25 0 1 0.25 0 0 0.3 0
0.05 0.3 0 0.1 0.3 0 0.15 0.3 0 0.2
0.3 0 0.25 0.3 0 0.3 0.3 0 0.35 0.3
0 0.4 0.3 0 0.45 0.3 0 0.5 0.3 0
0.55 0.3 0 0.6 0.3 0 0.65 0.3 0 0.7
0.3 0 0.75 0.3 0 0.8 0.3 0 0.85 0.3
0 0.9 0.3 0 0.95 0.3 0 1 0.3 0
0 0.35 0 0.05 0.35 0 0.1 0.35 0 0.15
0.35 0 0.2 0.35 0 0.25 0.35 0 0.3 0.35
0 0.35 0.35 0 0.4 0.35 0 0.45 0.35 0
0.5 0.35 0 0.55 0.35 0 0.6 0.35 0 0.65
0.35 0 0.7 0.35 0 0.75 0.35 0 0.8 0.35
0 0.85 0.35 0 0.9 0.35 0 0.95 0.35 0
1 0.35 0 0 0.4 0 0.05 0.4 0 0.1
0.4 0 0.15 0.4 0 0.2 0.4 0 0.25 0.4
0 0.3 0.4 0 0.35 0.4 0 0.4 0.4 0
0.45 0.4 0 0.5 0.4 0 0.55 0.4 0 0.6
0.4 0 0.65 0.4 0 0.7 0.4 0 0.75 0.4
0 0.8 0.4 0 0.85 0.4 0 0.9 0.4 0
0.95 0.4 0 1 0.4 0 0 0.45 0 0.05
0.45 0 0.1 0.45 0 0.15 0.45 0 0.2 0.45
0 0.25 0.45 0 0.3 0.45 0 0.35 0.45 0
0.4 0.45 0 0.45 0.45 0 0.5 0.45 0 0.55
0.45 0 0.6 0.45 0 0.65 0.45 0 0.7 0.45
0 0.75 0.45 0 0.8 0.45 0 0.85 0.45 0
0.9 0.45 0 0.95 0.45 0 1 0.45 0 0
0.5 0 0.05 0.5 0 0.1 0.5 0 0.15 0.5
0 0.2 0.5 0 0.25 0.5 0 0.3 0.5 0
0.35 0.5 0 0.4 0.5 0 0.45 0.5 0 0.5
0.5 0 0.55 0.5 0 0.6 0.5 0 0.65 0.5
0 0.7 0.5 0 0.75 0.5 0 0.8 0.5 0
0.85 0.5 0 0.9 0.5 0 0.95 0.5 0 1
0.5 0 0 0.55 0 0.05 0.55 0 0.1 0.55
0 0.15 0.55 0 0.2 0.55 0 0.25 0.55 0
0.3 0.55 0 0.35 0.55 0 0.4 0.55 0 0.45
0.55 0 0.5 0.55 0 0.55 0.55 0 0.6 0.55
0 0.65 0.55 0 0.7 0.55 0 0.75 0.55 0
0.8 0.55 0 0.85 0.55 0 0.9 0.55 0 0.95
0.55 0 1 0.55 0 0 0.6 0 0.05 0.6
0 0.1 0.6 0 0.15 0.6 0 0.2 0.6 0
0.25 0.6 0 0.3 0.6 0 0.35 0.6 0 0.4
0.6 0 0.45 0.6 0 0.5 0.6 0 0.55 0.6
0 0.6 0.6 0 0.65 0.6 0 0.7 0.6 0
0.75 0.6 0 0.8 0.6 0 0.85 0.6 0 0.9
0.6 0 0.95 0.6 0 1 0.6 0 0 0.65
0 0.05 0.65 0 0.1 0.65 0 0.15 0.65 0
0.2 0.65 0 0.25 0.65 0 0.3 0.65 0 0.35
0.65 0 0.4 0.65 0 0.45 0.65 0 0.5 0.65
0 0.55 0.65 0 0.6 0.65 0 0.65 0.65 0
0.7 0.65 0 0.75 0.65 0 0.8 0.65 0 0.85
0.65 0 0.9 0.65 0 0.95 0.65 0 1 0.65
0 0 0.7 0 0.05 0.7 0 0.1 0.7 0
0.15 0.7 0 0.2 0.7 0 0.25 0.7 0 0.3
0.7 0 0.35 0.7 0 0.4 0.7 0 0.45 0.7
0 0.5 0.7 0 0.55 0.7 0 0.6 0.7 0
0.65 0.7 0 0.7 0.7 0 0.75 0.7 0 0.8
0.7 0 0.85 0.7 0 0.9 0.7 0 0.95 0.7
0 1 0.7 0 0 0.75 0 0.05 0.75 0
0.1 0.75 0 0.15 0.75 0 0.2 0.75 0 0.25
0.75 0 0.3 0.75 0 0.35 0.75 0 0.4 0.75
0 0.45 0.75 0 0.5 0.75 0 0.55 0.75 0
0.6 0.75 0 0.65 0.75 0 0.7 0.75 0 0.75
0.75 0 0.8 0.75 0 0.85 0.75 0 0.9 0.75
0 0.95 0.75 0 1 0.75 0 0 0.8 0
0.05 0.8 0 0.1 0.8 0 0.15 0.8 0 0.2
0.8 0 0.25 0.8 0 0.3 0.8 0 0.35 0.8
0 0.4 0.8 0 0.45 0.8 0 0.5 0.8 0
0.55 0.8 0 0.6 0.8 0 0.65 0.8 0 0.7
0.8 0 0.75 0.8 0 0.8 0.8 0 0.85 0.8
0 0.9 0.8 0 0.95 0.8 0 1 0.8 0
0 0.85 0 0.05 0.85 0 0.1 0.85 0 0.15
0.85 0 0.2 0.85 0 0.25 0.85 0 0.3 0.85
0 0.35 0.85 0 0.4 0.85 0 0.45 0.85 0
0.5 0.85 0 0.55 0.85 0 0.6 0.85 0 0.65
0.85 0 0.7 0.85 0 0.75 0.85 0 0.8 0.85
0 0.85 0.85 0 0.9 0.85 0 0.95 0.85 0
1 0.85 0 0 0.9 0 0.05 0.9 0 0.1
0.9 0 0.15 0.9 0 0.2 0.9 0 0.25 0.9
0 0.3 0.9 0 0.35 0.9 0 0.4 0.9 0
0.45 0.9 0 0.5 0.9 0 0.55 0.9 0 0.6
0.9 0 0.65 0.9 0 0.7 0.9 0 0.75 0.9
0 0.8 0.9 0 0.85 0.9 0 0.9 0.9 0
0.95 0.9 0 1 0.9 0 0 0.95 0 0.05
0.95 0 0.1 0.95 0 0.15 0.95 0 0.2 0.95
0 0.25 0.95 0 0.3 0.95 0 0.35 0.95 0
0.4 0.95 0 0.45 0.95 0 0.5 0.95 0 0.55
0.95 0 0.6 0.95 0 0.65 0.95 0 0.7 0.95
0 0.75 0.95 0 0.8 0.95 0 0.85 0.95 0
0.9 0.95 0 0.95 0.95 0 1 0.95 0 0
1 0 0.05 1 0 0.1 1 0 0.15 1
0 0.2 1 0 0.25 1 0 0.3 1 0
0.35 1 0 0.4 1 0 0.45 1 0 0.5
1 0 0.55 1 0 0.6 1 0 0.65 1
0 0.7 1 0 0.75 1 0 0.8 1 0
0.85 1 0 0.9 1 0 0.95 1 0 1
1 0 0 0 0.1 0.05 0 0.1 0.1 0
0.1 0.15 0 0.1 0.2 0 0.1 0.25 0 0.1
0.3 0 0.1 0.35 0 0.1 0.4 0 0.1 0.45
0 0.1 0.5 0 0.1 0.55 0 0.1 0.6 0
0.1 0.65 0 0.1 0.7 0 0.1 0.75 0 0.1
0.8 0 0.1 0.85 0 0.1 0.9 0 0.1 0.95
0 0.1 1 0 0.1 0 0.05 0.1 0.05 0.05
0.1 0.1 0.05 0.1 0.15 0.05 0.1 0.2 0.05 0.1
0.25 0.05 0.1 0.3 0.05 0.1 0.35 0.05 0.1 0.4
0.05 0.1 0.45 0.05 0.1 0.5 0.05 0.1 0.55 0.05
0.1 0.6 0.05 0.1 0.65 0.05 0.1 0.7 0.05 0.1
0.75 0.05 0.1 0.8 0.05 0.1 0.85 0.05 0.1 0.9
0.05 0.1 0.95 0.05 0.1 1 0.05 0.1 0 0.1
0.1 0.05 0.1 0.1 0.1 0.1 0.1 0.15 0.1 0.1
0.2 0.1 0.1 0.25 0.1 0.1 0.3 0.1 0.1 0.35
0.1 0.1 0.4 0.1 0.1 0.45 0.1 0.1 0.5 0.1
0.1 0.55 0.1 0.1 0.6 0.1 0.1 0.65 0.1 0.1
0.7 0.1 0.1 0.75 0.1 0.1 0.8 0.1 0.1 0.85
0.1 0.1 0.9 0.1 0.1 0.95 0.1 0.1 1 0.1
0.1 0 0.15 0.1 0.05 0.15 0.1 0.1 0.15 0.1
0.15 0.15 0.1 0.2 0.15 0.1 0.25 0.15 0.1 0.3
0.15 0.1 0.35 0.15 0.1 0.4 0.15 0.1 0.45 0.15
0.1 0.5 0.15 0.1 0.55 0.15 0.1 0.6 0.15 0.1
0.65 0.15 0.1 0.7 0.15 0.1 0.75 0.15 0.1 0.8
0.15 0.1 0.85 0.15 0.1 0.9 0.15 0.1 0.95 0.15
0.1 1 0.15 0.1 0 0.2 0.1 0.05 0.2 0.1
0.1 0.2 0.1 0.15 0.2 0.1 0.2 0.2 0.1 0.25
0.2 0.1 0.3 0.2 0.1 0.35 0.2 0.1 0.4 0.2
0.1 0.45 0.2 0.1 0.5 0.2 0.1 0.55 0.2 0.1
0.6 0.2 0.1 0.65 0.2 0.1 0.7 0.2 0.1 0.75
0.2 0.1 0.8 0.2 0.1 0.85 0.2 0.1 0.9 0.2
0.1 0.95 0.2 0.1 1 0.2 0.1 0 0.25 0.1
0.05 0.25 0.1 0.1 0.25 0.1 0.15 0.25 0.1 0.2
0.25 0.1 0.25 0.25 0.1 0.3 0.25 0.1 0.35 0.25
0.1 0.4 0.25 0.1 0.45 0.25 0.1 0.5 0.25 0.1
0.55 0.25 0.1 0.6 0.25 0.1 0.65 0.25 0.1 0.7
0.25 0.1 0.75 0.25 0.1 0.8 0.25 0.1 0.85 0.25
0.1 0.9 0.25 0.1 0.95 0.25 0.1 1 0.25 0.1
0 0.3 0.1 0.05 0.3 0.1 0.1 0.3 0.1 0.15
0.3 0.1 0.2 0.3 0.1 0.25 0.3 0.1 0.3 0.3
0.1 0.35 0.3 0.1 0.4 0.3 0.1 0.45 0.3 0.1
0.5 0.3 0.1 0.55 0.3 0.1 0.6 0.3 0.1 0.65
0.3 0.1 0.7 0.3 0.1 0.75 0.3 0.1 0.8 0.3
0.1 0.85 0.3 0.1 0.9 0.3 0.1 0.95 0.3 0.1
1 0.3 0.1 0 0.35 0.1 0.05 0.35 0.1 0.1
0.35 0.1 0.15 0.35 0.1 0.2 0.35 0.1 0.25 0.35
0.1 0.3 0.35 0.1 0.35 0.35 0.1 0.4 0.35 0.1
0.45 0.35 0.1 0.5 0.35 0.1 0.55 0.35 0.1 0.6
0.35 0.1 0.65 0.35 0.1 0.7 0.35 0.1 0.75 0.35
0.1 0.8 0.35 0.1 0.85 0.35 0.1 0.9 0.35 0.1
0.95 0.35 0.1 1 0.35 0.1 0 0.4 0.1 0.05
0.4 0.1 0.1 0.4 0.1 0.15 0.4 0.1 0.2 0.4
0.1 0.25 0.4 0.1 0.3 0.4 0.1 0.35 0.4 0.1
0.4 0.4 0.1 0.45 0.4 0.1 0.5 0.4 0.1 0.55
0.4 0.1 0.6 0.4 0.1 0.65 0.4 0.1 0.7 0.4
0.1 0.75 0.4 0.1 0.8 0.4 0.1 0.85 0.4 0.1
0.9 0.4 0.1 0.95 0.4 0.1 1 0.4 0.1 0
0.45 0.1 0.05 0.45 0.1 0.1 0.45 0.1 0.15 0.45
0.1 0.2 0.45 0.1 0.25 0.45 0.1 0.3 0.45 0.1
0.35 0.45 0.1 0.4 0.45 0.1 0.45 0.45 0.1 0.5
0.45 0.1 0.55 0.45 0.1 0.6 0.45 0.1 0.65 0.45
0.1 0.7 0.45 0.1 0.75 0.45 0.1 0.8 0.45 0.1
0.85 0.45 0.1 0.9 0.45 0.1 0.95 0.45 0.1 1
0.45 0.1 0 0.5 0.1 0.05 0.5 0.1 0.1 0.5
0.1 0.15 0.5 0.1 0.2 0.5 0.1 0.25 0.5 0.1
0.3 0.5 0.1 0.35 0.5 0.1 0.4 0.5 0.1 0.45
0.5 0.1 0.5 0.5 0.1 0.55 0.5 0.1 0.6 0.5
0.1 0.65 0.5 0.1 0.7 0.5 0.1 0.75 0.5 0.1
0.8 0.5 0.1 0.85 0.5 0.1 0.9 0.5 0.1 0.95
0.5 0.1 1 0.5 0.1 0 0.55 0.1 0.05 0.55
0.1 0.1 0.55 0.1 0.15 0.55 0.1 0.2 0.55 0.1
0.25 0.55 0.1 0.3 0.55 0.1 0.35 0.55 0.1 0.4
0.55 0.1 0.45 0.55 0.1 0.5 0.55 0.1 0.55 0.55
0.1 0.6 0.55 0.1 0.65 0.55 0.1 0.7 0.55 0.1
0.75 0.55 0.1 0.8 0.55 0.1 0.85 0.55 0.1 0.9
0.55 0.1 0.95 0.55 0.1 1 0.55 0.1 0 0.6
0.1 0.05 0.6 0.1 0.1 0.6 0.1 0.15 0.6 0.1
0.2 0.6 0.1 0.25 0.6 0.1 0.3 0.6 0.1 0.35
0.6 0.1 0.4 0.6 0.1 0.45 0.6 0.1 0.5 0.6
0.1 0.55 0.6 0.1 0.6 0.6 0.1 0.65 0.6 0.1
0.7 0.6 0.1 0.75 0.6 0.1 0.8 0.6 0.1 0.85
0.6 0.1 0.9 0.6 0.1 0.95 0.6 0.1 1 0.6
0.1 0 0.65 0.1 0.05 0.65 0.1 0.1 0.65 0.1
0.15 0.65 0.1 0.2 0.65 0.1 0.25 0.65 0.1 0.3
0.65 0.1 0.35 0.65 0.1 0.4 0.65 0.1 0.45 0.65
0.1 0.5 0.65 0.1 0.55 0.65 0.1 0.6 0.65 0.1
0.65 0.65 0.1 0.7 0.65 0.1 0.75 0.65 0.1 0.8
0.65 0.1 0.85 0.65 0.1 0.9 0.65 0.1 0.95 0.65
0.1 1 0.65 0.1 0 0.7 0.1 0.05 0.7 0.1
0.1 0.7 0.1 0.15 0.7 0.1 0.2 0.7 0.1 0.25
0.7 0.1 0.3 0.7 0.1 0.35 0.7 0.1 0.4 0.7
0.1 0.45 0.7 0.1 0.5 0.7 0.1 0.55 0.7 0.1
0.6 0.7 0.1 0.65 0.7 0.1 0.7 0.7 0.1 0.75
0.7 0.1 0.8 0.7 0.1 0.85 0.7 0.1 0.9 0.7
0.1 0.95 0.7 0.1 1 0.7 0.1 0 0.75 0.1
0.05 0.75 0.1 0.1 0.75 0.1 0.15 0.75 0.1 0.2
0.75 0.1 0.25 0.75 0.1 0.3 0.75 0.1 0.35 0.75
0.1 0.4 0.75 0.1 0.45 0.75 0.1 0.5 0.75 0.1
0.55 0.75 0.1 0.6 0.75 0.1 0.65 0.75 0.1 0.7
0.75 0.1 0.75 0.75 0.1 0.8 0.75 0.1 0.85 0.75
0.1 0.9 0.75 0.1 0.95 0.75 0.1 1 0.75 0.1
0 0.8 0.1 0.05 0.8 0.1 0.1 0.8 0.1 0.15
0.8 0.1 0.2 0.8 0.1 0.25 0.8 0.1 0.3 0.8
0.1 0.35 0.8 0.1 0.4 0.8 0.1 0.45 0.8 0.1
0.5 0.8 0.1 0.55 0.8 0.1 0.6 0.8 0.1 0.65
0.8 0.1 0.7 0.8 0.1 0.75 0.8 0.1 0.8 0.8
0.1 0.85 0.8 0.1 0.9 0.8 0.1 0.95 0.8 0.1
1 0.8 0.1 0 0.85 0.1 0.05 0.85 0.1 0.1
0.85 0.1 0.15 0.85 0.1 0.2 0.85 0.1 0.25 0.85
0.1 0.3 0.85 0.1 0.35 0.85 0.1 0.4 0.85 0.1
0.45 0.85 0.1 0.5 0.85 0.1 0.55 0.85 0.1 0.6
0.85 0.1 0.65 0.85 0.1 0.7 0.85 0.1 0.75 0.85
0.1 0.8 0.85 0.1 0.85 0.85 0.1 0.9 0.85 0.1
0.95 0.85 0.1 1 0.85 0.1 0 0.9 0.1 0.05
0.9 0.1 0.1 0.9 0.1 0.15 0.9 0.1 0.2 0.9
0.1 0.25 0.9 0.1 0.3 0.9 0.1 0.35 0.9 0.1
0.4 0.9 0.1 0.45 0.9 0.1 0.5 0.9 0.1 0.55
0.9 0.1 0.6 0.9 0.1 0.65 0.9 0.1 0.7 0.9
0.1 0.75 0.9 0.1 0.8 0.9 0.1 0.85 0.9 0.1
0.9 0.9 0.1 0.95 0.9 0.1 1 0.9 0.1 0
0.95 0.1 0.05 0.95 0.1 0.1 0.95 0.1 0.15 0.95
0.1 0.2 0.95 0.1 0.25 0.95 0.1 0.3 0.95 0.1
0.35 0.95 0.1 0.4 0.95 0.1 0.45 0.95 0.1 0.5
0.95 0.1 0.55 0.95 0.1 0.6 0.95 0.1 0.65 0.95
[...]
CELL_DATA 400
FIELD attributes 6
cellID 1 400 int
0 1 2 3 4 5 6 7 8 9 10
11 12 13 14 15 16 17 18 19 20
21 22 23 24 25 26 27 28 29 30
31 32 33 34 35 36 37 38 39 40
41 42 43 44 45 46 47 48 49 50
51 52 53 54 55 56 57 58 59 60
61 62 63 64 65 66 67 68 69 70
71 72 73 74 75 76 77 78 79 80
81 82 83 84 85 86 87 88 89 90
91 92 93 94 95 96 97 98 99 100
101 102 103 104 105 106 107 108 109 110
111 112 113 114 115 116 117 118 119 120
121 122 123 124 125 126 127 128 129 130
131 132 133 134 135 136 137 138 139 140
141 142 143 144 145 146 147 148 149 150
151 152 153 154 155 156 157 158 159 160
161 162 163 164 165 166 167 168 169 170
171 172 173 174 175 176 177 178 179 180
181 182 183 184 185 186 187 188 189 190
191 192 193 194 195 196 197 198 199 200
201 202 203 204 205 206 207 208 209 210
211 212 213 214 215 216 217 218 219 220
221 222 223 224 225 226 227 228 229 230
231 232 233 234 235 236 237 238 239 240
241 242 243 244 245 246 247 248 249 250
251 252 253 254 255 256 257 258 259 260
261 262 263 264 265 266 267 268 269 270
271 272 273 274 275 276 277 278 279 280
281 282 283 284 285 286 287 288 289 290
291 292 293 294 295 296 297 298 299 300
301 302 303 304 305 306 307 308 309 310
311 312 313 314 315 316 317 318 319 320
321 322 323 324 325 326 327 328 329 330
331 332 333 334 335 336 337 338 339 340
341 342 343 344 345 346 347 348 349 350
351 352 353 354 355 356 357 358 359 360
361 362 363 364 365 366 367 368 369 370
371 372 373 374 375 376 377 378 379 380
381 382 383 384 385 386 387 388 389 390
391 392 393 394 395 396 397 398 399 
T 1 400 float
280.42 280.42 280.42 280.42 280.42 280.42 280.42 280.42 280.42 280.42 280.42
280.42 280.42 280.42 280.42 280.42 280.42 280.42 280.42 280.42 280.001
280.001 280.001 280.001 280.001 280.001 280.001 280.001 280.001 280.001 280.001
280.001 280.001 280.001 280.001 280.001 280.001 280.001 280.001 280.001 280
280 280 280 280 280 280 280 280 280 280
280 280 280 280 280 280 280 280 280 280
280 280 280 280 280 280 280 280 280 280
280 280 280 280 280 280 280 280 280 280
280 280 280 280 280 280 280 280 280 280
280 280 280 280 280 280 280 280 280 280
280 280 280 280 280 280 280 280 280 280
280 280 280 280 280 280 280 280 280 280
280 280 280 280 280 280 280 280 280 280
280 280 280 280 280 280 280 280 280 280
280 280 280 280 280 280 280 280 280 280
280 280 280 280 280 280 280 280 280 280
280 280 280 280 280 280 280 280 280 280
280 280 280 280 280 280 280 280 280 280
280 280 280 280 280 280 280 280 280 280
280 280 280 280 280 280 280 280 280 280
280 280 280 280 280 280 280 280 280 280
280 280 280 280 280 280 280 280 280 280
280 280 280 280 280 280 280 280 280 280
280 280 280 280 280 280 280 280 280 280
280 280 280 280 280 280 280 280 280 280
280 280 280 280 280 280 280 280 280 280
280 280 280 280 280 280 280 280 280 280
280 280 280 280 280 280 280 280 280 280
280 280 280 280 280 280 280 280 280 280
280 280 280 280 280 280 280 280 280 280
280 280 280 280 280 280 280 280 280 280
280 280 280 280 280 280 280 280 280 280
280 280 280 280 280 280 280 280 280 280
280 280 280 280 280 280 280 280 280 280
280 280 280 280 280 280 280 280 280 280
280 280 280 280 280 280 280 280 280 280
280 280 280 280 280 280 280 280 280 280
280 280 280 280 280 280 280 280 280 280
280 280 280 280 280 280 280 280 280 280
280 280 280 280 280 280 280 280 280 
alphat 1 400 float
0 0 0 0 0 0 0 0 0 0 0
0 0 0 0 0 0 0 0 0 0
0 0 0 0 0 0 0 0 0 0
0 0 0 0 0 0 0 0 0 0
0 0 0 0 0 0 0 0 0 0
0 0 0 0 0 0 0 0 0 0
0 0 0 0 0 0 0 0 0 0
0 0 0 0 0 0 0 0 0 0
0 0 0 0 0 0 0 0 0 0
0 0 0 0 0 0 0 0 0 0
0 0 0 0 0 0 0 0 0 0
0 0 0 0 0 0 0 0 0 0
0 0 0 0 0 0 0 0 0 0
0 0 0 0 0 0 0 0 0 0
0 0 0 0 0 0 0 0 0 0
0 0 0 0 0 0 0 0 0 0
0 0 0 0 0 0 0 0 0 0
0 0 0 0 0 0 0 0 0 0
0 0 0 0 0 0 0 0 0 0
0 0 0 0 0 0 0 0 0 0
0 0 0 0 0 0 0 0 0 0
0 0 0 0 0 0 0 0 0 0
0 0 0 0 0 0 0 0 0 0
0 0 0 0 0 0 0 0 0 0
0 0 0 0 0 0 0 0 0 0
0 0 0 0 0 0 0 0 0 0
0 0 0 0 0 0 0 0 0 0
0 0 0 0 0 0 0 0 0 0
0 0 0 0 0 0 0 0 0 0
0 0 0 0 0 0 0 0 0 0
0 0 0 0 0 0 0 0 0 0
0 0 0 0 0 0 0 0 0 0
0 0 0 0 0 0 0 0 0 0
0 0 0 0 0 0 0 0 0 0
0 0 0 0 0 0 0 0 0 0
0 0 0 0 0 0 0 0 0 0
0 0 0 0 0 0 0 0 0 0
0 0 0 0 0 0 0 0 0 0
0 0 0 0 0 0 0 0 0 0
0 0 0 0 0 0 0 0 0 
p 1 400 float
0 4.62763e-10 4.83177e-10 5.03669e-10 5.00262e-10 4.93722e-10 4.83091e-10 4.75583e-10 4.58556e-10 4.61779e-10 4.70399e-10
4.77848e-10 4.82479e-10 4.85619e-10 4.8729e-10 4.87729e-10 4.89109e-10 4.95152e-10 4.87437e-10 5.02189e-10 -0.492577
-0.492577 -0.492577 -0.492577 -0.492577 -0.492577 -0.492577 -0.492577 -0.492577 -0.492577 -0.492577
-0.492577 -0.492577 -0.492577 -0.492577 -0.492577 -0.492577 -0.492577 -0.492577 -0.492577 -0.985177
-0.985177 -0.985177 -0.985177 -0.985177 -0.985177 -0.985177 -0.985177 -0.985177 -0.985177 -0.985177
-0.985177 -0.985177 -0.985177 -0.985177 -0.985177 -0.985177 -0.985177 -0.985177 -0.985177 -1.47778
-1.47778 -1.47778 -1.47778 -1.47778 -1.47778 -1.47778 -1.47778 -1.47778 -1.47778 -1.47778
-1.47778 -1.47778 -1.47778 -1.47778 -1.47778 -1.47778 -1.47778 -1.47778 -1.47778 -1.97038
-1.97038 -1.97038 -1.97038 -1.97038 -1.97038 -1.97038 -1.97038 -1.97038 -1.97038 -1.97038
-1.97038 -1.97038 -1.97038 -1.97038 -1.97038 -1.97038 -1.97038 -1.97038 -1.97038 -2.46297
-2.46297 -2.46297 -2.46297 -2.46297 -2.46297 -2.46297 -2.46297 -2.46297 -2.46297 -2.46297
-2.46297 -2.46297 -2.46297 -2.46297 -2.46297 -2.46297 -2.46297 -2.46297 -2.46297 -2.95557
-2.95557 -2.95557 -2.95557 -2.95557 -2.95557 -2.95557 -2.95557 -2.95557 -2.95557 -2.95557
-2.95557 -2.95557 -2.95557 -2.95557 -2.95557 -2.95557 -2.95557 -2.95557 -2.95557 -3.44817
-3.44817 -3.44817 -3.44817 -3.44817 -3.44817 -3.44817 -3.44817 -3.44817 -3.44817 -3.44817
-3.44817 -3.44817 -3.44817 -3.44817 -3.44817 -3.44817 -3.44817 -3.44817 -3.44817 -3.94077
-3.94077 -3.94077 -3.94077 -3.94077 -3.94077 -3.94077 -3.94077 -3.94077 -3.94077 -3.94077
-3.94077 -3.94077 -3.94077 -3.94077 -3.94077 -3.94077 -3.94077 -3.94077 -3.94077 -4.43337
-4.43337 -4.43337 -4.43337 -4.43337 -4.43337 -4.43337 -4.43337 -4.43337 -4.43337 -4.43337
-4.43337 -4.43337 -4.43337 -4.43337 -4.43337 -4.43337 -4.43337 -4.43337 -4.43337 -4.92597
-4.92597 -4.92597 -4.92597 -4.92597 -4.92597 -4.92597 -4.92597 -4.92597 -4.92597 -4.92597
-4.92597 -4.92597 -4.92597 -4.92597 -4.92597 -4.92597 -4.92597 -4.92597 -4.92597 -5.41857
-5.41857 -5.41857 -5.41857 -5.41857 -5.41857 -5.41857 -5.41857 -5.41857 -5.41857 -5.41857
-5.41857 -5.41857 -5.41857 -5.41857 -5.41857 -5.41857 -5.41857 -5.41857 -5.41857 -5.91117
-5.91117 -5.91117 -5.91117 -5.91117 -5.91117 -5.91117 -5.91117 -5.91117 -5.91117 -5.91117
-5.91117 -5.91117 -5.91117 -5.91117 -5.91117 -5.91117 -5.91117 -5.91117 -5.91117 -6.40377
-6.40377 -6.40377 -6.40377 -6.40377 -6.40377 -6.40377 -6.40377 -6.40377 -6.40377 -6.40377
-6.40377 -6.40377 -6.40377 -6.40377 -6.40377 -6.40377 -6.40377 -6.40377 -6.40377 -6.89637
-6.89637 -6.89637 -6.89637 -6.89637 -6.89637 -6.89637 -6.89637 -6.89637 -6.89637 -6.89637
-6.89637 -6.89637 -6.89637 -6.89637 -6.89637 -6.89637 -6.89637 -6.89637 -6.89637 -7.38897
-7.38897 -7.38897 -7.38897 -7.38897 -7.38897 -7.38897 -7.38897 -7.38897 -7.38897 -7.38897
-7.38897 -7.38897 -7.38897 -7.38897 -7.38897 -7.38897 -7.38897 -7.38897 -7.38897 -7.88157
-7.88157 -7.88157 -7.88157 -7.88157 -7.88157 -7.88157 -7.88157 -7.88157 -7.88157 -7.88157
-7.88157 -7.88157 -7.88157 -7.88157 -7.88157 -7.88157 -7.88157 -7.88157 -7.88157 -8.37417
-8.37417 -8.37417 -8.37417 -8.37417 -8.37417 -8.37417 -8.37417 -8.37417 -8.37417 -8.37417
-8.37417 -8.37417 -8.37417 -8.37417 -8.37417 -8.37417 -8.37417 -8.37417 -8.37417 -8.86677
-8.86677 -8.86677 -8.86677 -8.86677 -8.86677 -8.86677 -8.86677 -8.86677 -8.86677 -8.86677
-8.86677 -8.86677 -8.86677 -8.86677 -8.86677 -8.86677 -8.86677 -8.86677 -8.86677 -9.35937
-9.35937 -9.35937 -9.35937 -9.35937 -9.35937 -9.35937 -9.35937 -9.35937 -9.35937 -9.35937
-9.35937 -9.35937 -9.35937 -9.35937 -9.35937 -9.35937 -9.35937 -9.35937 -9.35937 
p_rgh 1 400 float
0.246278 0.246278 0.246278 0.246278 0.246278 0.246278 0.246278 0.246278 0.246278 0.246278 0.246278
0.246278 0.246278 0.246278 0.246278 0.246278 0.246278 0.246278 0.246278 0.246278 0.246322
0.246322 0.246322 0.246322 0.246322 0.246322 0.246322 0.246322 0.246322 0.246322 0.246322
0.246322 0.246322 0.246322 0.246322 0.246322 0.246322 0.246322 0.246322 0.246322 0.246322
0.246322 0.246322 0.246322 0.246322 0.246322 0.246322 0.246322 0.246322 0.246322 0.246322
0.246322 0.246322 0.246322 0.246322 0.246322 0.246322 0.246322 0.246322 0.246322 0.246322
0.246322 0.246322 0.246322 0.246322 0.246322 0.246322 0.246322 0.246322 0.246322 0.246322
0.246322 0.246322 0.246322 0.246322 0.246322 0.246322 0.246322 0.246322 0.246322 0.246322
0.246322 0.246322 0.246322 0.246322 0.246322 0.246322 0.246322 0.246322 0.246322 0.246322
0.246322 0.246322 0.246322 0.246322 0.246322 0.246322 0.246322 0.246322 0.246322 0.246322
0.246322 0.246322 0.246322 0.246322 0.246322 0.246322 0.246322 0.246322 0.246322 0.246322
0.246322 0.246322 0.246322 0.246322 0.246322 0.246322 0.246322 0.246322 0.246322 0.246322
0.246322 0.246322 0.246322 0.246322 0.246322 0.246322 0.246322 0.246322 0.246322 0.246322
0.246322 0.246322 0.246322 0.246322 0.246322 0.246322 0.246322 0.246322 0.246322 0.246322
0.246322 0.246322 0.246322 0.246322 0.246322 0.246322 0.246322 0.246322 0.246322 0.246322
0.246322 0.246322 0.246322 0.246322 0.246322 0.246322 0.246322 0.246322 0.246322 0.246322
0.246322 0.246322 0.246322 0.246322 0.246322 0.246322 0.246322 0.246322 0.246322 0.246322
0.246322 0.246322 0.246322 0.246322 0.246322 0.246322 0.246322 0.246322 0.246322 0.246322
0.246322 0.246322 0.246322 0.246322 0.246322 0.246322 0.246322 0.246322 0.246322 0.246322
0.246322 0.246322 0.246322 0.246322 0.246322 0.246322 0.246322 0.246322 0.246322 0.246322
0.246322 0.246322 0.246322 0.246322 0.246322 0.246322 0.246322 0.246322 0.246322 0.246322
0.246322 0.246322 0.246322 0.246322 0.246322 0.246322 0.246322 0.246322 0.246322 0.246322
0.246322 0.246322 0.246322 0.246322 0.246322 0.246322 0.246322 0.246322 0.246322 0.246322
0.246322 0.246322 0.246322 0.246322 0.246322 0.246322 0.246322 0.246322 0.246322 0.246322
0.246322 0.246322 0.246322 0.246322 0.246322 0.246322 0.246322 0.246322 0.246322 0.246322
0.246322 0.246322 0.246322 0.246322 0.246322 0.246322 0.246322 0.246322 0.246322 0.246322
0.246322 0.246322 0.246322 0.246322 0.246322 0.246322 0.246322 0.246322 0.246322 0.246322
0.246322 0.246322 0.246322 0.246322 0.246322 0.246322 0.246322 0.246322 0.246322 0.246322
0.246322 0.246322 0.246322 0.246322 0.246322 0.246322 0.246322 0.246322 0.246322 0.246322
0.246322 0.246322 0.246322 0.246322 0.246322 0.246322 0.246322 0.246322 0.246322 0.246322
0.246322 0.246322 0.246322 0.246322 0.246322 0.246322 0.246322 0.246322 0.246322 0.246322
0.246322 0.246322 0.246322 0.246322 0.246322 0.246322 0.246322 0.246322 0.246322 0.246322
0.246322 0.246322 0.246322 0.246322 0.246322 0.246322 0.246322 0.246322 0.246322 0.246322
0.246322 0.246322 0.246322 0.246322 0.246322 0.246322 0.246322 0.246322 0.246322 0.246322
0.246322 0.246322 0.246322 0.246322 0.246322 0.246322 0.246322 0.246322 0.246322 0.246322
0.246322 0.246322 0.246322 0.246322 0.246322 0.246322 0.246322 0.246322 0.246322 0.246322
0.246322 0.246322 0.246322 0.246322 0.246322 0.246322 0.246322 0.246322 0.246322 0.246322
0.246322 0.246322 0.246322 0.246322 0.246322 0.246322 0.246322 0.246322 0.246322 0.246322
0.246322 0.246322 0.246322 0.246322 0.246322 0.246322 0.246322 0.246322 0.246322 0.246322
0.246322 0.246322 0.246322 0.246322 0.246322 0.246322 0.246322 0.246322 0.246322 
U 3 400 float
-7.84012e-08 6.41956e-08 0 -8.5316e-08 -3.33199e-08 0 -1.34513e-08 -2.5203e-08 0 -7.37428e-09 -4.59904e-09
0 5.54475e-10 -2.82339e-09 0 3.0925e-09 -1.0185e-09 0 4.18232e-09 -4.62596e-10 0
5.58081e-09 -3.66422e-10 0 3.58521e-09 2.50068e-09 0 -1.11688e-09 2.13665e-09 0 -2.72194e-09
4.78368e-10 0 -2.58728e-09 -2.45197e-10 0 -2.08085e-09 -2.86246e-10 0 -1.49938e-09 -4.39395e-10
0 -8.80311e-10 -2.72843e-10 0 -7.82918e-10 2.89179e-10 0 -1.57097e-09 1.06782e-10 0
5.74001e-11 -1.92852e-10 0 -1.28522e-09 6.76251e-10 0 -2.4205e-09 -1.17674e-09 0 8.35279e-09
1.04859e-07 0 5.33734e-09 -5.05158e-08 0 -8.94444e-09 -3.8373e-08 0 -7.66893e-09 -1.09198e-08
0 -2.75437e-09 -7.21803e-09 0 -1.57405e-09 -3.15555e-09 0 3.07237e-11 -1.40799e-09 0
-2.83402e-11 -2.21491e-10 0 -1.11233e-09 4.70697e-09 0 -6.95741e-10 3.74578e-09 0 -6.07687e-10
8.39156e-10 0 -6.55503e-10 -5.18542e-10 0 -5.50657e-10 -6.47421e-10 0 -6.80564e-10 -7.01292e-10
0 -1.15217e-09 -4.89105e-10 0 -1.12253e-09 2.88502e-10 0 -1.1667e-09 -6.20897e-10 0
7.68717e-10 -6.04617e-10 0 1.82343e-10 2.55085e-09 0 -1.30278e-09 -2.85171e-09 0 3.81647e-08
5.70946e-08 0 4.03747e-08 -2.07168e-08 0 2.92395e-09 -1.63611e-08 0 1.76713e-09 -1.16229e-08
0 5.98691e-10 -7.42967e-09 0 -1.44792e-09 -3.03743e-09 0 -1.83454e-09 -1.79018e-09 0
-2.9354e-09 1.00802e-09 0 -2.67577e-09 3.24023e-09 0 3.932e-10 1.88367e-09 0 1.2402e-09
5.24329e-10 0 9.527e-10 -2.71419e-10 0 6.72265e-10 -3.54016e-10 0 -9.67848e-11 1.99424e-10
0 -1.33816e-09 2.54963e-10 0 -1.72137e-09 1.68344e-10 0 -1.91031e-09 -1.39988e-09 0
-9.24607e-10 -1.94732e-09 0 9.17406e-10 2.87161e-09 0 7.42365e-10 -2.4645e-09 0 1.69663e-08
2.57223e-08 0 1.87553e-08 -4.73502e-09 0 4.5824e-09 -5.25231e-09 0 3.65519e-09 -9.40167e-09
0 3.17725e-10 -5.21222e-09 0 -5.08478e-10 -1.08987e-09 0 -1.96374e-09 -5.34159e-10 0
-3.01404e-09 1.13455e-09 0 -1.05129e-09 1.02704e-09 0 5.93911e-10 2.18422e-10 0 1.00003e-09
3.38098e-10 0 8.47705e-10 9.50386e-11 0 3.79543e-10 2.07503e-10 0 -3.63648e-10 1.28485e-09
0 -1.11144e-09 1.14387e-09 0 -1.33616e-09 5.28842e-10 0 -1.39589e-09 -1.18743e-09 0
-1.80178e-09 -3.24852e-09 0 4.24892e-12 9.77658e-10 0 1.06174e-09 -1.38096e-09 0 7.57932e-09
1.40928e-08 0 9.41579e-09 -8.06672e-10 0 5.33617e-09 -2.77371e-09 0 3.72013e-09 -6.13309e-09
0 -7.9003e-10 -3.08292e-09 0 -9.78232e-10 -8.58844e-10 0 -1.54601e-09 1.02664e-09 0
-1.74964e-09 1.98451e-10 0 -1.15204e-10 -5.9606e-10 0 3.12183e-10 -3.14049e-10 0 6.5078e-10
2.29008e-10 0 5.24215e-10 5.26635e-10 0 -4.69277e-10 8.75274e-10 0 -1.05387e-09 1.75042e-09
0 -1.1744e-09 1.28727e-09 0 -6.86213e-10 2.47026e-10 0 1.22183e-10 -9.92299e-10 0
-7.54401e-10 -3.22229e-09 0 -2.03831e-10 -3.43012e-10 0 7.13006e-10 -1.05115e-09 0 4.38358e-09
6.9524e-09 0 6.18968e-09 3.54088e-10 0 4.16643e-09 -1.19253e-09 0 2.07933e-09 -2.88317e-09
0 -1.38139e-10 -8.41675e-10 0 -1.50427e-09 -3.53043e-10 0 -1.86354e-09 4.79912e-10 0
-6.25646e-11 -6.29752e-10 0 2.71984e-11 -9.65288e-10 0 -1.80813e-10 -4.98846e-10 0 2.20456e-10
4.12645e-11 0 2.0154e-11 1.22266e-09 0 -1.10655e-09 1.8538e-09 0 -1.53949e-09 1.90194e-09
0 -1.44056e-09 9.40307e-10 0 -5.17301e-10 -8.75832e-10 0 6.7682e-10 -1.16878e-09 0
6.99278e-11 -2.84082e-09 0 7.5376e-11 -7.39788e-10 0 4.89171e-10 -7.42723e-10 0 2.81307e-09
2.29368e-09 0 3.50721e-09 1.01863e-09 0 2.03856e-09 4.6099e-10 0 3.22311e-10 -1.09151e-09
0 -5.28804e-10 8.58124e-11 0 -1.02673e-09 1.21924e-09 0 -1.3002e-09 -8.02963e-10 0
1.69536e-10 -1.43047e-09 0 -2.75863e-10 -5.73837e-10 0 -3.89803e-10 -5.05736e-10 0 -4.31979e-10
4.53566e-12 0 -8.56174e-10 1.86117e-09 0 -1.46806e-09 2.4085e-09 0 -1.24817e-09 1.81976e-09
0 -7.99552e-10 5.62534e-10 0 -2.67162e-10 -1.93102e-09 0 6.41858e-10 -1.55162e-09 0
1.01982e-10 -2.47477e-09 0 3.24724e-11 -8.86458e-10 0 4.34461e-10 -4.52642e-10 0 1.32284e-09
-1.02074e-10 0 1.23888e-09 1.85722e-09 0 5.77517e-10 1.35948e-09 0 2.30104e-10 2.04266e-10
0 -1.51954e-09 3.30589e-10 0 -5.54326e-10 7.58544e-10 0 2.79598e-10 -1.04987e-09 0
-5.66877e-10 -1.47367e-09 0 -4.24315e-10 -4.67914e-10 0 -2.29889e-10 -3.36824e-10 0 -8.59645e-10
4.79685e-10 0 -1.39556e-09 2.31774e-09 0 -1.71552e-09 2.46417e-09 0 -9.60811e-10 9.3123e-10
0 2.21902e-10 9.40358e-11 0 3.59337e-10 -2.3935e-09 0 5.36212e-10 -1.48968e-09 0
-2.35765e-10 -2.11414e-09 0 2.32998e-11 -1.23229e-09 0 5.63418e-10 -2.07712e-10 0 -3.33129e-11
-5.2698e-10 0 -1.57934e-10 2.19076e-09 0 -2.41904e-10 1.28838e-09 0 3.79791e-11 9.56312e-10
0 -9.28337e-10 1.0044e-09 0 -5.905e-11 -7.16506e-10 0 5.57818e-10 -6.7537e-10 0
-8.74088e-10 -8.81536e-10 0 -4.53531e-10 -9.60475e-10 0 -2.66179e-10 -1.2431e-10 0 -1.0936e-09
1.32101e-09 0 -1.41164e-09 2.43298e-09 0 -1.12277e-09 2.35442e-09 0 -5.33269e-10 -2.46378e-10
0 4.69763e-10 -5.93989e-10 0 5.25135e-10 -2.38421e-09 0 4.06702e-10 -1.11427e-09 0
2.76144e-11 -1.93535e-09 0 3.54568e-10 -1.73496e-09 0 6.19821e-10 2.21238e-10 0 -6.09914e-10
2.21245e-11 0 -4.82471e-10 2.00337e-09 0 1.38927e-10 1.2911e-09 0 -6.73789e-10 9.21183e-10
0 1.15353e-10 5.62632e-10 0 3.73483e-10 -8.86116e-10 0 -3.94512e-10 -1.52237e-10 0
-1.86483e-10 -4.49799e-10 0 -4.30213e-10 -1.05741e-09 0 -9.13082e-10 3.01854e-10 0 -1.49853e-09
1.7769e-09 0 -1.29536e-09 2.01693e-09 0 -2.69909e-10 1.73772e-09 0 4.29276e-10 -7.86639e-10
0 6.49592e-10 -9.26573e-10 0 6.67488e-10 -2.3063e-09 0 7.29836e-10 -1.08422e-09 0
7.0297e-10 -1.89457e-09 0 6.77274e-10 -1.94072e-09 0 4.71768e-10 8.41136e-10 0 -3.27511e-10
6.22214e-10 0 -4.7374e-10 1.39714e-09 0 3.53642e-10 1.31945e-09 0 -2.36258e-10 1.14421e-09
0 3.1588e-10 -1.22234e-10 0 -1.05209e-10 -1.12432e-10 0 -7.06214e-10 -2.29544e-10 0
5.37819e-10 -7.19165e-10 0 -2.30882e-10 -4.21035e-10 0 -9.53803e-10 1.08012e-09 0 -1.45922e-09
1.8842e-09 0 -1.12566e-09 1.20887e-09 0 9.65152e-11 6.59583e-10 0 9.72138e-10 -1.20596e-09
0 1.25829e-09 -1.0334e-09 0 1.17698e-09 -2.25292e-09 0 1.25838e-09 -1.27797e-09 0
1.31257e-09 -1.70185e-09 0 8.01718e-10 -1.64877e-09 0 2.44596e-10 1.42797e-09 0 8.59057e-11
8.08981e-10 0 4.6212e-11 1.40261e-09 0 -4.92414e-10 1.15284e-09 0 1.77443e-10 8.89814e-10
0 3.24059e-10 2.89021e-10 0 -3.79374e-10 3.18499e-10 0 4.19557e-10 -9.31285e-10 0
6.9959e-10 -7.31673e-10 0 -6.09789e-10 4.14326e-10 0 -1.01281e-09 1.38483e-09 0 -7.52939e-10
1.97984e-09 0 -5.76776e-10 4.19117e-10 0 4.43002e-10 -4.04331e-10 0 1.21839e-09 -1.80531e-09
0 1.64537e-09 -1.22946e-09 0 1.67661e-09 -2.18323e-09 0 1.7389e-09 -1.43762e-09 0
1.67413e-09 -1.30084e-09 0 6.90167e-10 -8.75726e-10 0 -3.19504e-11 1.85486e-09 0 -1.81131e-10
5.76686e-10 0 2.02625e-10 1.72997e-09 0 -2.5401e-10 1.31462e-09 0 5.89419e-11 2.76324e-10
0 1.91001e-10 5.44475e-10 0 5.58835e-10 -2.68044e-10 0 1.31757e-09 -1.25194e-09 0
4.32188e-10 2.57939e-10 0 -6.56833e-10 1.49747e-09 0 -1.12073e-09 1.01779e-09 0 -2.50218e-10
1.57342e-09 0 1.56973e-10 -9.29062e-11 0 6.04746e-10 -1.14544e-09 0 1.26995e-09 -2.40142e-09
0 1.88354e-09 -1.62453e-09 0 2.14753e-09 -2.16625e-09 0 2.00183e-09 -1.42818e-09 0
1.55476e-09 -5.9903e-10 0 2.65454e-10 1.4151e-10 0 -3.35251e-10 2.00928e-09 0 -2.67316e-10
8.49215e-10 0 -4.79059e-10 1.4863e-09 0 2.86407e-10 1.23189e-09 0 7.89553e-11 3.03972e-10
0 2.14203e-10 -5.35626e-11 0 1.6094e-09 -9.76345e-10 0 8.44997e-10 -5.2296e-10 0
-3.08528e-10 9.75733e-10 0 2.57786e-11 2.00286e-09 0 -2.59267e-10 8.82483e-10 0 -6.23213e-11
9.17146e-10 0 5.86692e-10 -4.37235e-10 0 8.15631e-10 -1.66736e-09 0 1.56011e-09 -3.03528e-09
0 2.21539e-09 -2.20397e-09 0 2.34124e-09 -2.06037e-09 0 1.71601e-09 -9.49018e-10 0
8.82684e-10 4.00745e-10 0 -3.0095e-10 1.07393e-09 0 -5.2198e-10 1.75001e-09 0 -2.33697e-11
1.23209e-09 0 -2.04702e-10 1.24072e-09 0 3.1584e-10 7.86309e-10 0 1.83967e-10 4.10284e-10
0 7.74832e-10 -1.12013e-09 0 1.3381e-09 -8.91827e-10 0 3.11117e-10 7.71883e-10 0
-4.69755e-10 1.07845e-09 0 4.25218e-10 1.47551e-09 0 7.34371e-10 1.07464e-09 0 3.73779e-10
5.84763e-10 0 1.06867e-09 -8.25798e-10 0 1.407e-09 -2.26451e-09 0 2.03717e-09 -3.59619e-09
0 2.30399e-09 -2.50338e-09 0 1.91983e-09 -1.52325e-09 0 8.60905e-10 -7.70066e-12 0
-3.45741e-11 1.35949e-09 0 -7.3697e-10 1.62533e-09 0 -5.56133e-10 1.13738e-09 0 -2.69598e-10
1.13356e-09 0 3.92476e-10 1.05107e-09 0 2.72375e-10 8.43548e-10 0 3.16656e-10 -6.14001e-12
0 9.15395e-10 -1.35589e-09 0 -3.53559e-10 -3.41536e-10 0 1.05882e-11 1.04882e-09 0
5.76655e-10 8.90987e-10 0 9.68411e-10 7.5609e-10 0 1.16764e-09 1.21151e-09 0 1.00649e-09
2.87827e-10 0 1.67761e-09 -1.20002e-09 0 1.93968e-09 -2.74651e-09 0 2.05902e-09 -3.77767e-09
0 1.79092e-09 -2.2376e-09 0 9.95234e-10 -5.33519e-10 0 -1.49418e-10 1.00761e-09 0