# vtk DataFile Version 2.0
RBConvection
ASCII
DATASET UNSTRUCTURED_GRID
POINTS 882 float
0 0 0 0.05 0 0 0.1 0 0 0.15 0
0 0.2 0 0 0.25 0 0 0.3 0 0
0.35 0 0 0.4 0 0 0.45 0 0 0.5
0 0 0.55 0 0 0.6 0 0 0.65 0
0 0.7 0 0 0.75 0 0 0.8 0 0
0.85 0 0 0.9 0 0 0.95 0 0 1
0 0 0 0.05 0 0.05 0.05 0 0.1 0.05
0 0.15 0.05 0 0.2 0.05 0 0.25 0.05 0
0.3 0.05 0 0.35 0.05 0 0.4 0.05 0 0.45
0.05 0 0.5 0.05 0 0.55 0.05 0 0.6 0.05
0 0.65 0.05 0 0.7 0.05 0 0.75 0.05 0
0.8 0.05 0 0.85 0.05 0 0.9 0.05 0 0.95
0.05 0 1 0.05 0 0 0.1 0 0.05 0.1
0 0.1 0.1 0 0.15 0.1 0 0.2 0.1 0
0.25 0.1 0 0.3 0.1 0 0.35 0.1 0 0.4
0.1 0 0.45 0.1 0 0.5 0.1 0 0.55 0.1
0 0.6 0.1 0 0.65 0.1 0 0.7 0.1 0
0.75 0.1 0 0.8 0.1 0 0.85 0.1 0 0.9
0.1 0 0.95 0.1 0 1 0.1 0 0 0.15
0 0.05 0.15 0 0.1 0.15 0 0.15 0.15 0
0.2 0.15 0 0.25 0.15 0 0.3 0.15 0 0.35
0.15 0 0.4 0.15 0 0.45 0.15 0 0.5 0.15
0 0.55 0.15 0 0.6 0.15 0 0.65 0.15 0
0.7 0.15 0 0.75 0.15 0 0.8 0.15 0 0.85
0.15 0 0.9 0.15 0 0.95 0.15 0 1 0.15
0 0 0.2 0 0.05 0.2 0 0.1 0.2 0
0.15 0.2 0 0.2 0.2 0 0.25 0.2 0 0.3
0.2 0 0.35 0.2 0 0.4 0.2 0 0.45 0.2
0 0.5 0.2 0 0.55 0.2 0 0.6 0.2 0
0.65 0.2 0 0.7 0.2 0 0.75 0.2 0 0.8
0.2 0 0.85 0.2 0 0.9 0.2 0 0.95 0.2
0 1 0.2 0 0 0.25 0 0.05 0.25 0
0.1 0.25 0 0.15 0.25 0 0.2 0.25 0 0.25
0.25 0 0.3 0.25 0 0.35 0.25 0 0.4 0.25
0 0.45 0.25 0 0.5 0.25 0 0.55 0.25 0
0.6 0.25 0 0.65 0.25 0 0.7 0.25 0 0.75
0.25 0 0.8 0.25 0 0.85 0.25 0 0.9 0.25
0 0.95 0.25 0 1 0.25 0 0 0.3 0
0.05 0.3 0 0.1 0.3 0 0.15 0.3 0 0.2
0.3 0 0.25 0.3 0 0.3 0.3 0 0.35 0.3
0 0.4 0.3 0 0.45 0.3 0 0.5 0.3 0
0.55 0.3 0 0.6 0.3 0 0.65 0.3 0 0.7
0.3 0 0.75 0.3 0 0.8 0.3 0 0.85 0.3
0 0.9 0.3 0 0.95 0.3 0 1 0.3 0
0 0.35 0 0.05 0.35 0 0.1 0.35 0 0.15
0.35 0 0.2 0.35 0 0.25 0.35 0 0.3 0.35
0 0.35 0.35 0 0.4 0.35 0 0.45 0.35 0
0.5 0.35 0 0.55 0.35 0 0.6 0.35 0 0.65
0.35 0 0.7 0.35 0 0.75 0.35 0 0.8 0.35
0 0.85 0.35 0 0.9 0.35 0 0.95 0.35 0
1 0.35 0 0 0.4 0 0.05 0.4 0 0.1
0.4 0 0.15 0.4 0 0.2 0.4 0 0.25 0.4
0 0.3 0.4 0 0.35 0.4 0 0.4 0.4 0
0.45 0.4 0 0.5 0.4 0 0.55 0.4 0 0.6
0.4 0 0.65 0.4 0 0.7 0.4 0 0.75 0.4
0 0.8 0.4 0 0.85 0.4 0 0.9 0.4 0
0.95 0.4 0 1 0.4 0 0 0.45 0 0.05
0.45 0 0.1 0.45 0 0.15 0.45 0 0.2 0.45
0 0.25 0.45 0 0.3 0.45 0 0.35 0.45 0
0.4 0.45 0 0.45 0.45 0 0.5 0.45 0 0.55
0.45 0 0.6 0.45 0 0.65 0.45 0 0.7 0.45
0 0.75 0.45 0 0.8 0.45 0 0.85 0.45 0
0.9 0.45 0 0.95 0.45 0 1 0.45 0 0
0.5 0 0.05 0.5 0 0.1 0.5 0 0.15 0.5
0 0.2 0.5 0 0.25 0.5 0 0.3 0.5 0
0.35 0.5 0 0.4 0.5 0 0.45 0.5 0 0.5
0.5 0 0.55 0.5 0 0.6 0.5 0 0.65 0.5
0 0.7 0.5 0 0.75 0.5 0 0.8 0.5 0
0.85 0.5 0 0.9 0.5 0 0.95 0.5 0 1
0.5 0 0 0.55 0 0.05 0.55 0 0.1 0.55
0 0.15 0.55 0 0.2 0.55 0 0.25 0.55 0
0.3 0.55 0 0.35 0.55 0 0.4 0.55 0 0.45
0.55 0 0.5 0.55 0 0.55 0.55 0 0.6 0.55
0 0.65 0.55 0 0.7 0.55 0 0.75 0.55 0
0.8 0.55 0 0.85 0.55 0 0.9 0.55 0 0.95
0.55 0 1 0.55 0 0 0.6 0 0.05 0.6
0 0.1 0.6 0 0.15 0.6 0 0.2 0.6 0
0.25 0.6 0 0.3 0.6 0 0.35 0.6 0 0.4
0.6 0 0.45 0.6 0 0.5 0.6 0 0.55 0.6
0 0.6 0.6 0 0.65 0.6 0 0.7 0.6 0
0.75 0.6 0 0.8 0.6 0 0.85 0.6 0 0.9
0.6 0 0.95 0.6 0 1 0.6 0 0 0.65
0 0.05 0.65 0 0.1 0.65 0 0.15 0.65 0
0.2 0.65 0 0.25 0.65 0 0.3 0.65 0 0.35
0.65 0 0.4 0.65 0 0.45 0.65 0 0.5 0.65
0 0.55 0.65 0 0.6 0.65 0 0.65 0.65 0
0.7 0.65 0 0.75 0.65 0 0.8 0.65 0 0.85
0.65 0 0.9 0.65 0 0.95 0.65 0 1 0.65
0 0 0.7 0 0.05 0.7 0 0.1 0.7 0
0.15 0.7 0 0.2 0.7 0 0.25 0.7 0 0.3
0.7 0 0.35 0.7 0 0.4 0.7 0 0.45 0.7
0 0.5 0.7 0 0.55 0.7 0 0.6 0.7 0
0.65 0.7 0 0.7 0.7 0 0.75 0.7 0 0.8
0.7 0 0.85 0.7 0 0.9 0.7 0 0.95 0.7
0 1 0.7 0 0 0.75 0 0.05 0.75 0
0.1 0.75 0 0.15 0.75 0 0.2 0.75 0 0.25
0.75 0 0.3 0.75 0 0.35 0.75 0 0.4 0.75
0 0.45 0.75 0 0.5 0.75 0 0.55 0.75 0
0.6 0.75 0 0.65 0.75 0 0.7 0.75 0 0.75
0.75 0 0.8 0.75 0 0.85 0.75 0 0.9 0.75
0 0.95 0.75 0 1 0.75 0 0 0.8 0
0.05 0.8 0 0.1 0.8 0 0.15 0.8 0 0.2
0.8 0 0.25 0.8 0 0.3 0.8 0 0.35 0.8
0 0.4 0.8 0 0.45 0.8 0 0.5 0.8 0
0.55 0.8 0 0.6 0.8 0 0.65 0.8 0 0.7
0.8 0 0.75 0.8 0 0.8 0.8 0 0.85 0.8
0 0.9 0.8 0 0.95 0.8 0 1 0.8 0
0 0.85 0 0.05 0.85 0 0.1 0.85 0 0.15
0.85 0 0.2 0.85 0 0.25 0.85 0 0.3 0.85
0 0.35 0.85 0 0.4 0.85 0 0.45 0.85 0
0.5 0.85 0 0.55 0.85 0 0.6 0.85 0 0.65
0.85 0 0.7 0.85 0 0.75 0.85 0 0.8 0.85
0 0.85 0.85 0 0.9 0.85 0 0.95 0.85 0
1 0.85 0 0 0.9 0 0.05 0.9 0 0.1
0.9 0 0.15 0.9 0 0.2 0.9 0 0.25 0.9
0 0.3 0.9 0 0.35 0.9 0 0.4 0.9 0
0.45 0.9 0 0.5 0.9 0 0.55 0.9 0 0.6
0.9 0 0.65 0.9 0 0.7 0.9 0 0.75 0.9
0 0.8 0.9 0 0.85 0.9 0 0.9 0.9 0
0.95 0.9 0 1 0.9 0 0 0.95 0 0.05
0.95 0 0.1 0.95 0 0.15 0.95 0 0.2 0.95
0 0.25 0.95 0 0.3 0.95 0 0.35 0.95 0
0.4 0.95 0 0.45 0.95 0 0.5 0.95 0 0.55
0.95 0 0.6 0.95 0 0.65 0.95 0 0.7 0.95
0 0.75 0.95 0 0.8 0.95 0 0.85 0.95 0
0.9 0.95 0 0.95 0.95 0 1 0.95 0 0
1 0 0.05 1 0 0.1 1 0 0.15 1
0 0.2 1 0 0.25 1 0 0.3 1 0
0.35 1 0 0.4 1 0 0.45 1 0 0.5
1 0 0.55 1 0 0.6 1 0 0.65 1
0 0.7 1 0 0.75 1 0 0.8 1 0
0.85 1 0 0.9 1 0 0.95 1 0 1
1 0 0 0 0.1 0.05 0 0.1 0.1 0
0.1 0.15 0 0.1 0.2 0 0.1 0.25 0 0.1
0.3 0 0.1 0.35 0 0.1 0.4 0 0.1 0.45
0 0.1 0.5 0 0.1 0.55 0 0.1 0.6 0
0.1 0.65 0 0.1 0.7 0 0.1 0.75 0 0.1
0.8 0 0.1 0.85 0 0.1 0.9 0 0.1 0.95
0 0.1 1 0 0.1 0 0.05 0.1 0.05 0.05
0.1 0.1 0.05 0.1 0.15 0.05 0.1 0.2 0.05 0.1
0.25 0.05 0.1 0.3 0.05 0.1 0.35 0.05 0.1 0.4
0.05 0.1 0.45 0.05 0.1 0.5 0.05 0.1 0.55 0.05
0.1 0.6 0.05 0.1 0.65 0.05 0.1 0.7 0.05 0.1
0.75 0.05 0.1 0.8 0.05 0.1 0.85 0.05 0.1 0.9
0.05 0.1 0.95 0.05 0.1 1 0.05 0.1 0 0.1
0.1 0.05 0.1 0.1 0.1 0.1 0.1 0.15 0.1 0.1
0.2 0.1 0.1 0.25 0.1 0.1 0.3 0.1 0.1 0.35
0.1 0.1 0.4 0.1 0.1 0.45 0.1 0.1 0.5 0.1
0.1 0.55 0.1 0.1 0.6 0.1 0.1 0.65 0.1 0.1
0.7 0.1 0.1 0.75 0.1 0.1 0.8 0.1 0.1 0.85
0.1 0.1 0.9 0.1 0.1 0.95 0.1 0.1 1 0.1
0.1 0 0.15 0.1 0.05 0.15 0.1 0.1 0.15 0.1
0.15 0.15 0.1 0.2 0.15 0.1 0.25 0.15 0.1 0.3
0.15 0.1 0.35 0.15 0.1 0.4 0.15 0.1 0.45 0.15
0.1 0.5 0.15 0.1 0.55 0.15 0.1 0.6 0.15 0.1
0.65 0.15 0.1 0.7 0.15 0.1 0.75 0.15 0.1 0.8
0.15 0.1 0.85 0.15 0.1 0.9 0.15 0.1 0.95 0.15
0.1 1 0.15 0.1 0 0.2 0.1 0.05 0.2 0.1
0.1 0.2 0.1 0.15 0.2 0.1 0.2 0.2 0.1 0.25
0.2 0.1 0.3 0.2 0.1 0.35 0.2 0.1 0.4 0.2
0.1 0.45 0.2 0.1 0.5 0.2 0.1 0.55 0.2 0.1
0.6 0.2 0.1 0.65 0.2 0.1 0.7 0.2 0.1 0.75
0.2 0.1 0.8 0.2 0.1 0.85 0.2 0.1 0.9 0.2
0.1 0.95 0.2 0.1 1 0.2 0.1 0 0.25 0.1
0.05 0.25 0.1 0.1 0.25 0.1 0.15 0.25 0.1 0.2
0.25 0.1 0.25 0.25 0.1 0.3 0.25 0.1 0.35 0.25
0.1 0.4 0.25 0.1 0.45 0.25 0.1 0.5 0.25 0.1
0.55 0.25 0.1 0.6 0.25 0.1 0.65 0.25 0.1 0.7
0.25 0.1 0.75 0.25 0.1 0.8 0.25 0.1 0.85 0.25
0.1 0.9 0.25 0.1 0.95 0.25 0.1 1 0.25 0.1
0 0.3 0.1 0.05 0.3 0.1 0.1 0.3 0.1 0.15
0.3 0.1 0.2 0.3 0.1 0.25 0.3 0.1 0.3 0.3
0.1 0.35 0.3 0.1 0.4 0.3 0.1 0.45 0.3 0.1
0.5 0.3 0.1 0.55 0.3 0.1 0.6 0.3 0.1 0.65
0.3 0.1 0.7 0.3 0.1 0.75 0.3 0.1 0.8 0.3
0.1 0.85 0.3 0.1 0.9 0.3 0.1 0.95 0.3 0.1
1 0.3 0.1 0 0.35 0.1 0.05 0.35 0.1 0.1
0.35 0.1 0.15 0.35 0.1 0.2 0.35 0.1 0.25 0.35
0.1 0.3 0.35 0.1 0.35 0.35 0.1 0.4 0.35 0.1
0.45 0.35 0.1 0.5 0.35 0.1 0.55 0.35 0.1 0.6
0.35 0.1 0.65 0.35 0.1 0.7 0.35 0.1 0.75 0.35
0.1 0.8 0.35 0.1 0.85 0.35 0.1 0.9 0.35 0.1
0.95 0.35 0.1 1 0.35 0.1 0 0.4 0.1 0.05
0.4 0.1 0.1 0.4 0.1 0.15 0.4 0.1 0.2 0.4
0.1 0.25 0.4 0.1 0.3 0.4 0.1 0.35 0.4 0.1
0.4 0.4 0.1 0.45 0.4 0.1 0.5 0.4 0.1 0.55
0.4 0.1 0.6 0.4 0.1 0.65 0.4 0.1 0.7 0.4
0.1 0.75 0.4 0.1 0.8 0.4 0.1 0.85 0.4 0.1
0.9 0.4 0.1 0.95 0.4 0.1 1 0.4 0.1 0
0.45 0.1 0.05 0.45 0.1 0.1 0.45 0.1 0.15 0.45
0.1 0.2 0.45 0.1 0.25 0.45 0.1 0.3 0.45 0.1
0.35 0.45 0.1 0.4 0.45 0.1 0.45 0.45 0.1 0.5
0.45 0.1 0.55 0.45 0.1 0.6 0.45 0.1 0.65 0.45
0.1 0.7 0.45 0.1 0.75 0.45 0.1 0.8 0.45 0.1
0.85 0.45 0.1 0.9 0.45 0.1 0.95 0.45 0.1 1
0.45 0.1 0 0.5 0.1 0.05 0.5 0.1 0.1 0.5
0.1 0.15 0.5 0.1 0.2 0.5 0.1 0.25 0.5 0.1
0.3 0.5 0.1 0.35 0.5 0.1 0.4 0.5 0.1 0.45
0.5 0.1 0.5 0.5 0.1 0.55 0.5 0.1 0.6 0.5
0.1 0.65 0.5 0.1 0.7 0.5 0.1 0.75 0.5 0.1
0.8 0.5 0.1 0.85 0.5 0.1 0.9 0.5 0.1 0.95
0.5 0.1 1 0.5 0.1 0 0.55 0.1 0.05 0.55
0.1 0.1 0.55 0.1 0.15 0.55 0.1 0.2 0.55 0.1
0.25 0.55 0.1 0.3 0.55 0.1 0.35 0.55 0.1 0.4
0.55 0.1 0.45 0.55 0.1 0.5 0.55 0.1 0.55 0.55
0.1 0.6 0.55 0.1 0.65 0.55 0.1 0.7 0.55 0.1
0.75 0.55 0.1 0.8 0.55 0.1 0.85 0.55 0.1 0.9
0.55 0.1 0.95 0.55 0.1 1 0.55 0.1 0 0.6
0.1 0.05 0.6 0.1 0.1 0.6 0.1 0.15 0.6 0.1
0.2 0.6 0.1 0.25 0.6 0.1 0.3 0.6 0.1 0.35
0.6 0.1 0.4 0.6 0.1 0.45 0.6 0.1 0.5 0.6
0.1 0.55 0.6 0.1 0.6 0.6 0.1 0.65 0.6 0.1
0.7 0.6 0.1 0.75 0.6 0.1 0.8 0.6 0.1 0.85
0.6 0.1 0.9 0.6 0.1 0.95 0.6 0.1 1 0.6
0.1 0 0.65 0.1 0.05 0.65 0.1 0.1 0.65 0.1
0.15 0.65 0.1 0.2 0.65 0.1 0.25 0.65 0.1 0.3
0.65 0.1 0.35 0.65 0.1 0.4 0.65 0.1 0.45 0.65
0.1 0.5 0.65 0.1 0.55 0.65 0.1 0.6 0.65 0.1
0.65 0.65 0.1 0.7 0.65 0.1 0.75 0.65 0.1 0.8
0.65 0.1 0.85 0.65 0.1 0.9 0.65 0.1 0.95 0.65
0.1 1 0.65 0.1 0 0.7 0.1 0.05 0.7 0.1
0.1 0.7 0.1 0.15 0.7 0.1 0.2 0.7 0.1 0.25
0.7 0.1 0.3 0.7 0.1 0.35 0.7 0.1 0.4 0.7
0.1 0.45 0.7 0.1 0.5 0.7 0.1 0.55 0.7 0.1
0.6 0.7 0.1 0.65 0.7 0.1 0.7 0.7 0.1 0.75
0.7 0.1 0.8 0.7 0.1 0.85 0.7 0.1 0.9 0.7
0.1 0.95 0.7 0.1 1 0.7 0.1 0 0.75 0.1
0.05 0.75 0.1 0.1 0.75 0.1 0.15 0.75 0.1 0.2
0.75 0.1 0.25 0.75 0.1 0.3 0.75 0.1 0.35 0.75
0.1 0.4 0.75 0.1 0.45 0.75 0.1 0.5 0.75 0.1
0.55 0.75 0.1 0.6 0.75 0.1 0.65 0.75 0.1 0.7
0.75 0.1 0.75 0.75 0.1 0.8 0.75 0.1 0.85 0.75
0.1 0.9 0.75 0.1 0.95 0.75 0.1 1 0.75 0.1
0 0.8 0.1 0.05 0.8 0.1 0.1 0.8 0.1 0.15
0.8 0.1 0.2 0.8 0.1 0.25 0.8 0.1 0.3 0.8
0.1 0.35 0.8 0.1 0.4 0.8 0.1 0.45 0.8 0.1
0.5 0.8 0.1 0.55 0.8 0.1 0.6 0.8 0.1 0.65
0.8 0.1 0.7 0.8 0.1 0.75 0.8 0.1 0.8 0.8
0.1 0.85 0.8 0.1 0.9 0.8 0.1 0.95 0.8 0.1
1 0.8 0.1 0 0.85 0.1 0.05 0.85 0.1 0.1
0.85 0.1 0.15 0.85 0.1 0.2 0.85 0.1 0.25 0.85
0.1 0.3 0.85 0.1 0.35 0.85 0.1 0.4 0.85 0.1
0.45 0.85 0.1 0.5 0.85 0.1 0.55 0.85 0.1 0.6
0.85 0.1 0.65 0.85 0.1 0.7 0.85 0.1 0.75 0.85
0.1 0.8 0.85 0.1 0.85 0.85 0.1 0.9 0.85 0.1
0.95 0.85 0.1 1 0.85 0.1 0 0.9 0.1 0.05
0.9 0.1 0.1 0.9 0.1 0.15 0.9 0.1 0.2 0.9
0.1 0.25 0.9 0.1 0.3 0.9 0.1 0.35 0.9 0.1
0.4 0.9 0.1 0.45 0.9 0.1 0.5 0.9 0.1 0.55
0.9 0.1 0.6 0.9 0.1 0.65 0.9 0.1 0.7 0.9
0.1 0.75 0.9 0.1 0.8 0.9 0.1 0.85 0.9 0.1
0.9 0.9 0.1 0.95 0.9 0.1 1 0.9 0.1 0
0.95 0.1 0.05 0.95 0.1 0.1 0.95 0.1 0.15 0.95
0.1 0.2 0.95 0.1 0.25 0.95 0.1 0.3 0.95 0.1
0.35 0.95 0.1 0.4 0.95 0.1 0.45 0.95 0.1 0.5
0.95 0.1 0.55 0.95 0.1 0.6 0.95 0.1 0.65 0.95
[...]
CELL_DATA 400
FIELD attributes 6
cellID 1 400 int
0 1 2 3 4 5 6 7 8 9 10
11 12 13 14 15 16 17 18 19 20
21 22 23 24 25 26 27 28 29 30
31 32 33 34 35 36 37 38 39 40
41 42 43 44 45 46 47 48 49 50
51 52 53 54 55 56 57 58 59 60
61 62 63 64 65 66 67 68 69 70
71 72 73 74 75 76 77 78 79 80
81 82 83 84 85 86 87 88 89 90
91 92 93 94 95 96 97 98 99 100
101 102 103 104 105 106 107 108 109 110
111 112 113 114 115 116 117 118 119 120
121 122 123 124 125 126 127 128 129 130
131 132 133 134 135 136 137 138 139 140
141 142 143 144 145 146 147 148 149 150
151 152 153 154 155 156 157 158 159 160
161 162 163 164 165 166 167 168 169 170
171 172 173 174 175 176 177 178 179 180
181 182 183 184 185 186 187 188 189 190
191 192 193 194 195 196 197 198 199 200
201 202 203 204 205 206 207 208 209 210
211 212 213 214 215 216 217 218 219 220
221 222 223 224 225 226 227 228 229 230
231 232 233 234 235 236 237 238 239 240
241 242 243 244 245 246 247 248 249 250
251 252 253 254 255 256 257 258 259 260
261 262 263 264 265 266 267 268 269 270
271 272 273 274 275 276 277 278 279 280
281 282 283 284 285 286 287 288 289 290
291 292 293 294 295 296 297 298 299 300
301 302 303 304 305 306 307 308 309 310
311 312 313 314 315 316 317 318 319 320
321 322 323 324 325 326 327 328 329 330
331 332 333 334 335 336 337 338 339 340
341 342 343 344 345 346 347 348 349 350
351 352 353 354 355 356 357 358 359 360
361 362 363 364 365 366 367 368 369 370
371 372 373 374 375 376 377 378 379 380
381 382 383 384 385 386 387 388 389 390
391 392 393 394 395 396 397 398 399 
T 1 400 float
280.545 280.545 280.545 280.545 280.545 280.545 280.545 280.545 280.545 280.545 280.545
280.545 280.545 280.545 280.545 280.545 280.545 280.545 280.545 280.545 280.002
280.002 280.002 280.002 280.002 280.002 280.002 280.002 280.002 280.002 280.002
280.002 280.002 280.002 280.002 280.002 280.002 280.002 280.002 280.002 280
280 280 280 280 280 280 280 280 280 280
280 280 280 280 280 280 280 280 280 280
280 280 280 280 280 280 280 280 280 280
280 280 280 280 280 280 280 280 280 280
280 280 280 280 280 280 280 280 280 280
280 280 280 280 280 280 280 280 280 280
280 280 280 280 280 280 280 280 280 280
280 280 280 280 280 280 280 280 280 280
280 280 280 280 280 280 280 280 280 280
280 280 280 280 280 280 280 280 280 280
280 280 280 280 280 280 280 280 280 280
280 280 280 280 280 280 280 280 280 280
280 280 280 280 280 280 280 280 280 280
280 280 280 280 280 280 280 280 280 280
280 280 280 280 280 280 280 280 280 280
280 280 280 280 280 280 280 280 280 280
280 280 280 280 280 280 280 280 280 280
280 280 280 280 280 280 280 280 280 280
280 280 280 280 280 280 280 280 280 280
280 280 280 280 280 280 280 280 280 280
280 280 280 280 280 280 280 280 280 280
280 280 280 280 280 280 280 280 280 280
280 280 280 280 280 280 280 280 280 280
280 280 280 280 280 280 280 280 280 280
280 280 280 280 280 280 280 280 280 280
280 280 280 280 280 280 280 280 280 280
280 280 280 280 280 280 280 280 280 280
280 280 280 280 280 280 280 280 280 280
280 280 280 280 280 280 280 280 280 280
280 280 280 280 280 280 280 280 280 280
280 280 280 280 280 280 280 280 280 280
280 280 280 280 280 280 280 280 280 280
280 280 280 280 280 280 280 280 280 280
280 280 280 280 280 280 280 280 280 280
280 280 280 280 280 280 280 280 280 280
280 280 280 280 280 280 280 280 280 
alphat 1 400 float
0 0 0 0 0 0 0 0 0 0 0
0 0 0 0 0 0 0 0 0 0
0 0 0 0 0 0 0 0 0 0
0 0 0 0 0 0 0 0 0 0
0 0 0 0 0 0 0 0 0 0
0 0 0 0 0 0 0 0 0 0
0 0 0 0 0 0 0 0 0 0
0 0 0 0 0 0 0 0 0 0
0 0 0 0 0 0 0 0 0 0
0 0 0 0 0 0 0 0 0 0
0 0 0 0 0 0 0 0 0 0
0 0 0 0 0 0 0 0 0 0
0 0 0 0 0 0 0 0 0 0
0 0 0 0 0 0 0 0 0 0
0 0 0 0 0 0 0 0 0 0
0 0 0 0 0 0 0 0 0 0
0 0 0 0 0 0 0 0 0 0
0 0 0 0 0 0 0 0 0 0
0 0 0 0 0 0 0 0 0 0
0 0 0 0 0 0 0 0 0 0
0 0 0 0 0 0 0 0 0 0
0 0 0 0 0 0 0 0 0 0
0 0 0 0 0 0 0 0 0 0
0 0 0 0 0 0 0 0 0 0
0 0 0 0 0 0 0 0 0 0
0 0 0 0 0 0 0 0 0 0
0 0 0 0 0 0 0 0 0 0
0 0 0 0 0 0 0 0 0 0
0 0 0 0 0 0 0 0 0 0
0 0 0 0 0 0 0 0 0 0
0 0 0 0 0 0 0 0 0 0
0 0 0 0 0 0 0 0 0 0
0 0 0 0 0 0 0 0 0 0
0 0 0 0 0 0 0 0 0 0
0 0 0 0 0 0 0 0 0 0
0 0 0 0 0 0 0 0 0 0
0 0 0 0 0 0 0 0 0 0
0 0 0 0 0 0 0 0 0 0
0 0 0 0 0 0 0 0 0 0
0 0 0 0 0 0 0 0 0 
p 1 400 float
0 3.22748e-09 3.26783e-09 3.25667e-09 3.23788e-09 3.21205e-09 3.18623e-09 3.17627e-09 3.0887e-09 3.12194e-09 3.1894e-09
3.22719e-09 3.24203e-09 3.24997e-09 3.25164e-09 3.24426e-09 3.25817e-09 3.27332e-09 3.24048e-09 3.29459e-09 -0.492571
-0.492571 -0.492571 -0.492571 -0.492571 -0.492571 -0.492571 -0.492571 -0.492571 -0.492571 -0.492571
-0.492571 -0.492571 -0.492571 -0.492571 -0.492571 -0.492571 -0.492571 -0.492571 -0.492571 -0.98517
-0.98517 -0.98517 -0.98517 -0.98517 -0.98517 -0.98517 -0.98517 -0.98517 -0.98517 -0.98517
-0.98517 -0.98517 -0.98517 -0.98517 -0.98517 -0.98517 -0.98517 -0.98517 -0.98517 -1.47777
-1.47777 -1.47777 -1.47777 -1.47777 -1.47777 -1.47777 -1.47777 -1.47777 -1.47777 -1.47777
-1.47777 -1.47777 -1.47777 -1.47777 -1.47777 -1.47777 -1.47777 -1.47777 -1.47777 -1.97037
-1.97037 -1.97037 -1.97037 -1.97037 -1.97037 -1.97037 -1.97037 -1.97037 -1.97037 -1.97037
-1.97037 -1.97037 -1.97037 -1.97037 -1.97037 -1.97037 -1.97037 -1.97037 -1.97037 -2.46297
-2.46297 -2.46297 -2.46297 -2.46297 -2.46297 -2.46297 -2.46297 -2.46297 -2.46297 -2.46297
-2.46297 -2.46297 -2.46297 -2.46297 -2.46297 -2.46297 -2.46297 -2.46297 -2.46297 -2.95557
-2.95557 -2.95557 -2.95557 -2.95557 -2.95557 -2.95557 -2.95557 -2.95557 -2.95557 -2.95557
-2.95557 -2.95557 -2.95557 -2.95557 -2.95557 -2.95557 -2.95557 -2.95557 -2.95557 -3.44817
-3.44817 -3.44817 -3.44817 -3.44817 -3.44817 -3.44817 -3.44817 -3.44817 -3.44817 -3.44817
-3.44817 -3.44817 -3.44817 -3.44817 -3.44817 -3.44817 -3.44817 -3.44817 -3.44817 -3.94077
-3.94077 -3.94077 -3.94077 -3.94077 -3.94077 -3.94077 -3.94077 -3.94077 -3.94077 -3.94077
-3.94077 -3.94077 -3.94077 -3.94077 -3.94077 -3.94077 -3.94077 -3.94077 -3.94077 -4.43337
-4.43337 -4.43337 -4.43337 -4.43337 -4.43337 -4.43337 -4.43337 -4.43337 -4.43337 -4.43337
-4.43337 -4.43337 -4.43337 -4.43337 -4.43337 -4.43337 -4.43337 -4.43337 -4.43337 -4.92596
-4.92596 -4.92596 -4.92596 -4.92596 -4.92596 -4.92596 -4.92596 -4.92596 -4.92596 -4.92596
-4.92596 -4.92596 -4.92596 -4.92596 -4.92596 -4.92596 -4.92596 -4.92596 -4.92596 -5.41856
-5.41856 -5.41856 -5.41856 -5.41856 -5.41856 -5.41856 -5.41856 -5.41856 -5.41856 -5.41856
-5.41856 -5.41856 -5.41856 -5.41856 -5.41856 -5.41856 -5.41856 -5.41856 -5.41856 -5.91116
-5.91116 -5.91116 -5.91116 -5.91116 -5.91116 -5.91116 -5.91116 -5.91116 -5.91116 -5.91116
-5.91116 -5.91116 -5.91116 -5.91116 -5.91116 -5.91116 -5.91116 -5.91116 -5.91116 -6.40376
-6.40376 -6.40376 -6.40376 -6.40376 -6.40376 -6.40376 -6.40376 -6.40376 -6.40376 -6.40376
-6.40376 -6.40376 -6.40376 -6.40376 -6.40376 -6.40376 -6.40376 -6.40376 -6.40376 -6.89636
-6.89636 -6.89636 -6.89636 -6.89636 -6.89636 -6.89636 -6.89636 -6.89636 -6.89636 -6.89636
-6.89636 -6.89636 -6.89636 -6.89636 -6.89636 -6.89636 -6.89636 -6.89636 -6.89636 -7.38896
-7.38896 -7.38896 -7.38896 -7.38896 -7.38896 -7.38896 -7.38896 -7.38896 -7.38896 -7.38896
-7.38896 -7.38896 -7.38896 -7.38896 -7.38896 -7.38896 -7.38896 -7.38896 -7.38896 -7.88156
-7.88156 -7.88156 -7.88156 -7.88156 -7.88156 -7.88156 -7.88156 -7.88156 -7.88156 -7.88156
-7.88156 -7.88156 -7.88156 -7.88156 -7.88156 -7.88156 -7.88156 -7.88156 -7.88156 -8.37416
-8.37416 -8.37416 -8.37416 -8.37416 -8.37416 -8.37416 -8.37416 -8.37416 -8.37416 -8.37416
-8.37416 -8.37416 -8.37416 -8.37416 -8.37416 -8.37416 -8.37416 -8.37416 -8.37416 -8.86676
-8.86676 -8.86676 -8.86676 -8.86676 -8.86676 -8.86676 -8.86676 -8.86676 -8.86676 -8.86676
-8.86676 -8.86676 -8.86676 -8.86676 -8.86676 -8.86676 -8.86676 -8.86676 -8.86676 -9.35936
-9.35936 -9.35936 -9.35936 -9.35936 -9.35936 -9.35936 -9.35936 -9.35936 -9.35936 -9.35936
-9.35936 -9.35936 -9.35936 -9.35936 -9.35936 -9.35936 -9.35936 -9.35936 -9.35936 
p_rgh 1 400 float
0.246271 0.246271 0.246271 0.246271 0.246271 0.246271 0.246271 0.246271 0.246271 0.246271 0.246271
0.246271 0.246271 0.246271 0.246271 0.246271 0.246271 0.246271 0.246271 0.246271 0.246328
0.246328 0.246328 0.246328 0.246328 0.246328 0.246328 0.246328 0.246328 0.246328 0.246328
0.246328 0.246328 0.246328 0.246328 0.246328 0.246328 0.246328 0.246328 0.246328 0.246328
0.246328 0.246328 0.246328 0.246328 0.246328 0.246328 0.246328 0.246328 0.246328 0.246328
0.246328 0.246328 0.246328 0.246328 0.246328 0.246328 0.246328 0.246328 0.246328 0.246328
0.246328 0.246328 0.246328 0.246328 0.246328 0.246328 0.246328 0.246328 0.246328 0.246328
0.246328 0.246328 0.246328 0.246328 0.246328 0.246328 0.246328 0.246328 0.246328 0.246328
0.246328 0.246328 0.246328 0.246328 0.246328 0.246328 0.246328 0.246328 0.246328 0.246328
0.246328 0.246328 0.246328 0.246328 0.246328 0.246328 0.246328 0.246328 0.246328 0.246328
0.246328 0.246328 0.246328 0.246328 0.246328 0.246328 0.246328 0.246328 0.246328 0.246328
0.246328 0.246328 0.246328 0.246328 0.246328 0.246328 0.246328 0.246328 0.246328 0.246328
0.246328 0.246328 0.246328 0.246328 0.246328 0.246328 0.246328 0.246328 0.246328 0.246328
0.246328 0.246328 0.246328 0.246328 0.246328 0.246328 0.246328 0.246328 0.246328 0.246328
0.246328 0.246328 0.246328 0.246328 0.246328 0.246328 0.246328 0.246328 0.246328 0.246328
0.246328 0.246328 0.246328 0.246328 0.246328 0.246328 0.246328 0.246328 0.246328 0.246328
0.246328 0.246328 0.246328 0.246328 0.246328 0.246328 0.246328 0.246328 0.246328 0.246328
0.246328 0.246328 0.246328 0.246328 0.246328 0.246328 0.246328 0.246328 0.246328 0.246328
0.246328 0.246328 0.246328 0.246328 0.246328 0.246328 0.246328 0.246328 0.246328 0.246328
0.246328 0.246328 0.246328 0.246328 0.246328 0.246328 0.246328 0.246328 0.246328 0.246328
0.246328 0.246328 0.246328 0.246328 0.246328 0.246328 0.246328 0.246328 0.246328 0.246328
0.246328 0.246328 0.246328 0.246328 0.246328 0.246328 0.246328 0.246328 0.246328 0.246328
0.246328 0.246328 0.246328 0.246328 0.246328 0.246328 0.246328 0.246328 0.246328 0.246328
0.246328 0.246328 0.246328 0.246328 0.246328 0.246328 0.246328 0.246328 0.246328 0.246328
0.246328 0.246328 0.246328 0.246328 0.246328 0.246328 0.246328 0.246328 0.246328 0.246328
0.246328 0.246328 0.246328 0.246328 0.246328 0.246328 0.246328 0.246328 0.246328 0.246328
0.246328 0.246328 0.246328 0.246328 0.246328 0.246328 0.246328 0.246328 0.246328 0.246328
0.246328 0.246328 0.246328 0.246328 0.246328 0.246328 0.246328 0.246328 0.246328 0.246328
0.246328 0.246328 0.246328 0.246328 0.246328 0.246328 0.246328 0.246328 0.246328 0.246328
0.246328 0.246328 0.246328 0.246328 0.246328 0.246328 0.246328 0.246328 0.246328 0.246328
0.246328 0.246328 0.246328 0.246328 0.246328 0.246328 0.246328 0.246328 0.246328 0.246328
0.246328 0.246328 0.246328 0.246328 0.246328 0.246328 0.246328 0.246328 0.246328 0.246328
0.246328 0.246328 0.246328 0.246328 0.246328 0.246328 0.246328 0.246328 0.246328 0.246328
0.246328 0.246328 0.246328 0.246328 0.246328 0.246328 0.246328 0.246328 0.246328 0.246328
0.246328 0.246328 0.246328 0.246328 0.246328 0.246328 0.246328 0.246328 0.246328 0.246328
0.246328 0.246328 0.246328 0.246328 0.246328 0.246328 0.246328 0.246328 0.246328 0.246328
0.246328 0.246328 0.246328 0.246328 0.246328 0.246328 0.246328 0.246328 0.246328 0.246328
0.246328 0.246328 0.246328 0.246328 0.246328 0.246328 0.246328 0.246328 0.246328 0.246328
0.246328 0.246328 0.246328 0.246328 0.246328 0.246328 0.246328 0.246328 0.246328 0.246328
0.246328 0.246328 0.246328 0.246328 0.246328 0.246328 0.246328 0.246328 0.246328 
U 3 400 float
-4.85196e-07 3.68025e-07 0 -5.04898e-07 -2.20784e-07 0 -2.93064e-08 -1.56788e-07 0 -9.34303e-09 -1.86989e-09
0 7.38292e-09 -9.46317e-10 0 1.24796e-08 2.14722e-09 0 1.21892e-08 6.24394e-10 0
2.05714e-08 -7.08146e-10 0 1.156e-08 1.24245e-08 0 -1.33309e-08 9.58563e-09 0 -1.6132e-08
-1.02318e-09 0 -1.04548e-08 -3.33236e-09 0 -6.05273e-09 -2.00528e-09 0 -3.51016e-09 -1.7268e-09
0 -1.00675e-09 -6.04479e-10 0 -2.00253e-09 2.18285e-09 0 -5.96826e-09 -7.01861e-10 0
1.57782e-09 -7.22049e-10 0 -4.74368e-09 4.71252e-09 0 -1.01159e-08 -5.7265e-09 0 1.48493e-08
6.63309e-07 0 -1.42463e-08 -3.52253e-07 0 -8.14133e-08 -2.5455e-07 0 -6.88446e-08 -3.93755e-08
0 -2.88767e-08 -2.42814e-08 0 -1.86573e-08 -8.58108e-09 0 -9.23989e-09 -6.42101e-09 0
-4.86572e-09 -4.94999e-09 0 -4.43637e-09 2.33742e-08 0 -4.49721e-09 1.75443e-08 0 -3.58771e-09
-3.44799e-09 0 -2.83989e-09 -6.57653e-09 0 -2.51508e-09 -4.00674e-09 0 -2.61851e-09 -2.89022e-09
0 -3.36297e-09 -1.3732e-09 0 -2.89886e-09 3.2176e-09 0 -2.53785e-09 -2.47708e-09 0
-1.0275e-09 -1.96191e-09 0 5.34761e-10 8.76478e-09 0 1.08916e-10 -1.00198e-08 0 2.52731e-07
3.97474e-07 0 2.59218e-07 -1.61171e-07 0 1.02927e-08 -1.23592e-07 0 2.00851e-09 -5.61781e-08
0 -8.22229e-09 -3.54051e-08 0 -9.98859e-09 -1.58883e-08 0 -1.05296e-08 -9.41179e-09 0
-1.59458e-08 -4.82241e-09 0 -1.08421e-08 1.36154e-08 0 4.59787e-09 9.36294e-09 0 6.6037e-09
-2.94729e-09 0 2.87169e-09 -4.30995e-09 0 8.22272e-10 -2.61166e-09 0 -8.94768e-10 -9.31041e-10
0 -3.62384e-09 -1.36619e-10 0 -3.44836e-09 1.62668e-09 0 -2.32332e-09 -2.64242e-09 0
-4.94537e-09 -3.07734e-09 0 6.25343e-10 3.92054e-09 0 4.10769e-09 -6.54829e-09 0 1.21441e-07
1.63351e-07 0 1.3173e-07 -4.24229e-08 0 2.44298e-08 -4.06646e-08 0 1.53156e-08 -3.24748e-08
0 -2.10441e-09 -2.12225e-08 0 -4.81151e-09 -1.00642e-08 0 -7.40001e-09 -4.28762e-09 0
-1.03054e-08 -2.7114e-09 0 -5.42478e-09 2.58764e-09 0 2.53906e-09 1.57286e-09 0 3.88456e-09
-1.15895e-09 0 2.02652e-09 -1.8201e-09 0 3.72583e-10 -7.33642e-10 0 -1.35223e-09 1.23058e-09
0 -3.12989e-09 1.66327e-09 0 -3.32996e-09 1.14269e-09 0 -2.68232e-09 -1.78479e-09 0
-3.78825e-09 -4.04737e-09 0 -9.1732e-12 -1.45173e-09 0 2.46603e-09 -4.17553e-09 0 5.02636e-08
8.83928e-08 0 6.12762e-08 -1.07132e-08 0 2.43991e-08 -1.6335e-08 0 1.54737e-08 -1.97165e-08
0 1.87142e-09 -1.36088e-08 0 -1.99613e-09 -8.07152e-09 0 -4.2341e-09 -3.61666e-09 0
-3.8397e-09 -4.11918e-09 0 -1.72343e-09 -1.70615e-09 0 1.10497e-09 -8.88564e-10 0 2.05092e-09
-1.23915e-09 0 1.26698e-09 -6.03038e-10 0 -8.24274e-10 8.72702e-10 0 -2.46194e-09 2.66865e-09
0 -3.23343e-09 2.20383e-09 0 -3.03206e-09 7.92211e-10 0 -1.71421e-09 -2.16549e-09 0
-1.84883e-09 -4.82908e-09 0 3.16003e-10 -3.70032e-09 0 1.67857e-09 -3.3057e-09 0 2.41687e-08
4.27712e-08 0 3.25268e-08 2.14323e-09 0 1.75361e-08 -3.04432e-09 0 1.08563e-08 -8.55541e-09
0 3.44106e-09 -6.56541e-09 0 -4.90673e-10 -4.29274e-09 0 -2.01824e-09 -4.09086e-09 0
-3.4116e-10 -4.34337e-09 0 -8.88371e-10 -2.90949e-09 0 1.73842e-10 -2.21508e-09 0 7.59622e-10
-1.19959e-09 0 3.53703e-11 9.59493e-10 0 -2.1078e-09 2.96389e-09 0 -3.06847e-09 3.49183e-09
0 -3.14017e-09 2.06474e-09 0 -2.21666e-09 -3.54139e-10 0 -2.53733e-10 -3.25733e-09 0
2.39275e-10 -5.71368e-09 0 1.2625e-09 -4.87534e-09 0 1.28858e-09 -2.03047e-09 0 1.16807e-08
2.25711e-08 0 1.66083e-08 4.83908e-09 0 1.09808e-08 2.11462e-09 0 7.24814e-09 -2.61042e-09
0 2.08346e-09 -2.48204e-09 0 5.79523e-10 -1.90848e-09 0 3.92897e-11 -4.37314e-09 0
-1.14198e-10 -4.55694e-09 0 -6.8277e-10 -2.74425e-09 0 -2.30539e-10 -2.58625e-09 0 -5.35574e-10
-9.48831e-10 0 -1.48184e-09 2.21367e-09 0 -2.65953e-09 4.08944e-09 0 -2.49032e-09 3.62932e-09
0 -1.88389e-09 1.44977e-09 0 -6.82828e-10 -2.13578e-09 0 1.2995e-09 -4.61192e-09 0
1.34512e-09 -6.21172e-09 0 1.38341e-09 -4.8699e-09 0 1.04732e-09 -6.59273e-10 0 6.09261e-09
1.1563e-08 0 8.43573e-09 6.51323e-09 0 5.53758e-09 4.38837e-09 0 4.42007e-09 1.11986e-09
0 7.05422e-10 7.15768e-11 0 1.09532e-09 -2.26604e-09 0 1.14307e-09 -3.42477e-09 0
-7.51006e-10 -3.84561e-09 0 -2.00852e-10 -2.93731e-09 0 5.0274e-11 -2.3177e-09 0 -1.17399e-09
-5.93397e-12 0 -2.16627e-09 3.20243e-09 0 -2.57444e-09 3.92873e-09 0 -1.4373e-09 2.64976e-09
0 5.35318e-11 4.57328e-10 0 8.01963e-10 -3.49319e-09 0 1.966e-09 -5.21227e-09 0
1.41776e-09 -6.0344e-09 0 1.17501e-09 -4.53874e-09 0 9.05935e-10 4.5245e-10 0 2.68052e-09
6.30257e-09 0 3.68834e-09 7.40749e-09 0 2.28147e-09 5.30786e-09 0 1.64785e-09 2.67933e-09
0 1.18952e-09 8.18049e-10 0 1.61422e-09 -2.50508e-09 0 6.79362e-10 -2.45613e-09 0
-9.04443e-11 -3.24818e-09 0 3.2267e-10 -3.52299e-09 0 1.39271e-10 -1.5886e-09 0 -1.50108e-09
1.30376e-09 0 -1.85333e-09 3.59669e-09 0 -1.53672e-09 3.51705e-09 0 -7.03335e-10 1.03025e-09
0 9.33453e-10 -7.3753e-10 0 1.45955e-09 -4.26128e-09 0 2.071e-09 -5.16897e-09 0
1.4609e-09 -5.56228e-09 0 8.95074e-10 -4.16104e-09 0 6.51008e-10 1.26535e-09 0 6.8081e-10
4.54188e-09 0 7.69832e-10 7.69362e-09 0 1.32284e-09 5.57904e-09 0 9.25287e-10 2.71447e-09
0 1.89478e-09 -3.01519e-10 0 1.53651e-09 -1.35473e-09 0 4.37503e-10 -2.01553e-09 0
1.42312e-09 -3.15056e-09 0 4.86604e-10 -3.18658e-09 0 -4.26378e-10 -6.59472e-10 0 -1.55066e-09
2.10421e-09 0 -1.30133e-09 3.08241e-09 0 -2.67646e-10 2.92681e-09 0 4.3453e-10 9.02553e-11
0 1.36251e-09 -1.58967e-09 0 1.90838e-09 -4.82415e-09 0 2.10951e-09 -5.08912e-09 0
1.5799e-09 -4.96481e-09 0 7.87007e-10 -3.61879e-09 0 3.87286e-10 1.89051e-09 0 9.64872e-11
4.42621e-09 0 1.31446e-11 7.2279e-09 0 9.39814e-10 4.93874e-09 0 1.77721e-09 2.3585e-09
0 1.89335e-09 -1.96869e-10 0 9.56126e-10 -6.63306e-10 0 1.52496e-09 -2.51504e-09 0
2.32114e-09 -3.07261e-09 0 5.53882e-10 -1.70353e-09 0 -6.98859e-10 5.11384e-10 0 -1.17525e-09
2.17743e-09 0 -7.17786e-10 2.22331e-09 0 4.81393e-10 1.84266e-09 0 1.52791e-09 -6.30613e-10
0 2.19073e-09 -2.14753e-09 0 2.35816e-09 -5.03883e-09 0 2.29164e-09 -4.93789e-09 0
2.00796e-09 -4.2872e-09 0 9.45098e-10 -2.84268e-09 0 1.75102e-10 2.43824e-09 0 -1.10088e-10
4.29078e-09 0 7.26684e-10 6.80799e-09 0 9.3016e-10 4.10596e-09 0 1.86307e-09 1.6063e-09
0 1.57872e-09 1.07414e-09 0 1.48535e-09 -1.33546e-09 0 2.89588e-09 -3.0872e-09 0
1.79887e-09 -2.20587e-09 0 9.05424e-11 -4.18523e-10 0 -5.16449e-10 1.24846e-09 0 -2.73982e-10
1.9774e-09 0 4.95234e-11 1.47932e-09 0 1.14199e-09 6.93103e-10 0 2.08063e-09 -1.4953e-09
0 2.89297e-09 -2.66688e-09 0 3.08635e-09 -5.00557e-09 0 2.94642e-09 -4.7589e-09 0
2.60194e-09 -3.51789e-09 0 9.69138e-10 -1.61671e-09 0 -1.16286e-10 2.93582e-09 0 -3.8176e-10
3.89141e-09 0 5.19929e-10 6.23109e-09 0 1.39827e-09 3.76254e-09 0 1.3292e-09 1.43185e-09
0 1.70008e-09 5.29149e-10 0 3.27985e-09 -2.41765e-09 0 2.85666e-09 -2.38637e-09 0
1.00018e-09 -3.68987e-10 0 -4.29213e-11 4.5583e-10 0 -2.67175e-10 9.88053e-10 0 4.37254e-10
1.54178e-09 0 5.91975e-10 9.21853e-10 0 1.54327e-09 -2.26344e-10 0 2.63579e-09 -2.44239e-09
0 3.74368e-09 -3.39266e-09 0 4.10161e-09 -4.97221e-09 0 3.56089e-09 -4.35364e-09 0
2.65102e-09 -2.31235e-09 0 5.41449e-10 -5.46944e-12 0 -4.79949e-10 3.19453e-09 0 -2.19289e-10
4.04497e-09 0 2.17679e-11 5.20672e-09 0 1.59175e-09 3.05317e-09 0 1.59353e-09 1.6153e-09
0 2.72178e-09 -1.35426e-09 0 3.92104e-09 -2.28052e-09 0 1.50733e-09 -7.40163e-10 0
5.69244e-10 5.74156e-10 0 7.01395e-10 9.88602e-10 0 1.70444e-10 8.12693e-10 0 4.65004e-10
1.09225e-09 0 1.14547e-09 1.94201e-10 0 2.24593e-09 -1.31133e-09 0 3.67612e-09 -3.63979e-09
0 4.65735e-09 -4.19597e-09 0 4.61175e-09 -4.64601e-09 0 3.35769e-09 -3.28484e-09 0
1.89762e-09 -6.17438e-10 0 -1.39312e-10 1.57417e-09 0 -7.10828e-10 2.97055e-09 0 -1.89176e-10
4.12336e-09 0 8.26032e-10 4.10144e-09 0 1.93223e-09 2.22412e-09 0 2.22229e-09 6.28619e-10
0 3.31797e-09 -2.22269e-09 0 2.20553e-09 -6.55844e-10 0 6.26308e-10 8.19021e-10 0
6.01731e-10 2.5885e-10 0 1.25439e-09 1.00595e-09 0 9.11158e-10 9.83432e-10 0 8.34189e-10
7.61733e-10 0 2.20007e-09 -1.0463e-09 0 3.38522e-09 -2.71007e-09 0 4.60108e-09 -4.68419e-09
0 4.89881e-09 -4.41279e-09 0 4.13489e-09 -3.62627e-09 0 2.30989e-09 -1.60365e-09 0
7.19237e-10 1.08873e-09 0 -7.69928e-10 2.69792e-09 0 -8.07287e-10 2.27022e-09 0 -1.0511e-10
3.47841e-09 0 1.409e-09 2.94527e-09 0 1.71555e-09 2.09248e-09 0 2.21658e-09 -3.66532e-10
0 2.13813e-09 -1.10289e-09 0 -1.13158e-10 4.73857e-10 0 1.14007e-09 7.00288e-10 0
1.75278e-09 -1.92333e-10 0 1.67366e-09 1.02078e-09 0 1.45548e-09 9.70973e-10 0 1.62721e-09
2.46848e-11 0 3.32104e-09 -2.38344e-09 0 4.26418e-09 -3.81682e-09 0 4.63421e-09 -5.02913e-09
0 4.12336e-09 -3.82904e-09 0 2.83e-09 -2.02722e-09 0 8.84902e-10 1.95756e-10 0