/*--------------------------------*- C++ -*----------------------------------*\
| =========                 |                                                 |
| \\      /  F ield         | OpenFOAM: The Open Source CFD Toolbox           |
|  \\    /   O peration     | Version:  4.1                                   |
|   \\  /    A nd           | Web:      www.OpenFOAM.org                      |
|    \\/     M anipulation  |                                                 |
\*---------------------------------------------------------------------------*/
FoamFile
{
    version     2.0;
    format      ascii;
    class       volScalarField;
    location    "680";
    object      p;
}
// * * * * * * * * * * * * * * * * * * * * * * * * * * * * * * * * * * * * * //

dimensions      [0 2 -2 0 0 0 0];

internalField   nonuniform List<scalar> 
5000
(
0
-1.43581e-05
-2.61314e-05
-3.64255e-05
-4.47236e-05
-5.00992e-05
-5.14878e-05
-4.80039e-05
-3.93277e-05
-2.59336e-05
-9.29621e-06
8.62765e-06
2.58695e-05
4.07886e-05
5.23376e-05
6.02865e-05
6.57367e-05
6.95428e-05
7.12255e-05
7.07628e-05
6.86838e-05
6.53951e-05
6.11916e-05
5.6317e-05
5.09684e-05
4.52834e-05
3.93137e-05
3.29767e-05
2.60933e-05
1.86171e-05
1.11688e-05
5.17246e-06
1.03823e-06
-8.44996e-06
-1.07431e-05
-2.05975e-06
6.2958e-06
1.36678e-05
2.01544e-05
2.58134e-05
3.10774e-05
3.64841e-05
4.25342e-05
4.91194e-05
5.59931e-05
6.23287e-05
6.71612e-05
7.06698e-05
7.50967e-05
8.31499e-05
9.28044e-05
9.66616e-05
8.97124e-05
6.91139e-05
4.57963e-05
3.51183e-05
4.62826e-05
5.01999e-05
5.01128e-05
6.36167e-05
6.86265e-05
6.63803e-05
6.3266e-05
6.25338e-05
6.49097e-05
6.94664e-05
7.45991e-05
7.91021e-05
8.28109e-05
8.6032e-05
8.89727e-05
9.17389e-05
9.43833e-05
9.6927e-05
9.93645e-05
0.000101661
0.00010374
0.000105505
0.000107139
0.000109758
0.000114685
0.000114654
0.000113525
0.000111703
0.000109305
0.000106299
0.000102742
9.88233e-05
9.48164e-05
9.1005e-05
8.76112e-05
8.47511e-05
8.24196e-05
8.0503e-05
7.88517e-05
7.72911e-05
7.57887e-05
7.43791e-05
7.32892e-05
7.8295e-05
-0.0984515
-0.0984696
-0.0984842
-0.0984976
-0.0985089
-0.0985171
-0.0985208
-0.0985191
-0.0985118
-0.0984992
-0.0984831
-0.0984654
-0.0984482
-0.098433
-0.0984206
-0.0984113
-0.0984042
-0.0983987
-0.0983954
-0.098394
-0.0983938
-0.0983944
-0.0983953
-0.0983964
-0.0983974
-0.0983986
-0.0984
-0.0984016
-0.0984037
-0.0984063
-0.0984091
-0.0984119
-0.0984161
-0.0984271
-0.0984374
-0.0984386
-0.0984324
-0.0984234
-0.0984152
-0.0984085
-0.0984028
-0.098398
-0.0983936
-0.0983895
-0.0983854
-0.0983809
-0.098376
-0.0983714
-0.0983691
-0.0983698
-0.098373
-0.0983781
-0.0983903
-0.0984115
-0.0984298
-0.098431
-0.0984083
-0.0983968
-0.0983981
-0.098383
-0.0983714
-0.0983636
-0.0983586
-0.0983565
-0.0983554
-0.0983542
-0.0983531
-0.0983522
-0.0983515
-0.0983509
-0.0983504
-0.0983499
-0.0983493
-0.0983488
-0.0983481
-0.0983474
-0.0983466
-0.0983458
-0.0983452
-0.0983454
-0.0983473
-0.0983469
-0.0983472
-0.0983484
-0.0983503
-0.0983529
-0.0983558
-0.0983589
-0.0983618
-0.0983642
-0.0983659
-0.0983668
-0.0983668
-0.0983663
-0.0983653
-0.0983641
-0.0983626
-0.0983611
-0.0983592
-0.0983503
-0.196932
-0.19695
-0.196965
-0.19698
-0.196993
-0.197003
-0.197008
-0.197006
-0.196999
-0.196986
-0.196969
-0.196951
-0.196934
-0.196918
-0.196905
-0.196895
-0.196887
-0.196881
-0.196877
-0.196876
-0.196875
-0.196875
-0.196876
-0.196876
-0.196877
-0.196876
-0.196876
-0.196875
-0.196873
-0.196871
-0.196868
-0.196867
-0.196869
-0.196882
-0.196902
-0.196913
-0.196909
-0.196902
-0.196896
-0.19689
-0.196885
-0.196881
-0.196877
-0.196873
-0.196869
-0.196865
-0.19686
-0.196856
-0.196853
-0.196853
-0.196856
-0.196863
-0.196877
-0.196899
-0.196909
-0.196904
-0.196886
-0.19688
-0.196876
-0.19686
-0.196847
-0.196839
-0.196834
-0.196831
-0.19683
-0.19683
-0.19683
-0.19683
-0.19683
-0.19683
-0.19683
-0.196829
-0.196829
-0.196828
-0.196828
-0.196827
-0.196827
-0.196826
-0.196825
-0.196826
-0.196827
-0.196827
-0.196828
-0.196829
-0.196831
-0.196833
-0.196836
-0.196839
-0.196842
-0.196845
-0.196846
-0.196847
-0.196847
-0.196846
-0.196844
-0.196842
-0.196839
-0.196836
-0.196832
-0.196822
-0.295426
-0.295441
-0.295455
-0.295469
-0.295483
-0.295493
-0.295498
-0.295496
-0.295489
-0.295475
-0.295457
-0.295439
-0.29542
-0.295404
-0.29539
-0.295379
-0.295371
-0.295364
-0.29536
-0.295358
-0.295357
-0.295357
-0.295357
-0.295357
-0.295357
-0.295357
-0.295356
-0.295354
-0.29535
-0.295346
-0.295342
-0.295339
-0.29534
-0.295349
-0.295366
-0.295378
-0.295381
-0.295378
-0.295374
-0.29537
-0.295366
-0.295362
-0.295359
-0.295356
-0.295352
-0.295348
-0.295343
-0.295339
-0.295336
-0.295335
-0.295336
-0.295342
-0.295355
-0.295373
-0.295372
-0.295364
-0.29535
-0.295355
-0.295347
-0.295332
-0.295322
-0.295316
-0.295313
-0.29531
-0.29531
-0.29531
-0.29531
-0.29531
-0.29531
-0.29531
-0.29531
-0.295309
-0.295309
-0.295309
-0.295308
-0.295307
-0.295307
-0.295306
-0.295306
-0.295306
-0.295307
-0.295307
-0.295308
-0.295309
-0.295311
-0.295314
-0.295317
-0.29532
-0.295323
-0.295325
-0.295327
-0.295328
-0.295327
-0.295326
-0.295324
-0.295322
-0.295319
-0.295316
-0.295313
-0.295305
-0.393924
-0.393937
-0.393948
-0.393962
-0.393974
-0.393984
-0.393989
-0.393988
-0.39398
-0.393965
-0.393947
-0.393927
-0.393908
-0.393891
-0.393876
-0.393864
-0.393854
-0.393847
-0.393843
-0.39384
-0.393839
-0.393838
-0.393838
-0.393839
-0.393838
-0.393838
-0.393837
-0.393834
-0.393831
-0.393827
-0.393823
-0.393819
-0.393819
-0.393824
-0.393836
-0.393846
-0.393851
-0.393852
-0.39385
-0.393848
-0.393845
-0.393842
-0.393839
-0.393836
-0.393833
-0.393829
-0.393824
-0.39382
-0.393816
-0.393813
-0.393812
-0.393814
-0.393821
-0.393829
-0.393822
-0.393811
-0.393798
-0.39381
-0.393809
-0.393799
-0.393794
-0.393792
-0.39379
-0.393789
-0.393789
-0.393789
-0.393789
-0.39379
-0.39379
-0.39379
-0.39379
-0.39379
-0.393789
-0.393789
-0.393788
-0.393788
-0.393787
-0.393787
-0.393787
-0.393787
-0.393787
-0.393788
-0.393789
-0.39379
-0.393792
-0.393794
-0.393797
-0.393801
-0.393804
-0.393806
-0.393808
-0.393809
-0.393808
-0.393807
-0.393805
-0.393803
-0.3938
-0.393797
-0.393795
-0.393788
-0.492422
-0.492432
-0.492442
-0.492455
-0.492467
-0.492477
-0.492482
-0.49248
-0.49247
-0.492455
-0.492436
-0.492415
-0.492395
-0.492377
-0.492362
-0.492349
-0.492338
-0.492331
-0.492326
-0.492323
-0.492321
-0.49232
-0.49232
-0.49232
-0.49232
-0.49232
-0.492318
-0.492317
-0.492314
-0.49231
-0.492307
-0.492304
-0.492303
-0.492306
-0.492312
-0.49232
-0.492324
-0.492326
-0.492326
-0.492324
-0.492323
-0.49232
-0.492318
-0.492315
-0.492311
-0.492307
-0.492303
-0.492298
-0.492293
-0.492289
-0.492286
-0.492282
-0.492283
-0.492281
-0.492273
-0.492261
-0.492247
-0.492256
-0.492266
-0.492266
-0.492266
-0.492267
-0.492267
-0.492267
-0.492268
-0.492268
-0.492269
-0.492269
-0.49227
-0.49227
-0.49227
-0.49227
-0.49227
-0.492269
-0.492269
-0.492268
-0.492268
-0.492268
-0.492267
-0.492267
-0.492268
-0.492268
-0.492269
-0.492271
-0.492273
-0.492275
-0.492278
-0.492282
-0.492285
-0.492288
-0.492289
-0.49229
-0.492289
-0.492288
-0.492286
-0.492284
-0.492281
-0.492279
-0.492277
-0.492271
-0.590918
-0.590927
-0.590936
-0.590947
-0.590958
-0.590968
-0.590973
-0.59097
-0.59096
-0.590943
-0.590923
-0.590902
-0.590882
-0.590863
-0.590847
-0.590833
-0.590823
-0.590815
-0.59081
-0.590806
-0.590804
-0.590803
-0.590803
-0.590802
-0.590802
-0.590802
-0.590801
-0.5908
-0.590797
-0.590795
-0.590792
-0.59079
-0.590789
-0.59079
-0.590794
-0.590798
-0.590801
-0.590803
-0.590803
-0.590802
-0.5908
-0.590798
-0.590795
-0.590792
-0.590788
-0.590784
-0.590779
-0.590774
-0.590769
-0.590763
-0.590757
-0.590751
-0.590746
-0.590742
-0.590735
-0.590724
-0.590711
-0.590712
-0.590729
-0.590735
-0.59074
-0.590742
-0.590744
-0.590746
-0.590747
-0.590748
-0.590749
-0.590749
-0.59075
-0.59075
-0.59075
-0.59075
-0.59075
-0.59075
-0.59075
-0.590749
-0.590749
-0.590749
-0.590748
-0.590748
-0.590749
-0.590749
-0.59075
-0.590752
-0.590754
-0.590756
-0.590759
-0.590763
-0.590766
-0.590769
-0.59077
-0.590771
-0.59077
-0.590769
-0.590767
-0.590765
-0.590763
-0.59076
-0.590759
-0.590754
-0.689411
-0.689419
-0.689426
-0.689436
-0.689447
-0.689456
-0.689461
-0.689457
-0.689446
-0.689429
-0.689409
-0.689388
-0.689367
-0.689348
-0.689331
-0.689318
-0.689307
-0.689299
-0.689294
-0.68929
-0.689287
-0.689286
-0.689285
-0.689285
-0.689285
-0.689285
-0.689284
-0.689283
-0.689282
-0.68928
-0.689278
-0.689277
-0.689276
-0.689276
-0.689278
-0.68928
-0.689281
-0.689282
-0.689281
-0.68928
-0.689278
-0.689275
-0.689272
-0.689269
-0.689265
-0.68926
-0.689255
-0.68925
-0.689244
-0.689238
-0.689231
-0.689222
-0.689215
-0.689212
-0.689209
-0.6892
-0.689189
-0.689185
-0.689202
-0.68921
-0.689216
-0.68922
-0.689222
-0.689225
-0.689226
-0.689227
-0.689228
-0.689229
-0.68923
-0.68923
-0.689231
-0.689231
-0.689231
-0.689231
-0.689231
-0.68923
-0.68923
-0.68923
-0.68923
-0.68923
-0.68923
-0.689231
-0.689232
-0.689233
-0.689235
-0.689237
-0.68924
-0.689243
-0.689247
-0.689249
-0.689251
-0.689252
-0.689251
-0.68925
-0.689248
-0.689246
-0.689244
-0.689242
-0.689241
-0.689237
-0.7879
-0.787907
-0.787913
-0.787921
-0.787931
-0.787939
-0.787943
-0.787939
-0.787928
-0.787912
-0.787892
-0.787871
-0.78785
-0.787832
-0.787815
-0.787802
-0.787791
-0.787783
-0.787778
-0.787774
-0.787771
-0.78777
-0.787769
-0.787769
-0.787768
-0.787768
-0.787768
-0.787767
-0.787766
-0.787765
-0.787764
-0.787763
-0.787762
-0.787762
-0.787763
-0.787763
-0.787763
-0.787762
-0.787761
-0.787759
-0.787756
-0.787753
-0.78775
-0.787746
-0.787742
-0.787737
-0.787732
-0.787726
-0.78772
-0.787713
-0.787706
-0.787697
-0.787689
-0.787688
-0.787688
-0.787682
-0.787675
-0.787673
-0.787683
-0.787689
-0.787694
-0.787698
-0.787702
-0.787704
-0.787706
-0.787707
-0.787709
-0.78771
-0.78771
-0.787711
-0.787711
-0.787712
-0.787712
-0.787712
-0.787712
-0.787712
-0.787711
-0.787711
-0.787711
-0.787711
-0.787712
-0.787712
-0.787713
-0.787714
-0.787716
-0.787718
-0.787721
-0.787724
-0.787727
-0.78773
-0.787732
-0.787732
-0.787732
-0.787731
-0.787729
-0.787727
-0.787725
-0.787723
-0.787723
-0.787719
-0.886385
-0.88639
-0.886395
-0.886402
-0.886409
-0.886417
-0.88642
-0.886416
-0.886406
-0.886391
-0.886372
-0.886352
-0.886332
-0.886314
-0.886298
-0.886285
-0.886275
-0.886267
-0.886262
-0.886258
-0.886255
-0.886254
-0.886253
-0.886252
-0.886252
-0.886252
-0.886252
-0.886252
-0.886251
-0.886251
-0.88625
-0.886249
-0.886249
-0.886248
-0.886248
-0.886247
-0.886246
-0.886245
-0.886242
-0.886239
-0.886236
-0.886232
-0.886228
-0.886224
-0.886219
-0.886214
-0.886209
-0.886203
-0.886197
-0.886191
-0.886183
-0.886175
-0.886168
-0.886168
-0.886169
-0.886166
-0.886162
-0.886161
-0.886167
-0.886171
-0.886175
-0.886179
-0.886182
-0.886184
-0.886186
-0.886188
-0.886189
-0.88619
-0.886191
-0.886192
-0.886192
-0.886193
-0.886193
-0.886193
-0.886193
-0.886193
-0.886193
-0.886193
-0.886193
-0.886193
-0.886193
-0.886194
-0.886195
-0.886196
-0.886197
-0.886199
-0.886202
-0.886205
-0.886208
-0.88621
-0.886212
-0.886213
-0.886212
-0.886211
-0.886209
-0.886208
-0.886206
-0.886205
-0.886204
-0.886201
-0.984865
-0.98487
-0.984873
-0.984879
-0.984885
-0.984891
-0.984893
-0.98489
-0.98488
-0.984866
-0.984848
-0.984829
-0.984811
-0.984794
-0.98478
-0.984768
-0.984759
-0.984752
-0.984746
-0.984742
-0.98474
-0.984738
-0.984737
-0.984737
-0.984737
-0.984737
-0.984737
-0.984737
-0.984736
-0.984736
-0.984736
-0.984735
-0.984735
-0.984734
-0.984733
-0.984732
-0.98473
-0.984727
-0.984724
-0.984721
-0.984717
-0.984712
-0.984708
-0.984703
-0.984698
-0.984692
-0.984687
-0.984682
-0.984676
-0.98467
-0.984663
-0.984656
-0.984651
-0.98465
-0.984652
-0.98465
-0.984648
-0.984648
-0.984651
-0.984654
-0.984657
-0.98466
-0.984663
-0.984665
-0.984667
-0.984669
-0.98467
-0.984671
-0.984672
-0.984673
-0.984673
-0.984674
-0.984674
-0.984674
-0.984675
-0.984675
-0.984675
-0.984675
-0.984675
-0.984675
-0.984675
-0.984676
-0.984676
-0.984677
-0.984679
-0.98468
-0.984683
-0.984685
-0.984688
-0.98469
-0.984692
-0.984692
-0.984692
-0.984691
-0.98469
-0.984688
-0.984687
-0.984685
-0.984685
-0.984683
-1.08334
-1.08335
-1.08335
-1.08335
-1.08336
-1.08336
-1.08336
-1.08336
-1.08335
-1.08334
-1.08332
-1.08331
-1.08329
-1.08327
-1.08326
-1.08325
-1.08324
-1.08324
-1.08323
-1.08323
-1.08322
-1.08322
-1.08322
-1.08322
-1.08322
-1.08322
-1.08322
-1.08322
-1.08322
-1.08322
-1.08322
-1.08322
-1.08322
-1.08322
-1.08322
-1.08322
-1.08321
-1.08321
-1.08321
-1.0832
-1.0832
-1.08319
-1.08319
-1.08318
-1.08318
-1.08317
-1.08317
-1.08316
-1.08316
-1.08315
-1.08315
-1.08314
-1.08314
-1.08313
-1.08313
-1.08313
-1.08313
-1.08313
-1.08314
-1.08314
-1.08314
-1.08314
-1.08314
-1.08315
-1.08315
-1.08315
-1.08315
-1.08315
-1.08315
-1.08315
-1.08315
-1.08316
-1.08316
-1.08316
-1.08316
-1.08316
-1.08316
-1.08316
-1.08316
-1.08316
-1.08316
-1.08316
-1.08316
-1.08316
-1.08316
-1.08316
-1.08316
-1.08317
-1.08317
-1.08317
-1.08317
-1.08317
-1.08317
-1.08317
-1.08317
-1.08317
-1.08317
-1.08317
-1.08317
-1.08316
-1.18182
-1.18182
-1.18182
-1.18182
-1.18183
-1.18183
-1.18183
-1.18183
-1.18182
-1.18181
-1.18179
-1.18178
-1.18177
-1.18175
-1.18174
-1.18173
-1.18173
-1.18172
-1.18172
-1.18171
-1.18171
-1.18171
-1.18171
-1.18171
-1.18171
-1.18171
-1.18171
-1.18171
-1.18171
-1.18171
-1.18171
-1.18171
-1.18171
-1.18171
-1.1817
-1.1817
-1.1817
-1.18169
-1.18169
-1.18169
-1.18168
-1.18167
-1.18167
-1.18166
-1.18166
-1.18165
-1.18165
-1.18164
-1.18164
-1.18163
-1.18163
-1.18162
-1.18162
-1.18162
-1.18162
-1.18162
-1.18162
-1.18162
-1.18162
-1.18162
-1.18162
-1.18162
-1.18163
-1.18163
-1.18163
-1.18163
-1.18163
-1.18163
-1.18164
-1.18164
-1.18164
-1.18164
-1.18164
-1.18164
-1.18164
-1.18164
-1.18164
-1.18164
-1.18164
-1.18164
-1.18164
-1.18164
-1.18164
-1.18164
-1.18164
-1.18164
-1.18164
-1.18165
-1.18165
-1.18165
-1.18165
-1.18165
-1.18165
-1.18165
-1.18165
-1.18165
-1.18165
-1.18165
-1.18165
-1.18164
-1.28028
-1.28029
-1.28029
-1.28029
-1.2803
-1.2803
-1.2803
-1.28029
-1.28029
-1.28028
-1.28026
-1.28025
-1.28024
-1.28023
-1.28022
-1.28022
-1.28021
-1.2802
-1.2802
-1.2802
-1.2802
-1.2802
-1.2802
-1.28019
-1.28019
-1.28019
-1.28019
-1.28019
-1.28019
-1.28019
-1.28019
-1.28019
-1.28019
-1.28019
-1.28019
-1.28019
-1.28018
-1.28018
-1.28017
-1.28017
-1.28016
-1.28016
-1.28015
-1.28014
-1.28014
-1.28013
-1.28013
-1.28012
-1.28012
-1.28012
-1.28011
-1.28011
-1.28011
-1.2801
-1.2801
-1.2801
-1.2801
-1.2801
-1.2801
-1.2801
-1.28011
-1.28011
-1.28011
-1.28011
-1.28011
-1.28011
-1.28012
-1.28012
-1.28012
-1.28012
-1.28012
-1.28012
-1.28012
-1.28012
-1.28012
-1.28012
-1.28012
-1.28012
-1.28012
-1.28012
-1.28012
-1.28012
-1.28012
-1.28012
-1.28012
-1.28012
-1.28012
-1.28012
-1.28013
-1.28013
-1.28013
-1.28013
-1.28013
-1.28013
-1.28013
-1.28013
-1.28013
-1.28013
-1.28013
-1.28012
-1.37875
-1.37875
-1.37876
-1.37876
-1.37876
-1.37877
-1.37876
-1.37876
-1.37875
-1.37874
-1.37873
-1.37873
-1.37872
-1.37871
-1.3787
-1.3787
-1.37869
-1.37869
-1.37869
-1.37869
-1.37868
-1.37868
-1.37868
-1.37868
-1.37868
-1.37868
-1.37868
-1.37868
-1.37868
-1.37868
-1.37868
-1.37868
-1.37868
-1.37868
-1.37867
-1.37867
-1.37867
-1.37866
-1.37866
-1.37865
-1.37865
-1.37864
-1.37863
-1.37863
-1.37862
-1.37862
-1.37861
-1.37861
-1.3786
-1.3786
-1.3786
-1.3786
-1.37859
-1.37859
-1.37858
-1.37858
-1.37858
-1.37858
-1.37859
-1.37859
-1.37859
-1.37859
-1.37859
-1.37859
-1.37859
-1.3786
-1.3786
-1.3786
-1.3786
-1.3786
-1.3786
-1.3786
-1.3786
-1.3786
-1.3786
-1.3786
-1.3786
-1.3786
-1.3786
-1.3786
-1.3786
-1.3786
-1.3786
-1.3786
-1.3786
-1.3786
-1.3786
-1.3786
-1.37861
-1.37861
-1.37861
-1.37861
-1.37861
-1.37861
-1.37861
-1.37861
-1.37861
-1.37861
-1.37861
-1.3786
-1.47721
-1.47722
-1.47722
-1.47723
-1.47723
-1.47723
-1.47723
-1.47722
-1.47722
-1.47721
-1.4772
-1.4772
-1.47719
-1.47719
-1.47718
-1.47718
-1.47718
-1.47718
-1.47717
-1.47717
-1.47717
-1.47717
-1.47717
-1.47717
-1.47717
-1.47717
-1.47717
-1.47717
-1.47717
-1.47717
-1.47717
-1.47717
-1.47717
-1.47716
-1.47716
-1.47716
-1.47715
-1.47715
-1.47714
-1.47714
-1.47713
-1.47712
-1.47712
-1.47711
-1.4771
-1.4771
-1.47709
-1.47709
-1.47708
-1.47708
-1.47708
-1.47708
-1.47707
-1.47707
-1.47707
-1.47707
-1.47707
-1.47707
-1.47707
-1.47707
-1.47707
-1.47707
-1.47708
-1.47708
-1.47708
-1.47708
-1.47708
-1.47708
-1.47708
-1.47708
-1.47708
-1.47708
-1.47708
-1.47708
-1.47708
-1.47708
-1.47708
-1.47708
-1.47708
-1.47708
-1.47708
-1.47708
-1.47708
-1.47708
-1.47708
-1.47708
-1.47708
-1.47708
-1.47708
-1.47709
-1.47709
-1.47709
-1.47709
-1.47709
-1.47709
-1.47709
-1.47709
-1.47709
-1.47709
-1.47708
-1.57566
-1.57567
-1.57568
-1.57568
-1.57569
-1.57569
-1.57568
-1.57568
-1.57568
-1.57568
-1.57567
-1.57567
-1.57567
-1.57567
-1.57567
-1.57566
-1.57566
-1.57566
-1.57566
-1.57566
-1.57566
-1.57566
-1.57566
-1.57566
-1.57566
-1.57566
-1.57566
-1.57566
-1.57566
-1.57566
-1.57566
-1.57565
-1.57565
-1.57565
-1.57565
-1.57564
-1.57564
-1.57563
-1.57563
-1.57562
-1.57561
-1.57561
-1.5756
-1.57559
-1.57559
-1.57558
-1.57558
-1.57557
-1.57557
-1.57557
-1.57557
-1.57556
-1.57556
-1.57555
-1.57555
-1.57555
-1.57555
-1.57555
-1.57555
-1.57555
-1.57556
-1.57556
-1.57556
-1.57556
-1.57556
-1.57556
-1.57556
-1.57556
-1.57556
-1.57556
-1.57556
-1.57556
-1.57556
-1.57556
-1.57556
-1.57556
-1.57556
-1.57556
-1.57556
-1.57556
-1.57556
-1.57556
-1.57556
-1.57556
-1.57556
-1.57556
-1.57556
-1.57556
-1.57556
-1.57556
-1.57556
-1.57556
-1.57557
-1.57557
-1.57557
-1.57557
-1.57557
-1.57557
-1.57557
-1.57556
-1.6741
-1.67411
-1.67412
-1.67413
-1.67414
-1.67414
-1.67414
-1.67414
-1.67414
-1.67414
-1.67414
-1.67414
-1.67415
-1.67415
-1.67415
-1.67415
-1.67415
-1.67415
-1.67415
-1.67415
-1.67415
-1.67415
-1.67415
-1.67415
-1.67415
-1.67415
-1.67415
-1.67415
-1.67415
-1.67415
-1.67415
-1.67414
-1.67414
-1.67414
-1.67413
-1.67413
-1.67412
-1.67412
-1.67411
-1.67411
-1.6741
-1.67409
-1.67408
-1.67408
-1.67407
-1.67406
-1.67406
-1.67406
-1.67405
-1.67405
-1.67405
-1.67404
-1.67404
-1.67403
-1.67403
-1.67403
-1.67403
-1.67404
-1.67404
-1.67404
-1.67404
-1.67404
-1.67404
-1.67404
-1.67404
-1.67404
-1.67405
-1.67405
-1.67405
-1.67405
-1.67405
-1.67405
-1.67405
-1.67405
-1.67405
-1.67404
-1.67404
-1.67404
-1.67404
-1.67404
-1.67404
-1.67404
-1.67404
-1.67404
-1.67404
-1.67404
-1.67404
-1.67404
-1.67404
-1.67404
-1.67404
-1.67404
-1.67405
-1.67405
-1.67405
-1.67405
-1.67405
-1.67405
-1.67405
-1.67404
-1.77253
-1.77254
-1.77256
-1.77257
-1.77258
-1.77259
-1.77259
-1.7726
-1.7726
-1.77261
-1.77262
-1.77262
-1.77262
-1.77263
-1.77263
-1.77263
-1.77263
-1.77264
-1.77264
-1.77264
-1.77264
-1.77265
-1.77265
-1.77265
-1.77265
-1.77265
-1.77265
-1.77264
-1.77264
-1.77264
-1.77264
-1.77263
-1.77263
-1.77263
-1.77262
-1.77262
-1.77261
-1.77261
-1.7726
-1.77259
-1.77258
-1.77258
-1.77257
-1.77256
-1.77256
-1.77255
-1.77254
-1.77254
-1.77254
-1.77253
-1.77253
-1.77253
-1.77252
-1.77252
-1.77252
-1.77252
-1.77252
-1.77252
-1.77252
-1.77252
-1.77252
-1.77252
-1.77253
-1.77253
-1.77253
-1.77253
-1.77253
-1.77253
-1.77253
-1.77253
-1.77253
-1.77253
-1.77253
-1.77253
-1.77253
-1.77253
-1.77253
-1.77253
-1.77253
-1.77253
-1.77253
-1.77253
-1.77253
-1.77253
-1.77253
-1.77253
-1.77253
-1.77252
-1.77252
-1.77252
-1.77252
-1.77252
-1.77252
-1.77253
-1.77253
-1.77253
-1.77253
-1.77253
-1.77253
-1.77253
-1.87095
-1.87097
-1.87099
-1.871
-1.87102
-1.87104
-1.87105
-1.87106
-1.87107
-1.87108
-1.87109
-1.8711
-1.8711
-1.87111
-1.87111
-1.87112
-1.87112
-1.87113
-1.87113
-1.87113
-1.87114
-1.87114
-1.87114
-1.87114
-1.87114
-1.87114
-1.87114
-1.87114
-1.87113
-1.87113
-1.87113
-1.87112
-1.87112
-1.87111
-1.87111
-1.8711
-1.8711
-1.87109
-1.87108
-1.87108
-1.87107
-1.87106
-1.87105
-1.87105
-1.87104
-1.87103
-1.87103
-1.87102
-1.87102
-1.87102
-1.87101
-1.87101
-1.871
-1.871
-1.871
-1.871
-1.871
-1.871
-1.87101
-1.87101
-1.87101
-1.87101
-1.87101
-1.87101
-1.87101
-1.87101
-1.87101
-1.87101
-1.87101
-1.87101
-1.87101
-1.87101
-1.87101
-1.87101
-1.87101
-1.87101
-1.87101
-1.87101
-1.87101
-1.87101
-1.87101
-1.87101
-1.87101
-1.87101
-1.87101
-1.87101
-1.87101
-1.87101
-1.871
-1.871
-1.871
-1.871
-1.871
-1.87101
-1.87101
-1.87101
-1.87101
-1.87101
-1.87101
-1.87101
-1.96938
-1.96939
-1.96942
-1.96945
-1.96947
-1.96949
-1.96951
-1.96953
-1.96954
-1.96955
-1.96956
-1.96957
-1.96958
-1.96959
-1.9696
-1.9696
-1.96961
-1.96961
-1.96962
-1.96962
-1.96963
-1.96963
-1.96963
-1.96964
-1.96964
-1.96963
-1.96963
-1.96963
-1.96963
-1.96962
-1.96962
-1.96961
-1.96961
-1.9696
-1.9696
-1.96959
-1.96958
-1.96958
-1.96957
-1.96956
-1.96956
-1.96955
-1.96954
-1.96953
-1.96953
-1.96952
-1.96951
-1.96951
-1.96951
-1.9695
-1.9695
-1.96949
-1.96949
-1.96948
-1.96948
-1.96949
-1.96949
-1.96949
-1.96949
-1.96949
-1.96949
-1.96949
-1.9695
-1.9695
-1.9695
-1.9695
-1.9695
-1.9695
-1.9695
-1.9695
-1.9695
-1.9695
-1.96949
-1.96949
-1.96949
-1.96949
-1.96949
-1.96949
-1.96949
-1.96949
-1.96949
-1.96949
-1.96949
-1.96949
-1.96949
-1.96949
-1.96949
-1.96949
-1.96949
-1.96948
-1.96948
-1.96948
-1.96948
-1.96949
-1.96949
-1.96949
-1.96949
-1.96949
-1.96949
-1.96949
-2.06783
-2.06784
-2.06787
-2.0679
-2.06793
-2.06796
-2.06798
-2.068
-2.06801
-2.06803
-2.06804
-2.06805
-2.06806
-2.06807
-2.06808
-2.06809
-2.0681
-2.0681
-2.06811
-2.06812
-2.06812
-2.06813
-2.06813
-2.06813
-2.06813
-2.06813
-2.06813
-2.06812
-2.06812
-2.06812
-2.06811
-2.0681
-2.0681
-2.06809
-2.06809
-2.06808
-2.06807
-2.06806
-2.06806
-2.06805
-2.06804
-2.06803
-2.06803
-2.06802
-2.06801
-2.068
-2.068
-2.06799
-2.06799
-2.06799
-2.06798
-2.06798
-2.06797
-2.06797
-2.06797
-2.06797
-2.06797
-2.06797
-2.06798
-2.06798
-2.06798
-2.06798
-2.06798
-2.06798
-2.06798
-2.06798
-2.06798
-2.06798
-2.06798
-2.06798
-2.06798
-2.06798
-2.06798
-2.06798
-2.06798
-2.06798
-2.06797
-2.06797
-2.06797
-2.06797
-2.06797
-2.06797
-2.06797
-2.06797
-2.06797
-2.06797
-2.06797
-2.06797
-2.06797
-2.06797
-2.06796
-2.06796
-2.06796
-2.06797
-2.06797
-2.06797
-2.06797
-2.06797
-2.06797
-2.06797
-2.16631
-2.16632
-2.16635
-2.16638
-2.1664
-2.16643
-2.16645
-2.16647
-2.16649
-2.1665
-2.16652
-2.16653
-2.16654
-2.16655
-2.16657
-2.16658
-2.16658
-2.16659
-2.1666
-2.16661
-2.16661
-2.16662
-2.16662
-2.16662
-2.16662
-2.16662
-2.16662
-2.16662
-2.16661
-2.16661
-2.1666
-2.1666
-2.16659
-2.16658
-2.16657
-2.16657
-2.16656
-2.16655
-2.16654
-2.16654
-2.16653
-2.16652
-2.16651
-2.1665
-2.1665
-2.16649
-2.16649
-2.16648
-2.16648
-2.16647
-2.16647
-2.16646
-2.16646
-2.16645
-2.16646
-2.16646
-2.16646
-2.16646
-2.16646
-2.16646
-2.16646
-2.16646
-2.16647
-2.16647
-2.16647
-2.16647
-2.16647
-2.16647
-2.16647
-2.16647
-2.16647
-2.16646
-2.16646
-2.16646
-2.16646
-2.16646
-2.16646
-2.16646
-2.16646
-2.16645
-2.16645
-2.16645
-2.16645
-2.16645
-2.16645
-2.16645
-2.16645
-2.16645
-2.16645
-2.16645
-2.16645
-2.16645
-2.16645
-2.16645
-2.16645
-2.16645
-2.16645
-2.16645
-2.16645
-2.16645
-2.26481
-2.26482
-2.26483
-2.26486
-2.26488
-2.2649
-2.26493
-2.26495
-2.26496
-2.26498
-2.265
-2.26501
-2.26503
-2.26504
-2.26505
-2.26506
-2.26507
-2.26508
-2.26509
-2.2651
-2.26511
-2.26511
-2.26512
-2.26512
-2.26512
-2.26512
-2.26511
-2.26511
-2.26511
-2.2651
-2.26509
-2.26509
-2.26508
-2.26507
-2.26506
-2.26506
-2.26505
-2.26504
-2.26503
-2.26502
-2.26501
-2.265
-2.265
-2.26499
-2.26498
-2.26498
-2.26497
-2.26497
-2.26496
-2.26496
-2.26495
-2.26495
-2.26494
-2.26494
-2.26494
-2.26494
-2.26495
-2.26495
-2.26495
-2.26495
-2.26495
-2.26495
-2.26495
-2.26495
-2.26495
-2.26495
-2.26495
-2.26495
-2.26495
-2.26495
-2.26495
-2.26495
-2.26495
-2.26495
-2.26495
-2.26494
-2.26494
-2.26494
-2.26494
-2.26494
-2.26494
-2.26493
-2.26493
-2.26493
-2.26493
-2.26493
-2.26493
-2.26493
-2.26493
-2.26493
-2.26493
-2.26493
-2.26493
-2.26493
-2.26493
-2.26493
-2.26493
-2.26493
-2.26493
-2.26493
-2.3633
-2.36331
-2.36332
-2.36334
-2.36336
-2.36339
-2.36341
-2.36343
-2.36344
-2.36346
-2.36348
-2.36349
-2.36351
-2.36352
-2.36354
-2.36355
-2.36356
-2.36357
-2.36358
-2.36359
-2.3636
-2.3636
-2.36361
-2.36361
-2.36361
-2.36361
-2.36361
-2.3636
-2.3636
-2.36359
-2.36358
-2.36358
-2.36357
-2.36356
-2.36355
-2.36354
-2.36353
-2.36353
-2.36352
-2.36351
-2.3635
-2.36349
-2.36348
-2.36348
-2.36347
-2.36346
-2.36346
-2.36345
-2.36345
-2.36344
-2.36344
-2.36343
-2.36343
-2.36343
-2.36343
-2.36343
-2.36343
-2.36343
-2.36343
-2.36344
-2.36344
-2.36344
-2.36344
-2.36344
-2.36344
-2.36344
-2.36344
-2.36344
-2.36344
-2.36344
-2.36344
-2.36344
-2.36343
-2.36343
-2.36343
-2.36343
-2.36343
-2.36343
-2.36342
-2.36342
-2.36342
-2.36342
-2.36342
-2.36342
-2.36341
-2.36341
-2.36341
-2.36341
-2.36341
-2.36341
-2.36341
-2.36341
-2.36341
-2.36341
-2.36341
-2.36341
-2.36341
-2.36341
-2.36341
-2.36341
-2.4618
-2.46181
-2.46182
-2.46183
-2.46185
-2.46187
-2.46189
-2.46191
-2.46193
-2.46194
-2.46196
-2.46198
-2.46199
-2.46201
-2.46202
-2.46203
-2.46205
-2.46206
-2.46207
-2.46208
-2.46209
-2.46209
-2.4621
-2.4621
-2.4621
-2.4621
-2.4621
-2.46209
-2.46209
-2.46208
-2.46207
-2.46207
-2.46206
-2.46205
-2.46204
-2.46203
-2.46202
-2.46201
-2.462
-2.46199
-2.46198
-2.46198
-2.46197
-2.46196
-2.46196
-2.46195
-2.46195
-2.46194
-2.46193
-2.46193
-2.46192
-2.46192
-2.46192
-2.46192
-2.46192
-2.46192
-2.46192
-2.46192
-2.46192
-2.46192
-2.46192
-2.46192
-2.46193
-2.46193
-2.46193
-2.46193
-2.46193
-2.46193
-2.46193
-2.46193
-2.46192
-2.46192
-2.46192
-2.46192
-2.46192
-2.46192
-2.46191
-2.46191
-2.46191
-2.46191
-2.4619
-2.4619
-2.4619
-2.4619
-2.4619
-2.4619
-2.46189
-2.46189
-2.46189
-2.46189
-2.46189
-2.46189
-2.46189
-2.46189
-2.46189
-2.46189
-2.46189
-2.46189
-2.4619
-2.46189
-2.5603
-2.5603
-2.56031
-2.56032
-2.56034
-2.56036
-2.56037
-2.56039
-2.56041
-2.56043
-2.56044
-2.56046
-2.56048
-2.56049
-2.56051
-2.56052
-2.56053
-2.56054
-2.56055
-2.56056
-2.56057
-2.56058
-2.56058
-2.56059
-2.56059
-2.56059
-2.56059
-2.56058
-2.56058
-2.56057
-2.56056
-2.56055
-2.56054
-2.56053
-2.56053
-2.56052
-2.56051
-2.5605
-2.56049
-2.56048
-2.56047
-2.56046
-2.56045
-2.56045
-2.56044
-2.56044
-2.56043
-2.56043
-2.56042
-2.56041
-2.56041
-2.5604
-2.5604
-2.5604
-2.5604
-2.56041
-2.56041
-2.56041
-2.56041
-2.56041
-2.56041
-2.56041
-2.56041
-2.56041
-2.56041
-2.56041
-2.56041
-2.56041
-2.56041
-2.56041
-2.56041
-2.56041
-2.56041
-2.56041
-2.56041
-2.5604
-2.5604
-2.5604
-2.56039
-2.56039
-2.56039
-2.56039
-2.56038
-2.56038
-2.56038
-2.56038
-2.56038
-2.56038
-2.56037
-2.56037
-2.56037
-2.56037
-2.56037
-2.56037
-2.56038
-2.56038
-2.56038
-2.56038
-2.56038
-2.56038
-2.65879
-2.65879
-2.6588
-2.65881
-2.65883
-2.65884
-2.65886
-2.65888
-2.65889
-2.65891
-2.65893
-2.65894
-2.65896
-2.65897
-2.65899
-2.659
-2.65902
-2.65903
-2.65904
-2.65905
-2.65906
-2.65906
-2.65907
-2.65907
-2.65908
-2.65908
-2.65907
-2.65907
-2.65906
-2.65906
-2.65905
-2.65904
-2.65903
-2.65902
-2.65901
-2.659
-2.65899
-2.65898
-2.65897
-2.65896
-2.65895
-2.65895
-2.65894
-2.65893
-2.65893
-2.65892
-2.65892
-2.65891
-2.6589
-2.6589
-2.65889
-2.65889
-2.65889
-2.65889
-2.65889
-2.65889
-2.65889
-2.6589
-2.6589
-2.6589
-2.6589
-2.6589
-2.6589
-2.6589
-2.6589
-2.6589
-2.6589
-2.6589
-2.6589
-2.6589
-2.6589
-2.6589
-2.6589
-2.6589
-2.65889
-2.65889
-2.65889
-2.65888
-2.65888
-2.65888
-2.65887
-2.65887
-2.65887
-2.65887
-2.65886
-2.65886
-2.65886
-2.65886
-2.65886
-2.65886
-2.65886
-2.65886
-2.65886
-2.65886
-2.65886
-2.65886
-2.65886
-2.65886
-2.65886
-2.65886
-2.75728
-2.75728
-2.75729
-2.7573
-2.75731
-2.75733
-2.75735
-2.75736
-2.75738
-2.7574
-2.75741
-2.75743
-2.75744
-2.75746
-2.75747
-2.75748
-2.7575
-2.75751
-2.75752
-2.75753
-2.75754
-2.75755
-2.75755
-2.75756
-2.75756
-2.75756
-2.75756
-2.75755
-2.75755
-2.75754
-2.75753
-2.75752
-2.75751
-2.7575
-2.75749
-2.75748
-2.75747
-2.75746
-2.75745
-2.75745
-2.75744
-2.75743
-2.75742
-2.75742
-2.75741
-2.75741
-2.7574
-2.75739
-2.75739
-2.75738
-2.75738
-2.75738
-2.75738
-2.75738
-2.75738
-2.75738
-2.75738
-2.75738
-2.75738
-2.75739
-2.75739
-2.75739
-2.75739
-2.75739
-2.75739
-2.75739
-2.75739
-2.75739
-2.75739
-2.75739
-2.75739
-2.75739
-2.75739
-2.75738
-2.75738
-2.75738
-2.75738
-2.75737
-2.75737
-2.75736
-2.75736
-2.75736
-2.75735
-2.75735
-2.75735
-2.75735
-2.75734
-2.75734
-2.75734
-2.75734
-2.75734
-2.75734
-2.75734
-2.75734
-2.75734
-2.75734
-2.75734
-2.75734
-2.75734
-2.75734
-2.85577
-2.85577
-2.85578
-2.85579
-2.8558
-2.85582
-2.85583
-2.85585
-2.85586
-2.85588
-2.8559
-2.85591
-2.85593
-2.85594
-2.85595
-2.85597
-2.85598
-2.85599
-2.856
-2.85601
-2.85602
-2.85603
-2.85603
-2.85604
-2.85604
-2.85604
-2.85604
-2.85604
-2.85603
-2.85602
-2.85601
-2.85601
-2.856
-2.85599
-2.85598
-2.85597
-2.85596
-2.85595
-2.85594
-2.85593
-2.85592
-2.85591
-2.85591
-2.8559
-2.8559
-2.85589
-2.85588
-2.85588
-2.85587
-2.85587
-2.85586
-2.85586
-2.85586
-2.85586
-2.85586
-2.85587
-2.85587
-2.85587
-2.85587
-2.85587
-2.85588
-2.85588
-2.85588
-2.85588
-2.85588
-2.85588
-2.85588
-2.85588
-2.85588
-2.85588
-2.85588
-2.85588
-2.85588
-2.85587
-2.85587
-2.85587
-2.85586
-2.85586
-2.85586
-2.85585
-2.85585
-2.85584
-2.85584
-2.85584
-2.85583
-2.85583
-2.85583
-2.85583
-2.85582
-2.85582
-2.85582
-2.85582
-2.85582
-2.85582
-2.85583
-2.85583
-2.85583
-2.85583
-2.85583
-2.85583
-2.95426
-2.95426
-2.95427
-2.95428
-2.95429
-2.9543
-2.95432
-2.95433
-2.95435
-2.95436
-2.95438
-2.95439
-2.95441
-2.95442
-2.95443
-2.95445
-2.95446
-2.95447
-2.95448
-2.95449
-2.9545
-2.95451
-2.95451
-2.95452
-2.95452
-2.95452
-2.95452
-2.95452
-2.95451
-2.9545
-2.9545
-2.95449
-2.95448
-2.95447
-2.95446
-2.95445
-2.95444
-2.95443
-2.95442
-2.95441
-2.9544
-2.9544
-2.95439
-2.95438
-2.95438
-2.95437
-2.95437
-2.95436
-2.95435
-2.95435
-2.95435
-2.95435
-2.95435
-2.95435
-2.95435
-2.95435
-2.95436
-2.95436
-2.95436
-2.95436
-2.95436
-2.95437
-2.95437
-2.95437
-2.95437
-2.95437
-2.95437
-2.95437
-2.95437
-2.95437
-2.95437
-2.95437
-2.95436
-2.95436
-2.95436
-2.95436
-2.95435
-2.95435
-2.95434
-2.95434
-2.95433
-2.95433
-2.95432
-2.95432
-2.95432
-2.95431
-2.95431
-2.95431
-2.95431
-2.95431
-2.95431
-2.95431
-2.95431
-2.95431
-2.95431
-2.95431
-2.95431
-2.95431
-2.95431
-2.95431
-3.05274
-3.05275
-3.05275
-3.05276
-3.05277
-3.05279
-3.0528
-3.05281
-3.05283
-3.05284
-3.05286
-3.05287
-3.05289
-3.0529
-3.05291
-3.05292
-3.05294
-3.05295
-3.05296
-3.05297
-3.05298