/*--------------------------------*- C++ -*----------------------------------*\
| =========                 |                                                 |
| \\      /  F ield         | OpenFOAM: The Open Source CFD Toolbox           |
|  \\    /   O peration     | Version:  4.1                                   |
|   \\  /    A nd           | Web:      www.OpenFOAM.org                      |
|    \\/     M anipulation  |                                                 |
\*---------------------------------------------------------------------------*/
FoamFile
{
    version     2.0;
    format      ascii;
    class       surfaceScalarField;
    location    "680";
    object      phi;
}
// * * * * * * * * * * * * * * * * * * * * * * * * * * * * * * * * * * * * * //

dimensions      [0 3 -1 0 0 0 0];

internalField   nonuniform List<scalar> 
9850
(
-4.40425e-06
4.40425e-06
-6.89583e-06
2.49157e-06
-8.51752e-06
1.62169e-06
-9.72419e-06
1.20667e-06
-1.06367e-05
9.12496e-07
-1.12629e-05
6.26189e-07
-1.1573e-05
3.10105e-07
-1.15284e-05
-4.4578e-08
-1.11028e-05
-4.25553e-07
-1.02931e-05
-8.09732e-07
-9.14112e-06
-1.15199e-06
-7.717e-06
-1.42412e-06
-6.10115e-06
-1.61585e-06
-4.3713e-06
-1.72985e-06
-2.5971e-06
-1.77419e-06
-9.08732e-07
-1.68837e-06
6.158e-07
-1.52453e-06
2.00023e-06
-1.38443e-06
3.23947e-06
-1.23924e-06
4.33543e-06
-1.09596e-06
5.2864e-06
-9.50973e-07
6.08646e-06
-8.00054e-07
6.72765e-06
-6.41196e-07
7.20228e-06
-4.74629e-07
7.50778e-06
-3.05494e-07
7.65645e-06
-1.48676e-07
7.67961e-06
-2.31556e-08
7.60804e-06
7.15736e-08
7.40188e-06
2.06158e-07
6.88788e-06
5.13999e-07
5.74142e-06
1.14646e-06
3.53228e-06
2.20914e-06
4.83566e-08
3.48392e-06
-3.44693e-06
3.49529e-06
-5.09518e-06
1.64824e-06
-4.83471e-06
-2.60473e-07
-4.40692e-06
-4.27787e-07
-4.0868e-06
-3.20121e-07
-3.87026e-06
-2.16541e-07
-3.7921e-06
-7.81531e-08
-3.83078e-06
3.86785e-08
-3.93548e-06
1.04695e-07
-3.95421e-06
1.87363e-08
-3.80747e-06
-1.46742e-07
-3.43859e-06
-3.68878e-07
-2.88069e-06
-5.57902e-07
-2.37049e-06
-5.10197e-07
-2.30846e-06
-6.20325e-08
-2.35432e-06
4.58533e-08
-1.41706e-06
-9.37252e-07
1.05012e-06
-2.46718e-06
3.9177e-06
-2.86758e-06
6.89002e-06
-2.97232e-06
8.94245e-06
-2.05243e-06
9.23851e-06
-2.96056e-07
6.68851e-06
2.55e-06
-6.0654e-07
7.29505e-06
-6.83396e-06
6.22742e-06
-7.44672e-06
6.12755e-07
-5.43712e-06
-2.0096e-06
-3.6546e-06
-1.78251e-06
-3.01016e-06
-6.44446e-07
-3.32089e-06
3.10735e-07
-3.98949e-06
6.68601e-07
-4.47073e-06
4.81234e-07
-4.61779e-06
1.47061e-07
-4.50122e-06
-1.1657e-07
-4.30645e-06
-1.94767e-07
-4.12366e-06
-1.82789e-07
-3.94046e-06
-1.83198e-07
-3.74415e-06
-1.96313e-07
-3.52539e-06
-2.18764e-07
-3.27655e-06
-2.48836e-07
-2.99083e-06
-2.85721e-07
-2.66322e-06
-3.2761e-07
-2.29434e-06
-3.68883e-07
-1.8999e-06
-3.94437e-07
-1.54214e-06
-3.57761e-07
-1.33568e-06
-2.06454e-07
-1.0832e-06
-2.52481e-07
4.75294e-07
-1.5585e-06
1.43997e-06
-9.64675e-07
2.23157e-06
-7.91605e-07
2.9834e-06
-7.51822e-07
3.71483e-06
-7.31434e-07
4.40945e-06
-6.94618e-07
5.04077e-06
-6.31318e-07
5.58294e-06
-5.42171e-07
6.01764e-06
-4.34702e-07
6.33793e-06
-3.2029e-07
6.54877e-06
-2.10845e-07
6.66586e-06
-1.17085e-07
6.71184e-06
-4.59834e-08
6.70708e-06
4.76614e-09
6.66705e-06
4.00303e-08
6.58706e-06
7.99864e-08
6.46683e-06
1.2023e-07
6.25516e-06
2.11673e-07
4.84248e-06
1.41267e-06
4.84248e-06
-3.65537e-06
8.05963e-06
-6.15431e-06
4.99051e-06
-7.93424e-06
3.40162e-06
-9.29688e-06
2.56931e-06
-1.03271e-05
1.94267e-06
-1.10228e-05
1.32197e-06
-1.13523e-05
6.39602e-07
-1.12875e-05
-1.09389e-07
-1.0815e-05
-8.98094e-07
-9.95708e-06
-1.66764e-06
-8.77282e-06
-2.33625e-06
-7.34376e-06
-2.85318e-06
-5.75632e-06
-3.20329e-06
-4.09757e-06
-3.38861e-06
-2.4581e-06
-3.41366e-06
-8.6003e-07
-3.28644e-06
6.4522e-07
-3.02978e-06
1.99534e-06
-2.73455e-06
3.18393e-06
-2.42783e-06
4.21086e-06
-2.12289e-06
5.07748e-06
-1.81759e-06
5.79072e-06
-1.51329e-06
6.36506e-06
-1.21554e-06
6.82127e-06
-9.30838e-07
7.17829e-06
-6.62516e-07
7.43977e-06
-4.10154e-07
7.59041e-06
-1.73789e-07
7.61943e-06
4.25521e-08
7.48082e-06
3.44768e-07
7.08432e-06
9.10499e-07
6.28986e-06
1.94092e-06
5.00058e-06
3.49842e-06
3.29126e-06
5.19323e-06
8.11765e-07
5.97479e-06
-1.77157e-06
4.23158e-06
-3.4383e-06
1.40626e-06
-4.04235e-06
1.76257e-07
-3.99019e-06
-3.72278e-07
-3.8348e-06
-3.71934e-07
-3.68628e-06
-2.26666e-07
-3.51831e-06
-1.29294e-07
-3.33019e-06
-8.34305e-08
-3.12386e-06
-1.8759e-07
-2.90498e-06
-3.65618e-07
-2.68316e-06
-5.90698e-07
-2.42036e-06
-8.20705e-07
-1.96615e-06
-9.64407e-07
-9.6815e-07
-1.06003e-06
4.80352e-07
-1.40265e-06
1.86725e-06
-2.32415e-06
2.85153e-06
-3.45146e-06
4.40213e-06
-4.41818e-06
6.16327e-06
-4.73346e-06
7.00959e-06
-2.89875e-06
5.43617e-06
1.27736e-06
2.39362e-06
5.59255e-06
-2.28118e-06
1.19698e-05
-5.59086e-06
9.5371e-06
-6.18576e-06
1.20766e-06
-5.035e-06
-3.16036e-06
-4.35577e-06
-2.46174e-06
-3.72756e-06
-1.27267e-06
-3.12262e-06
-2.94206e-07
-2.84161e-06
3.87599e-07
-2.77278e-06
4.12401e-07
-2.72593e-06
1.0021e-07
-2.6829e-06
-1.59598e-07
-2.6671e-06
-2.10564e-07
-2.66223e-06
-1.87666e-07
-2.64594e-06
-1.99481e-07
-2.60484e-06
-2.37413e-07
-2.53036e-06
-2.93251e-07
-2.41611e-06
-3.6308e-07
-2.25729e-06
-4.44548e-07
-2.04984e-06
-5.35056e-07
-1.78861e-06
-6.30116e-07
-1.46185e-06
-7.21194e-07
-1.02031e-06
-7.99296e-07
-3.33616e-07
-8.93152e-07
4.65105e-07
-1.0512e-06
5.52859e-07
-1.64625e-06
1.17648e-06
-1.58829e-06
1.91523e-06
-1.53036e-06
2.67657e-06
-1.51317e-06
3.42815e-06
-1.48301e-06
4.14047e-06
-1.40694e-06
4.78149e-06
-1.27234e-06
5.32096e-06
-1.08164e-06
5.73619e-06
-8.49928e-07
6.01624e-06
-6.00342e-07
6.1632e-06
-3.57811e-07
6.19138e-06
-1.45263e-07
6.12419e-06
2.12033e-08
5.98496e-06
1.43998e-07
5.78627e-06
2.38722e-07
5.54003e-06
3.26233e-07
5.25762e-06
4.0264e-07
4.92631e-06
5.4298e-07
3.68779e-06
2.65119e-06
8.53027e-06
-2.9223e-06
1.09819e-05
-5.09757e-06
7.16578e-06
-6.82599e-06
5.13004e-06
-8.24384e-06
3.98716e-06
-9.35377e-06
3.0526e-06
-1.0118e-05
2.0862e-06
-1.04893e-05
1.0109e-06
-1.04291e-05
-1.69576e-07
-9.9334e-06
-1.3938e-06
-9.05041e-06
-2.55063e-06
-7.85916e-06
-3.5275e-06
-6.4527e-06
-4.25965e-06
-4.91772e-06
-4.73827e-06
-3.33646e-06
-4.96987e-06
-1.77219e-06
-4.97793e-06
-2.71893e-07
-4.78674e-06
1.13553e-06
-4.43721e-06
2.4176e-06
-4.01662e-06
3.56827e-06
-3.5785e-06
4.57749e-06
-3.13211e-06
5.44092e-06
-2.68102e-06
6.15742e-06
-2.22979e-06
6.72673e-06
-1.78486e-06
7.14964e-06
-1.35374e-06
7.43056e-06
-9.43439e-07
7.57866e-06
-5.58252e-07
7.59986e-06
-1.94991e-07
7.47302e-06
1.69387e-07
7.2063e-06
6.11495e-07
6.83589e-06
1.2809e-06
6.40123e-06
2.37559e-06
5.93431e-06
3.96534e-06
5.47247e-06
5.65507e-06
4.99165e-06
6.45561e-06
3.94323e-06
5.28e-06
2.07518e-06
3.27431e-06
4.66904e-07
1.78453e-06
-7.56456e-07
8.51082e-07
-1.50884e-06
3.80445e-07
-1.91337e-06
1.77866e-07
-2.0973e-06
5.46339e-08
-2.11183e-06
-6.88979e-08
-2.01604e-06
-2.83374e-07
-1.90308e-06
-4.78579e-07
-1.7574e-06
-7.36382e-07
-1.52771e-06
-1.0504e-06
-1.10479e-06
-1.38733e-06
-3.66419e-07
-1.79841e-06
6.08491e-07
-2.37756e-06
1.54513e-06
-3.26079e-06
2.45529e-06
-4.36162e-06
3.59528e-06
-5.55818e-06
4.77631e-06
-5.91448e-06
3.59398e-06
-1.71642e-06
1.15651e-06
3.71483e-06
-4.15972e-07
7.16503e-06
-2.24017e-06
1.3794e-05
-4.20518e-06
1.15021e-05
-4.07513e-06
1.07761e-06
-3.57223e-06
-3.66326e-06
-3.47779e-06
-2.55618e-06
-3.35311e-06
-1.39735e-06
-3.10592e-06
-5.41388e-07
-2.74665e-06
2.83297e-08
-2.51527e-06
1.81014e-07
-2.50562e-06
9.05654e-08
-2.64131e-06
-2.39068e-08
-2.77657e-06
-7.5313e-08
-2.85676e-06
-1.07476e-07
-2.89355e-06
-1.62689e-07
-2.89089e-06
-2.40067e-07
-2.84665e-06
-3.37499e-07
-2.75697e-06
-4.52753e-07
-2.61795e-06
-5.83571e-07
-2.4255e-06
-7.27509e-07
-2.17402e-06
-8.81589e-07
-1.85243e-06
-1.04279e-06
-1.43887e-06
-1.21286e-06
-9.24788e-07
-1.40723e-06
-3.19766e-07
-1.65622e-06
6.40387e-08
-2.03006e-06
6.25841e-07
-2.1501e-06
1.31386e-06
-2.21837e-06
2.05311e-06
-2.25243e-06
2.80329e-06
-2.23319e-06
3.53005e-06
-2.1337e-06
4.19581e-06
-1.93809e-06
4.76302e-06
-1.64886e-06
5.20169e-06
-1.2886e-06
5.49545e-06
-8.94099e-07
5.64205e-06
-5.04415e-07
5.64848e-06
-1.51693e-07
5.52236e-06
1.47322e-07
5.27689e-06
3.8947e-07
4.93091e-06
5.84705e-07
4.50387e-06
7.53271e-07
3.99329e-06
9.1322e-07
3.36874e-06
1.16753e-06
2.51798e-06
3.50195e-06
1.10483e-05
-2.41894e-06
1.34009e-05
-4.27826e-06
9.02509e-06
-5.87191e-06
6.7237e-06
-7.24682e-06
5.36206e-06
-8.34788e-06
4.15366e-06
-9.10684e-06
2.84517e-06
-9.45899e-06
1.36304e-06
-9.36008e-06
-2.6848e-07
-8.81568e-06
-1.9382e-06
-7.90105e-06
-3.46526e-06
-6.70992e-06
-4.71864e-06
-5.34264e-06
-5.62692e-06
-3.87975e-06
-6.20116e-06
-2.395e-06
-6.45462e-06
-9.39126e-07
-6.4338e-06
4.37099e-07
-6.16296e-06
1.72816e-06
-5.72827e-06
2.92567e-06
-5.21412e-06
4.01282e-06
-4.66565e-06
4.97952e-06
-4.09881e-06
5.82054e-06
-3.52204e-06
6.53251e-06
-2.94176e-06
7.11158e-06
-2.36393e-06
7.55264e-06
-1.7948e-06
7.84999e-06
-1.24078e-06
7.99872e-06
-7.06984e-07
7.99586e-06
-1.92126e-07
7.84012e-06
3.25121e-07
7.55346e-06
8.98153e-07
7.20955e-06
1.62481e-06
6.94062e-06
2.64452e-06
6.88254e-06
4.02342e-06
7.06536e-06
5.47224e-06
7.28055e-06
6.24042e-06
6.90965e-06
5.6509e-06
5.88438e-06
4.29959e-06
4.6451e-06
3.02381e-06
3.41223e-06
2.08395e-06
2.32862e-06
1.46405e-06
1.44402e-06
1.06247e-06
7.24201e-07
7.74454e-07
1.40629e-07
5.14674e-07
-2.94047e-07
1.51302e-07
-4.72733e-07
-2.99893e-07
-4.7193e-07
-7.37184e-07
-3.60241e-07
-1.16208e-06
-1.07819e-07
-1.63975e-06
2.90468e-07
-2.19669e-06
8.06011e-07
-2.8931e-06
1.32623e-06
-3.78101e-06
1.83731e-06
-4.8727e-06
2.38575e-06
-6.10661e-06
2.37256e-06
-5.9013e-06
-5.03708e-07
1.15985e-06
-2.08809e-06
5.29921e-06
-1.9867e-06
7.06364e-06
-1.58284e-06
1.33902e-05
-2.55373e-06
1.2473e-05
-1.92156e-06
4.45438e-07
-2.30557e-06
-3.27925e-06
-2.70851e-06
-2.15324e-06
-2.93865e-06
-1.1672e-06
-2.99925e-06
-4.80796e-07
-2.93378e-06
-3.71393e-08
-2.89209e-06
1.39328e-07
-2.95812e-06
1.56596e-07
-3.09134e-06
1.09316e-07
-3.21664e-06
4.99886e-08
-3.30272e-06
-2.13998e-08
-3.34953e-06
-1.15885e-07
-3.35528e-06
-2.3431e-07
-3.31705e-06
-3.7573e-07
-3.2317e-06
-5.38106e-07
-3.096e-06
-7.1927e-07
-2.90643e-06
-9.17079e-07
-2.6585e-06
-1.12952e-06
-2.34585e-06
-1.35544e-06
-1.96188e-06
-1.59683e-06
-1.50826e-06
-1.86084e-06
-1.0069e-06
-2.15759e-06
-5.60196e-07
-2.47676e-06
4.87682e-09
-2.71517e-06
6.65184e-07
-2.87868e-06
1.38263e-06
-2.96987e-06
2.12725e-06
-2.97781e-06
2.86526e-06
-2.87171e-06
3.55614e-06
-2.62897e-06
4.15529e-06
-2.24801e-06
4.6236e-06
-1.75691e-06
4.93816e-06
-1.20865e-06
5.09445e-06
-6.60706e-07
5.09941e-06
-1.5665e-07
4.96348e-06
2.83248e-07
4.69896e-06
6.53992e-07
4.31922e-06
9.6444e-07
3.83801e-06
1.23449e-06
3.26012e-06
1.4911e-06
2.588e-06
1.83966e-06
1.92995e-06
4.16e-06
1.29782e-05
-2.02785e-06
1.54287e-05
-3.61019e-06
1.06074e-05
-5.01158e-06
8.12509e-06
-6.24685e-06
6.59734e-06
-7.24414e-06
5.15095e-06
-7.92317e-06
3.5242e-06
-8.2044e-06
1.64427e-06
-8.03029e-06
-4.42598e-07
-7.41667e-06
-2.55181e-06
-6.47366e-06
-4.40827e-06
-5.30024e-06
-5.89205e-06
-3.99679e-06
-6.93037e-06
-2.63403e-06
-7.56392e-06
-1.27374e-06
-7.81492e-06
3.30089e-08
-7.74055e-06
1.2679e-06
-7.39785e-06
2.4306e-06
-6.89098e-06
3.5155e-06
-6.29903e-06
4.50838e-06
-5.65853e-06
5.40132e-06
-4.99175e-06
6.19099e-06
-4.31171e-06
6.87514e-06
-3.62591e-06
7.4501e-06
-2.93889e-06
7.90928e-06
-2.25398e-06
8.24295e-06
-1.57445e-06
8.43993e-06
-9.03971e-07
8.49275e-06
-2.44941e-07
8.40482e-06
4.13051e-07
8.20212e-06
1.10085e-06
7.95278e-06
1.87416e-06
7.78689e-06
2.8104e-06
7.86234e-06
3.94798e-06
8.22586e-06
5.10872e-06
8.65818e-06
5.8081e-06
8.69075e-06
5.61832e-06
8.18194e-06
4.8084e-06
7.32336e-06
3.88239e-06
6.32093e-06
3.08637e-06
5.31906e-06
2.46593e-06
4.39782e-06
1.98371e-06
3.59445e-06
1.57782e-06
2.92154e-06
1.18759e-06
2.30327e-06
7.69579e-07
1.72622e-06
2.77157e-07
1.30829e-06
-3.19259e-07
1.09867e-06
-9.52466e-07
1.04109e-06
-1.58217e-06
1.09301e-06
-2.24861e-06
1.19688e-06
-2.99697e-06
1.28378e-06
-3.86791e-06
1.30226e-06
-4.89119e-06
1.1815e-06
-5.98585e-06
-3.33818e-07
-4.38598e-06
-3.23505e-06
4.06108e-06
-3.91468e-06
5.97884e-06
-3.01945e-06
6.16842e-06
-1.07793e-06
1.14487e-05
-5.57681e-07
1.19527e-05
-1.70681e-07
5.84374e-08
-1.368e-06
-2.08194e-06
-2.19702e-06
-1.32421e-06
-2.70056e-06
-6.63664e-07
-2.99282e-06
-1.8854e-07
-3.14493e-06
1.14969e-07
-3.26664e-06
2.6104e-07
-3.40092e-06
2.90873e-07
-3.54363e-06
2.52026e-07
-3.66861e-06
1.74976e-07
-3.75907e-06
6.9059e-08
-3.8108e-06
-6.41537e-08
-3.82029e-06
-2.24822e-07
-3.78454e-06
-4.11477e-07
-3.70102e-06
-6.21626e-07
-3.56725e-06
-8.53042e-07
-3.38063e-06
-1.1037e-06
-3.13827e-06
-1.37187e-06
-2.83715e-06
-1.65657e-06
-2.47584e-06
-1.95814e-06
-2.05868e-06
-2.278e-06
-1.60201e-06
-2.61426e-06
-1.1292e-06
-2.94957e-06
-5.96609e-07
-3.24776e-06
2.02776e-08
-3.49557e-06
7.09275e-07
-3.65886e-06
1.43661e-06
-3.70515e-06
2.1744e-06
-3.6095e-06
2.88304e-06
-3.3376e-06
3.51252e-06
-2.8775e-06
4.01286e-06
-2.25724e-06
4.35195e-06
-1.54774e-06
4.52377e-06
-8.32534e-07
4.53811e-06
-1.70983e-07
4.41007e-06
4.11282e-07
4.15533e-06
9.08732e-07
3.78768e-06
1.33209e-06
3.32021e-06
1.70196e-06
2.76352e-06
2.0478e-06
2.1348e-06
2.46837e-06
1.56317e-06
4.73163e-06
1.45414e-05
-1.68737e-06
1.71161e-05
-3.00041e-06
1.19205e-05
-4.16179e-06
9.28646e-06
-5.18367e-06
7.61922e-06
-6.00376e-06
5.97104e-06
-6.54536e-06
4.06581e-06
-6.71604e-06
1.81495e-06
-6.43432e-06
-7.24312e-07
-5.7346e-06
-3.25154e-06
-4.77547e-06
-5.3674e-06
-3.64672e-06
-7.0208e-06
-2.43576e-06
-8.14133e-06
-1.20208e-06
-8.7976e-06
1.48075e-09
-9.01848e-06
1.13816e-06
-8.87723e-06
2.21577e-06
-8.47546e-06
3.2386e-06
-7.9138e-06
4.1916e-06
-7.25203e-06
5.06584e-06
-6.53277e-06
5.85767e-06
-5.78358e-06
6.56673e-06
-5.02076e-06
7.19355e-06
-4.25273e-06
7.73749e-06
-3.48283e-06
8.19501e-06
-2.7115e-06
8.55861e-06
-1.93805e-06
8.81665e-06
-1.16201e-06
8.95768e-06
-3.85976e-07
8.9783e-06
3.92428e-07
8.90064e-06
1.17851e-06
8.77774e-06
1.99706e-06
8.70772e-06
2.88042e-06
8.81717e-06
3.83853e-06
9.16003e-06
4.76585e-06
9.58394e-06
5.3842e-06
9.76286e-06
5.43941e-06
9.54068e-06
5.03059e-06
8.99005e-06
4.43302e-06
8.24583e-06
3.83059e-06
7.42242e-06
3.28934e-06
6.59862e-06
2.8075e-06
5.82107e-06
2.35537e-06
5.1105e-06
1.89815e-06
4.4724e-06
1.40768e-06
3.88004e-06
8.69518e-07
3.29819e-06
2.62593e-07
2.77968e-06
-4.33954e-07
2.37373e-06
-1.17623e-06
2.05534e-06
-1.93022e-06
1.76985e-06
-2.71147e-06
1.44515e-06
-3.54322e-06
9.95166e-07
-4.44121e-06
2.65684e-07
-5.25636e-06
-1.82982e-06
-2.29048e-06
-4.13488e-06
6.36615e-06
-4.80081e-06
6.64477e-06
-3.7721e-06
5.1397e-06
-1.1677e-06
8.84427e-06
8.41862e-07
9.94318e-06
3.91442e-07
5.08857e-07
-1.03866e-06
-6.51837e-07
-2.02632e-06
-3.36548e-07
-2.67337e-06
-1.66125e-08
-3.09915e-06
2.37233e-07
-3.39086e-06
4.06686e-07
-3.61405e-06
4.84229e-07
-3.80393e-06
4.80749e-07
-3.96843e-06
4.16529e-07
-4.10148e-06
3.08024e-07
-4.19637e-06
1.63948e-07
-4.24924e-06
-1.12867e-08
-4.25786e-06
-2.16203e-07
-4.22021e-06
-4.49128e-07
-4.13438e-06
-7.0745e-07
-3.99891e-06
-9.88515e-07
-3.81255e-06
-1.29006e-06
-3.57418e-06
-1.61024e-06
-3.28305e-06
-1.9477e-06
-2.93977e-06
-2.30142e-06
-2.54816e-06
-2.6696e-06
-2.11611e-06
-3.04631e-06
-1.64859e-06
-3.41709e-06
-1.13504e-06
-3.76132e-06
-5.69126e-07
-4.06148e-06
6.37095e-08
-4.2917e-06
7.57777e-07
-4.39922e-06
1.47839e-06
-4.33012e-06
2.19086e-06
-4.05007e-06
2.84387e-06
-3.53051e-06
3.3764e-06
-2.78978e-06
3.74252e-06
-1.91387e-06
3.93373e-06
-1.02375e-06
3.96483e-06
-2.02078e-07
3.85707e-06
5.19039e-07
3.63011e-06
1.13569e-06
3.29936e-06
1.66283e-06
2.87812e-06
2.1232e-06
2.37803e-06
2.54789e-06
1.81412e-06
3.03228e-06
1.29457e-06
5.25118e-06
1.5836e-05
-1.38095e-06
1.8497e-05
-2.4179e-06
1.29574e-05
-3.29848e-06
1.0167e-05
-4.04965e-06
8.37039e-06
-4.6321e-06
6.55349e-06
-4.98647e-06
4.42017e-06
-5.01511e-06
1.8436e-06
-4.59646e-06
-1.14296e-06
-3.80268e-06
-4.04532e-06
-2.84683e-06
-6.32324e-06
-1.79602e-06
-8.07162e-06
-7.02242e-07
-9.23511e-06
3.66256e-07
-9.8661e-06
1.37953e-06
-1.00317e-05
2.34603e-06
-9.84373e-06
3.27096e-06
-9.40039e-06
4.14086e-06
-8.7837e-06
4.94749e-06
-8.05866e-06
5.68699e-06
-7.27227e-06
6.35919e-06
-6.45578e-06
6.96629e-06
-5.62786e-06
7.51134e-06
-4.79779e-06
7.99684e-06
-3.96832e-06
8.42337e-06
-3.13804e-06
8.78856e-06
-2.30324e-06
9.08628e-06
-1.45973e-06
9.30595e-06
-6.05643e-07
9.43892e-06
2.59457e-07
9.49302e-06
1.12441e-06
9.50087e-06
1.98922e-06
9.52592e-06
2.85536e-06
9.65163e-06
3.71282e-06
9.92102e-06
4.49646e-06
1.02473e-05
5.05791e-06
1.04296e-05
5.25709e-06
1.03406e-05
5.11956e-06
9.98944e-06
4.78422e-06
9.44861e-06
4.37142e-06
8.79673e-06
3.94122e-06
8.09656e-06
3.50768e-06
7.39068e-06
3.06125e-06
6.70394e-06
2.58489e-06
6.04771e-06
2.06391e-06
5.42535e-06
1.49188e-06
4.8172e-06
8.70742e-07
4.19623e-06
1.87015e-07
3.58673e-06
-5.66723e-07
3.00437e-06
-1.34786e-06
2.42175e-06
-2.12886e-06
1.78341e-06
-2.90487e-06
1.001e-06
-3.65879e-06
-1.10335e-07
-4.14503e-06
-2.20741e-06
-1.93397e-07
-4.2275e-06
8.38624e-06
-4.94463e-06
7.3619e-06
-4.0947e-06
4.28977e-06
-1.70429e-06
6.45386e-06
8.41868e-07
7.39702e-06
4.62272e-08
1.3045e-06
-1.263e-06
6.57385e-07
-2.1825e-06
5.82961e-07
-2.83687e-06
6.37752e-07
-3.31571e-06
7.1607e-07
-3.6749e-06
7.65879e-07
-3.95465e-06
7.6398e-07
-4.17998e-06
7.0608e-07
-4.36125e-06
5.97803e-07
-4.49992e-06
4.46687e-07
-4.5945e-06
2.58533e-07
-4.64301e-06
3.72207e-08
-4.64429e-06
-2.1492e-07
-4.59764e-06
-4.95779e-07
-4.50265e-06
-8.02439e-07
-4.35961e-06
-1.13156e-06
-4.16917e-06
-1.4805e-06
-3.93215e-06
-1.84725e-06
-3.64953e-06
-2.23033e-06
-3.32278e-06
-2.62818e-06
-2.95445e-06
-3.03793e-06
-2.5476e-06
-3.45316e-06
-2.10274e-06
-3.86196e-06
-1.61637e-06
-4.24768e-06
-1.08741e-06
-4.59044e-06
-5.15016e-07
-4.86409e-06
1.14479e-07
-5.02871e-06
7.97531e-07
-5.01317e-06
1.4949e-06
-4.74743e-06
2.15924e-06
-4.19485e-06
2.72194e-06
-3.35247e-06
3.1175e-06
-2.30943e-06
3.33035e-06
-1.2366e-06
3.38374e-06
-2.55468e-07
3.30623e-06
5.96554e-07
3.1206e-06
1.32132e-06
2.8425e-06
1.94094e-06
2.48388e-06
2.48182e-06
2.05481e-06
2.97695e-06
1.56645e-06
3.52064e-06
1.0967e-06
5.72093e-06
1.69327e-05
-1.10636e-06
1.96034e-05
-1.86747e-06
1.37185e-05
-2.4423e-06
1.07419e-05
-2.88108e-06
8.80916e-06
-3.17334e-06
6.84575e-06
-3.30235e-06
4.54918e-06
-3.16364e-06
1.70489e-06
-2.5499e-06
-1.75669e-06
-1.68574e-06
-4.90949e-06
-7.59825e-07
-7.24915e-06
1.81292e-07
-9.01274e-06
1.10489e-06
-1.01587e-05
1.98567e-06
-1.07469e-05
2.8343e-06
-1.08804e-05
3.64358e-06
-1.0653e-05
4.40519e-06
-1.0162e-05
5.11371e-06
-9.49222e-06
5.7665e-06
-8.71145e-06
6.36364e-06
-7.86941e-06
6.90736e-06
-6.99951e-06
7.40134e-06
-6.12184e-06
7.84997e-06
-5.24641e-06
8.25761e-06
-4.37597e-06
8.62795e-06
-3.50837e-06
8.96318e-06
-2.63847e-06
9.26333e-06
-1.75988e-06
9.52473e-06
-8.67045e-07
9.73972e-06
4.4467e-08
9.90287e-06
9.61261e-07
1.00254e-05
1.86673e-06
1.01385e-05
2.74221e-06
1.02871e-05
3.56423e-06
1.04966e-05
4.28699e-06
1.0723e-05
4.83152e-06
1.08556e-05
5.12444e-06
1.08076e-05
5.16763e-06
1.05635e-05
5.02826e-06
1.01565e-05
4.77842e-06
9.63454e-06
4.46321e-06
9.04176e-06
4.10046e-06
8.4118e-06
3.69121e-06
7.76689e-06
3.22981e-06
7.11968e-06
2.71113e-06
6.4766e-06
2.13496e-06
5.84001e-06
1.50733e-06
5.18741e-06
8.39623e-07
4.49413e-06
1.26551e-07
3.77268e-06
-6.26408e-07
3.01993e-06
-1.3761e-06
2.20309e-06
-2.08804e-06
1.26483e-06
-2.72054e-06
8.2794e-08
-2.963e-06
-1.93614e-06
1.82554e-06
-3.82241e-06
1.02725e-05
-4.54478e-06
8.08427e-06
-3.94858e-06
3.69357e-06
-2.24476e-06
4.75005e-06
-4.76255e-08
5.19989e-06
-8.66212e-07
2.12309e-06
-1.78098e-06
1.57215e-06
-2.53483e-06
1.33681e-06
-3.13686e-06
1.23979e-06
-3.61346e-06
1.19267e-06
-3.9909e-06
1.14332e-06
-4.29126e-06
1.06434e-06
-4.52993e-06
9.44747e-07
-4.71513e-06
7.82997e-07
-4.84993e-06
5.81492e-07
-4.9349e-06
3.43506e-07
-4.96977e-06
7.20834e-08
-4.95437e-06
-2.3032e-07
-4.88957e-06
-5.60574e-07
-4.77752e-06
-9.14488e-07
-4.62096e-06
-1.28812e-06
-4.42282e-06
-1.67864e-06
-4.18578e-06
-2.08429e-06
-3.91207e-06
-2.50404e-06
-3.60346e-06
-2.93679e-06
-3.26129e-06
-3.3801e-06
-2.886e-06
-3.82844e-06
-2.47621e-06
-4.27175e-06
-2.02914e-06
-4.69475e-06
-1.5433e-06
-5.07629e-06
-1.02002e-06
-5.38736e-06
-4.59582e-07
-5.58915e-06
1.52927e-07
-5.62568e-06
8.12815e-07
-5.40732e-06
1.47084e-06
-4.85288e-06
2.05833e-06
-3.93996e-06
2.48725e-06
-2.73835e-06
2.72303e-06
-1.47237e-06
2.80249e-06
-3.34936e-07
2.76311e-06
6.35934e-07
2.62939e-06
1.45504e-06
2.41463e-06
2.1557e-06
2.12778e-06
2.76867e-06
1.77655e-06
3.32818e-06
1.36816e-06
3.92902e-06
9.49548e-07
6.13955e-06
1.78822e-05
-8.6679e-07
2.04702e-05
-1.37113e-06
1.42229e-05
-1.64654e-06
1.10173e-05
-1.77254e-06
8.93517e-06
-1.76082e-06
6.83403e-06
-1.70107e-06
4.48943e-06
-1.1294e-06
1.13322e-06
-2.78174e-07
-2.60792e-06
5.04413e-07
-5.69207e-06
1.32838e-06
-8.07312e-06
2.13163e-06
-9.81599e-06
2.90677e-06
-1.09338e-05
3.64737e-06
-1.14875e-05
4.34137e-06
-1.15744e-05
4.98587e-06
-1.12975e-05
5.58039e-06
-1.07565e-05
6.12615e-06
-1.0038e-05
6.62543e-06
-9.21073e-06
7.08121e-06
-8.32519e-06
7.497e-06
-7.41529e-06
7.87667e-06
-6.50152e-06
8.22452e-06
-5.59426e-06
8.54516e-06
-4.69661e-06
8.84348e-06
-3.8067e-06
9.1244e-06
-2.91938e-06
9.3923e-06
-2.02778e-06
9.65004e-06
-1.12478e-06
9.89838e-06
-2.03872e-07
1.0126e-05
7.33656e-07
1.03291e-05
1.66365e-06
1.05128e-05
2.55843e-06
1.06916e-05
3.38549e-06
1.08729e-05
4.10569e-06
1.1033e-05
4.67141e-06
1.11146e-05
5.04278e-06
1.10658e-05
5.21644e-06
1.08693e-05
5.22476e-06
1.05385e-05
5.10926e-06
1.01008e-05
4.90084e-06
9.58552e-06
4.61578e-06
9.01691e-06
4.25982e-06
8.41276e-06
3.83396e-06
7.78459e-06
3.3393e-06
7.13917e-06
2.78037e-06
6.47982e-06
2.16668e-06
5.80675e-06
1.51269e-06
5.09645e-06
8.36845e-07
4.32605e-06
1.43995e-07
3.49778e-06
-5.4783e-07
2.60791e-06
-1.19816e-06
1.61691e-06
-1.72954e-06
4.01432e-07
-1.74752e-06
-1.59128e-06
3.81824e-06
-3.2938e-06
1.1975e-05
-3.9483e-06
8.73877e-06
-3.59341e-06
3.33868e-06
-2.60639e-06
3.76303e-06
-1.3094e-06
3.90289e-06
-1.80776e-06
2.62145e-06
-2.41871e-06
2.1831e-06
-3.00244e-06
1.92054e-06
-3.5188e-06
1.75615e-06
-3.95702e-06
1.63089e-06
-4.31951e-06
1.50582e-06
-4.61316e-06
1.35799e-06
-4.84456e-06
1.17614e-06
-5.01808e-06
9.56524e-07
-5.13597e-06
6.99378e-07
-5.19921e-06
4.06744e-07
-5.20854e-06
8.14186e-08
-5.16535e-06
-2.7351e-07
-5.07327e-06
-6.52658e-07
-4.9375e-06
-1.05026e-06
-4.76348e-06
-1.46213e-06
-4.55627e-06
-1.88585e-06
-4.31999e-06
-2.32057e-06
-4.05757e-06
-2.76645e-06
-3.77065e-06
-3.22371e-06
-3.45952e-06
-3.69123e-06
-3.12296e-06
-4.165e-06
-2.75815e-06
-4.63656e-06
-2.36128e-06
-5.09162e-06
-1.9291e-06
-5.50846e-06
-1.46049e-06
-5.85598e-06
-9.5769e-07
-6.09195e-06
-4.2114e-07
-6.16223e-06
1.65607e-07
-5.99406e-06
7.94397e-07
-5.48167e-06
1.39547e-06
-4.54103e-06
1.86435e-06
-3.20723e-06
2.12539e-06
-1.73342e-06
2.23272e-06
-4.42264e-07
2.23728e-06
6.31373e-07
2.16341e-06
1.52892e-06
2.01881e-06
2.30029e-06
1.80778e-06
2.9797e-06
1.53519e-06
3.60078e-06
1.20446e-06
4.25975e-06
8.35731e-07
6.50828e-06
1.87179e-05
-6.65285e-07
2.11355e-05
-9.49273e-07
1.45069e-05
-9.58844e-07
1.10268e-05
-8.05345e-07
8.78167e-06
-5.22177e-07
6.55087e-06
2.61054e-08
3.94114e-06
9.61741e-07
1.97581e-07
1.76505e-06
-3.41123e-06
2.53409e-06
-6.46111e-06
3.30452e-06
-8.84355e-06
4.03343e-06
-1.05449e-05
4.70104e-06
-1.16014e-05
5.30338e-06
-1.20898e-05
5.84173e-06
-1.21127e-05
6.32261e-06
-1.17784e-05
6.7541e-06
-1.1188e-05
7.14384e-06
-1.04277e-05
7.4982e-06
-9.56508e-06
7.82203e-06
-8.64903e-06
8.11899e-06
-7.71225e-06
8.39199e-06
-6.77452e-06
8.64389e-06
-5.84615e-06
8.87804e-06
-4.93076e-06
9.0988e-06
-4.02747e-06
9.31174e-06
-3.13232e-06
9.52343e-06
-2.23947e-06
9.74093e-06
-1.34228e-06
9.97062e-06
-4.33568e-07
1.02095e-05
4.94749e-07
1.04465e-05
1.42664e-06
1.0671e-05
2.33399e-06
1.08755e-05
3.18095e-06
1.10519e-05
3.92934e-06
1.1181e-05
4.54224e-06
1.12313e-05
4.99251e-06
1.11735e-05
5.27422e-06
1.09958e-05
5.40244e-06
1.07045e-05
5.40065e-06
1.03159e-05
5.28936e-06
9.84972e-06
5.082e-06
9.3234e-06
4.78614e-06
8.7508e-06
4.40656e-06
8.14171e-06
3.94838e-06
7.50256e-06
3.41952e-06
6.83716e-06
2.83208e-06
6.14702e-06
2.20284e-06
5.43118e-06
1.55269e-06
4.66969e-06
9.05487e-07
3.84474e-06
2.77114e-07
2.95312e-06
-3.06542e-07
1.98351e-06
-7.59926e-07
6.94403e-07
-4.58418e-07
-1.3937e-06
5.90635e-06
-2.88638e-06
1.34677e-05
-3.4414e-06
9.29378e-06
-3.30993e-06
3.20721e-06
-2.86721e-06
3.32031e-06
-2.3516e-06
3.38728e-06
-2.61727e-06
2.88711e-06
-3.03279e-06
2.59862e-06
-3.48594e-06
2.37369e-06
-3.91954e-06
2.18975e-06
-4.30635e-06
2.0177e-06
-4.63523e-06
1.8347e-06
-4.90297e-06
1.62573e-06
-5.10956e-06
1.38273e-06
-5.25578e-06
1.10275e-06
-5.3425e-06
7.86097e-07
-5.37082e-06
4.35065e-07
-5.34258e-06
5.31762e-08
-5.26186e-06
-3.54232e-07
-5.13593e-06
-7.78581e-07
-4.97306e-06
-1.21313e-06
-4.78096e-06
-1.65423e-06
-4.56613e-06
-2.10069e-06
-4.33338e-06
-2.55332e-06
-4.08571e-06
-3.01412e-06
-3.82431e-06
-3.48511e-06
-3.54861e-06
-3.96693e-06
-3.2563e-06
-4.45731e-06
-2.94341e-06
-4.94945e-06
-2.60483e-06
-5.4302e-06
-2.23529e-06
-5.878e-06
-1.83065e-06
-6.26062e-06
-1.38949e-06
-6.53311e-06
-9.14751e-07
-6.63697e-06
-4.07298e-07
-6.50152e-06
1.50838e-07
-6.03981e-06
7.45044e-07
-5.13524e-06
1.26027e-06
-3.72246e-06
1.55685e-06
-2.03e-06
1.6903e-06
-5.75708e-07
1.74209e-06
5.79583e-07
1.73295e-06
1.53805e-06
1.66127e-06
2.37197e-06
1.52531e-06
3.11566e-06
1.32703e-06
3.79906e-06
1.06687e-06
4.51991e-06
7.4449e-07
6.83066e-06
1.94624e-05
-4.98615e-07
2.16341e-05
-6.06983e-07
1.46152e-05
-3.86558e-07
1.08064e-05
6.50005e-08
8.33011e-06
6.97495e-07
5.91837e-06
1.62858e-06
3.01006e-06
2.62992e-06
-8.03758e-07
3.54892e-06
-4.33024e-06
4.40519e-06
-7.31737e-06
5.1804e-06
-9.61876e-06
5.85331e-06
-1.12178e-05
6.41958e-06
-1.21677e-05
6.88903e-06
-1.25593e-05
7.27779e-06
-1.25015e-05
7.60406e-06
-1.21047e-05
7.88472e-06
-1.14687e-05
8.13327e-06
-1.06763e-05
8.35911e-06
-9.79093e-06
8.56786e-06
-8.85778e-06
8.76217e-06
-7.90656e-06
8.94297e-06
-6.95533e-06
9.11071e-06
-6.01389e-06
9.26645e-06
-5.0865e-06
9.41273e-06
-4.17375e-06
9.55414e-06
-3.27373e-06
9.6974e-06
-2.38273e-06
9.85096e-06
-1.49584e-06
1.00248e-05
-6.07408e-07
1.02254e-05
2.94159e-07
1.04459e-05
1.20618e-06
1.06709e-05
2.10897e-06
1.08813e-05
2.97049e-06
1.1057e-05
3.75371e-06
1.11757e-05
4.42357e-06
1.12139e-05
4.95423e-06
1.11532e-05
5.33497e-06
1.09859e-05
5.56971e-06
1.07162e-05
5.67038e-06
1.03555e-05
5.64999e-06
9.91832e-06
5.51922e-06
9.41826e-06
5.2862e-06
8.86682e-06
4.958e-06
8.2727e-06
4.5425e-06
7.64216e-06
4.05006e-06
6.97953e-06
3.49471e-06
6.28776e-06
2.89461e-06
5.56863e-06
2.27182e-06
4.82295e-06
1.65117e-06
4.04163e-06
1.05844e-06
3.21067e-06
5.2442e-07
2.29753e-06
1.5321e-07
9.01381e-07
9.37731e-07
-1.40696e-06
8.21469e-06
-2.67823e-06
1.4739e-05
-3.1225e-06
9.73805e-06
-3.17587e-06
3.26058e-06
-3.08527e-06
3.22972e-06
-2.99431e-06
3.29633e-06
-3.21663e-06
3.10942e-06
-3.54935e-06
2.93135e-06
-3.92362e-06
2.74795e-06
-4.29254e-06
2.55867e-06
-4.62794e-06
2.3531e-06
-4.91412e-06
2.12087e-06
-5.14297e-06
1.85458e-06
-5.31063e-06
1.55039e-06
-5.41563e-06
1.20775e-06
-5.45814e-06
8.28607e-07
-5.44007e-06
4.16986e-07
-5.36441e-06
-2.24772e-08
-5.24055e-06
-4.7809e-07
-5.07902e-06
-9.40113e-07
-4.89032e-06
-1.40183e-06
-4.68333e-06
-1.86122e-06
-4.46487e-06
-2.31915e-06
-4.23953e-06
-2.77866e-06
-4.00981e-06
-3.24385e-06
-3.77631e-06
-3.7186e-06
-3.53795e-06
-4.20529e-06
-3.29191e-06
-4.70335e-06
-3.03371e-06
-5.20766e-06
-2.75731e-06
-5.7066e-06
-2.45569e-06
-6.17962e-06
-2.12183e-06
-6.59448e-06
-1.75026e-06
-6.90468e-06
-1.33899e-06
-7.04824e-06
-8.91721e-07
-6.94879e-06
-4.10754e-07
-6.52077e-06
1.23997e-07
-5.66999e-06
6.79755e-07
-4.27821e-06
1.04268e-06
-2.39292e-06
1.19375e-06
-7.26773e-07
1.29315e-06
4.80179e-07
1.34974e-06
1.48147e-06
1.34943e-06
2.37228e-06
1.28344e-06
3.18165e-06
1.15124e-06
3.93126e-06
9.5157e-07
4.71958e-06
6.70017e-07
7.11221e-06
2.01324e-05
-3.51758e-07
2.19858e-05
-3.12415e-07
1.45759e-05
1.26419e-07
1.03676e-05
8.39908e-07
7.61662e-06
1.73283e-06
5.02545e-06
2.89736e-06
1.84553e-06
4.07339e-06
-1.97979e-06
5.1767e-06
-5.43354e-06
6.13521e-06
-8.27588e-06
6.92394e-06
-1.04075e-05
7.54297e-06
-1.18368e-05
8.00932e-06
-1.26341e-05
8.35114e-06
-1.29011e-05
8.60035e-06
-1.27507e-05
8.78705e-06
-1.22914e-05
8.93605e-06
-1.16177e-05
9.06524e-06
-1.08055e-05
9.18547e-06
-9.91116e-06
9.3016e-06
-8.97391e-06
9.41423e-06
-8.01918e-06
9.52152e-06
-7.06262e-06
9.62097e-06
-6.11334e-06
9.71088e-06
-5.17641e-06
9.79139e-06
-4.25426e-06
9.86524e-06
-3.34758e-06
9.93803e-06
-2.45551e-06
1.0018e-05
-1.57585e-06
1.01157e-05
-7.05053e-07
1.02435e-05
1.66346e-07
1.04037e-05
1.04595e-06
1.05864e-05
1.92628e-06
1.0771e-05
2.78588e-06
1.09315e-05
3.59327e-06
1.10408e-05
4.31427e-06
1.10749e-05
4.92012e-06
1.10168e-05
5.39308e-06
1.08593e-05
5.72722e-06
1.06046e-05
5.92501e-06
1.02616e-05
5.99298e-06
9.84205e-06
5.93881e-06
9.35784e-06
5.77042e-06
8.81959e-06
5.49626e-06
8.23587e-06
5.12621e-06
7.61338e-06
4.67256e-06
6.95735e-06
4.15074e-06
6.27232e-06
3.57964e-06
5.56283e-06
2.9813e-06
4.83426e-06
2.37973e-06
4.09275e-06
1.79995e-06
3.33891e-06
1.27826e-06
2.49967e-06
9.92452e-07
8.35481e-07
2.60192e-06
-1.64889e-06
1.06991e-05
-2.65611e-06
1.57462e-05
-2.97168e-06
1.00536e-05
-3.15033e-06
3.43922e-06
-3.27211e-06
3.3515e-06
-3.40023e-06
3.42445e-06
-3.64985e-06
3.35904e-06
-3.95948e-06
3.24098e-06
-4.2909e-06
3.07938e-06
-4.61192e-06
2.87969e-06
-4.89952e-06
2.6407e-06
-5.13856e-06
2.35991e-06
-5.3197e-06
2.03572e-06
-5.43773e-06
1.66843e-06
-5.49054e-06
1.26055e-06
-5.47878e-06
8.16843e-07
-5.40612e-06
3.44331e-07
-5.27996e-06
-1.48642e-07
-5.11358e-06
-6.44471e-07
-4.9208e-06
-1.13289e-06
-4.71257e-06
-1.61007e-06
-4.49731e-06
-2.07647e-06
-4.28085e-06
-2.53561e-06
-4.06667e-06
-2.99284e-06
-3.85641e-06
-3.45411e-06
-3.65025e-06
-3.92476e-06
-3.44713e-06
-4.40842e-06
-3.24459e-06
-4.90589e-06
-3.03848e-06
-5.41377e-06
-2.82268e-06
-5.9224e-06
-2.58913e-06