/*--------------------------------*- C++ -*----------------------------------*\
| =========                 |                                                 |
| \\      /  F ield         | OpenFOAM: The Open Source CFD Toolbox           |
|  \\    /   O peration     | Version:  4.1                                   |
|   \\  /    A nd           | Web:      www.OpenFOAM.org                      |
|    \\/     M anipulation  |                                                 |
\*---------------------------------------------------------------------------*/
FoamFile
{
    version     2.0;
    format      ascii;
    class       volVectorField;
    location    "680";
    object      U;
}
// * * * * * * * * * * * * * * * * * * * * * * * * * * * * * * * * * * * * * //

dimensions      [0 1 -1 0 0 0 0];

internalField   nonuniform List<vector> 
5000
(
(-0.00397917 0.00285634 0)
(-0.00587831 0.00138607 0)
(-0.00784258 0.00082917 0)
(-0.00921686 0.000586838 0)
(-0.0102717 0.000424105 0)
(-0.0110448 0.000271874 0)
(-0.0115148 0.000107387 0)
(-0.0116412 -7.64627e-05 0)
(-0.0113892 -0.000283765 0)
(-0.0107498 -0.000500719 0)
(-0.00974576 -0.000703318 0)
(-0.00843636 -0.000874685 0)
(-0.00690111 -0.00100743 0)
(-0.0052294 -0.00109972 0)
(-0.00351272 -0.00114358 0)
(-0.00180311 -0.00107285 0)
(-5.59818e-05 -0.000932996 0)
(0.0013192 -0.000818404 0)
(0.00261842 -0.000711244 0)
(0.00380007 -0.000612799 0)
(0.00483276 -0.000517989 0)
(0.00571379 -0.000422248 0)
(0.00643954 -0.000323168 0)
(0.00700203 -0.000221285 0)
(0.0073945 -0.000121522 0)
(0.0076199 -3.42179e-05 0)
(0.00769959 2.83997e-05 0)
(0.00767055 6.84749e-05 0)
(0.00754123 0.000130564 0)
(0.0072213 0.000301575 0)
(0.00647608 0.000688843 0)
(0.0050362 0.0013845 0)
(0.0022244 0.00217898 0)
(-0.00245601 0.00159514 0)
(-0.00452933 0.000434076 0)
(-0.00497803 -0.000252302 0)
(-0.00460509 -0.000258717 0)
(-0.00423998 -0.000178145 0)
(-0.00396575 -0.00010065 0)
(-0.00381945 -5.82433e-06 0)
(-0.00381061 7.83018e-05 0)
(-0.00389958 0.000113592 0)
(-0.00397811 6.40123e-05 0)
(-0.00391529 -5.96981e-05 0)
(-0.0036317 -0.000202692 0)
(-0.00313632 -0.000283459 0)
(-0.00259294 -0.000162514 0)
(-0.00234705 0.000280264 0)
(-0.00253406 0.000400773 0)
(-0.00214877 -0.000510758 0)
(-0.000171654 -0.00189711 0)
(0.0026304 -0.00233829 0)
(0.00537774 -0.00243195 0)
(0.00777884 -0.00190761 0)
(0.00933547 -0.000971075 0)
(0.00880904 0.000481043 0)
(0.0056833 0.00381759 0)
(-0.007046 0.00348092 0)
(-0.00743494 -2.52558e-05 0)
(-0.00628204 -0.00144357 0)
(-0.00450209 -0.00119345 0)
(-0.00324871 -0.000319975 0)
(-0.00309437 0.000329955 0)
(-0.00367522 0.000430276 0)
(-0.00427411 0.000263645 0)
(-0.0045778 6.12599e-05 0)
(-0.00457378 -8.08028e-05 0)
(-0.00440509 -0.000126193 0)
(-0.00421961 -0.000123397 0)
(-0.00403789 -0.000124212 0)
(-0.00384912 -0.000130353 0)
(-0.00364236 -0.000140961 0)
(-0.00340913 -0.000155438 0)
(-0.00314201 -0.000173285 0)
(-0.00283423 -0.000192754 0)
(-0.00248093 -0.000208454 0)
(-0.00208863 -0.000206321 0)
(-0.00171004 -0.000154112 0)
(-0.00148648 -2.95832e-05 0)
(-0.00139324 -0.000133966 0)
(-0.000279558 -0.00119397 0)
(0.000967968 -0.000698938 0)
(0.00183312 -0.000519326 0)
(0.00261113 -0.00045351 0)
(0.00335236 -0.000420842 0)
(0.00406596 -0.000389706 0)
(0.00473284 -0.000349588 0)
(0.00532521 -0.000298886 0)
(0.00581913 -0.000240818 0)
(0.00620058 -0.000181016 0)
(0.00646772 -0.000125575 0)
(0.00663056 -7.99857e-05 0)
(0.00670884 -4.78044e-05 0)
(0.00672523 -2.77035e-05 0)
(0.00669847 -1.20217e-05 0)
(0.00663707 5.57432e-06 0)
(0.0065382 2.45356e-05 0)
(0.00638741 6.74006e-05 0)
(0.00573773 0.000677982 0)
(0.00466611 0.00293078 0)
(-0.00327105 0.00611818 0)
(-0.0050003 0.00368787 0)
(-0.0071864 0.00247895 0)
(-0.00872414 0.00186634 0)
(-0.00991816 0.00141812 0)
(-0.0107847 0.00097862 0)
(-0.0112985 0.000494181 0)
(-0.0114195 -4.50308e-05 0)
(-0.0111234 -0.000627636 0)
(-0.0104347 -0.0012046 0)
(-0.00939042 -0.00171443 0)
(-0.00806366 -0.00211736 0)
(-0.00654261 -0.00239953 0)
(-0.004921 -0.00256287 0)
(-0.00328534 -0.00261237 0)
(-0.00168906 -0.00252372 0)
(-3.48051e-05 -0.00230506 0)
(0.00133398 -0.00206594 0)
(0.00259676 -0.00182849 0)
(0.00371567 -0.00159888 0)
(0.00466962 -0.00137222 0)
(0.00546258 -0.0011452 0)
(0.00610684 -0.000917662 0)
(0.00662068 -0.000691624 0)
(0.00702532 -0.000471181 0)
(0.00733476 -0.000265279 0)
(0.00754559 -8.74891e-05 0)
(0.00764249 7.04796e-05 0)
(0.00759906 0.000283969 0)
(0.00735773 0.000716322 0)
(0.0068102 0.00155288 0)
(0.00585019 0.00286522 0)
(0.00428679 0.00434727 0)
(0.00193153 0.00491411 0)
(-0.000665163 0.00276774 0)
(-0.00270879 -0.000144207 0)
(-0.00384698 -0.000604513 0)
(-0.00401043 -0.000561009 0)
(-0.00392264 -0.0003873 0)
(-0.00377844 -0.000190659 0)
(-0.00361565 -3.6905e-05 0)
(-0.00344023 2.97939e-05 0)
(-0.00323698 -6.83461e-05 0)
(-0.00302164 -0.000272368 0)
(-0.00280758 -0.000525109 0)
(-0.00257526 -0.000742171 0)
(-0.00221368 -0.000778531 0)
(-0.00152546 -0.000546485 0)
(-0.000281531 -0.000491777 0)
(0.00124942 -0.00161952 0)
(0.00234831 -0.00293165 0)
(0.0036472 -0.00374407 0)
(0.0052279 -0.00404094 0)
(0.00652525 -0.00274491 0)
(0.00673844 -9.07724e-07 0)
(0.00409185 0.00373659 0)
(0.00180043 0.00933459 0)
(-0.00633531 0.00738907 0)
(-0.00602782 0.000625294 0)
(-0.00525117 -0.00280396 0)
(-0.00473904 -0.0022581 0)
(-0.00407457 -0.00100642 0)
(-0.00341504 7.92446e-05 0)
(-0.00297006 0.000622057 0)
(-0.00281999 0.000513073 0)
(-0.00275292 0.00014928 0)
(-0.00269234 -0.000156416 0)
(-0.0026748 -0.000231057 0)
(-0.00267014 -0.000209592 0)
(-0.00266186 -0.000212916 0)
(-0.00263455 -0.000235304 0)
(-0.00257759 -0.000271157 0)
(-0.00248362 -0.00031797 0)
(-0.00234721 -0.000374403 0)
(-0.00216438 -0.000438324 0)
(-0.001931 -0.000504391 0)
(-0.00163604 -0.000559707 0)
(-0.00124852 -0.000575877 0)
(-0.000730323 -0.000520312 0)
(0.000165304 -0.000545449 0)
(0.000502863 -0.00157079 0)
(0.000834118 -0.00129817 0)
(0.00152958 -0.00116534 0)
(0.00228713 -0.00112662 0)
(0.00304955 -0.00109713 0)
(0.00378695 -0.00103915 0)
(0.00446993 -0.000940487 0)
(0.00506732 -0.000802664 0)
(0.00555152 -0.000636711 0)
(0.00590442 -0.000459339 0)
(0.00612068 -0.000288625 0)
(0.00620865 -0.000141512 0)
(0.00618673 -3.06995e-05 0)
(0.0060763 4.63966e-05 0)
(0.0059026 0.000104861 0)
(0.00567817 0.000162254 0)
(0.00541057 0.000215464 0)
(0.00508147 0.00032422 0)
(0.00433081 0.00190945 0)
(0.00382988 0.00642205 0)
(-0.00261901 0.00942578 0)
(-0.00398427 0.00603756 0)
(-0.00609168 0.00423775 0)
(-0.00764027 0.00324923 0)
(-0.00891265 0.00246619 0)
(-0.00985755 0.00167175 0)
(-0.010425 0.00079486 0)
(-0.010563 -0.000164628 0)
(-0.0102496 -0.00116786 0)
(-0.00953419 -0.00213155 0)
(-0.00847372 -0.00295851 0)
(-0.00715693 -0.00358917 0)
(-0.00567526 -0.00400858 0)
(-0.00411912 -0.00422184 0)
(-0.00256523 -0.00424582 0)
(-0.0010215 -0.00408903 0)
(0.000488056 -0.00377077 0)
(0.00178254 -0.0034043 0)
(0.00300299 -0.00302297 0)
(0.00409089 -0.00263947 0)
(0.00503234 -0.00225462 0)
(0.00582554 -0.00187152 0)
(0.00647084 -0.00149706 0)
(0.00696898 -0.00113973 0)
(0.00732221 -0.000806055 0)
(0.00753637 -0.000498022 0)
(0.0076211 -0.000210512 0)
(0.00757467 8.56217e-05 0)
(0.00738181 0.000466746 0)
(0.0070654 0.0010982 0)
(0.00667572 0.00218762 0)
(0.00625191 0.00379974 0)
(0.00575636 0.00553367 0)
(0.0051025 0.00636627 0)
(0.00426901 0.00504058 0)
(0.00326391 0.00272659 0)
(0.00149781 0.00102985 0)
(-0.000247635 2.87927e-06 0)
(-0.00127606 -0.000249529 0)
(-0.001779 -0.000228421 0)
(-0.00206175 -0.000213491 0)
(-0.00215619 -0.000232968 0)
(-0.00207214 -0.000326329 0)
(-0.00197239 -0.000484087 0)
(-0.0018424 -0.000718951 0)
(-0.00165578 -0.000997968 0)
(-0.0013335 -0.00126596 0)
(-0.000786203 -0.00154801 0)
(0.000128332 -0.00205909 0)
(0.00111428 -0.00294485 0)
(0.00203272 -0.00405549 0)
(0.00304054 -0.00514289 0)
(0.00410289 -0.00557226 0)
(0.00444279 -0.00312255 0)
(0.00282182 0.0023735 0)
(-0.000343729 0.00674804 0)
(0.000174192 0.0132133 0)
(-0.00504425 0.0104744 0)
(-0.00403202 0.00124058 0)
(-0.00327032 -0.00354797 0)
(-0.0036545 -0.00262985 0)
(-0.00348179 -0.00143547 0)
(-0.00325917 -0.000502615 0)
(-0.0029204 0.000150989 0)
(-0.00261506 0.000282497 0)
(-0.00249925 8.20382e-05 0)
(-0.00257471 -0.000111324 0)
(-0.00271707 -0.00015011 0)
(-0.00282448 -0.000148454 0)
(-0.0028844 -0.000179424 0)
(-0.00290255 -0.000236232 0)
(-0.00287973 -0.000312452 0)
(-0.00281315 -0.000404796 0)
(-0.00269904 -0.000510851 0)
(-0.00253369 -0.000628102 0)
(-0.00231228 -0.000753205 0)
(-0.00202498 -0.000882101 0)
(-0.00165376 -0.00101457 0)
(-0.00118261 -0.00116928 0)
(-0.000615594 -0.00138555 0)
(-0.000137278 -0.00184988 0)
(0.000324024 -0.00186325 0)
(0.000963532 -0.00187489 0)
(0.00167474 -0.00188432 0)
(0.00242168 -0.00185896 0)
(0.00316592 -0.00176963 0)
(0.00386966 -0.00160292 0)
(0.0044946 -0.00136247 0)
(0.00500576 -0.00106752 0)
(0.00537846 -0.000747462 0)
(0.00560255 -0.000433552 0)
(0.00568282 -0.00015306 0)
(0.00562106 7.69724e-05 0)
(0.00543231 0.000255884 0)
(0.00513263 0.000396685 0)
(0.00474304 0.00052038 0)
(0.00427256 0.000633171 0)
(0.00362978 0.000825998 0)
(0.00274578 0.00307127 0)
(0.00299998 0.00970432 0)
(-0.00214768 0.0122245 0)
(-0.00324381 0.00811107 0)
(-0.00519323 0.00592709 0)
(-0.00665676 0.00466696 0)
(-0.00791575 0.0035915 0)
(-0.00885998 0.00245258 0)
(-0.0094161 0.00117467 0)
(-0.00951626 -0.000228604 0)
(-0.00914669 -0.00167812 0)
(-0.00838903 -0.00302581 0)
(-0.00731323 -0.00414917 0)
(-0.00602034 -0.00497876 0)
(-0.00459672 -0.00551346 0)
(-0.00312961 -0.00576486 0)
(-0.00167786 -0.00576536 0)
(-0.000211832 -0.00552455 0)
(0.00110263 -0.00512583 0)
(0.00233381 -0.00465146 0)
(0.00348022 -0.00415038 0)
(0.0045121 -0.00363606 0)
(0.00541973 -0.00311455 0)
(0.00619934 -0.00259151 0)
(0.00684773 -0.00207338 0)
(0.00736069 -0.00156717 0)
(0.00773286 -0.00107969 0)
(0.00795821 -0.00061595 0)
(0.00803191 -0.000174147 0)
(0.00795663 0.000268122 0)
(0.00773543 0.000777044 0)
(0.00740987 0.0014797 0)
(0.00708569 0.00255197 0)
(0.00690789 0.00407074 0)
(0.00694955 0.00568493 0)
(0.00711366 0.00650821 0)
(0.00709211 0.00567248 0)
(0.006546 0.00397674 0)
(0.00539038 0.00254658 0)
(0.0040632 0.00156501 0)
(0.00284504 0.00094998 0)
(0.00183489 0.000591225 0)
(0.00103921 0.000361067 0)
(0.000426725 0.000130478 0)
(-0.00016603 -0.000204237 0)
(-0.000449006 -0.000541181 0)
(-0.000480341 -0.000852601 0)
(-0.000433327 -0.00120541 0)
(-0.000262678 -0.00160987 0)
(7.69004e-05 -0.00210407 0)
(0.000559784 -0.00274408 0)
(0.00109877 -0.00362593 0)
(0.00162056 -0.00472709 0)
(0.00216214 -0.00595724 0)
(0.00262716 -0.00613521 0)
(0.000979035 -0.000310426 0)
(-0.00133358 0.00505372 0)
(-0.00274579 0.00763385 0)
(-0.000465207 0.014251 0)
(-0.00349141 0.0123256 0)
(-0.00161771 0.00106368 0)
(-0.00174301 -0.0035343 0)
(-0.00266853 -0.00239532 0)
(-0.00289135 -0.00131619 0)
(-0.00300211 -0.000550227 0)
(-0.00297335 -6.73589e-05 0)
(-0.00290487 0.000132843 0)
(-0.0029196 0.000115023 0)
(-0.00302955 4.40105e-05 0)
(-0.00316335 -1.01856e-05 0)
(-0.00326815 -6.48335e-05 0)
(-0.00333495 -0.000138834 0)
(-0.00336308 -0.000236054 0)
(-0.00334736 -0.00035511 0)
(-0.00328589 -0.000493817 0)
(-0.00317559 -0.000649923 0)
(-0.00301318 -0.000821149 0)
(-0.00279447 -0.00100517 0)
(-0.00251322 -0.00120044 0)
(-0.00216171 -0.00140939 0)
(-0.00173813 -0.0016434 0)
(-0.00126321 -0.00191918 0)
(-0.000796598 -0.00224597 0)
(-0.00030696 -0.00243695 0)
(0.000331861 -0.00256286 0)
(0.00101765 -0.00262022 0)
(0.00174635 -0.00260884 0)
(0.00249165 -0.00250242 0)
(0.00321398 -0.00228039 0)
(0.00386888 -0.00194372 0)
(0.00441264 -0.00151864 0)
(0.0048121 -0.00104952 0)
(0.00505242 -0.000583316 0)
(0.00513812 -0.000156971 0)
(0.00507083 0.000210628 0)
(0.0048678 0.00051631 0)
(0.00454264 0.000768915 0)
(0.00410997 0.000987709 0)
(0.0035832 0.001194 0)
(0.00293126 0.00149464 0)
(0.00192584 0.00388312 0)
(0.00244918 0.0121168 0)
(-0.00179499 0.0144895 0)
(-0.00267524 0.00985813 0)
(-0.00442108 0.00744359 0)
(-0.00571481 0.00598582 0)
(-0.0068644 0.00464771 0)
(-0.00772603 0.00317011 0)
(-0.00820885 0.00148224 0)
(-0.00822 -0.000376472 0)
(-0.00776466 -0.00226717 0)
(-0.00695857 -0.00396647 0)
(-0.00587892 -0.00534237 0)
(-0.00463594 -0.00632455 0)
(-0.00329522 -0.00693663 0)
(-0.00195037 -0.00719607 0)
(-0.000605334 -0.00714585 0)
(0.000681478 -0.00682773 0)
(0.00185569 -0.00635542 0)
(0.00298027 -0.00579749 0)
(0.00402225 -0.00519748 0)
(0.0049679 -0.00457467 0)
(0.0058116 -0.00393976 0)
(0.00655079 -0.00329975 0)
(0.00718288 -0.0026599 0)
(0.00770304 -0.0020252 0)
(0.00810328 -0.001401 0)
(0.00837298 -0.000792593 0)
(0.00849974 -0.00020112 0)
(0.00848386 0.00038929 0)
(0.00833652 0.00102338 0)
(0.00809772 0.00177715 0)
(0.0078638 0.00275852 0)
(0.00778886 0.00402258 0)
(0.00799613 0.00533697 0)
(0.00841795 0.00607871 0)
(0.00871662 0.00570116 0)
(0.00854144 0.00463745 0)
(0.00784868 0.00354688 0)
(0.0068709 0.00266418 0)
(0.00582481 0.00201486 0)
(0.00483751 0.00154632 0)
(0.00396378 0.00117939 0)
(0.00321876 0.000844364 0)
(0.00260885 0.000468736 0)
(0.00200394 -2.47081e-05 0)
(0.00144741 -0.000598936 0)
(0.00117483 -0.00114742 0)
(0.00106073 -0.00169931 0)
(0.00106655 -0.00230395 0)
(0.00115591 -0.00302227 0)
(0.00127273 -0.00389943 0)
(0.00132163 -0.00495708 0)
(0.00136681 -0.00612624 0)
(0.000906497 -0.00534392 0)
(-0.00199339 0.00315137 0)
(-0.00379752 0.00584492 0)
(-0.00404341 0.00691565 0)
(-0.00112129 0.0129279 0)
(-0.00189502 0.0129073 0)
(0.000778015 0.000178694 0)
(-0.000720606 -0.00266017 0)
(-0.00192556 -0.00175601 0)
(-0.00250627 -0.000936017 0)
(-0.00287727 -0.000358618 0)
(-0.00308249 1.14027e-05 0)
(-0.00320869 0.00018588 0)
(-0.00333576 0.000217545 0)
(-0.00347831 0.000179093 0)
(-0.00361516 0.00011249 0)
(-0.00372395 2.42772e-05 0)
(-0.00379352 -8.92469e-05 0)
(-0.00382642 -0.000228155 0)
(-0.00381371 -0.00039212 0)
(-0.0037543 -0.000578518 0)
(-0.00364579 -0.000785174 0)
(-0.00348561 -0.00101007 0)
(-0.00327085 -0.00125147 0)
(-0.00299811 -0.00150841 0)
(-0.00266485 -0.00178194 0)
(-0.00227349 -0.00207578 0)
(-0.00183692 -0.00239202 0)
(-0.00137354 -0.00271548 0)
(-0.000876467 -0.00298541 0)
(-0.000314628 -0.0031982 0)
(0.000362524 -0.00333294 0)
(0.00106563 -0.00335291 0)
(0.00179742 -0.00324529 0)
(0.00252717 -0.00298345 0)
(0.00320726 -0.00255993 0)
(0.00378461 -0.00200392 0)
(0.00421452 -0.00137726 0)
(0.00447595 -0.000748338 0)
(0.0045748 -0.00016677 0)
(0.00451587 0.000343544 0)
(0.00432072 0.000778441 0)
(0.00400614 0.00114655 0)
(0.00358603 0.00146739 0)
(0.00307462 0.00176901 0)
(0.00250178 0.00215583 0)
(0.00146482 0.00448783 0)
(0.00206132 0.0138706 0)
(-0.00151194 0.0163423 0)
(-0.00218647 0.0113121 0)
(-0.00368897 0.00873895 0)
(-0.00474467 0.00712829 0)
(-0.00570992 0.00556489 0)
(-0.0064277 0.0037804 0)
(-0.00678982 0.00170082 0)
(-0.00666157 -0.000612426 0)
(-0.00609723 -0.00293118 0)
(-0.00524682 -0.00492741 0)
(-0.00418434 -0.00650254 0)
(-0.00302401 -0.00758875 0)
(-0.00179482 -0.0082417 0)
(-0.000589863 -0.00847842 0)
(0.000601634 -0.00835866 0)
(0.00168491 -0.00798593 0)
(0.00273384 -0.00744936 0)
(0.00372274 -0.00681885 0)
(0.00463769 -0.00613484 0)
(0.00547201 -0.00542215 0)
(0.0062236 -0.00469547 0)
(0.00689272 -0.00396271 0)
(0.0074796 -0.00322769 0)
(0.00798252 -0.00249214 0)
(0.00839627 -0.00175729 0)
(0.00871194 -0.00102486 0)
(0.00891619 -0.000297011 0)
(0.008998 0.00042648 0)
(0.00896723 0.00116716 0)
(0.00885546 0.00196407 0)
(0.00873599 0.00286991 0)
(0.00872815 0.00390666 0)
(0.00894501 0.00493659 0)
(0.00935821 0.00558968 0)
(0.0097147 0.00553922 0)
(0.00973191 0.00495874 0)
(0.00934263 0.00421458 0)
(0.00866667 0.00351586 0)
(0.00785259 0.00292593 0)
(0.00700777 0.00243148 0)
(0.00619491 0.00199055 0)
(0.00544497 0.00155777 0)
(0.00476933 0.00109548 0)
(0.0041724 0.000584841 0)
(0.00359332 -1.36947e-05 0)
(0.00301102 -0.000702265 0)
(0.00255909 -0.00140864 0)
(0.0022092 -0.00213169 0)
(0.00191958 -0.00290075 0)
(0.0016342 -0.00375109 0)
(0.00123732 -0.00470766 0)
(0.000875553 -0.00565341 0)
(-0.000547395 -0.00316076 0)
(-0.00325207 0.00526215 0)
(-0.00489077 0.0062945 0)
(-0.00469459 0.00568132 0)
(-0.00205144 0.010283 0)
(-0.000573613 0.0114041 0)
(0.00165923 0.000396296 0)
(-0.000417547 -0.00134933 0)
(-0.00162162 -0.00081689 0)
(-0.00239477 -0.000339242 0)
(-0.0029147 1.81569e-05 0)
(-0.00326137 0.000252523 0)
(-0.00351141 0.000365817 0)
(-0.00371607 0.000382171 0)
(-0.00389436 0.000333155 0)
(-0.00404462 0.000241714 0)
(-0.00415955 0.000117528 0)
(-0.00423289 -3.64161e-05 0)
(-0.00426419 -0.000218661 0)
(-0.00425043 -0.000428418 0)
(-0.00418878 -0.000662906 0)
(-0.00407806 -0.000919741 0)
(-0.00391691 -0.00119683 0)
(-0.00370403 -0.00149244 0)
(-0.00343834 -0.00180532 0)
(-0.00311982 -0.00213487 0)
(-0.00275132 -0.00248034 0)
(-0.00233936 -0.0028372 0)
(-0.0018897 -0.00319032 0)
(-0.00139968 -0.00351277 0)
(-0.000864788 -0.00378813 0)
(-0.000276586 -0.00399081 0)
(0.000406643 -0.00407236 0)
(0.00110947 -0.00398254 0)
(0.00182786 -0.00369921 0)
(0.00252101 -0.00320403 0)
(0.00312893 -0.0025212 0)
(0.00359187 -0.00173022 0)
(0.003878 -0.00093032 0)
(0.00399507 -0.000189185 0)
(0.00395444 0.000462703 0)
(0.00378173 0.00102186 0)
(0.00349843 0.00149941 0)
(0.00311925 0.00191648 0)
(0.00265359 0.00230351 0)
(0.00217822 0.00275884 0)
(0.00115827 0.00501442 0)
(0.00176568 0.0152597 0)
(-0.00127654 0.0178688 0)
(-0.00174287 0.0124912 0)
(-0.00296964 0.00977347 0)
(-0.00373214 0.00803167 0)
(-0.00445232 0.00628136 0)
(-0.00497759 0.00423655 0)
(-0.0051807 0.00179443 0)
(-0.00485215 -0.000974919 0)
(-0.00417176 -0.00367856 0)
(-0.00329505 -0.00588359 0)
(-0.00227931 -0.00759515 0)
(-0.00122841 -0.00874272 0)
(-0.000136599 -0.00939522 0)
(0.000897706 -0.00957718 0)
(0.0018744 -0.00940956 0)
(0.00281709 -0.00898661 0)
(0.00371325 -0.00839533 0)
(0.00455133 -0.00769913 0)
(0.00532464 -0.00694286 0)
(0.0060308 -0.00615611 0)
(0.0066707 -0.00535649 0)
(0.00724702 -0.00455282 0)
(0.00776275 -0.00374804 0)
(0.00821971 -0.00294138 0)
(0.00861734 -0.00213039 0)
(0.00895199 -0.00131245 0)
(0.00921662 -0.000486442 0)
(0.00939517 0.00034379 0)
(0.00948844 0.00117572 0)
(0.00951188 0.00201924 0)
(0.00951204 0.00288942 0)
(0.00956753 0.00378416 0)
(0.00975768 0.00462185 0)
(0.0100765 0.00520258 0)
(0.0103697 0.00534121 0)
(0.0104439 0.00509013 0)
(0.0102253 0.00464068 0)
(0.00976317 0.00414021 0)
(0.00914703 0.00365375 0)
(0.00845511 0.0031907 0)
(0.00774158 0.00273419 0)
(0.00703926 0.00225999 0)
(0.00636513 0.00174808 0)
(0.00572607 0.00118845 0)
(0.00512762 0.000575908 0)
(0.00451281 -0.000118883 0)
(0.00388487 -0.000876491 0)
(0.00329385 -0.00165154 0)
(0.00271899 -0.00243923 0)
(0.00212176 -0.00324537 0)
(0.0013985 -0.00406889 0)
(0.000754088 -0.00471453 0)
(-0.000982861 -0.00119574 0)
(-0.00353372 0.00734834 0)
(-0.00504217 0.00693579 0)
(-0.00476655 0.0046086 0)
(-0.00286146 0.00750195 0)
(-0.000161814 0.00870613 0)
(0.00118561 0.000750475 0)
(-0.000735597 5.36312e-05 0)
(-0.00176812 0.000156081 0)
(-0.0025424 0.00031811 0)
(-0.00310028 0.000476062 0)
(-0.0035121 0.000583557 0)
(-0.00382688 0.000621515 0)
(-0.00407757 0.000592225 0)
(-0.0042808 0.000507477 0)
(-0.00444126 0.000378766 0)
(-0.00455837 0.000213416 0)
(-0.00463023 1.56062e-05 0)
(-0.00465462 -0.000212613 0)
(-0.00463251 -0.000469581 0)
(-0.00456145 -0.000752596 0)
(-0.004442 -0.00105871 0)
(-0.00427467 -0.00138545 0)
(-0.00406019 -0.00173085 0)
(-0.00379946 -0.00209331 0)
(-0.00349383 -0.00247128 0)
(-0.00314565 -0.00286205 0)
(-0.00275791 -0.00325924 0)
(-0.00233213 -0.00365005 0)
(-0.00186656 -0.00401621 0)
(-0.00135943 -0.00433871 0)
(-0.000813762 -0.00459138 0)
(-0.00022206 -0.00473372 0)
(0.000448961 -0.00469198 0)
(0.00113634 -0.00441111 0)
(0.00182336 -0.00386698 0)
(0.00245345 -0.00307007 0)
(0.00295143 -0.00211103 0)
(0.00326577 -0.00113286 0)
(0.0034041 -0.000231622 0)
(0.00338965 0.000556337 0)
(0.00325085 0.00123057 0)
(0.00301333 0.00180723 0)
(0.00269174 0.00231046 0)
(0.00228657 0.00277247 0)
(0.00191419 0.00328844 0)
(0.000943832 0.00550079 0)
(0.00153362 0.0164307 0)
(-0.00107922 0.0191097 0)
(-0.00133969 0.0133958 0)
(-0.00227607 0.0105142 0)
(-0.00270692 0.00864379 0)
(-0.00313121 0.00673115 0)
(-0.00342743 0.00446037 0)
(-0.00345004 0.00166764 0)
(-0.0028128 -0.00148531 0)
(-0.00205012 -0.00449049 0)
(-0.0011829 -0.00680991 0)
(-0.000247968 -0.00859724 0)
(0.000684743 -0.0097608 0)
(0.00156959 -0.0103528 0)
(0.00242797 -0.0105016 0)
(0.0032516 -0.0102953 0)
(0.00403354 -0.00982784 0)
(0.0047666 -0.00918304 0)
(0.00544623 -0.00842754 0)
(0.00607071 -0.00761008 0)
(0.00664087 -0.00676335 0)
(0.00715946 -0.00590695 0)
(0.00763047 -0.00505056 0)
(0.00805834 -0.00419686 0)
(0.00844727 -0.00334381 0)
(0.00880043 -0.00248668 0)
(0.00911932 -0.0016198 0)
(0.00940397 -0.00073853 0)
(0.00964559 0.000159502 0)
(0.00983701 0.00105867 0)
(0.00997749 0.00194828 0)
(0.0100863 0.00281732 0)
(0.0102054 0.00364776 0)
(0.0103794 0.00438685 0)
(0.0106092 0.00493021 0)
(0.0108127 0.00517973 0)
(0.0108738 0.00514539 0)
(0.0107315 0.00492113 0)
(0.0103979 0.00459807 0)
(0.00992117 0.00422812 0)
(0.00935268 0.00382865 0)
(0.00873313 0.00339715 0)
(0.00809047 0.00292371 0)
(0.00744167 0.00239943 0)
(0.0067956 0.00182145 0)
(0.00615662 0.00119402 0)
(0.00552614 0.00052289 0)
(0.00485053 -0.000218558 0)
(0.00413833 -0.000992874 0)
(0.00340426 -0.00175922 0)
(0.00262554 -0.00250353 0)
(0.00173295 -0.003195 0)
(0.000973669 -0.00355774 0)
(-0.000702543 0.000825843 0)
(-0.00328453 0.00933475 0)
(-0.00460915 0.00769368 0)
(-0.00433485 0.00388346 0)
(-0.0031901 0.00538049 0)
(-0.000766037 0.00600904 0)
(-0.000118898 0.00166667 0)
(-0.00137386 0.00112811 0)
(-0.00218392 0.000969165 0)
(-0.00285926 0.000944116 0)
(-0.00339493 0.000956729 0)
(-0.00381836 0.000955361 0)
(-0.0041546 0.000914716 0)
(-0.00442275 0.00082667 0)
(-0.00463428 0.000692649 0)
(-0.00479434 0.000517256 0)
(-0.00490446 0.000304902 0)
(-0.00496462 5.90118e-05 0)
(-0.00497386 -0.000218113 0)
(-0.00493343 -0.000524086 0)
(-0.00484425 -0.000855395 0)
(-0.00470902 -0.00120838 0)
(-0.00453068 -0.00158022 0)
(-0.00431211 -0.00196888 0)
(-0.00405584 -0.0023729 0)
(-0.00376398 -0.00279071 0)
(-0.00343821 -0.00321945 0)
(-0.00307948 -0.00365302 0)
(-0.0026872 -0.00408051 0)
(-0.00225913 -0.00448601 0)
(-0.00179308 -0.00484894 0)
(-0.00128944 -0.00514155 0)
(-0.000752874 -0.00532509 0)
(-0.000174296 -0.00534264 0)
(0.000472352 -0.00509615 0)
(0.00113149 -0.00453337 0)
(0.00176816 -0.00364696 0)
(0.00230162 -0.00252211 0)
(0.00265 -0.00135714 0)
(0.00281061 -0.000298105 0)
(0.00282811 0.000616094 0)
(0.00273236 0.00139287 0)
(0.00255147 0.00205688 0)
(0.00229826 0.00263645 0)
(0.00196123 0.00316557 0)
(0.00169118 0.00373894 0)
(0.000791279 0.00594367 0)
(0.0013488 0.0174428 0)
(-0.000915277 0.0200941 0)
(-0.000984501 0.0140317 0)
(-0.00164454 0.0109485 0)
(-0.00174287 0.00894303 0)
(-0.00185812 0.00691143 0)
(-0.00193655 0.00458512 0)
(-0.00168664 0.00174731 0)
(-0.000592283 -0.00208391 0)
(0.000161294 -0.00535316 0)
(0.000970858 -0.0077135 0)
(0.00177481 -0.00944582 0)
(0.00255507 -0.0105738 0)
(0.00330394 -0.0111531 0)
(0.00401378 -0.0112685 0)
(0.00467715 -0.0110188 0)
(0.00529229 -0.0105029 0)
(0.00585956 -0.00980721 0)
(0.00638038 -0.00900052 0)
(0.00685698 -0.00813348 0)
(0.00729224 -0.0072402 0)
(0.00768959 -0.00634127 0)
(0.00805293 -0.00544701 0)
(0.00838664 -0.00456032 0)
(0.00869551 -0.003679 0)
(0.00898455 -0.00279764 0)
(0.00925869 -0.00190921 0)
(0.00952237 -0.00100689 0)
(0.00977788 -8.23392e-05 0)
(0.0100194 0.0008522 0)
(0.0102371 0.00177611 0)
(0.0104282 0.00266295 0)
(0.0106047 0.0034834 0)
(0.0107827 0.00419634 0)
(0.0109598 0.00474389 0)
(0.011094 0.00507529 0)
(0.0111221 0.00518969 0)
(0.0110032 0.00513229 0)
(0.0107358 0.004956 0)
(0.0103443 0.00469745 0)
(0.00986041 0.00437401 0)
(0.00931247 0.00398998 0)
(0.00872192 0.00354391 0)
(0.00810325 0.00303447 0)
(0.00746525 0.00246427 0)
(0.00681271 0.00184147 0)
(0.00614749 0.00117897 0)
(0.00546534 0.000492287 0)
(0.00472429 -0.000238849 0)
(0.00392178 -0.000969625 0)
(0.00306342 -0.00164687 0)
(0.00211383 -0.00222601 0)
(0.00133682 -0.00236053 0)
(-0.000420932 0.00277735 0)
(-0.00288005 0.0111474 0)
(-0.00398597 0.00842055 0)
(-0.00374365 0.00344331 0)
(-0.00318124 0.00410075 0)
(-0.00175019 0.00430564 0)
(-0.00143926 0.00238067 0)
(-0.00212826 0.00189297 0)
(-0.00272276 0.00163924 0)
(-0.00327628 0.00150512 0)
(-0.00375388 0.00141656 0)
(-0.00415334 0.00132811 0)
(-0.00448037 0.00121448 0)
(-0.0047422 0.00106425 0)
(-0.00494437 0.000874356 0)
(-0.00509 0.000645845 0)
(-0.00518058 0.000381172 0)
(-0.00521693 8.30919e-05 0)
(-0.00519921 -0.000245808 0)
(-0.00513015 -0.000601515 0)
(-0.00501481 -0.000978946 0)
(-0.00485848 -0.00137393 0)
(-0.00466654 -0.00178368 0)
(-0.00444368 -0.0022067 0)
(-0.0041935 -0.00264236 0)
(-0.00391833 -0.00309006 0)
(-0.00361918 -0.00354789 0)
(-0.00329558 -0.00401101 0)
(-0.00294543 -0.00447014 0)
(-0.00256533 -0.00491044 0)
(-0.00215168 -0.00531033 0)
(-0.00170228 -0.00563967 0)
(-0.00121795 -0.00585785 0)
(-0.000703657 -0.00591161 0)
(-0.000149655 -0.00572623 0)
(0.00046585 -0.00518184 0)
(0.00108731 -0.00424321 0)
(0.00165089 -0.00296793 0)
(0.00204484 -0.00160404 0)
(0.00222789 -0.00039092 0)
(0.00228043 0.000635318 0)
(0.00223459 0.00149957 0)
(0.00211818 0.00223956 0)
(0.00193964 0.00288793 0)
(0.00167316 0.00347939 0)
(0.00149893 0.00410969 0)
(0.000678321 0.00633733 0)
(0.00119908 0.0183289 0)
(-0.000781207 0.020855 0)
(-0.00068478 0.0144234 0)
(-0.00110728 0.0110925 0)
(-0.000906222 0.0089434 0)
(-0.000703751 0.00681933 0)
(-0.000585536 0.00441938 0)
(0.000543908 0.000604828 0)
(0.0014644 -0.00298599 0)
(0.00220844 -0.00602473 0)
(0.00297286 -0.0084378 0)
(0.00371654 -0.0101839 0)
(0.00440653 -0.0112876 0)
(0.00503217 -0.0118195 0)
(0.00559379 -0.0118805 0)
(0.00609616 -0.0115775 0)
(0.00654686 -0.0110118 0)
(0.00695377 -0.0102705 0)
(0.00732362 -0.00942269 0)
(0.00766161 -0.0085186 0)
(0.00797154 -0.007592 0)
(0.00825634 -0.00666338 0)
(0.00851859 -0.00574322 0)
(0.00876121 -0.00483492 0)
(0.00898797 -0.00393697 0)
(0.00920382 -0.00304462 0)
(0.00941498 -0.00215118 0)
(0.00962847 -0.00124941 0)
(0.00985197 -0.00033167 0)
(0.0100888 0.000607044 0)
(0.0103313 0.00154465 0)
(0.0105647 0.00245015 0)
(0.0107801 0.00328779 0)
(0.0109718 0.00401908 0)
(0.0111291 0.00460446 0)
(0.0112263 0.00501392 0)
(0.0112294 0.00524384 0)
(0.0111143 0.00531619 0)
(0.0108778 0.00526129 0)
(0.0105334 0.00510375 0)
(0.010101 0.00485828 0)
(0.00960044 0.00453191 0)
(0.00904772 0.00412799 0)
(0.00845469 0.00365005 0)
(0.00782928 0.00310459 0)
(0.00717641 0.00250265 0)
(0.00649867 0.00186001 0)
(0.00579621 0.00119648 0)
(0.0050618 0.000536519 0)
(0.00426954 -0.000126382 0)
(0.00340703 -0.000761063 0)
(0.00248211 -0.00125461 0)
(0.00172206 -0.00117831 0)
(-0.000290302 0.00477665 0)
(-0.00256748 0.0127591 0)
(-0.00344949 0.00904248 0)
(-0.00329704 0.00322463 0)
(-0.00313892 0.00345514 0)
(-0.00250969 0.00354224 0)
(-0.00242128 0.00276276 0)
(-0.00282126 0.00240239 0)
(-0.00326373 0.00215675 0)
(-0.00371334 0.00198067 0)
(-0.00412622 0.00183068 0)
(-0.00448499 0.00167603 0)
(-0.00478346 0.00149769 0)
(-0.00502057 0.00128581 0)
(-0.00519688 0.00103677 0)
(-0.00531322 0.000750573 0)
(-0.0053705 0.000429117 0)
(-0.00537024 7.54292e-05 0)
(-0.00531405 -0.000306619 0)
(-0.0052083 -0.000710095 0)
(-0.0050619 -0.00112847 0)
(-0.0048826 -0.00155766 0)
(-0.00467763 -0.00199563 0)
(-0.00445274 -0.0024422 0)
(-0.00421185 -0.00289834 0)
(-0.00395703 -0.00336507 0)
(-0.0036886 -0.00384214 0)
(-0.00340507 -0.00432637 0)
(-0.00310328 -0.00481009 0)
(-0.00277864 -0.00527948 0)
(-0.00242593 -0.00571271 0)
(-0.00204038 -0.00607792 0)
(-0.00161916 -0.00633134 0)
(-0.00116304 -0.00641662 0)
(-0.000677127 -0.00626542 0)
(-0.00015282 -0.00578751 0)
(0.000431664 -0.00484378 0)
(0.00100801 -0.00345466 0)
(0.00146459 -0.00187589 0)
(0.00167542 -0.000509223 0)
(0.00176132 0.000609732 0)
(0.00176927 0.00154429 0)
(0.00172191 0.00235035 0)
(0.00161989 0.00306318 0)
(0.00142173 0.00371569 0)
(0.00133266 0.00440522 0)
(0.000591055 0.00668226 0)
(0.00107569 0.0191138 0)
(-0.000672044 0.0214291 0)
(-0.000438888 0.0146101 0)
(-0.000669963 0.0109913 0)
(-0.000188459 0.00866357 0)
(0.000315741 0.00633003 0)
(0.000836738 0.00359451 0)
(0.00220768 -0.00016974 0)
(0.00315748 -0.00377319 0)
(0.00403705 -0.00683323 0)
(0.00485324 -0.00920923 0)
(0.00557165 -0.0108832 0)
(0.00618111 -0.0119022 0)
(0.00668758 -0.0123523 0)
(0.00710601 -0.0123402 0)
(0.00745465 -0.0119765 0)
(0.00775148 -0.0113626 0)
(0.00801172 -0.010584 0)
(0.00824647 -0.00970687 0)
(0.00846275 -0.00877899 0)
(0.00866415 -0.00783199 0)
(0.00885197 -0.00688507 0)
(0.00902653 -0.0059484 0)
(0.00918828 -0.00502595 0)
(0.00933884 -0.00411749 0)
(0.00948169 -0.00321996 0)
(0.00962254 -0.00232834 0)
(0.00976912 -0.00143659 0)
(0.00993043 -0.000538258 0)
(0.0101175 0.000378702 0)
(0.010332 0.00130498 0)
(0.0105598 0.00221516 0)
(0.0107821 0.00307317 0)
(0.0109796 0.00384048 0)
(0.0111317 0.00448182 0)
(0.0112155 0.00497237 0)
(0.0112086 0.00530478 0)
(0.0110962 0.00548818 0)
(0.0108765 0.00553943 0)
(0.0105582 0.00547473 0)
(0.0101556 0.00530602 0)
(0.00968362 0.00504132 0)
(0.00915518 0.00468679 0)
(0.00858043 0.00424915 0)
(0.00796674 0.00373771 0)
(0.00731926 0.00316562 0)
(0.00664146 0.00255046 0)
(0.00593555 0.0019138 0)
(0.00520223 0.00128027 0)
(0.00443766 0.000679094 0)
(0.0036322 0.000130372 0)
(0.00277784 -0.00030197 0)
(0.00205955 0.000253425 0)
(-0.000348826 0.00696775 0)
(-0.00244283 0.0141514 0)
(-0.00310352 0.0095449 0)
(-0.00305801 0.00320093 0)
(-0.00316833 0.0032262 0)
(-0.00299408 0.00329719 0)
(-0.00307346 0.0029973 0)
(-0.0033761 0.00277037 0)
(-0.00373872 0.0025679 0)
(-0.00411668 0.00238159 0)
(-0.00447238 0.0021928 0)
(-0.00478504 0.00198539 0)
(-0.00504346 0.00174825 0)
(-0.00524208 0.00147537 0)
(-0.00537843 0.00116476 0)
(-0.00545192 0.000817339 0)
(-0.00546344 0.000436031 0)
(-0.00541562 2.54579e-05 0)
(-0.00531255 -0.000408646 0)
(-0.00516693 -0.000854231 0)
(-0.00498943 -0.00130508 0)
(-0.00478965 -0.00175814 0)