/*--------------------------------*- C++ -*----------------------------------*\
| =========                 |                                                 |
| \\      /  F ield         | OpenFOAM: The Open Source CFD Toolbox           |
|  \\    /   O peration     | Version:  4.1                                   |
|   \\  /    A nd           | Web:      www.OpenFOAM.org                      |
|    \\/     M anipulation  |                                                 |
\*---------------------------------------------------------------------------*/
FoamFile
{
    version     2.0;
    format      ascii;
    class       surfaceScalarField;
    location    "1100";
    object      phi;
}
// * * * * * * * * * * * * * * * * * * * * * * * * * * * * * * * * * * * * * //

dimensions      [0 3 -1 0 0 0 0];

internalField   nonuniform List<scalar> 
9850
(
-3.25665e-06
3.25665e-06
-2.08881e-06
-1.16784e-06
3.47901e-07
-2.43671e-06
2.1151e-06
-1.7672e-06
3.35976e-06
-1.24465e-06
4.32199e-06
-9.62226e-07
5.09913e-06
-7.77145e-07
5.62089e-06
-5.21759e-07
5.66371e-06
-4.28209e-08
4.45508e-06
1.20863e-06
5.22199e-07
3.93288e-06
-3.80108e-06
4.32328e-06
-4.76561e-06
9.64531e-07
-4.0711e-06
-6.94517e-07
-2.6843e-06
-1.38679e-06
-1.2445e-06
-1.4398e-06
-1.14888e-08
-1.23301e-06
1.04984e-06
-1.06133e-06
1.9897e-06
-9.39862e-07
2.84986e-06
-8.60164e-07
3.65959e-06
-8.09729e-07
4.43665e-06
-7.77062e-07
5.19203e-06
-7.55374e-07
5.93199e-06
-7.39963e-07
6.65944e-06
-7.27448e-07
7.37506e-06
-7.15618e-07
8.07815e-06
-7.03095e-07
8.76717e-06
-6.89022e-07
9.44007e-06
-6.72896e-07
1.00945e-05
-6.54441e-07
1.0728e-05
-6.33504e-07
1.1338e-05
-6.09982e-07
1.19218e-05
-5.83797e-07
1.24767e-05
-5.54888e-07
1.29999e-05
-5.23215e-07
1.34887e-05
-4.88757e-07
1.39402e-05
-4.51517e-07
1.43517e-05
-4.11529e-07
1.47206e-05
-3.68866e-07
1.50442e-05
-3.23655e-07
1.53203e-05
-2.76093e-07
1.55468e-05
-2.26464e-07
1.5722e-05
-1.75184e-07
1.58449e-05
-1.22896e-07
1.59156e-05
-7.07248e-08
1.59362e-05
-2.0664e-08
1.591e-05
2.62136e-08
1.58389e-05
7.10882e-08
1.57247e-05
1.14266e-07
1.55689e-05
1.55758e-07
1.53736e-05
1.95351e-07
1.51408e-05
2.32741e-07
1.48732e-05
2.67596e-07
1.45736e-05
2.99599e-07
1.42451e-05
3.28507e-07
1.38909e-05
3.54225e-07
1.3514e-05
3.76883e-07
1.31172e-05
3.96793e-07
1.27033e-05
4.13884e-07
1.22775e-05
4.25815e-07
1.18522e-05
4.25346e-07
1.14422e-05
4.09964e-07
1.09892e-05
4.53011e-07
1.01031e-05
8.86101e-07
7.77529e-06
2.32781e-06
3.23044e-06
4.54485e-06
-9.07921e-07
4.13836e-06
-2.21794e-06
1.31002e-06
-2.55788e-06
3.39946e-07
-2.87651e-06
3.18622e-07
-3.23408e-06
3.57571e-07
-3.63997e-06
4.0589e-07
-4.08609e-06
4.46126e-07
-4.55659e-06
4.70498e-07
-5.03203e-06
4.75438e-07
-5.49164e-06
4.59614e-07
-5.91468e-06
4.23035e-07
-6.28127e-06
3.66592e-07
-6.57294e-06
2.91674e-07
-6.7731e-06
2.00156e-07
-6.86684e-06
9.37428e-08
-6.83849e-06
-2.83486e-08
-6.67448e-06
-1.64017e-07
-6.36557e-06
-3.08911e-07
-5.90697e-06
-4.58597e-07
-5.29761e-06
-6.09361e-07
-4.53893e-06
-7.58678e-07
-3.63367e-06
-9.05261e-07
-2.58774e-06
-1.04592e-06
-1.42702e-06
-1.16072e-06
-2.4359e-07
-1.18343e-06
8.6537e-07
-1.10896e-06
1.83504e-06
-9.69668e-07
2.63938e-06
-8.04343e-07
3.29494e-06
-6.55556e-07
3.83649e-06
-5.41552e-07
4.33907e-06
-5.02583e-07
5.02343e-06
-6.84355e-07
4.38161e-06
6.41814e-07
4.38161e-06
-1.92451e-06
5.18117e-06
-8.90487e-07
-2.20187e-06
4.85013e-07
-3.81221e-06
1.72289e-06
-3.00508e-06
2.75589e-06
-2.27766e-06
3.68215e-06
-1.88849e-06
4.50306e-06
-1.59805e-06
4.99083e-06
-1.00954e-06
4.82576e-06
1.22247e-07
3.47839e-06
2.55601e-06
4.67242e-07
6.94402e-06
-2.65713e-06
7.44765e-06
-3.72176e-06
2.02916e-06
-3.20199e-06
-1.21428e-06
-2.11098e-06
-2.47781e-06
-9.13659e-07
-2.63712e-06
2.49813e-07
-2.39649e-06
1.3132e-06
-2.12471e-06
2.29006e-06
-1.91672e-06
3.20607e-06
-1.77618e-06
4.07864e-06
-1.6823e-06
4.91983e-06
-1.61825e-06
5.7375e-06
-1.57304e-06
6.53656e-06
-1.53903e-06
7.31978e-06
-1.51066e-06
8.08831e-06
-1.48415e-06
8.84226e-06
-1.45704e-06
9.581e-06
-1.42776e-06
1.03034e-05
-1.39526e-06
1.10078e-05
-1.35889e-06
1.16925e-05
-1.31821e-06
1.23554e-05
-1.27292e-06
1.29944e-05
-1.22279e-06
1.36072e-05
-1.16765e-06
1.41913e-05
-1.10735e-06
1.47444e-05
-1.04179e-06
1.52638e-05
-9.70937e-07
1.57471e-05
-8.94823e-07
1.61918e-05
-8.13565e-07
1.65955e-05
-7.27382e-07
1.6956e-05
-6.3661e-07
1.72713e-05
-5.41724e-07
1.75395e-05
-4.43382e-07
1.77591e-05
-3.42499e-07
1.79288e-05
-2.40388e-07
1.80465e-05
-1.38393e-07
1.81098e-05
-3.7078e-08
1.81177e-05
6.32081e-08
1.80713e-05
1.60646e-07
1.79716e-05
2.55425e-07
1.78199e-05
3.47073e-07
1.76177e-05
4.34954e-07
1.73669e-05
5.18413e-07
1.70696e-05
5.96822e-07
1.67285e-05
6.69679e-07
1.6346e-05
7.3671e-07
1.59249e-05
7.97951e-07
1.5468e-05
8.53685e-07
1.4978e-05
9.03905e-07
1.44569e-05
9.46927e-07
1.39028e-05
9.79428e-07
1.32971e-05
1.01564e-06
1.25634e-05
1.18676e-06
1.14832e-05
1.96633e-06
9.70087e-06
4.11009e-06
6.97696e-06
7.26876e-06
2.63717e-06
8.47815e-06
-9.80687e-07
4.92787e-06
-2.18517e-06
1.54442e-06
-2.92184e-06
1.05529e-06
-3.58449e-06
1.02022e-06
-4.23294e-06
1.05434e-06
-4.88015e-06
1.09334e-06
-5.5201e-06
1.11044e-06
-6.1386e-06
1.09394e-06
-6.71814e-06
1.03916e-06
-7.24042e-06
9.45318e-07
-7.68785e-06
8.14018e-07
-8.0443e-06
6.48125e-07
-8.2954e-06
4.51253e-07
-8.43019e-06
2.28529e-07
-8.43833e-06
-2.02071e-08
-8.31237e-06
-2.89974e-07
-8.04788e-06
-5.73404e-07
-7.64489e-06
-8.61584e-07
-7.1083e-06
-1.14595e-06
-6.44835e-06
-1.41863e-06
-5.68245e-06
-1.67116e-06
-4.83833e-06
-1.89005e-06
-3.94705e-06
-2.052e-06
-2.99952e-06
-2.13096e-06
-1.98902e-06
-2.11946e-06
-9.35752e-07
-2.02294e-06
8.90094e-08
-1.82911e-06
1.00375e-06
-1.57029e-06
1.81693e-06
-1.35474e-06
2.58876e-06
-1.27441e-06
3.22718e-06
-1.32277e-06
2.93899e-06
9.30002e-07
7.3206e-06
-1.17222e-06
6.35339e-06
-3.68766e-07
-3.00532e-06
4.85896e-07
-4.66687e-06
1.26927e-06
-3.78845e-06
2.01582e-06
-3.02421e-06
2.8122e-06
-2.68486e-06
3.61062e-06
-2.39647e-06
4.08733e-06
-1.48624e-06
3.76218e-06
4.47395e-07
2.36992e-06
3.94827e-06
-5.99911e-09
9.31995e-06
-1.96622e-06
9.40787e-06
-2.49602e-06
2.55896e-06
-1.83332e-06
-1.87698e-06
-9.34576e-07
-3.37655e-06
-4.0896e-08
-3.5308e-06
8.39282e-07
-3.27666e-06
1.69815e-06
-2.98358e-06
2.5348e-06
-2.75337e-06
3.34936e-06
-2.59074e-06
4.14624e-06
-2.47918e-06
4.92969e-06
-2.4017e-06
5.70223e-06
-2.34558e-06
6.46499e-06
-2.30179e-06
7.21819e-06
-2.26386e-06
7.96138e-06
-2.22734e-06
8.69359e-06
-2.18925e-06
9.41349e-06
-2.14766e-06
1.01195e-05
-2.10128e-06
1.08099e-05
-2.04927e-06
1.14827e-05
-1.99104e-06
1.2136e-05
-1.92616e-06
1.27674e-05
-1.85427e-06
1.33749e-05
-1.77508e-06
1.39559e-05
-1.68834e-06
1.4508e-05
-1.5939e-06
1.50287e-05
-1.49166e-06
1.55155e-05
-1.38165e-06
1.5966e-05
-1.26402e-06
1.63777e-05
-1.13907e-06
1.67483e-05
-1.00725e-06
1.70758e-05
-8.69202e-07
1.73581e-05
-7.25732e-07
1.75935e-05
-5.77862e-07
1.77799e-05
-4.26793e-07
1.79153e-05
-2.73781e-07
1.7998e-05
-1.19791e-07
1.80271e-05
3.41513e-08
1.80015e-05
1.86247e-07
1.79212e-05
3.35707e-07
1.77865e-05
4.81795e-07
1.75977e-05
6.23678e-07
1.73557e-05
7.60444e-07
1.70613e-05
8.91208e-07
1.67158e-05
1.0152e-06
1.63206e-05
1.13189e-06
1.58775e-05
1.24106e-06
1.53882e-05
1.34296e-06
1.48539e-05
1.43819e-06
1.42731e-05
1.52778e-06
1.36369e-05
1.61562e-06
1.29252e-05
1.72739e-06
1.21148e-05
1.99715e-06
1.11781e-05
2.90302e-06
9.96026e-06
5.3279e-06
8.12572e-06
9.1033e-06
5.30605e-06
1.12978e-05
1.35494e-06
8.87898e-06
-1.04723e-06
3.9466e-06
-2.13511e-06
2.14317e-06
-3.09333e-06
1.97843e-06
-3.99828e-06
1.9593e-06
-4.87022e-06
1.96528e-06
-5.7079e-06
1.94812e-06
-6.50049e-06
1.88653e-06
-7.23308e-06
1.77174e-06
-7.8895e-06
1.60174e-06
-8.45401e-06
1.37853e-06
-8.91246e-06
1.10657e-06
-9.25289e-06
7.91685e-07
-9.46457e-06
4.40209e-07
-9.54182e-06
5.70439e-08
-9.48183e-06
-3.49961e-07
-9.28165e-06
-7.73586e-07
-8.94244e-06
-1.20079e-06
-8.46906e-06
-1.61933e-06
-7.87073e-06
-2.01696e-06
-7.1616e-06
-2.38029e-06
-6.359e-06
-2.69264e-06
-5.47722e-06
-2.93379e-06
-4.52256e-06
-3.08562e-06
-3.5044e-06
-3.13761e-06
-2.44156e-06
-3.08578e-06
-1.33796e-06
-2.93271e-06
-2.12215e-07
-2.69603e-06
8.09043e-07
-2.376e-06
1.58958e-06
-2.05495e-06
1.99054e-06
-1.72374e-06
1.92406e-06
9.96486e-07
9.24466e-06
-8.46525e-07
7.19991e-06
-1.82428e-07
-3.66942e-06
2.45212e-07
-5.09451e-06
6.31369e-07
-4.1746e-06
1.09061e-06
-3.48346e-06
1.70473e-06
-3.29898e-06
2.39758e-06
-3.08932e-06
2.8679e-06
-1.95656e-06
2.28898e-06
1.02632e-06
8.37309e-07
5.39994e-06
-8.48727e-07
1.1006e-05
-1.7411e-06
1.03002e-05
-1.09971e-06
1.91757e-06
-3.79814e-07
-2.59688e-06
1.77219e-07
-3.93358e-06
7.39785e-07
-4.09337e-06
1.34989e-06
-3.88677e-06
2.00269e-06
-3.63638e-06
2.68335e-06
-3.43403e-06
3.38127e-06
-3.28866e-06
4.08974e-06
-3.18765e-06
4.8045e-06
-3.11645e-06
5.52226e-06
-3.06334e-06
6.24022e-06
-3.01975e-06
6.95593e-06
-2.97957e-06
7.66711e-06
-2.93852e-06
8.37157e-06
-2.89371e-06
9.06717e-06
-2.84326e-06
9.75184e-06
-2.78595e-06
1.04235e-05
-2.72093e-06
1.10801e-05
-2.64761e-06
1.17194e-05
-2.56548e-06
1.23393e-05
-2.47412e-06
1.29373e-05
-2.37313e-06
1.35111e-05
-2.26218e-06
1.40582e-05
-2.14099e-06
1.4576e-05
-2.00944e-06
1.50619e-05
-1.8675e-06
1.55132e-05
-1.71536e-06
1.59275e-05
-1.55336e-06
1.63023e-05
-1.38208e-06
1.66354e-05
-1.20228e-06
1.69246e-05
-1.01495e-06
1.7168e-05
-8.21245e-07
1.73637e-05
-6.22478e-07
1.75099e-05
-4.19995e-07
1.76051e-05
-2.15046e-07
1.76482e-05
-8.86769e-09
1.76376e-05
1.96806e-07
1.75727e-05
4.00641e-07
1.74528e-05
6.01661e-07
1.72775e-05
7.98987e-07
1.70463e-05
9.91587e-07
1.67591e-05
1.17845e-06
1.64157e-05
1.35865e-06
1.60161e-05
1.5314e-06
1.55609e-05
1.6963e-06
1.50504e-05
1.8535e-06
1.44845e-05
2.00407e-06
1.38614e-05
2.15087e-06
1.31753e-05
2.30171e-06
1.24177e-05
2.48498e-06
1.15942e-05
2.82065e-06
1.07454e-05
3.7518e-06
9.83485e-06
6.23847e-06
8.5473e-06
1.03909e-05
6.46817e-06
1.3377e-05
3.32818e-06
1.2019e-05
2.36074e-07
7.0387e-06
-1.32212e-06
3.70137e-06
-2.53659e-06
3.1929e-06
-3.67673e-06
3.09944e-06
-4.7576e-06
3.04615e-06
-5.77766e-06
2.96818e-06
-6.72788e-06
2.83674e-06
-7.596e-06
2.63987e-06
-8.36903e-06
2.37476e-06
-9.03458e-06
2.04408e-06
-9.58174e-06
1.65373e-06
-1.00015e-05
1.21142e-06
-1.0287e-05
7.25714e-07
-1.04344e-05
2.0445e-07
-1.04415e-05
-3.42882e-07
-1.03073e-05
-9.07729e-07
-1.00321e-05
-1.47601e-06
-9.61899e-06
-2.03244e-06
-9.07419e-06
-2.56176e-06
-8.4066e-06
-3.04788e-06
-7.62622e-06
-3.47303e-06
-6.74161e-06
-3.81839e-06
-5.76044e-06
-4.06679e-06
-4.69322e-06
-4.20483e-06
-3.55519e-06
-4.22381e-06
-2.36617e-06
-4.12173e-06
-1.1591e-06
-3.90311e-06
2.82883e-08
-3.56338e-06
1.03075e-06
-3.0574e-06
1.54122e-06
-2.23421e-06
1.51619e-06
1.02151e-06
1.07609e-05
-6.21075e-07
7.82099e-06
-1.99657e-07
-4.09084e-06
-1.52157e-07
-5.14201e-06
-1.33968e-07
-4.19279e-06
1.67633e-08
-3.63419e-06
2.95622e-07
-3.57784e-06
5.5081e-07
-3.34451e-06
5.22921e-07
-1.92867e-06
-6.06538e-08
1.60989e-06
-1.15679e-06
6.49607e-06
-1.78501e-06
1.16342e-05
-1.34499e-06
9.86022e-06
2.22895e-07
3.49686e-07
7.61694e-07
-3.13567e-06
1.0412e-06
-4.21309e-06
1.33177e-06
-4.38394e-06
1.71008e-06
-4.26508e-06
2.17868e-06
-4.10498e-06
2.71782e-06
-3.97316e-06
3.30701e-06
-3.87785e-06
3.93065e-06
-3.8113e-06
4.5778e-06
-3.7636e-06
5.24055e-06
-3.72609e-06
5.91288e-06
-3.69208e-06
6.59e-06
-3.65669e-06
7.268e-06
-3.61651e-06
7.94355e-06
-3.56927e-06
8.61378e-06
-3.5135e-06
9.27612e-06
-3.44829e-06
9.9282e-06
-3.37301e-06
1.05678e-05
-3.28717e-06
1.11926e-05
-3.1903e-06
1.18004e-05
-3.08191e-06
1.23888e-05
-2.96154e-06
1.29553e-05
-2.82872e-06
1.34974e-05
-2.68309e-06
1.40124e-05
-2.52439e-06
1.44974e-05
-2.35258e-06
1.49499e-05
-2.16779e-06
1.5367e-05
-1.97043e-06
1.5746e-05
-1.76116e-06
1.60846e-05
-1.54087e-06
1.63804e-05
-1.31072e-06
1.66312e-05
-1.07207e-06
1.68352e-05
-8.26445e-07
1.69906e-05
-5.75449e-07
1.70962e-05
-3.20656e-07
1.71508e-05
-6.3451e-08
1.71532e-05
1.94481e-07
1.71024e-05
4.51407e-07
1.69978e-05
7.06293e-07
1.68384e-05
9.5836e-07
1.66233e-05
1.20667e-06
1.63515e-05
1.4503e-06
1.60217e-05
1.68838e-06
1.5633e-05
1.92012e-06
1.51843e-05
2.14501e-06
1.46747e-05
2.36308e-06
1.41033e-05
2.57547e-06
1.34687e-05
2.78553e-06
1.27684e-05
3.00198e-06
1.20018e-05
3.25154e-06
1.11844e-05
3.63803e-06
1.03763e-05
4.55993e-06
9.62005e-06
6.99474e-06
8.68687e-06
1.1324e-05
7.11435e-06
1.49495e-05
4.60956e-06
1.45238e-05
1.50197e-06
1.01463e-05
-5.69466e-07
5.77281e-06
-1.97541e-06
4.59884e-06
-3.29331e-06
4.41734e-06
-4.53363e-06
4.28647e-06
-5.69393e-06
4.12849e-06
-6.76665e-06
3.90946e-06
-7.74231e-06
3.61553e-06
-8.61101e-06
3.24346e-06
-9.36321e-06
2.79628e-06
-9.99035e-06
2.28087e-06
-1.04854e-05
1.70644e-06
-1.08431e-05
1.08346e-06
-1.10599e-05
4.2125e-07
-1.11346e-05
-2.68232e-07
-1.1068e-05
-9.74334e-07
-1.08595e-05
-1.68446e-06
-1.05108e-05
-2.38118e-06
-1.00249e-05
-3.04768e-06
-9.40587e-06
-3.66686e-06
-8.65819e-06
-4.2207e-06
-7.78596e-06
-4.69063e-06
-6.79423e-06
-5.05853e-06
-5.6912e-06
-5.30786e-06
-4.49049e-06
-5.42451e-06
-3.21482e-06
-5.3974e-06
-1.90116e-06
-5.21677e-06
-5.9907e-07
-4.86547e-06
6.02347e-07
-4.25882e-06
1.33399e-06
-2.96585e-06
1.26909e-06
1.08641e-06
1.20299e-05
-4.87472e-07
8.30846e-06
-3.67978e-07
-4.21033e-06
-6.45489e-07
-4.8645e-06
-9.56857e-07
-3.88143e-06
-1.16591e-06
-3.42513e-06
-1.3325e-06
-3.41125e-06
-1.5482e-06
-3.12881e-06
-1.87596e-06
-1.60092e-06
-2.20215e-06
1.93608e-06
-2.64124e-06
6.93517e-06
-2.58133e-06
1.15743e-05
-4.45099e-07
7.724e-06
1.17163e-06
-1.26704e-06
1.51428e-06
-3.47833e-06
1.56966e-06
-4.26847e-06
1.65539e-06
-4.46967e-06
1.86587e-06
-4.47555e-06
2.19911e-06
-4.43823e-06
2.62848e-06
-4.40253e-06
3.12826e-06
-4.37762e-06
3.67856e-06
-4.3616e-06
4.26499e-06
-4.35003e-06
4.87686e-06
-4.33797e-06
5.50601e-06
-4.32123e-06
6.14596e-06
-4.29664e-06
6.79149e-06
-4.26205e-06
7.43839e-06
-4.21616e-06
8.08313e-06
-4.15824e-06
8.72278e-06
-4.08794e-06
9.35477e-06
-4.005e-06
9.97677e-06
-3.90918e-06
1.05866e-05
-3.80009e-06
1.11819e-05
-3.67726e-06
1.17605e-05
-3.5401e-06
1.23198e-05
-3.38801e-06
1.28571e-05
-3.22047e-06
1.33698e-05
-3.03709e-06
1.3855e-05
-2.83769e-06
1.43095e-05
-2.62238e-06
1.47306e-05
-2.39154e-06
1.51154e-05
-2.14588e-06
1.54609e-05
-1.88641e-06
1.57647e-05
-1.61447e-06
1.60242e-05
-1.33164e-06
1.62375e-05
-1.03972e-06
1.64027e-05
-7.40642e-07
1.65184e-05
-4.36389e-07
1.65838e-05
-1.2876e-07
1.65978e-05
1.8044e-07
1.65598e-05
4.89377e-07
1.64693e-05
7.96847e-07
1.63255e-05
1.10214e-06
1.61276e-05
1.40458e-06
1.58743e-05
1.70356e-06
1.55642e-05
1.99848e-06
1.51955e-05
2.28882e-06
1.47664e-05
2.57413e-06
1.42751e-05
2.8544e-06
1.372e-05
3.13059e-06
1.30998e-05
3.40569e-06
1.24141e-05
3.68764e-06
1.16657e-05
3.99992e-06
1.08721e-05
4.43167e-06
1.00951e-05
5.3369e-06
9.42288e-06
7.66699e-06
8.719e-06
1.20279e-05
7.52945e-06
1.6139e-05
5.46849e-06
1.65847e-05
2.65513e-06
1.29596e-05
2.01269e-07
8.22668e-06
-1.3895e-06
6.18961e-06
-2.81684e-06
5.84469e-06
-4.16116e-06
5.63078e-06
-5.41734e-06
5.38467e-06
-6.57814e-06
5.07026e-06
-7.63547e-06
4.67287e-06
-8.58096e-06
4.18895e-06
-9.40634e-06
3.62166e-06
-1.0104e-05
2.9785e-06
-1.06673e-05
2.26982e-06
-1.10917e-05
1.50784e-06
-1.13744e-05
7.03869e-07
-1.15148e-05
-1.27829e-07
-1.15157e-05
-9.73358e-07
-1.1377e-05
-1.82315e-06
-1.10992e-05
-2.65904e-06
-1.06827e-05
-3.46414e-06
-1.01279e-05
-4.22165e-06
-9.4346e-06
-4.91404e-06
-8.60254e-06
-5.52268e-06
-7.63302e-06
-6.02805e-06
-6.5308e-06
-6.41008e-06
-5.30694e-06
-6.64838e-06
-3.9828e-06
-6.72154e-06
-2.59576e-06
-6.60381e-06
-1.20642e-06
-6.25481e-06
1.19199e-07
-5.58444e-06
1.10881e-06
-3.95547e-06
1.05707e-06
1.13816e-06
1.3087e-05
-4.29363e-07
8.73782e-06
-6.02533e-07
-4.03716e-06
-1.1322e-06
-4.33484e-06
-1.69361e-06
-3.32001e-06
-2.23247e-06
-2.88628e-06
-2.79883e-06
-2.84488e-06
-3.36531e-06
-2.56233e-06
-3.75515e-06
-1.21108e-06
-3.6674e-06
1.84833e-06
-3.21247e-06
6.48024e-06
-2.68554e-06
1.10474e-05
8.64393e-07
4.17406e-06
1.67135e-06
-2.074e-06
1.81032e-06
-3.6173e-06
1.71666e-06
-4.17481e-06
1.69207e-06
-4.44508e-06
1.81153e-06
-4.59501e-06
2.0622e-06
-4.6889e-06
2.41589e-06
-4.75622e-06
2.84805e-06
-4.80978e-06
3.33903e-06
-4.85258e-06
3.87382e-06
-4.88481e-06
4.44066e-06
-4.90481e-06
5.03021e-06
-4.91078e-06
5.63496e-06
-4.90138e-06
6.24884e-06
-4.87594e-06
6.867e-06
-4.83432e-06
7.48556e-06
-4.7768e-06
8.10139e-06
-4.70377e-06
8.71192e-06
-4.61553e-06
9.31491e-06
-4.51217e-06
9.90828e-06
-4.39347e-06
1.049e-05
-4.25894e-06
1.10577e-05
-4.10788e-06
1.16092e-05
-3.9395e-06
1.21418e-05
-3.75304e-06
1.26526e-05
-3.54791e-06
1.31387e-05
-3.32376e-06
1.35969e-05
-3.08057e-06
1.4024e-05
-2.81865e-06
1.44168e-05
-2.53871e-06
1.47722e-05
-2.24182e-06
1.50872e-05
-1.92943e-06
1.53589e-05
-1.60336e-06
1.55849e-05
-1.2657e-06
1.5763e-05
-9.18787e-07
1.58917e-05
-5.65061e-07
1.59698e-05
-2.06888e-07
1.59967e-05
1.53554e-07
1.5972e-05
5.14072e-07
1.58956e-05
8.73321e-07
1.57672e-05
1.23054e-06
1.55864e-05
1.58531e-06
1.53526e-05
1.93741e-06
1.50643e-05
2.28673e-06
1.472e-05
2.63316e-06
1.43175e-05
2.97659e-06
1.38548e-05
3.3171e-06
1.33301e-05
3.65538e-06
1.2742e-05
3.99378e-06
1.20908e-05
4.33876e-06
1.13807e-05
4.71008e-06
1.06282e-05
5.18414e-06
9.89073e-06
6.07438e-06
9.27633e-06
8.28139e-06
8.72946e-06
1.25748e-05
7.83338e-06
1.70351e-05
6.14686e-06
1.82712e-05
3.6551e-06
1.54514e-05
1.05378e-06
1.0828e-05
-7.51998e-07
7.99539e-06
-2.2322e-06
7.32489e-06
-3.62995e-06
7.02853e-06
-4.93979e-06
6.69451e-06
-6.15438e-06
6.28486e-06
-7.26577e-06
5.78426e-06
-8.26571e-06
5.18888e-06
-9.14596e-06
4.50191e-06
-9.89896e-06
3.7315e-06
-1.05184e-05
2.88922e-06
-1.09998e-05
1.98924e-06
-1.13421e-05
1.04621e-06
-1.1544e-05
7.40518e-08
-1.16106e-05
-9.06731e-07
-1.15439e-05
-1.88986e-06
-1.13439e-05
-2.85899e-06
-1.10095e-05
-3.79854e-06
-1.05379e-05
-4.69333e-06
-9.92481e-06
-5.52709e-06
-9.16602e-06
-6.28147e-06
-8.25853e-06
-6.93554e-06
-7.2032e-06
-7.46541e-06
-6.0078e-06
-7.84377e-06
-4.69104e-06
-8.0383e-06
-3.2877e-06
-8.00715e-06
-1.85866e-06
-7.68385e-06
-5.22115e-07
-6.92098e-06
6.50475e-07
-5.12806e-06
8.34697e-07
9.53936e-07
1.39217e-05
-4.17069e-07
9.15489e-06
-8.19274e-07
-3.63496e-06
-1.50486e-06
-3.64925e-06
-2.21258e-06
-2.61229e-06
-2.93809e-06
-2.16077e-06
-3.71554e-06
-2.06744e-06
-4.44224e-06
-1.83562e-06
-4.81084e-06
-8.42483e-07
-4.40644e-06
1.44393e-06
-3.12803e-06
5.20183e-06
-1.60593e-06
9.52526e-06
1.83366e-06
7.3447e-07
1.9598e-06
-2.20014e-06
1.7206e-06
-3.37809e-06
1.53604e-06
-3.99025e-06
1.48464e-06
-4.39368e-06
1.57286e-06
-4.68324e-06
1.78101e-06
-4.89705e-06
2.0863e-06
-5.0615e-06
2.46964e-06
-5.19313e-06
2.91395e-06
-5.29689e-06
3.40539e-06
-5.37625e-06
3.93231e-06
-5.43174e-06
4.48507e-06
-5.46353e-06
5.05571e-06
-5.47203e-06
5.63777e-06
-5.458e-06
6.22611e-06
-5.42266e-06
6.81671e-06
-5.36741e-06
7.4065e-06
-5.29355e-06
7.99308e-06
-5.2021e-06
8.57448e-06
-5.09357e-06
9.14894e-06
-4.96792e-06
9.71466e-06
-4.82466e-06
1.02697e-05
-4.66293e-06
1.08119e-05
-4.48166e-06
1.13387e-05
-4.27982e-06
1.18473e-05
-4.05654e-06
1.23347e-05
-3.8112e-06
1.27977e-05
-3.54356e-06
1.32329e-05
-3.25381e-06
1.36367e-05
-2.94253e-06
1.40056e-05
-2.61076e-06
1.43362e-05
-2.26002e-06
1.46251e-05
-1.89226e-06
1.48693e-05
-1.50985e-06
1.5066e-05
-1.11553e-06
1.52132e-05
-7.12239e-07
1.53093e-05
-3.02971e-07
1.53534e-05
1.09425e-07
1.53455e-05
5.2198e-07
1.52858e-05
9.33043e-07
1.51747e-05
1.34157e-06
1.50127e-05
1.74732e-06
1.47997e-05
2.15044e-06
1.45351e-05
2.55133e-06
1.42178e-05
2.95048e-06
1.38461e-05
3.34827e-06
1.34182e-05
3.74502e-06
1.29322e-05
4.14131e-06
1.23873e-05
4.53876e-06
1.17838e-05
4.94226e-06
1.11259e-05
5.36799e-06
1.04285e-05
5.88153e-06
9.74256e-06
6.7603e-06
9.18198e-06
8.84197e-06
8.75447e-06
1.30023e-05
8.09779e-06
1.76918e-05
6.74049e-06
1.96285e-05
4.5545e-06
1.76374e-05
1.99426e-06
1.33882e-05
-2.3173e-08
1.00128e-05
-1.54313e-06
8.84484e-06
-2.94714e-06
8.43254e-06
-4.27053e-06
8.0179e-06
-5.50454e-06
7.51888e-06
-6.64049e-06
6.92021e-06
-7.66938e-06
6.21777e-06
-8.58238e-06
5.41491e-06
-9.3715e-06
4.52062e-06
-1.00305e-05
3.54824e-06
-1.05558e-05
2.5145e-06
-1.09468e-05
1.43721e-06
-1.12029e-05
3.30165e-07
-1.13302e-05
-7.79456e-07
-1.1335e-05
-1.88501e-06
-1.12178e-05
-2.97621e-06
-1.09762e-05
-4.04012e-06
-1.06051e-05
-5.06445e-06
-1.0097e-05
-6.03517e-06
-9.44356e-06
-6.93492e-06
-8.63735e-06
-7.74176e-06
-7.67474e-06
-8.42802e-06
-6.55935e-06
-8.95916e-06
-5.30649e-06
-9.29116e-06
-3.94889e-06
-9.36475e-06
-2.54974e-06
-9.083e-06
-1.23059e-06
-8.24013e-06
-7.75747e-08
-6.28107e-06
6.81028e-07
1.95333e-07
1.46027e-05
-4.26105e-07
9.581e-06
-9.77475e-07
-3.08359e-06
-1.73235e-06
-2.89437e-06
-2.47849e-06
-1.86615e-06
-3.22931e-06
-1.40995e-06
-4.01818e-06
-1.27858e-06
-4.75332e-06
-1.10047e-06
-5.12354e-06
-4.72268e-07
-4.65581e-06
9.762e-07
-2.98316e-06
3.52918e-06
-2.31379e-07
6.77347e-06
1.45042e-06
-9.47331e-07
1.45362e-06
-2.20334e-06
1.23714e-06
-3.16162e-06
1.10868e-06
-3.86179e-06
1.09084e-06
-4.37583e-06
1.18202e-06
-4.77443e-06
1.37197e-06
-5.087e-06
1.6469e-06
-5.33643e-06
1.99466e-06
-5.54089e-06
2.40145e-06
-5.70369e-06
2.85545e-06
-5.83025e-06
3.34592e-06
-5.92221e-06
3.86349e-06
-5.98111e-06
4.40026e-06
-6.0088e-06
4.9497e-06
-6.00744e-06
5.5066e-06
-5.97956e-06
6.06706e-06
-5.92786e-06
6.62816e-06
-5.85466e-06
7.18783e-06
-5.76177e-06
7.74451e-06
-5.65025e-06
8.29686e-06
-5.52027e-06
8.84352e-06
-5.37133e-06
9.38294e-06
-5.20234e-06
9.91322e-06
-5.01195e-06
1.04321e-05
-4.79874e-06
1.09371e-05
-4.56147e-06
1.14251e-05
-4.29923e-06
1.1893e-05
-4.01146e-06
1.23373e-05
-3.69809e-06
1.27543e-05
-3.3595e-06
1.314e-05
-2.99655e-06
1.34907e-05
-2.61065e-06
1.38022e-05
-2.20379e-06
1.40709e-05
-1.77852e-06
1.42932e-05
-1.3379e-06
1.44664e-05
-8.85417e-07
1.45881e-05
-4.24633e-07
1.46567e-05
4.07996e-08
1.46721e-05
5.06642e-07
1.46347e-05
9.70403e-07
1.45458e-05
1.43044e-06
1.44066e-05
1.88658e-06
1.42178e-05
2.33921e-06
1.39799e-05
2.78921e-06
1.36927e-05
3.23767e-06
1.33554e-05
3.68559e-06
1.29667e-05
4.13373e-06
1.25253e-05
4.58269e-06
1.20305e-05
5.03356e-06
1.1483e-05
5.48982e-06
1.08865e-05
5.96443e-06
1.02544e-05
6.51369e-06
9.63137e-06
7.38329e-06
9.13031e-06
9.34303e-06
8.80565e-06
1.3327e-05
8.35531e-06
1.81421e-05
7.29753e-06
2.06863e-05
5.41752e-06
1.95174e-05
3.00486e-06
1.58009e-05
8.39517e-07
1.21782e-05
-7.53022e-07
1.04374e-05
-2.12979e-06
9.80931e-06
-3.43125e-06
9.31936e-06
-4.65195e-06
8.73958e-06
-5.78297e-06
8.05122e-06
-6.81432e-06
7.24912e-06
-7.73613e-06
6.33672e-06
-8.53978e-06
5.32427e-06
-9.21911e-06
4.22757e-06
-9.77084e-06
3.06623e-06
-1.01951e-05
1.86148e-06
-1.04949e-05
6.3e-07
-1.06763e-05
-5.98094e-07
-1.07489e-05
-1.81242e-06
-1.07148e-05
-3.01033e-06
-1.05716e-05
-4.18334e-06
-1.03126e-05
-5.3234e-06
-9.92789e-06
-6.41988e-06
-9.40529e-06
-7.45752e-06
-8.73265e-06
-8.4144e-06
-7.90075e-06
-9.25992e-06
-6.90732e-06
-9.95259e-06
-5.76227e-06
-1.04362e-05
-4.49375e-06
-1.06333e-05
-3.15625e-06
-1.04205e-05
-1.83791e-06
-9.55847e-06
-6.97733e-07
-7.42125e-06
5.93231e-07
-1.09563e-06
1.5196e-05
-4.41265e-07
1.00223e-05
-1.07535e-06
-2.44951e-06
-1.84261e-06
-2.12711e-06
-2.56061e-06
-1.14815e-06
-3.23788e-06
-7.32681e-07
-3.89938e-06
-6.17077e-07
-4.4944e-06
-5.05455e-07
-4.80599e-06
-1.60673e-07
-4.43624e-06
6.06447e-07
-2.8539e-06
1.94684e-06
3.17971e-07
3.6016e-06
6.72553e-07
-1.30191e-06
6.50401e-07
-2.18119e-06
5.79699e-07
-3.09092e-06
5.38555e-07
-3.82064e-06
5.64219e-07
-4.4015e-06
6.68092e-07
-4.8783e-06
8.50377e-07
-5.26928e-06
1.10448e-06
-5.59053e-06
1.42401e-06
-5.86043e-06
1.7988e-06
-6.07847e-06
2.21899e-06
-6.25044e-06
2.67536e-06
-6.37858e-06
3.15897e-06
-6.46472e-06
3.66223e-06
-6.51205e-06
4.17866e-06
-6.52387e-06
4.70313e-06
-6.50402e-06
5.23184e-06
-6.45657e-06
5.76217e-06
-6.38498e-06
6.29239e-06
-6.29199e-06
6.82143e-06
-6.17929e-06
7.34847e-06
-6.04731e-06
7.87267e-06
-5.89553e-06
8.39299e-06
-5.72265e-06
8.90798e-06
-5.52694e-06
9.4158e-06
-5.30656e-06
9.91419e-06
-5.05987e-06
1.04005e-05
-4.78554e-06
1.08717e-05
-4.48267e-06
1.13244e-05
-4.15083e-06
1.1755e-05
-3.79004e-06
1.21593e-05
-3.40082e-06
1.25329e-05
-2.9843e-06
1.28714e-05
-2.54228e-06
1.31702e-05
-2.0773e-06
1.3425e-05
-1.59269e-06
1.36319e-05
-1.09239e-06
1.37879e-05
-5.8062e-07
1.389e-05
-6.1295e-08
1.39369e-05
4.59748e-07
1.39297e-05
9.7761e-07
1.38701e-05
1.49001e-06
1.376e-05
1.99671e-06
1.36011e-05
2.49809e-06
1.33949e-05
2.9954e-06
1.31423e-05
3.49028e-06
1.28435e-05
3.98439e-06
1.24982e-05
4.47903e-06
1.21059e-05
4.97501e-06
1.16663e-05
5.47311e-06
1.11805e-05
5.97568e-06
1.06519e-05
6.49298e-06
1.00922e-05
7.07338e-06
9.54129e-06
7.93424e-06
9.10785e-06
9.77648e-06
8.87995e-06
1.35548e-05
8.61593e-06
1.84061e-05
7.83867e-06
2.14636e-05
6.26766e-06
2.10884e-05
4.06069e-06
1.80079e-05
1.8587e-06
1.43802e-05
1.58909e-07
1.21372e-05
-1.20789e-06
1.11761e-05
-2.45413e-06
1.05656e-05
-3.632e-06
9.91745e-06
-4.73133e-06
9.15054e-06
-5.74068e-06
8.25847e-06
-6.64885e-06
7.24489e-06
-7.44626e-06
6.12168e-06
-8.12634e-06
4.90766e-06
-8.68651e-06
3.62639e-06
-9.12855e-06
2.30352e-06
-9.45985e-06
9.61303e-07
-9.68537e-06
-3.72574e-07
-9.81741e-06
-1.68038e-06
-9.8605e-06
-2.96724e-06
-9.81298e-06
-4.23087e-06
-9.668e-06
-5.46838e-06
-9.41425e-06
-6.67363e-06
-9.03674e-06
-7.83503e-06
-8.51849e-06
-8.93265e-06
-7.84339e-06
-9.93502e-06
-7.00045e-06
-1.07955e-05
-5.98984e-06
-1.14468e-05
-4.82752e-06
-1.17956e-05
-3.5499e-06
-1.16981e-05
-2.22068e-06
-1.08877e-05
-9.20552e-07
-8.72137e-06
5.42008e-07
-2.55819e-06
1.5738e-05
-4.54678e-07
1.04769e-05
-1.1281e-06
-1.77608e-06
-1.88016e-06
-1.37505e-06
-2.55031e-06
-4.78004e-07
-3.13631e-06
-1.46682e-07
-3.64311e-06
-1.10276e-07
-4.04214e-06
-1.06426e-07
-4.21293e-06
1.0116e-08
-3.92414e-06
3.17657e-07
-2.76958e-06
7.92286e-07
-2.48726e-07
1.08075e-06
-2.50904e-07
-1.29973e-06
-1.76921e-07
-2.25517e-06
-1.53103e-07
-3.11474e-06
-1.27829e-07
-3.84592e-06
-6.46503e-08
-4.46468e-06
5.16413e-08
-4.99459e-06
2.28204e-07
-5.44584e-06
4.65744e-07
-5.82807e-06
7.606e-07
-6.15528e-06
1.10665e-06
-6.42453e-06
1.49544e-06
-6.63922e-06
1.91985e-06
-6.80299e-06
2.37115e-06
-6.91601e-06
2.84221e-06
-6.98311e-06
3.32649e-06
-7.00816e-06
3.81888e-06
-6.99641e-06
4.31563e-06
-6.95332e-06
4.81435e-06
-6.8837e-06
5.31363e-06
-6.79128e-06
5.81292e-06
-6.67859e-06
6.31196e-06
-6.54635e-06
6.81051e-06
-6.39408e-06
7.30813e-06
-6.22027e-06
7.80395e-06
-6.02276e-06
8.29667e-06
-5.79928e-06
8.78453e-06
-5.54773e-06
9.26536e-06
-5.26636e-06
9.73654e-06
-4.95386e-06
1.01951e-05
-4.60935e-06
1.06374e-05
-4.23238e-06
1.10595e-05
-3.82295e-06
1.14568e-05
-3.38162e-06
1.18243e-05
-2.90976e-06
1.21567e-05
-2.40968e-06
1.24488e-05
-1.88477e-06
1.26957e-05
-1.33933e-06
1.28934e-05
-7.78249e-07
1.30376e-05
-2.05518e-07
1.31253e-05
3.72007e-07
1.31573e-05
9.45671e-07
1.31353e-05
1.51192e-06
1.30622e-05
2.0699e-06
1.29403e-05
2.61993e-06
1.27723e-05
3.16344e-06
1.256e-05
3.70255e-06
1.23049e-05
4.23952e-06
1.20077e-05
4.77625e-06
1.16688e-05
5.31391e-06
1.12887e-05
5.85315e-06
1.08689e-05
6.39552e-06
1.04128e-05
6.94907e-06
9.93084e-06
7.55534e-06
9.45887e-06
8.40621e-06
9.10057e-06
1.01348e-05
8.96754e-06
1.36879e-05
8.87604e-06
1.84976e-05
8.36595e-06
2.19737e-05
7.10755e-06
2.23468e-05
5.15212e-06
1.99633e-05
2.99504e-06
1.65372e-05
1.22041e-06
1.39118e-05
-1.6706e-07
1.25636e-05
-1.37524e-06
1.17738e-05
-2.48828e-06
1.10305e-05
-3.53491e-06
1.01972e-05
-4.5034e-06
9.22696e-06
-5.38109e-06
8.12258e-06
-6.15724e-06
6.89783e-06
-6.82394e-06
5.57436e-06
-7.37893e-06
4.18138e-06
-7.82647e-06
2.75105e-06
-8.17604e-06
1.31088e-06
-8.43481e-06
-1.1381e-07
-8.61409e-06
-1.5011e-06
-8.7214e-06
-2.85992e-06
-8.75651e-06
-4.19577e-06
-8.71422e-06
-5.51066e-06
-8.58438e-06
-6.80348e-06
-8.35123e-06
-8.06819e-06
-7.99396e-06
-9.28992e-06
-7.4889e-06
-1.04401e-05
-6.8137e-06
-1.14707e-05
-5.95448e-06
-1.2306e-05
-4.91012e-06
-1.284e-05
-3.69572e-06
-1.29125e-05
-2.34232e-06
-1.22411e-05
-8.68601e-07
-1.01951e-05
5.08224e-07
-3.93502e-06
1.62462e-05
-4.63001e-07
1.09399e-05
-1.15407e-06
-1.08501e-06
-1.8839e-06
-6.45216e-07
-2.51336e-06
1.51455e-07
-3.01681e-06
3.56767e-07
-3.41032e-06
2.83234e-07
-3.67124e-06
1.54489e-07
-3.72926e-06
6.81394e-08
-3.47197e-06
6.037e-08
-2.70799e-06
2.83031e-08
-1.29622e-06
-3.31019e-07
-1.12334e-06
-1.47262e-06
-9.9883e-07
-2.37968e-06
-9.24001e-07
-3.18957e-06
-8.59405e-07
-3.91051e-06
-7.74305e-07
-4.54978e-06
-6.52878e-07
-5.11602e-06
-4.84205e-07
-5.61452e-06
-2.62078e-07
-6.0502e-06
1.09013e-08
-6.42826e-06
3.30605e-07
-6.74423e-06
6.90596e-07
-6.99921e-06
1.08566e-06
-7.19806e-06
1.50719e-06
-7.33754e-06
1.94847e-06
-7.42439e-06
2.4028e-06
-7.46249e-06
2.86498e-06
-7.45858e-06
3.33106e-06
-7.41941e-06
3.79882e-06
-7.35146e-06
4.267e-06
-7.25946e-06
4.73555e-06
-7.14713e-06
5.20478e-06
-7.01558e-06
5.67507e-06
-6.86437e-06
6.14669e-06
-6.69189e-06
6.61946e-06
-6.49554e-06
7.09275e-06
-6.27256e-06
7.56546e-06
-6.02044e-06
8.03607e-06
-5.73697e-06
8.50262e-06
-5.4204e-06
8.96264e-06
-5.06937e-06
9.41312e-06
-4.68286e-06
9.85029e-06
-4.26012e-06
1.02696e-05
-3.8009e-06
1.06656e-05
-3.30577e-06
1.10324e-05
-2.77652e-06
1.1364e-05
-2.21634e-06
1.16544e-05
-1.62979e-06
1.18985e-05
-1.02228e-06
1.20915e-05
-3.98495e-07
1.22282e-05
2.35256e-07
1.23078e-05
8.66042e-07
1.23319e-05
1.48788e-06
1.23036e-05
2.09815e-06
1.22265e-05
2.69709e-06
1.21037e-05
3.2862e-06
1.19383e-05
3.86797e-06
1.17326e-05
4.44518e-06
1.14886e-05
5.0203e-06
1.12076e-05
5.5949e-06
1.0891e-05
6.16971e-06
1.05408e-05
6.74573e-06
1.01607e-05
7.32918e-06
9.76027e-06
7.95575e-06
9.37221e-06
8.79428e-06
9.09477e-06
1.04122e-05
9.05557e-06
1.37271e-05
9.12504e-06
1.84282e-05
8.87024e-06
2.22285e-05
7.92703e-06
2.329e-05
6.25868e-06
2.16316e-05
4.22544e-06
1.85705e-05
2.39619e-06
1.5741e-05
9.81283e-07
1.39785e-05
-2.00066e-07
1.29551e-05
-1.26715e-06
1.20976e-05
-2.24799e-06
1.1178e-05
-3.16465e-06
1.01436e-05
-4.00324e-06
8.96118e-06
-4.75301e-06
7.64759e-06
-5.40271e-06
6.22406e-06
-5.94897e-06
4.72764e-06
-6.39703e-06
3.19911e-06
-6.76e-06
1.67385e-06
-7.04249e-06
1.68686e-07
-7.25417e-06