/*--------------------------------*- C++ -*----------------------------------*\
| =========                 |                                                 |
| \\      /  F ield         | OpenFOAM: The Open Source CFD Toolbox           |
|  \\    /   O peration     | Version:  4.1                                   |
|   \\  /    A nd           | Web:      www.OpenFOAM.org                      |
|    \\/     M anipulation  |                                                 |
\*---------------------------------------------------------------------------*/
FoamFile
{
    version     2.0;
    format      ascii;
    class       volScalarField;
    location    "1100";
    object      T;
}
// * * * * * * * * * * * * * * * * * * * * * * * * * * * * * * * * * * * * * //

dimensions      [0 0 0 1 0 0 0];

internalField   nonuniform List<scalar> 
1600
(
286.506
285.964
286.645
286.846
286.511
286.103
285.747
286.219
286.664
286.256
285.923
285.798
285.806
285.906
286.066
286.272
286.514
286.785
287.073
287.331
287.559
287.761
287.932
288.03
287.859
287.5
287.521
287.897
288.395
288.53
288.068
288.163
287.896
287.461
286.739
285.846
285.693
285.562
284.97
285.741
285.188
283.589
283.602
283.641
283.596
283.592
283.592
283.599
283.606
283.615
283.625
283.623
283.613
283.6
283.586
283.575
283.567
283.562
283.562
283.598
283.647
283.689
283.703
283.657
283.611
283.59
283.708
284.882
286.836
284.978
284.01
284.268
284.316
284.114
283.791
283.753
283.746
283.735
283.725
284.912
284.787
283.562
283.56
283.561
283.567
283.577
283.592
283.61
283.634
283.663
283.686
283.686
283.669
283.645
283.617
283.588
283.561
283.537
283.518
283.503
283.493
283.486
283.479
283.472
283.466
283.467
283.551
284.312
286.138
284.651
283.779
283.818
283.816
283.773
283.75
283.751
283.746
283.734
283.723
284.647
284.586
283.57
283.571
283.577
283.589
283.607
283.634
283.666
283.702
283.735
283.758
283.759
283.74
283.713
283.681
283.646
283.61
283.575
283.543
283.517
283.495
283.478
283.465
283.454
283.446
283.445
283.515
284.107
285.711
284.65
283.763
283.768
283.768
283.766
283.768
283.766
283.757
283.742
283.726
284.515
284.464
283.579
283.585
283.597
283.616
283.645
283.681
283.722
283.759
283.788
283.805
283.806
283.788
283.765
283.736
283.7
283.661
283.62
283.58
283.543
283.512
283.486
283.465
283.448
283.435
283.431
283.496
284.006
285.414
284.646
283.792
283.771
283.776
283.781
283.783
283.777
283.765
283.747
283.728
284.434
284.381
283.587
283.6
283.62
283.648
283.685
283.728
283.769
283.802
283.823
283.832
283.832
283.816
283.798
283.774
283.743
283.706
283.663
283.619
283.575
283.535
283.501
283.472
283.448
283.429
283.422
283.483
283.946
285.192
284.615
283.829
283.782
283.791
283.797
283.797
283.788
283.771
283.749
283.728
284.381
284.321
283.598
283.619
283.645
283.68
283.724
283.768
283.806
283.831
283.844
283.848
283.844
283.83
283.817
283.799
283.774
283.741
283.7
283.655
283.608
283.562
283.521
283.484
283.453
283.428
283.416
283.475
283.907
285.017
284.566
283.856
283.795
283.807
283.813
283.811
283.798
283.776
283.751
283.729
284.343
284.275
283.609
283.637
283.67
283.712
283.759
283.801
283.832
283.85
283.858
283.857
283.851
283.837
283.827
283.814
283.793
283.765
283.729
283.686
283.639
283.589
283.542
283.499
283.461
283.43
283.413
283.469
283.88
284.875
284.51
283.874
283.808
283.823
283.83
283.827
283.809
283.781
283.752
283.729
284.315
284.238
283.62
283.654
283.695
283.742
283.788
283.827
283.852
283.864
283.867
283.863
283.854
283.841
283.831
283.821
283.805
283.781
283.75
283.711
283.664
283.614
283.563
283.514
283.47
283.433
283.412
283.466
283.859
284.757
284.453
283.886
283.822
283.839
283.848
283.843
283.821
283.787
283.753
283.729
284.294
284.208
283.63
283.672
283.719
283.768
283.813
283.846
283.866
283.873
283.873
283.867
283.856
283.842
283.833
283.824
283.809
283.789
283.763
283.727
283.684
283.634
283.581
283.529
283.48
283.438
283.412
283.463
283.842
284.657
284.397
283.893
283.835
283.857
283.867
283.861
283.832
283.793
283.755
283.728
284.278
284.181
283.64
283.689
283.74
283.791
283.833
283.861
283.876
283.881
283.878
283.871
283.858
283.843
283.832
283.824
283.809
283.791
283.768
283.737
283.697
283.649
283.596
283.541
283.488
283.441
283.412
283.461
283.828
284.572
284.345
283.897
283.848
283.875
283.888
283.878
283.844
283.799
283.756
283.728
284.265
284.158
283.65
283.705
283.759
283.81
283.849
283.873
283.884
283.886
283.882
283.874
283.86
283.843
283.832
283.823
283.806
283.787
283.766
283.739
283.704
283.659
283.606
283.55
283.494
283.444
283.412
283.46
283.816
284.499
284.298
283.9
283.862
283.893
283.908
283.893
283.854
283.805
283.758
283.728
284.256
284.138
283.659
283.719
283.777
283.826
283.862
283.883
283.891
283.891
283.886
283.877
283.862
283.844
283.831
283.821
283.801
283.779
283.758
283.734
283.703
283.662
283.611
283.555
283.498
283.445
283.411
283.458
283.806
284.437
284.256
283.903
283.875
283.911
283.928
283.906
283.863
283.81
283.76
283.728
284.249
284.12
283.668
283.732
283.791
283.84
283.873
283.891
283.896
283.894
283.888
283.879
283.864
283.845
283.83
283.819
283.795
283.768
283.745
283.722
283.695
283.658
283.611
283.556
283.498
283.444
283.409
283.457
283.798
284.385
284.22
283.905
283.888
283.929
283.944
283.915
283.869
283.815
283.762
283.727
284.244
284.104
283.676
283.744
283.805
283.851
283.882
283.896
283.899
283.896
283.89
283.882
283.867
283.846
283.83
283.818
283.79
283.757
283.729
283.705
283.68
283.647
283.604
283.551
283.494
283.44
283.405
283.456
283.792
284.341
284.187
283.908
283.9
283.944
283.951
283.919
283.874
283.819
283.764
283.727
284.24
284.09
283.683
283.755
283.816
283.861
283.889
283.901
283.901
283.895
283.89
283.884
283.869
283.847
283.83
283.818
283.786
283.747
283.712
283.683
283.658
283.629
283.59
283.54
283.485
283.433
283.401
283.455
283.788
284.305
284.159
283.911
283.912
283.954
283.952
283.921
283.877
283.822
283.766
283.726
284.237
284.077
283.69
283.764
283.825
283.869
283.894
283.903
283.9
283.893
283.889
283.885
283.872
283.849
283.83
283.818
283.785
283.74
283.696
283.661
283.632
283.604
283.57
283.524
283.473
283.423
283.395
283.454
283.787
284.276
284.135
283.915
283.922
283.959
283.951
283.92
283.877
283.823
283.767
283.726
284.235
284.066
283.696
283.771
283.833
283.876
283.898
283.903
283.896
283.888
283.887
283.886
283.875
283.851
283.831
283.819
283.786
283.736
283.685
283.639
283.604
283.574
283.543
283.502
283.455
283.411
283.387
283.454
283.789
284.255
284.113
283.919
283.931
283.959
283.946
283.918
283.876
283.823
283.767
283.725
284.234
284.056
283.7
283.778
283.84
283.881
283.9
283.901
283.89
283.881
283.882
283.885
283.877
283.853
283.832
283.82
283.789
283.737
283.678
283.622
283.575
283.54
283.51
283.474
283.434
283.395
283.38
283.455
283.795
284.24
284.094
283.923
283.938
283.955
283.941
283.914
283.874
283.822
283.766
283.724
284.232
284.047
283.704
283.783
283.845
283.884
283.901
283.897
283.88
283.871
283.875
283.884
283.88
283.856
283.834
283.823
283.793
283.741
283.678
283.612
283.551
283.505
283.473
283.442
283.409
283.378
283.372
283.459
283.806
284.232
284.077
283.928
283.943
283.951
283.935
283.909
283.871
283.82
283.765
283.722
284.229
284.039
283.707
283.787
283.848
283.887
283.9
283.891
283.869
283.858
283.866
283.881
283.882
283.859
283.836
283.827
283.798
283.749
283.684
283.61
283.536
283.474
283.435
283.408
283.382
283.361
283.365
283.465
283.826
284.227
284.063
283.934
283.945
283.945
283.929
283.904
283.867
283.817
283.763
283.721
284.226
284.032
283.709
283.789
283.851
283.888
283.898
283.883
283.855
283.845
283.855
283.876
283.884
283.862
283.837
283.831
283.805
283.759
283.696
283.618
283.532
283.452
283.401
283.375
283.356
283.345
283.36
283.476
283.862
284.22
284.051
283.94
283.947
283.941
283.924
283.899
283.862
283.813
283.76
283.719
284.221
284.026
283.709
283.79
283.852
283.888
283.896
283.875
283.842
283.831
283.843
283.87
283.885
283.865
283.839
283.836
283.813
283.77
283.711
283.635
283.542
283.446
283.375
283.346
283.334
283.333
283.36
283.512
283.903
284.212
284.041
283.946
283.947
283.936
283.919
283.894
283.856
283.808
283.756
283.717
284.215
284.02
283.709
283.79
283.852
283.888
283.894
283.868
283.832
283.819
283.83
283.862
283.885
283.868
283.841
283.841
283.823
283.784
283.728
283.657
283.566
283.461
283.364
283.327
283.32
283.327
283.375
283.573
283.942
284.202
284.034
283.952
283.946
283.932
283.914
283.887
283.849
283.801
283.751
283.714
284.207
284.016
283.708
283.788
283.851
283.887
283.893
283.862
283.827
283.811
283.818
283.852
283.884
283.871
283.843
283.846
283.833
283.8
283.75
283.682
283.597
283.497
283.377
283.322
283.319
283.339
283.429
283.644
283.979
284.192
284.028
283.957
283.945
283.928
283.908
283.88
283.84
283.793
283.746
283.71
284.197
284.012
283.706
283.785
283.848
283.886
283.893
283.859
283.828
283.806
283.807
283.842
283.882
283.874
283.844
283.85
283.844
283.818
283.774
283.714
283.634
283.538
283.435
283.353
283.351
283.392
283.504
283.719
284.013
284.181
284.022
283.96
283.942
283.924
283.9
283.87
283.83
283.783
283.739
283.707
284.185
284.009
283.703
283.782
283.845
283.882
283.89
283.862
283.83
283.804
283.8
283.831
283.878
283.878
283.845
283.854
283.855
283.836
283.802
283.75
283.68
283.594
283.502
283.429
283.422
283.473
283.591
283.792
284.043
284.169
284.017
283.959
283.937
283.916
283.89
283.856
283.816
283.772
283.73
283.702
284.171
284.007
283.7
283.778
283.839
283.877
283.886
283.863
283.832
283.804
283.795
283.821
283.873
283.881
283.845
283.857
283.865
283.855
283.83
283.79
283.732
283.66
283.585
283.526
283.518
283.568
283.682
283.86
284.067
284.156
284.01
283.954
283.931
283.905
283.875
283.84
283.8
283.758
283.721
283.696
284.156
284.006
283.697
283.773
283.832
283.869
283.879
283.861
283.831
283.802
283.792
283.815
283.866
283.884
283.845
283.858
283.874
283.872
283.858
283.83
283.787
283.732
283.674
283.63
283.622
283.669
283.77
283.922
284.087
284.143
283.999
283.945
283.918
283.888
283.856
283.821
283.783
283.744
283.711
283.69
284.14
284.006
283.698
283.767
283.823
283.859
283.869
283.854
283.827
283.799
283.789
283.81
283.86
283.887
283.845
283.858
283.881
283.888
283.884
283.869
283.841
283.803
283.762
283.731
283.726
283.765
283.851
283.975
284.101
284.13
283.98
283.933
283.898
283.865
283.834
283.801
283.766
283.73
283.7
283.686
284.126
284.005
283.704
283.761
283.812
283.846
283.856
283.844
283.82
283.794
283.785
283.807
283.854
283.889
283.844
283.856
283.886
283.9
283.907
283.904
283.891
283.869
283.843
283.823
283.821
283.853
283.922
284.019
284.111
284.119
283.952
283.907
283.871
283.842
283.815
283.786
283.752
283.717
283.69
283.682
284.116
284.005
283.718
283.754
283.8
283.83
283.839
283.83
283.808
283.787
283.782
283.806
283.851
283.89
283.844
283.852
283.888
283.909
283.924
283.932
283.932
283.924
283.912
283.902
283.903
283.929
283.982
284.053
284.116
284.11
283.926
283.877
283.847
283.827
283.807
283.781
283.744
283.708
283.685
283.679
284.11
284.004
283.739
283.748
283.785
283.812
283.82
283.812
283.794
283.778
283.78
283.807
283.851
283.891
283.845
283.846
283.887
283.913
283.934
283.952
283.963
283.967
283.966
283.964
283.968
283.988
284.027
284.076
284.113
284.094
283.878
283.849
283.838
283.833
283.819
283.789
283.743
283.7
283.68
283.68
284.111
284.004
283.768
283.749
283.771
283.791
283.797
283.791
283.778
283.77
283.78
283.811
283.853
283.891
283.847
283.837
283.883
283.912
283.938
283.961
283.981
283.995
284.004
284.008
284.014
284.03
284.056
284.085
284.097
284.048
283.875
283.861
283.866
283.867
283.848
283.807
283.745
283.685
283.68
283.726
284.113
284.003
283.804
283.761
283.764
283.774
283.777
283.771
283.765
283.768
283.787
283.82
283.858
283.89
283.85
283.826
283.875
283.907
283.934
283.96
283.985
284.006
284.021
284.032
284.04
284.051
284.066
284.076
284.061
283.931
283.885
283.904
283.918
283.912
283.881
283.83
283.767
283.724
283.727
283.797
284.115
284.003
283.845
283.792
283.775
283.771
283.769
283.764
283.766
283.779
283.804
283.836
283.867
283.891
283.855
283.811
283.862
283.897
283.924
283.949
283.974
283.998
284.018
284.033
284.043
284.051
284.056
284.052
284.02
283.909
283.952
283.969
283.969
283.954
283.925
283.884
283.841
283.811
283.813
283.877
284.117
284.003
283.889
283.839
283.813
283.798
283.79
283.787
283.794
283.811
283.834
283.859
283.879
283.891
283.859
283.792
283.845
283.883
283.91
283.932
283.953
283.973
283.993
284.009
284.021
284.027
284.027
284.016
283.99
283.986
284.009
284.019
284.019
284.008
283.988
283.961
283.934
283.914
283.915
283.958
284.12
284.002
283.931
283.896
283.873
283.857
283.848
283.846
283.853
283.864
283.876
283.886
283.89
283.889
283.861
283.768
283.818
283.861
283.891
283.913
283.93
283.946
283.96
283.974
283.986
283.993
283.996
283.994
283.998
284.033
284.049
284.06
284.065
284.063
284.055
284.042
284.027
284.014
284.012
284.034
284.124
284.002
283.968
283.951
283.937
283.927
283.922
283.921
283.919
283.915
283.909
283.9
283.887
283.873
283.848
283.737
283.772
283.819
283.856
283.886
283.911
283.931
283.949
283.962
283.972
283.981
283.99
284.001
284.018
284.039
284.053
284.071
284.086
284.096
284.102
284.103
284.101
284.095
284.09
284.095
284.129
283.979
283.96
283.944
283.93
283.917
283.904
283.893
283.881
283.869
283.857
283.844
283.828
283.808
283.773
283.672
283.673
283.706
283.731
283.752
283.772
283.791
283.809
283.827
283.845
283.86
283.871
283.878
283.886
283.904
283.943
283.977
284.005
284.027
284.045
284.06
284.072
284.082
284.092
284.102
284.116
)
;

boundaryField
{
    floor
    {
        type            fixedValue;
        value           uniform 340;
    }
    ceiling
    {
        type            fixedValue;
        value           uniform 280;
    }
    fixedWalls
    {
        type            zeroGradient;
    }
    frontAndBack
    {
        type            empty;
    }
}


// ************************************************************************* //
