/*--------------------------------*- C++ -*----------------------------------*\
| =========                 |                                                 |
| \\      /  F ield         | OpenFOAM: The Open Source CFD Toolbox           |
|  \\    /   O peration     | Version:  4.1                                   |
|   \\  /    A nd           | Web:      www.OpenFOAM.org                      |
|    \\/     M anipulation  |                                                 |
\*---------------------------------------------------------------------------*/
FoamFile
{
    version     2.0;
    format      ascii;
    class       volVectorField;
    location    "1100";
    object      U;
}
// * * * * * * * * * * * * * * * * * * * * * * * * * * * * * * * * * * * * * //

dimensions      [0 1 -1 0 0 0 0];

internalField   nonuniform List<vector> 
5000
(
(-0.00319432 0.00159601 0)
(-0.00265445 -0.00101256 0)
(-0.000995783 -0.00189987 0)
(0.00148059 -0.00133319 0)
(0.00273752 -0.000933104 0)
(0.00384558 -0.000693771 0)
(0.00473065 -0.000537646 0)
(0.00538226 -0.00038783 0)
(0.0057008 -0.000156951 0)
(0.00530059 0.000462596 0)
(0.00437536 0.0022425 0)
(-0.00347175 0.00242541 0)
(-0.00470273 0.00025888 0)
(-0.00442573 -0.000589625 0)
(-0.00337077 -0.000977308 0)
(-0.00200934 -0.000967074 0)
(-0.000611432 -0.000777648 0)
(0.000554757 -0.000625011 0)
(0.00151645 -0.000526642 0)
(0.00242203 -0.000464645 0)
(0.0032599 -0.000426637 0)
(0.00405209 -0.000402975 0)
(0.00481705 -0.000388086 0)
(0.00556407 -0.000378181 0)
(0.00629742 -0.000370522 0)
(0.00701892 -0.000363406 0)
(0.00772857 -0.000355883 0)
(0.00842509 -0.000347403 0)
(0.00910657 -0.00033763 0)
(0.00977083 -0.000326388 0)
(0.0104154 -0.000313614 0)
(0.0110379 -0.000299307 0)
(0.0116355 -0.000283481 0)
(0.0122055 -0.000266145 0)
(0.0127452 -0.000247308 0)
(0.013252 -0.000226984 0)
(0.0137228 -0.000205202 0)
(0.0141551 -0.000182014 0)
(0.014546 -0.000157494 0)
(0.014893 -0.000131744 0)
(0.0151935 -0.000104907 0)
(0.0154453 -7.71732e-05 0)
(0.0156467 -4.88167e-05 0)
(0.015796 -2.0253e-05 0)
(0.0158929 7.7956e-06 0)
(0.0159373 3.39798e-05 0)
(0.0159344 5.72449e-05 0)
(0.0158857 7.81027e-05 0)
(0.0157927 9.72441e-05 0)
(0.0156573 0.000115024 0)
(0.0154813 0.000131479 0)
(0.0152667 0.000146533 0)
(0.015016 0.000160068 0)
(0.0147317 0.000171943 0)
(0.0144169 0.00018205 0)
(0.0140748 0.000190364 0)
(0.0137084 0.000196997 0)
(0.0133208 0.000202155 0)
(0.0129145 0.000205748 0)
(0.0124932 0.000206122 0)
(0.0120648 0.000198211 0)
(0.0116452 0.000179187 0)
(0.0112312 0.00019438 0)
(0.0106759 0.000461984 0)
(0.0095142 0.00146073 0)
(0.00642917 0.00311913 0)
(-7.1162e-05 0.00204688 0)
(-0.0019807 0.000309576 0)
(-0.00239558 8.88917e-05 0)
(-0.00271152 0.00011064 0)
(-0.00304899 0.000143341 0)
(-0.00343368 0.000175158 0)
(-0.00386446 0.000200286 0)
(-0.00432833 0.000215711 0)
(-0.00480689 0.000219911 0)
(-0.00527962 0.000212435 0)
(-0.00572566 0.000193528 0)
(-0.0061245 0.000163792 0)
(-0.00645656 0.00012388 0)
(-0.00670376 7.4343e-05 0)
(-0.00685014 1.52396e-05 0)
(-0.00688472 -5.41567e-05 0)
(-0.00678891 -0.000134347 0)
(-0.00654997 -0.000223863 0)
(-0.00616171 -0.000320996 0)
(-0.00562003 -0.000424591 0)
(-0.00492557 -0.000534064 0)
(-0.00408781 -0.00064802 0)
(-0.00312781 -0.000758646 0)
(-0.00206265 -0.00083639 0)
(-0.0008578 -0.000811395 0)
(0.000346727 -0.000696604 0)
(0.00135625 -0.000562648 0)
(0.00226584 -0.00043991 0)
(0.00299981 -0.000342209 0)
(0.00359279 -0.000263665 0)
(0.00411782 -0.000221385 0)
(0.00464591 -0.000317884 0)
(0.0048738 0.000272821 0)
(0.00434095 0.00255606 0)
(-0.00250434 0.00401041 0)
(-0.00120713 -0.00169113 0)
(-0.000338213 -0.00329399 0)
(0.00121306 -0.00255454 0)
(0.00222391 -0.00187224 0)
(0.00321954 -0.00147899 0)
(0.00409712 -0.00119832 0)
(0.00475346 -0.000763956 0)
(0.00497647 2.41774e-05 0)
(0.00428029 0.00178169 0)
(0.0035763 0.00520779 0)
(-0.00268966 0.00567232 0)
(-0.00345287 0.00135293 0)
(-0.00346728 -0.00104119 0)
(-0.00259727 -0.00206108 0)
(-0.00154328 -0.00217268 0)
(-0.00032093 -0.0019213 0)
(0.000786365 -0.00166401 0)
(0.00179558 -0.00147356 0)
(0.00274832 -0.00134642 0)
(0.00364546 -0.00126306 0)
(0.0045023 -0.00120727 0)
(0.00533122 -0.00116891 0)
(0.00613929 -0.00114101 0)
(0.00693031 -0.00111849 0)
(0.00770619 -0.00109792 0)
(0.0084676 -0.00107714 0)
(0.00921422 -0.00105481 0)
(0.00994514 -0.00103005 0)
(0.010659 -0.0010023 0)
(0.0113541 -0.000971232 0)
(0.0120285 -0.000936643 0)
(0.01268 -0.000898367 0)
(0.0133065 -0.00085627 0)
(0.0139055 -0.000810246 0)
(0.0144748 -0.000760227 0)
(0.0150116 -0.000706189 0)
(0.0155137 -0.000648159 0)
(0.0159783 -0.000586228 0)
(0.0164032 -0.000520557 0)
(0.0167859 -0.000451403 0)
(0.0171243 -0.000379136 0)
(0.0174166 -0.000304289 0)
(0.017661 -0.000227656 0)
(0.0178561 -0.000150505 0)
(0.0180011 -7.46672e-05 0)
(0.018092 -8.22009e-07 0)
(0.0181275 7.03861e-05 0)
(0.018108 0.00013913 0)
(0.0180348 0.000205505 0)
(0.0179089 0.000269282 0)
(0.0177316 0.000330015 0)
(0.0175046 0.000387209 0)
(0.0172301 0.000440382 0)
(0.0169103 0.000489155 0)
(0.0165479 0.000533349 0)
(0.0161454 0.000573073 0)
(0.0157056 0.000608674 0)
(0.0152313 0.000640133 0)
(0.0147248 0.000665312 0)
(0.0141878 0.000678259 0)
(0.0136163 0.000682562 0)
(0.0129774 0.000777154 0)
(0.0121541 0.00136356 0)
(0.0109353 0.00311779 0)
(0.00873215 0.00579222 0)
(0.0048393 0.0065361 0)
(0.000156088 0.00275325 0)
(-0.00181203 0.000806411 0)
(-0.00257278 0.000636927 0)
(-0.00326095 0.000650693 0)
(-0.00391495 0.000698568 0)
(-0.00456498 0.000743549 0)
(-0.00521255 0.000769589 0)
(-0.00584643 0.000769373 0)
(-0.00644997 0.000739954 0)
(-0.00700501 0.000680849 0)
(-0.00749333 0.000593046 0)
(-0.00789774 0.000478311 0)
(-0.00820289 0.000339022 0)
(-0.00839566 0.000177413 0)
(-0.00846603 -4.96645e-06 0)
(-0.00840688 -0.000206381 0)
(-0.00820921 -0.000420349 0)
(-0.00787159 -0.000639996 0)
(-0.00739637 -0.000859625 0)
(-0.00679222 -0.00107452 0)
(-0.006076 -0.00127945 0)
(-0.00527216 -0.00146332 0)
(-0.00440518 -0.00160057 0)
(-0.00348551 -0.00165125 0)
(-0.00250951 -0.00160258 0)
(-0.00148149 -0.00146051 0)
(-0.000393556 -0.00123981 0)
(0.000594132 -0.00101311 0)
(0.0014476 -0.000865385 0)
(0.00223224 -0.000842151 0)
(0.0028334 -0.00101969 0)
(0.00308087 0.000717029 0)
(0.00343072 0.00558306 0)
(-0.00201795 0.00580139 0)
(-0.000441328 -0.00263236 0)
(-9.07442e-05 -0.00436352 0)
(0.000959153 -0.00353938 0)
(0.00161973 -0.00277723 0)
(0.00241581 -0.00239118 0)
(0.00319972 -0.0020938 0)
(0.00381598 -0.00135866 0)
(0.00398302 0.000214553 0)
(0.00305653 0.00306659 0)
(0.00254167 0.00796534 0)
(-0.00249832 0.00843104 0)
(-0.0022695 0.00227243 0)
(-0.0021192 -0.00162988 0)
(-0.00131324 -0.003063 0)
(-0.000505163 -0.00320728 0)
(0.000389495 -0.00293544 0)
(0.00125293 -0.00263527 0)
(0.00210801 -0.0023968 0)
(0.00293871 -0.00223012 0)
(0.0037468 -0.00211653 0)
(0.00453785 -0.00203806 0)
(0.00531619 -0.0019819 0)
(0.00608411 -0.00193905 0)
(0.00684241 -0.00190309 0)
(0.00759096 -0.00186954 0)
(0.00832903 -0.00183542 0)
(0.0090555 -0.00179877 0)
(0.00976892 -0.00175833 0)
(0.0104676 -0.00171328 0)
(0.0111498 -0.00166307 0)
(0.0118133 -0.00160727 0)
(0.0124563 -0.00154558 0)
(0.0130763 -0.00147772 0)
(0.0136711 -0.00140351 0)
(0.0142383 -0.00132281 0)
(0.0147754 -0.00123557 0)
(0.0152798 -0.00114182 0)
(0.0157491 -0.00104169 0)
(0.0161808 -0.000935438 0)
(0.0165726 -0.000823471 0)
(0.0169222 -0.000706344 0)
(0.0172276 -0.000584802 0)
(0.017487 -0.000459825 0)
(0.0176984 -0.000332687 0)
(0.0178599 -0.000204679 0)
(0.0179698 -7.61511e-05 0)
(0.0180263 5.16046e-05 0)
(0.018028 0.000177238 0)
(0.017975 0.000300036 0)
(0.0178676 0.000419341 0)
(0.0177058 0.00053436 0)
(0.0174904 0.000644261 0)
(0.017222 0.000748253 0)
(0.0169018 0.000845683 0)
(0.0165311 0.000936141 0)
(0.0161115 0.00101956 0)
(0.0156449 0.00109623 0)
(0.0151329 0.00116646 0)
(0.0145756 0.00122983 0)
(0.013969 0.00128637 0)
(0.0132988 0.00135593 0)
(0.012544 0.00157259 0)
(0.0117039 0.00241829 0)
(0.0107758 0.00471515 0)
(0.00934922 0.00818832 0)
(0.00682859 0.00991885 0)
(0.0032686 0.00707355 0)
(-0.000391715 0.00247836 0)
(-0.00165776 0.00155868 0)
(-0.0026328 0.00146184 0)
(-0.00356121 0.00146982 0)
(-0.00445038 0.00149315 0)
(-0.00530783 0.00149421 0)
(-0.00612654 0.00145629 0)
(-0.00689278 0.00137245 0)
(-0.00759064 0.00124114 0)
(-0.00820402 0.00106418 0)
(-0.00871759 0.000845358 0)
(-0.00911782 0.0005896 0)
(-0.00939298 0.000302134 0)
(-0.00953473 -1.19184e-05 0)
(-0.00954379 -0.000348623 0)
(-0.00941163 -0.000700808 0)
(-0.00913894 -0.00105665 0)
(-0.00872893 -0.00140525 0)
(-0.00818944 -0.00173603 0)
(-0.00753327 -0.00203756 0)
(-0.00677625 -0.00229512 0)
(-0.0059328 -0.00248893 0)
(-0.00501265 -0.00259798 0)
(-0.00402343 -0.0026115 0)
(-0.00297749 -0.0025292 0)
(-0.00189148 -0.00235119 0)
(-0.000792898 -0.00208952 0)
(0.0003706 -0.0017942 0)
(0.00123023 -0.00162198 0)
(0.00181011 -0.00152736 0)
(0.00171153 0.00102182 0)
(0.00272028 0.00825845 0)
(-0.00167744 0.00687788 0)
(-0.000119767 -0.00338055 0)
(-0.000101037 -0.00498287 0)
(0.000510396 -0.00408503 0)
(0.000834236 -0.00333721 0)
(0.00141248 -0.00307924 0)
(0.00202398 -0.00286771 0)
(0.00252413 -0.00191687 0)
(0.00264538 0.000452075 0)
(0.00140607 0.00433053 0)
(0.000974452 0.0103263 0)
(-0.00266716 0.0100514 0)
(-0.0013665 0.0026185 0)
(-0.000589084 -0.00225234 0)
(-5.70997e-05 -0.00372631 0)
(0.000439864 -0.00388187 0)
(0.0010152 -0.00365121 0)
(0.00165498 -0.00336861 0)
(0.00232955 -0.00314015 0)
(0.00302375 -0.00297595 0)
(0.00372998 -0.00286173 0)
(0.00444353 -0.00278143 0)
(0.00516103 -0.00272235 0)
(0.00587978 -0.00267529 0)
(0.00659738 -0.00263368 0)
(0.00731153 -0.00259292 0)
(0.00801997 -0.00254992 0)
(0.00872057 -0.00250264 0)
(0.00941127 -0.00244975 0)
(0.01009 -0.00239034 0)
(0.0107547 -0.00232376 0)
(0.0114032 -0.00224952 0)
(0.0120334 -0.0021672 0)
(0.0126429 -0.00207646 0)
(0.0132295 -0.001977 0)
(0.0137906 -0.00186861 0)
(0.0143237 -0.00175118 0)
(0.0148261 -0.00162473 0)
(0.0152954 -0.00148942 0)
(0.0157289 -0.00134558 0)
(0.0161241 -0.00119371 0)
(0.0164786 -0.00103453 0)
(0.0167903 -0.000868932 0)
(0.0170572 -0.000697994 0)
(0.0172772 -0.000522946 0)
(0.0174487 -0.000345029 0)
(0.0175699 -0.000165293 0)
(0.0176401 1.5014e-05 0)
(0.0176564 0.000194096 0)
(0.0176187 0.000370846 0)
(0.0175266 0.000544363 0)
(0.0173792 0.000713781 0)
(0.0171762 0.000878116 0)
(0.0169172 0.00103639 0)
(0.0166019 0.00118774 0)
(0.0162305 0.00133146 0)
(0.0158031 0.00146723 0)
(0.0153201 0.00159519 0)
(0.0147821 0.00171621 0)
(0.0141882 0.00183231 0)
(0.0135351 0.00194964 0)
(0.0128142 0.00209627 0)
(0.0120188 0.00240253 0)
(0.0111819 0.00333776 0)
(0.0103909 0.00583386 0)
(0.00942313 0.00983599 0)
(0.00768934 0.012422 0)
(0.00500947 0.0105522 0)
(0.00149422 0.00545293 0)
(-0.000796063 0.00283472 0)
(-0.00195507 0.00255775 0)
(-0.00312977 0.00250198 0)
(-0.00424047 0.00247963 0)
(-0.0052926 0.00243412 0)
(-0.00628027 0.00234003 0)
(-0.00719217 0.00218671 0)
(-0.0080152 0.00197154 0)
(-0.00873645 0.00169672 0)
(-0.00934418 0.00136728 0)
(-0.00982814 0.000989596 0)
(-0.0101801 0.000570874 0)
(-0.0103941 0.00011794 0)
(-0.0104701 -0.000360682 0)
(-0.0104053 -0.000856066 0)
(-0.0101984 -0.00135432 0)
(-0.00985185 -0.00184134 0)
(-0.00937066 -0.00230285 0)
(-0.00876277 -0.00272364 0)
(-0.00803747 -0.00308649 0)
(-0.00720342 -0.00337268 0)
(-0.00626822 -0.00356502 0)
(-0.00524037 -0.00365169 0)
(-0.00413214 -0.00362734 0)
(-0.00296244 -0.00349308 0)
(-0.00176246 -0.00325943 0)
(-0.00056347 -0.0029232 0)
(0.000581501 -0.00247294 0)
(0.00144868 -0.00192718 0)
(0.00121289 0.00108385 0)
(0.00227717 0.0101166 0)
(-0.00140453 0.0075859 0)
(3.47485e-05 -0.00393047 0)
(-0.000296863 -0.00519327 0)
(-9.50466e-05 -0.00424501 0)
(-8.0853e-05 -0.00360677 0)
(0.000177985 -0.00351229 0)
(0.000411586 -0.0033585 0)
(0.000500003 -0.00215284 0)
(0.000327254 0.00132017 0)
(-0.000710413 0.00625496 0)
(-0.000711789 0.011657 0)
(-0.00290735 0.0104293 0)
(-3.93246e-05 0.00123153 0)
(0.000673949 -0.00281876 0)
(0.000931076 -0.00407158 0)
(0.00116309 -0.00427037 0)
(0.00148787 -0.00411427 0)
(0.0019184 -0.00390605 0)
(0.00243002 -0.00373437 0)
(0.00299957 -0.0036095 0)
(0.00360969 -0.00352164 0)
(0.00424772 -0.00345872 0)
(0.00490453 -0.00341055 0)
(0.00557347 -0.0033694 0)
(0.00624934 -0.0033297 0)
(0.00692787 -0.00328755 0)
(0.00760548 -0.00324029 0)
(0.00827909 -0.00318618 0)
(0.00894603 -0.00312407 0)
(0.00960386 -0.00305317 0)
(0.0102503 -0.0029729 0)
(0.0108831 -0.00288275 0)
(0.0114999 -0.00278224 0)
(0.0120986 -0.00267093 0)
(0.0126767 -0.00254845 0)
(0.0132317 -0.00241447 0)
(0.0137609 -0.0022688 0)
(0.0142616 -0.00211142 0)
(0.0147311 -0.00194249 0)
(0.0151665 -0.0017624 0)
(0.0155653 -0.00157177 0)
(0.0159248 -0.00137143 0)
(0.0162426 -0.00116246 0)
(0.0165164 -0.000946099 0)
(0.0167444 -0.000723755 0)
(0.0169246 -0.000496873 0)
(0.0170554 -0.000266828 0)
(0.0171366 -3.48807e-05 0)
(0.0171653 0.000197166 0)
(0.0171411 0.00042789 0)
(0.0170637 0.00065623 0)
(0.016932 0.000881326 0)
(0.0167452 0.00110213 0)
(0.0165021 0.00131762 0)
(0.0162016 0.00152682 0)
(0.0158428 0.00172891 0)
(0.0154244 0.00192337 0)
(0.0149456 0.00211026 0)
(0.0144055 0.0022907 0)
(0.0138031 0.00246793 0)
(0.0131365 0.00265064 0)
(0.0124026 0.00286727 0)
(0.0116022 0.0032316 0)
(0.0107722 0.00416912 0)
(0.0100335 0.00665796 0)
(0.00931276 0.0109364 0)
(0.00810191 0.0142585 0)
(0.00601463 0.0133435 0)
(0.0030245 0.00864791 0)
(0.000153126 0.00462633 0)
(-0.00133282 0.00387159 0)
(-0.00266281 0.00373505 0)
(-0.00394206 0.00364347 0)
(-0.0051435 0.00352616 0)
(-0.00626167 0.0033515 0)
(-0.00728773 0.00310648 0)
(-0.00821159 0.00278804 0)
(-0.00902331 0.00239907 0)
(-0.00971383 0.00194601 0)
(-0.0102751 0.00143739 0)
(-0.0107012 0.000882896 0)
(-0.0109874 0.000291266 0)
(-0.0111295 -0.000327182 0)
(-0.0111326 -0.000962816 0)
(-0.0109936 -0.00160186 0)
(-0.0107135 -0.00222764 0)
(-0.010295 -0.00282373 0)
(-0.00974162 -0.00337327 0)
(-0.00905743 -0.00385831 0)
(-0.00824625 -0.00426034 0)
(-0.00731218 -0.00456187 0)
(-0.00626137 -0.00474815 0)
(-0.00510441 -0.0048083 0)
(-0.00385913 -0.00473614 0)
(-0.00255546 -0.00452913 0)
(-0.00125133 -0.00417817 0)
(-2.45621e-05 -0.0036098 0)
(0.00124103 -0.00253765 0)
(0.0010001 0.00107632 0)
(0.00196183 0.011477 0)
(-0.00117329 0.0081122 0)
(3.51002e-05 -0.00419765 0)
(-0.000615221 -0.00504482 0)
(-0.000766716 -0.00406244 0)
(-0.00104565 -0.0035632 0)
(-0.00121074 -0.00353427 0)
(-0.00150009 -0.00323594 0)
(-0.00194361 -0.00161685 0)
(-0.00224675 0.00205024 0)
(-0.00243851 0.00708594 0)
(-0.0020647 0.0118594 0)
(-0.00274265 0.00947671 0)
(0.00153756 -0.000704538 0)
(0.00147223 -0.00330262 0)
(0.00154012 -0.00424369 0)
(0.00158382 -0.00443678 0)
(0.00172695 -0.0043836 0)
(0.00200495 -0.00428723 0)
(0.00239339 -0.00420467 0)
(0.00286325 -0.00414441 0)
(0.00339209 -0.00410205 0)
(0.00396327 -0.00407092 0)
(0.00456458 -0.00404458 0)
(0.00518679 -0.00401776 0)
(0.00582274 -0.00398652 0)
(0.00646665 -0.00394809 0)
(0.00711384 -0.00390064 0)
(0.00776049 -0.00384306 0)
(0.00840341 -0.00377463 0)
(0.00903988 -0.00369489 0)
(0.00966749 -0.00360342 0)
(0.010284 -0.00349979 0)
(0.0108871 -0.00338351 0)
(0.0114746 -0.00325407 0)
(0.0120442 -0.00311093 0)
(0.0125932 -0.00295367 0)
(0.0131189 -0.00278198 0)
(0.0136186 -0.00259575 0)
(0.0140892 -0.00239513 0)
(0.0145278 -0.00218052 0)
(0.0149314 -0.00195261 0)
(0.0152973 -0.00171237 0)
(0.0156226 -0.00146105 0)
(0.0159049 -0.00120013 0)
(0.0161419 -0.000931245 0)
(0.0163316 -0.000656159 0)
(0.0164725 -0.000376618 0)
(0.0165638 -9.41566e-05 0)
(0.016604 0.000189437 0)
(0.016592 0.0004725 0)
(0.0165278 0.000753874 0)
(0.016411 0.00103284 0)
(0.0162405 0.00130856 0)
(0.0160153 0.00158026 0)
(0.0157341 0.00184713 0)
(0.0153953 0.00210847 0)
(0.0149971 0.00236375 0)
(0.0145374 0.00261294 0)
(0.0140148 0.00285708 0)
(0.0134278 0.00309945 0)
(0.0127752 0.00334861 0)
(0.012057 0.00363013 0)
(0.0112775 0.00404112 0)
(0.010469 0.00495945 0)
(0.00975559 0.00735613 0)
(0.00917251 0.01173 0)
(0.00830926 0.0156216 0)
(0.00668465 0.0156308 0)
(0.00414402 0.0116006 0)
(0.00121607 0.00693596 0)
(-0.000734076 0.00535274 0)
(-0.00213243 0.00511144 0)
(-0.00352023 0.00493951 0)
(-0.00482148 0.00473767 0)
(-0.00603119 0.00447095 0)
(-0.00714165 0.00412512 0)
(-0.00814438 0.00369682 0)
(-0.00903081 0.0031892 0)
(-0.00979283 0.00260946 0)
(-0.0104235 0.00196736 0)
(-0.0109171 0.00127421 0)
(-0.0112701 0.000540602 0)
(-0.0114776 -0.00022137 0)
(-0.011546 -0.00099839 0)
(-0.0114761 -0.0017792 0)
(-0.0112671 -0.00254583 0)
(-0.0109196 -0.0032811 0)
(-0.0104338 -0.00396788 0)
(-0.00980958 -0.00458831 0)
(-0.0090463 -0.00512385 0)
(-0.00814401 -0.0055558 0)
(-0.0071053 -0.00586607 0)
(-0.00593773 -0.00603777 0)
(-0.00465663 -0.00605515 0)
(-0.00328953 -0.00590147 0)
(-0.00189446 -0.00555117 0)
(-0.000618279 -0.00493633 0)
(0.000893626 -0.00341469 0)
(0.000851438 0.00107575 0)
(0.00170777 0.0125959 0)
(-0.000981661 0.00854977 0)
(-6.74788e-05 -0.00415883 0)
(-0.000959771 -0.00461782 0)
(-0.00138482 -0.0036095 0)
(-0.00194004 -0.00317037 0)
(-0.00249868 -0.00313722 0)
(-0.00318668 -0.00280403 0)
(-0.00380258 -0.00125384 0)
(-0.00386308 0.00213532 0)
(-0.00343682 0.00698613 0)
(-0.00279588 0.0113707 0)
(-0.00156652 0.00640749 0)
(0.00207711 -0.00146647 0)
(0.00191746 -0.00353716 0)
(0.00175236 -0.0042166 0)
(0.00167161 -0.00444852 0)
(0.00172015 -0.00453157 0)
(0.00191127 -0.00456638 0)
(0.00221912 -0.00458664 0)
(0.00261641 -0.00460321 0)
(0.00308133 -0.0046174 0)
(0.00359687 -0.00462769 0)
(0.00414986 -0.00463124 0)
(0.00472988 -0.0046253 0)
(0.00532855 -0.00460775 0)
(0.00593914 -0.00457723 0)
(0.00655622 -0.00453301 0)
(0.00717547 -0.00447485 0)
(0.00779342 -0.00440273 0)
(0.00840724 -0.00431665 0)
(0.00901457 -0.0042165 0)
(0.00961329 -0.004102 0)
(0.0102013 -0.00397265 0)
(0.0107766 -0.00382781 0)
(0.0113369 -0.00366682 0)
(0.0118795 -0.00348905 0)
(0.0124019 -0.00329402 0)
(0.0129011 -0.00308149 0)
(0.0133741 -0.00285151 0)
(0.0138175 -0.00260447 0)
(0.0142283 -0.00234108 0)
(0.0146032 -0.00206241 0)
(0.0149392 -0.00176986 0)
(0.0152333 -0.00146514 0)
(0.0154828 -0.00115019 0)
(0.0156855 -0.000827158 0)
(0.0158393 -0.00049822 0)
(0.0159434 -0.000165403 0)
(0.0159966 0.00016928 0)
(0.0159975 0.00050397 0)
(0.0159468 0.000837387 0)
(0.0158446 0.00116882 0)
(0.0156903 0.00149776 0)
(0.0154834 0.00182377 0)
(0.0152228 0.00214646 0)
(0.0149071 0.00246546 0)
(0.0145344 0.00278045 0)
(0.0141026 0.00309142 0)
(0.0136095 0.00339918 0)
(0.0130536 0.00370643 0)
(0.0124342 0.00402048 0)
(0.0117522 0.00436314 0)
(0.0110133 0.00481732 0)
(0.0102447 0.00571705 0)
(0.00955911 0.0079924 0)
(0.00905929 0.0123402 0)
(0.00844143 0.0166507 0)
(0.00718539 0.0174994 0)
(0.00503369 0.0142536 0)
(0.00226955 0.00951042 0)
(-4.77223e-05 0.00702684 0)
(-0.00153302 0.00657006 0)
(-0.00296258 0.00631548 0)
(-0.00431754 0.00602508 0)
(-0.005581 0.00566236 0)
(-0.00674535 0.00521244 0)
(-0.00780233 0.00467171 0)
(-0.00874341 0.00404338 0)
(-0.0095604 0.00333533 0)
(-0.0102465 0.00255846 0)
(-0.0107962 0.00172594 0)
(-0.0112076 0.000851134 0)
(-0.0114777 -5.25506e-05 0)
(-0.0116063 -0.000967693 0)
(-0.0116055 -0.00188587 0)
(-0.0114719 -0.00278982 0)
(-0.011205 -0.00366301 0)
(-0.0108026 -0.00448924 0)
(-0.0102609 -0.00525146 0)
(-0.0095752 -0.00593113 0)
(-0.00874138 -0.00650808 0)
(-0.00775788 -0.00696049 0)
(-0.00662852 -0.0072649 0)
(-0.0053655 -0.00739511 0)
(-0.00399463 -0.0073188 0)
(-0.00257227 -0.00698537 0)
(-0.0012217 -0.00627894 0)
(0.000207389 -0.00458289 0)
(0.000650461 0.000942607 0)
(0.00148475 0.013539 0)
(-0.000831937 0.00895787 0)
(-0.000202986 -0.00385746 0)
(-0.00124493 -0.00399562 0)
(-0.00184164 -0.00296207 0)
(-0.00256147 -0.00251896 0)
(-0.00333184 -0.00244587 0)
(-0.0042 -0.00216695 0)
(-0.00486337 -0.00094875 0)
(-0.00471948 0.00180159 0)
(-0.00371953 0.006105 0)
(-0.00279869 0.0105471 0)
(0.000539394 0.00195288 0)
(0.00208566 -0.0022314 0)
(0.00189409 -0.00350728 0)
(0.00161443 -0.00406392 0)
(0.00148327 -0.00440109 0)
(0.00150309 -0.00462876 0)
(0.00165537 -0.00478985 0)
(0.00191568 -0.00491075 0)
(0.00226314 -0.00500638 0)
(0.00267959 -0.00508148 0)
(0.00314983 -0.00513821 0)
(0.00366102 -0.00517638 0)
(0.00420267 -0.00519539 0)
(0.00476591 -0.00519494 0)
(0.00534357 -0.00517512 0)
(0.00592985 -0.0051365 0)
(0.00652021 -0.00507991 0)
(0.00711114 -0.00500618 0)
(0.00769991 -0.00491596 0)
(0.0082844 -0.00480953 0)
(0.00886277 -0.00468677 0)
(0.00943331 -0.00454719 0)
(0.00999417 -0.00439001 0)
(0.0105433 -0.00421434 0)
(0.0110784 -0.00401929 0)
(0.0115968 -0.00380415 0)
(0.0120956 -0.00356847 0)
(0.0125716 -0.00331212 0)
(0.0130216 -0.00303539 0)
(0.013442 -0.00273895 0)
(0.0138292 -0.00242388 0)
(0.0141799 -0.00209169 0)
(0.0144905 -0.00174429 0)
(0.0147579 -0.00138393 0)
(0.0149791 -0.00101314 0)
(0.0151516 -0.000634608 0)
(0.0152738 -0.000250961 0)
(0.015345 0.000135224 0)
(0.0153629 0.000521556 0)
(0.0153287 0.000906558 0)
(0.0152434 0.00128941 0)
(0.0151069 0.00166981 0)
(0.0149196 0.00204776 0)
(0.0146811 0.0024234 0)
(0.0143906 0.00279688 0)
(0.0140467 0.0031683 0)
(0.0136476 0.00353782 0)
(0.0131914 0.00390606 0)
(0.0126764 0.00427499 0)
(0.0121022 0.00465029 0)
(0.0114702 0.00504995 0)
(0.0107861 0.00554494 0)
(0.0100726 0.00643061 0)
(0.00942765 0.00857841 0)
(0.00899066 0.01282 0)
(0.00855791 0.017418 0)
(0.00761097 0.019018 0)
(0.00580995 0.0165996 0)
(0.00327479 0.0121146 0)
(0.000809294 0.00894201 0)
(-0.000866789 0.00806511 0)
(-0.00227446 0.00772205 0)
(-0.00364036 0.00734683 0)
(-0.00492066 0.00689114 0)
(-0.00610728 0.00633989 0)
(-0.00719127 0.0056892 0)
(-0.00816338 0.00494241 0)
(-0.00901481 0.00410806 0)
(-0.00973835 0.00319852 0)
(-0.010329 0.00222926 0)
(-0.0107861 0.00121683 0)
(-0.0111104 0.000175559 0)
(-0.0112932 -0.000872899 0)
(-0.0113579 -0.00191973 0)
(-0.0113018 -0.00295236 0)
(-0.0111233 -0.00395626 0)
(-0.0108183 -0.00491746 0)
(-0.0103801 -0.00582058 0)
(-0.00980056 -0.00664757 0)
(-0.00907106 -0.00737685 0)
(-0.00818554 -0.00798265 0)
(-0.00714336 -0.00843418 0)
(-0.00595315 -0.00869364 0)
(-0.00463824 -0.00871079 0)
(-0.00324974 -0.0084033 0)
(-0.00189104 -0.00759376 0)
(-0.00065269 -0.00578586 0)
(0.000387758 0.00083252 0)
(0.00131782 0.014314 0)
(-0.000721306 0.00937043 0)
(-0.000326641 -0.00337032 0)
(-0.00143602 -0.00326816 0)
(-0.00210629 -0.0022281 0)
(-0.00285818 -0.00176842 0)
(-0.00364217 -0.00165037 0)
(-0.00448917 -0.00144869 0)
(-0.00515067 -0.000657192 0)
(-0.00502865 0.00121379 0)
(-0.0037217 0.00446931 0)
(-0.00210888 0.00867392 0)
(0.00172015 -0.000550477 0)
(0.00140971 -0.00230533 0)
(0.00132986 -0.00326561 0)
(0.00116311 -0.0039073 0)
(0.00108222 -0.00437014 0)
(0.00111777 -0.00471998 0)
(0.00125974 -0.00498802 0)
(0.0014937 -0.00519892 0)
(0.00180726 -0.00536968 0)
(0.00218632 -0.00550505 0)
(0.00261878 -0.00560941 0)
(0.00309279 -0.00568406 0)
(0.00359853 -0.00573 0)
(0.0041272 -0.00574844 0)
(0.00467159 -0.00574094 0)
(0.00522584 -0.00570941 0)
(0.00578537 -0.00565591 0)
(0.00634682 -0.00558226 0)
(0.00690771 -0.00548984 0)
(0.00746627 -0.00537943 0)
(0.00802112 -0.0052511 0)
(0.00857096 -0.00510435 0)
(0.00911438 -0.00493821 0)
(0.00964969 -0.0047515 0)
(0.0101748 -0.00454302 0)
(0.0106874 -0.00431171 0)
(0.0111846 -0.00405683 0)
(0.0116634 -0.00377802 0)
(0.0121204 -0.00347534 0)
(0.0125519 -0.00314932 0)
(0.0129543 -0.00280095 0)
(0.0133235 -0.00243172 0)
(0.0136557 -0.00204364 0)
(0.0139468 -0.00163922 0)
(0.0141932 -0.00122137 0)
(0.0143918 -0.000793302 0)
(0.0145398 -0.000358266 0)
(0.0146367 8.04342e-05 0)
(0.0146783 0.000519354 0)
(0.0146668 0.000956469 0)
(0.0146035 0.00139058 0)
(0.0144893 0.00182153 0)
(0.0143252 0.0022496 0)
(0.0141119 0.00267548 0)
(0.0138496 0.00309994 0)
(0.0135378 0.00352367 0)
(0.0131754 0.00394715 0)
(0.0127609 0.00437093 0)
(0.0122932 0.00479636 0)
(0.0117719 0.0052276 0)
(0.0111987 0.00567916 0)
(0.010579 0.00621182 0)
(0.00993193 0.00708696 0)
(0.00934183 0.00910954 0)
(0.00896537 0.0131924 0)
(0.00868433 0.0179662 0)
(0.00800784 0.0202232 0)
(0.00653558 0.0186394 0)
(0.00426439 0.0146197 0)
(0.00180694 0.0110609 0)
(-8.22663e-05 0.00959904 0)
(-0.00147768 0.00911809 0)
(-0.0028099 0.00866494 0)
(-0.00407304 0.00812361 0)
(-0.00525102 0.00747789 0)
(-0.00633418 0.00672328 0)
(-0.00731223 0.00586324 0)
(-0.00817544 0.00490735 0)
(-0.00891587 0.00387007 0)
(-0.00952943 0.00276944 0)
(-0.0100153 0.00162535 0)
(-0.0103774 0.000454608 0)
(-0.0106109 -0.000719295 0)
(-0.0107336 -0.00188209 0)
(-0.0107534 -0.00302975 0)
(-0.010666 -0.00415137 0)
(-0.0104668 -0.00523652 0)
(-0.0101473 -0.00627255 0)
(-0.00969587 -0.0072428 0)
(-0.00909982 -0.00812489 0)
(-0.00834786 -0.00888935 0)
(-0.00743351 -0.00949781 0)
(-0.00635976 -0.00989984 0)
(-0.00514436 -0.010026 0)
(-0.00383195 -0.00976348 0)
(-0.0025177 -0.00888081 0)
(-0.00128016 -0.00673794 0)
(-4.71051e-05 -0.000236292 0)
(0.00123684 0.0149418 0)
(-0.000641667 0.00980014 0)
(-0.000421639 -0.00277149 0)
(-0.00154262 -0.00250478 0)
(-0.00222159 -0.00149514 0)
(-0.00292312 -0.00105273 0)
(-0.0035991 -0.000921287 0)
(-0.00427192 -0.000779317 0)
(-0.00479902 -0.000324884 0)
(-0.00477902 0.000718499 0)
(-0.00362583 0.00257149 0)
(-0.00121618 0.00516176 0)
(0.00127892 -0.00117359 0)
(0.000558976 -0.00221263 0)
(0.000610999 -0.00312734 0)
(0.00055255 -0.00383553 0)
(0.000539167 -0.00438242 0)
(0.000602326 -0.00482262 0)
(0.000745465 -0.00517698 0)
(0.000963528 -0.00546482 0)
(0.00125222 -0.00570378 0)
(0.00160029 -0.0058954 0)
(0.00199954 -0.00604581 0)
(0.00243936 -0.00615672 0)
(0.00291093 -0.00623001 0)
(0.00340586 -0.00626805 0)
(0.00391695 -0.00627367 0)
(0.0044385 -0.00625008 0)
(0.00496589 -0.00620065 0)
(0.00549603 -0.00612829 0)
(0.0060267 -0.00603527 0)
(0.00655659 -0.00592292 0)
(0.00708484 -0.00579155 0)
(0.00761065 -0.00564065 0)
(0.00813316 -0.00546902 0)
(0.00865115 -0.00527514 0)
(0.009163 -0.0050574 0)
(0.00966665 -0.00481436 0)
(0.0101597 -0.00454492 0)
(0.0106392 -0.00424837 0)
(0.011102 -0.00392448 0)
(0.0115446 -0.00357348 0)
(0.011963 -0.00319611 0)
(0.0123531 -0.00279369 0)
(0.0127104 -0.00236817 0)
(0.0130302 -0.00192214 0)
(0.0133082 -0.00145885 0)
(0.0135401 -0.000982008 0)
(0.013722 -0.000495501 0)
(0.0138541 -3.05581e-06 0)
(0.0139281 0.000490103 0)
(0.0139472 0.000980561 0)
(0.0139134 0.00146649 0)
(0.0138282 0.00194779 0)
(0.0136934 0.00242486 0)
(0.0135106 0.0028988 0)
(0.0132812 0.00337101 0)
(0.0130057 0.00384282 0)
(0.0126839 0.00431524 0)
(0.0123155 0.00478893 0)
(0.0118998 0.00526476 0)
(0.0114369 0.00574565 0)
(0.0109285 0.00624314 0)
(0.0103797 0.00680937 0)
(0.00980717 0.0076756 0)
(0.0092839 0.00957775 0)
(0.00897262 0.0134667 0)
(0.00882561 0.0183194 0)
(0.00839408 0.0211391 0)
(0.00723757 0.0203702 0)
(0.0052581 0.0169471 0)
(0.00288555 0.0132662 0)
(0.000904423 0.0112518 0)
(-0.000596323 0.0104743 0)
(-0.00185731 0.00994448 0)
(-0.00307217 0.00932835 0)
(-0.00421344 0.008598 0)
(-0.00527029 0.00774806 0)
(-0.00623097 0.0067822 0)
(-0.00708445 0.00571145 0)
(-0.00782182 0.00455299 0)
(-0.00843915 0.00332812 0)
(-0.00893651 0.00206048 0)
(-0.00932039 0.000771467 0)
(-0.0095971 -0.000514398 0)
(-0.00976745 -0.00177806 0)
(-0.00985588 -0.00302356 0)
(-0.00985521 -0.0042455 0)
(-0.00976124 -0.00543821 0)
(-0.00956476 -0.00659296 0)
(-0.00925232 -0.00769576 0)
(-0.00880748 -0.00872493 0)
(-0.00821306 -0.00964862 0)
(-0.00745463 -0.010422 0)
(-0.00652596 -0.0109825 0)
(-0.0054343 -0.0112435 0)
(-0.00421056 -0.011069 0)
(-0.00292087 -0.0101982 0)
(-0.00153209 -0.00798069 0)
(-0.000231583 -0.00183763 0)
(0.00118669 0.0154879 0)
(-0.000583385 0.0102472 0)
(-0.000487562 -0.0021143 0)
(-0.00159112 -0.00174559 0)
(-0.00225021 -0.000806643 0)
(-0.00287988 -0.00043232 0)
(-0.00342786 -0.000346809 0)
(-0.00389969 -0.000287346 0)
(-0.00421465 -7.07797e-05 0)
(-0.00417079 0.000412185 0)
(-0.0033519 0.00116608 0)
(-0.00125874 0.00185063 0)
(5.01563e-05 -0.00133464 0)
(-0.000219176 -0.00222764 0)
(-0.000163915 -0.00310355 0)
(-0.000145438 -0.00382994 0)
(-0.000105395 -0.00442878 0)
(-1.7984e-05 -0.00493482 0)
(0.000128406 -0.00535961 0)
(0.000334323 -0.00571295 0)
(0.000602177 -0.00601316 0)
(0.000923314 -0.00625715 0)
(0.00129178 -0.00645094 0)
(0.00170009 -0.00659689 0)
(0.00213904 -0.00669686 0)
(0.00260195 -0.00675447 0)
(0.00308075 -0.00677339 0)
(0.00357032 -0.006758 0)
(0.00406564 -0.00671307 0)
(0.00456396 -0.00664269 0)
(0.00506327 -0.0065501 0)
(0.00556269 -0.00643737 0)
(0.00606193 -0.00630506 0)
(0.00656076 -0.00615268 0)
(0.00705893 -0.0059788 0)
(0.00755583 -0.00578149 0)
(0.00805039 -0.0055587 0)
(0.00854108 -0.00530858 0)
(0.00902595 -0.00502958 0)
(0.00950259 -0.00472062 0)
(0.0099682 -0.00438106 0)
(0.0104195 -0.00401072 0)
(0.0108528 -0.00360989 0)
(0.0112637 -0.0031795 0)
(0.0116474 -0.00272119 0)
(0.0119988 -0.00223746 0)
(0.0123124 -0.00173172 0)
(0.0125833 -0.00120811 0)
(0.012806 -0.000671174 0)
(0.0129803 -0.000124739 0)
(0.0130972 0.000424382 0)
(0.013156 0.000969942 0)
(0.0131602 0.00150896 0)
(0.0131122 0.00204113 0)
(0.0130141 0.00256683 0)
(0.0128687 0.00308744 0)
(0.0126782 0.00360485 0)
(0.0124443 0.00412106 0)
(0.0121682 0.00463768 0)
(0.0118502 0.00515567 0)
(0.0114908 0.00567571 0)
(0.0110906 0.00619969 0)
(0.0106514 0.00673668 0)
(0.0101783 0.00733148 0)
(0.00968587 0.0081884 0)
(0.0092385 0.00997459 0)
(0.00899866 0.0136461 0)
(0.00897528 0.0184941 0)
(0.00877045 0.0217812 0)
(0.00792085 0.0217888 0)
(0.00625335 0.0190421 0)
(0.00404754 0.0154696 0)
(0.0020005 0.0129951 0)
(0.000456306 0.0118526 0)
(-0.000820354 0.0111612 0)
(-0.00195823 0.010479 0)
(-0.00304099 0.00967591 0)
(-0.00405161 0.00874147 0)
(-0.0049772 0.00767912 0)
(-0.00580525 0.0065019 0)
(-0.00652536 0.00522995 0)
(-0.00713247 0.00388931 0)
(-0.00762744 0.00250882 0)
(-0.0080197 0.00111535 0)
(-0.00832916 -0.000267824 0)
(-0.0085358 -0.00161698 0)
(-0.00868028 -0.00294214 0)
(-0.00875293 -0.00424523 0)
(-0.00875142 -0.00552588 0)
(-0.0086683 -0.00678017 0)
(-0.00849062 -0.00799857 0)
(-0.00819989 -0.00916258 0)
(-0.00777329 -0.0102409 0)
(-0.00718666 -0.0111851 0)
(-0.00642115 -0.0119226 0)