/*--------------------------------*- C++ -*----------------------------------*\
| =========                 |                                                 |
| \\      /  F ield         | OpenFOAM: The Open Source CFD Toolbox           |
|  \\    /   O peration     | Version:  4.1                                   |
|   \\  /    A nd           | Web:      www.OpenFOAM.org                      |
|    \\/     M anipulation  |                                                 |
\*---------------------------------------------------------------------------*/
FoamFile
{
    version     2.0;
    format      ascii;
    class       volScalarField;
    location    "1600";
    object      p;
}
// * * * * * * * * * * * * * * * * * * * * * * * * * * * * * * * * * * * * * //

dimensions      [0 2 -2 0 0 0 0];

internalField   nonuniform List<scalar> 
1600
(
0
-1.18181e-07
-1.83643e-05
-5.41146e-05
-8.75092e-05
-0.000113186
-0.000132246
-0.000146316
-0.000156382
-0.000163013
-0.00016671
-0.000167914
-0.000167022
-0.000164443
-0.000160666
-0.000156118
-0.000152855
-0.00015082
-0.000157877
-0.000150612
-0.000169489
-0.000189295
-0.0002038
-0.000210053
-0.000206068
-0.000190265
-0.000163396
-0.000130538
-9.61493e-05
-6.57108e-05
-4.32243e-05
-3.01682e-05
-2.50232e-05
-2.4916e-05
-2.73496e-05
-2.95575e-05
-2.94379e-05
-2.44606e-05
-2.34824e-05
-4.51375e-05
-0.0983661
-0.0983908
-0.0984167
-0.0984494
-0.0984797
-0.098503
-0.0985198
-0.0985313
-0.0985387
-0.0985424
-0.0985429
-0.0985407
-0.0985359
-0.0985289
-0.09852
-0.0985098
-0.0984989
-0.0984834
-0.098486
-0.09849
-0.0985086
-0.0985272
-0.0985426
-0.0985537
-0.0985584
-0.0985533
-0.0985376
-0.0985135
-0.0984854
-0.0984585
-0.0984375
-0.0984246
-0.0984184
-0.0984162
-0.0984162
-0.0984179
-0.0984216
-0.0984231
-0.098426
-0.098437
-0.196771
-0.196798
-0.19683
-0.196862
-0.19689
-0.196912
-0.196929
-0.19694
-0.196946
-0.196949
-0.196949
-0.196945
-0.196939
-0.19693
-0.196918
-0.196904
-0.196887
-0.196858
-0.196862
-0.196879
-0.196896
-0.19691
-0.196923
-0.196935
-0.196944
-0.196946
-0.196937
-0.196918
-0.196893
-0.196867
-0.196847
-0.196835
-0.19683
-0.196828
-0.196829
-0.19683
-0.196833
-0.196834
-0.196837
-0.19684
-0.295192
-0.295216
-0.295248
-0.295278
-0.295305
-0.295326
-0.295341
-0.295352
-0.295358
-0.29536
-0.29536
-0.295356
-0.295348
-0.295338
-0.295325
-0.295309
-0.29529
-0.295255
-0.29526
-0.295281
-0.295296
-0.29531
-0.295322
-0.295335
-0.295346
-0.29535
-0.295344
-0.295326
-0.295301
-0.295276
-0.295257
-0.295245
-0.29524
-0.295239
-0.29524
-0.295242
-0.295245
-0.295245
-0.295247
-0.295245
-0.393616
-0.393638
-0.393668
-0.393696
-0.393721
-0.39374
-0.393755
-0.393764
-0.39377
-0.393773
-0.393772
-0.393767
-0.39376
-0.393749
-0.393735
-0.393718
-0.393699
-0.393663
-0.393668
-0.393688
-0.393703
-0.393717
-0.39373
-0.393744
-0.393755
-0.393759
-0.393752
-0.393735
-0.39371
-0.393686
-0.393666
-0.393654
-0.393649
-0.393648
-0.39365
-0.393653
-0.393655
-0.393654
-0.393656
-0.393651
-0.49204
-0.49206
-0.492088
-0.492114
-0.492136
-0.492155
-0.492168
-0.492177
-0.492183
-0.492185
-0.492184
-0.49218
-0.492172
-0.492162
-0.492148
-0.49213
-0.492111
-0.492077
-0.492081
-0.492099
-0.492113
-0.492127
-0.492141
-0.492155
-0.492165
-0.492168
-0.492161
-0.492144
-0.49212
-0.492095
-0.492076
-0.492064
-0.492058
-0.492057
-0.492059
-0.492062
-0.492064
-0.492063
-0.492064
-0.492056
-0.590464
-0.590482
-0.590507
-0.590531
-0.590552
-0.590569
-0.590581
-0.59059
-0.590595
-0.590597
-0.590596
-0.590592
-0.590585
-0.590574
-0.590561
-0.590544
-0.590526
-0.590494
-0.590495
-0.590513
-0.590524
-0.590539
-0.590553
-0.590566
-0.590576
-0.590578
-0.590571
-0.590553
-0.590529
-0.590505
-0.590486
-0.590474
-0.590467
-0.590466
-0.590468
-0.590471
-0.590473
-0.590472
-0.590472
-0.590463
-0.688888
-0.688904
-0.688926
-0.688949
-0.688968
-0.688983
-0.688995
-0.689003
-0.689007
-0.689009
-0.689008
-0.689004
-0.688997
-0.688987
-0.688974
-0.688958
-0.688941
-0.688912
-0.68891
-0.688929
-0.688936
-0.688951
-0.688965
-0.688978
-0.688987
-0.688988
-0.68898
-0.688962
-0.688938
-0.688915
-0.688896
-0.688884
-0.688877
-0.688876
-0.688877
-0.68888
-0.688881
-0.68888
-0.688879
-0.68887
-0.78731
-0.787325
-0.787345
-0.787366
-0.787383
-0.787397
-0.787408
-0.787415
-0.78742
-0.787422
-0.78742
-0.787417
-0.78741
-0.7874
-0.787388
-0.787372
-0.787357
-0.78733
-0.787325
-0.787346
-0.787348
-0.787363
-0.787377
-0.787389
-0.787397
-0.787398
-0.78739
-0.787372
-0.787348
-0.787325
-0.787307
-0.787294
-0.787288
-0.787286
-0.787288
-0.787289
-0.78729
-0.787288
-0.787286
-0.787278
-0.885732
-0.885746
-0.885763
-0.885782
-0.885798
-0.885811
-0.885821
-0.885828
-0.885832
-0.885834
-0.885833
-0.885829
-0.885823
-0.885814
-0.885802
-0.885787
-0.885773
-0.885749
-0.885741
-0.885761
-0.88576
-0.885775
-0.885788
-0.8858
-0.885808
-0.885808
-0.885799
-0.885781
-0.885758
-0.885736
-0.885718
-0.885706
-0.885699
-0.885698
-0.885698
-0.885699
-0.885699
-0.885697
-0.885694
-0.885686
-0.984152
-0.984165
-0.984181
-0.984198
-0.984212
-0.984225
-0.984234
-0.984241
-0.984245
-0.984246
-0.984245
-0.984242
-0.984236
-0.984227
-0.984216
-0.984202
-0.984189
-0.984167
-0.984157
-0.984174
-0.984172
-0.984187
-0.984199
-0.984211
-0.984218
-0.984217
-0.984208
-0.98419
-0.984167
-0.984146
-0.984129
-0.984117
-0.984112
-0.98411
-0.98411
-0.98411
-0.984109
-0.984106
-0.984103
-0.984095
-1.08257
-1.08258
-1.0826
-1.08261
-1.08263
-1.08264
-1.08265
-1.08265
-1.08266
-1.08266
-1.08266
-1.08265
-1.08265
-1.08264
-1.08263
-1.08262
-1.0826
-1.08259
-1.08257
-1.08259
-1.08258
-1.0826
-1.08261
-1.08262
-1.08263
-1.08263
-1.08262
-1.0826
-1.08258
-1.08256
-1.08254
-1.08253
-1.08252
-1.08252
-1.08252
-1.08252
-1.08252
-1.08252
-1.08251
-1.08251
-1.18099
-1.181
-1.18101
-1.18103
-1.18104
-1.18105
-1.18106
-1.18107
-1.18107
-1.18107
-1.18107
-1.18107
-1.18106
-1.18105
-1.18104
-1.18103
-1.18102
-1.181
-1.18099
-1.181
-1.181
-1.18101
-1.18102
-1.18103
-1.18104
-1.18104
-1.18103
-1.18101
-1.18099
-1.18097
-1.18095
-1.18094
-1.18094
-1.18094
-1.18094
-1.18093
-1.18093
-1.18093
-1.18092
-1.18092
-1.27941
-1.27942
-1.27943
-1.27944
-1.27945
-1.27947
-1.27947
-1.27948
-1.27948
-1.27949
-1.27949
-1.27948
-1.27948
-1.27947
-1.27946
-1.27945
-1.27944
-1.27942
-1.2794
-1.27941
-1.27941
-1.27942
-1.27943
-1.27944
-1.27945
-1.27944
-1.27943
-1.27941
-1.2794
-1.27938
-1.27936
-1.27935
-1.27935
-1.27935
-1.27935
-1.27935
-1.27934
-1.27934
-1.27933
-1.27933
-1.37782
-1.37783
-1.37784
-1.37786
-1.37787
-1.37788
-1.37789
-1.37789
-1.3779
-1.3779
-1.3779
-1.3779
-1.37789
-1.37788
-1.37787
-1.37786
-1.37785
-1.37784
-1.37782
-1.37782
-1.37782
-1.37783
-1.37784
-1.37785
-1.37785
-1.37785
-1.37784
-1.37782
-1.3778
-1.37779
-1.37777
-1.37777
-1.37777
-1.37777
-1.37776
-1.37776
-1.37776
-1.37775
-1.37774
-1.37774
-1.47623
-1.47624
-1.47626
-1.47627
-1.47628
-1.47629
-1.4763
-1.47631
-1.47631
-1.47631
-1.47631
-1.47631
-1.47631
-1.4763
-1.47629
-1.47628
-1.47627
-1.47625
-1.47623
-1.47623
-1.47623
-1.47624
-1.47625
-1.47626
-1.47626
-1.47626
-1.47625
-1.47623
-1.47621
-1.4762
-1.47619
-1.47618
-1.47618
-1.47618
-1.47618
-1.47617
-1.47617
-1.47616
-1.47615
-1.47615
-1.57465
-1.57466
-1.57467
-1.57468
-1.57469
-1.5747
-1.57471
-1.57472
-1.57473
-1.57473
-1.57473
-1.57473
-1.57472
-1.57471
-1.5747
-1.57469
-1.57468
-1.57467
-1.57465
-1.57464
-1.57464
-1.57465
-1.57466
-1.57467
-1.57467
-1.57467
-1.57465
-1.57464
-1.57462
-1.57461
-1.5746
-1.5746
-1.5746
-1.5746
-1.57459
-1.57459
-1.57458
-1.57457
-1.57457
-1.57456
-1.67306
-1.67307
-1.67308
-1.67309
-1.67311
-1.67312
-1.67313
-1.67314
-1.67314
-1.67314
-1.67314
-1.67314
-1.67314
-1.67313
-1.67312
-1.67311
-1.6731
-1.67308
-1.67306
-1.67306
-1.67305
-1.67306
-1.67307
-1.67307
-1.67308
-1.67307
-1.67306
-1.67304
-1.67303
-1.67302
-1.67301
-1.67301
-1.67301
-1.67301
-1.67301
-1.673
-1.673
-1.67299
-1.67298
-1.67298
-1.77147
-1.77148
-1.77149
-1.7715
-1.77152
-1.77153
-1.77154
-1.77155
-1.77155
-1.77156
-1.77156
-1.77156
-1.77155
-1.77154
-1.77153
-1.77152
-1.77151
-1.7715
-1.77148
-1.77147
-1.77146
-1.77147
-1.77147
-1.77148
-1.77149
-1.77148
-1.77147
-1.77145
-1.77144
-1.77143
-1.77142
-1.77142
-1.77142
-1.77143
-1.77142
-1.77142
-1.77141
-1.7714
-1.77139
-1.77139
-1.86988
-1.86989
-1.8699
-1.86992
-1.86993
-1.86994
-1.86995
-1.86996
-1.86997
-1.86997
-1.86997
-1.86997
-1.86997
-1.86996
-1.86995
-1.86994
-1.86993
-1.86991
-1.86989
-1.86987
-1.86987
-1.86988
-1.86988
-1.86989
-1.86989
-1.86988
-1.86987
-1.86986
-1.86984
-1.86983
-1.86983
-1.86983
-1.86984
-1.86984
-1.86984
-1.86983
-1.86982
-1.86981
-1.8698
-1.8698
-1.96828
-1.9683
-1.96831
-1.96832
-1.96834
-1.96836
-1.96837
-1.96838
-1.96838
-1.96839
-1.96839
-1.96839
-1.96838
-1.96837
-1.96836
-1.96835
-1.96834
-1.96833
-1.9683
-1.96828
-1.96828
-1.96829
-1.96829
-1.9683
-1.9683
-1.96829
-1.96828
-1.96826
-1.96825
-1.96824
-1.96824
-1.96824
-1.96825
-1.96825
-1.96825
-1.96824
-1.96823
-1.96822
-1.96822
-1.96821
-2.06669
-2.0667
-2.06671
-2.06673
-2.06675
-2.06677
-2.06678
-2.06679
-2.0668
-2.0668
-2.0668
-2.0668
-2.0668
-2.06679
-2.06678
-2.06677
-2.06675
-2.06674
-2.06671
-2.06669
-2.06669
-2.06669
-2.0667
-2.0667
-2.0667
-2.0667
-2.06668
-2.06667
-2.06666
-2.06665
-2.06665
-2.06665
-2.06666
-2.06666
-2.06666
-2.06665
-2.06665
-2.06664
-2.06663
-2.06663
-2.16509
-2.16511
-2.16512
-2.16514
-2.16516
-2.16518
-2.16519
-2.1652
-2.16521
-2.16522
-2.16522
-2.16522
-2.16521
-2.1652
-2.16519
-2.16518
-2.16517
-2.16515
-2.16512
-2.1651
-2.1651
-2.1651
-2.16511
-2.16511
-2.16511
-2.1651
-2.16509
-2.16507
-2.16506
-2.16506
-2.16506
-2.16506
-2.16507
-2.16507
-2.16507
-2.16507
-2.16506
-2.16505
-2.16504
-2.16504
-2.26349
-2.26351
-2.26352
-2.26355
-2.26357
-2.26359
-2.2636
-2.26362
-2.26363
-2.26363
-2.26363
-2.26363
-2.26363
-2.26362
-2.26361
-2.26359
-2.26358
-2.26356
-2.26353
-2.26351
-2.26351
-2.26351
-2.26351
-2.26352
-2.26352
-2.26351
-2.26349
-2.26348
-2.26347
-2.26346
-2.26346
-2.26347
-2.26348
-2.26348
-2.26348
-2.26347
-2.26347
-2.26346
-2.26345
-2.26345
-2.36189
-2.36191
-2.36193
-2.36195
-2.36197
-2.362
-2.36201
-2.36203
-2.36204
-2.36204
-2.36205
-2.36205
-2.36204
-2.36203
-2.36202
-2.362
-2.36199
-2.36197
-2.36194
-2.36191
-2.36192
-2.36192
-2.36192
-2.36192
-2.36192
-2.36191
-2.3619
-2.36188
-2.36187
-2.36187
-2.36187
-2.36188
-2.36188
-2.36189
-2.36189
-2.36188
-2.36187
-2.36186
-2.36185
-2.36185
-2.46029
-2.46031
-2.46033
-2.46036
-2.46038
-2.4604
-2.46042
-2.46044
-2.46045
-2.46046
-2.46046
-2.46046
-2.46045
-2.46044
-2.46043
-2.46041
-2.4604
-2.46038
-2.46034
-2.46032
-2.46032
-2.46032
-2.46033
-2.46033
-2.46033
-2.46032
-2.4603
-2.46028
-2.46027
-2.46027
-2.46027
-2.46028
-2.46029
-2.46029
-2.46029
-2.46029
-2.46028
-2.46027
-2.46026
-2.46026
-2.55869
-2.55871
-2.55873
-2.55876
-2.55878
-2.55881
-2.55883
-2.55885
-2.55886
-2.55887
-2.55887
-2.55887
-2.55887
-2.55886
-2.55884
-2.55882
-2.55881
-2.55878
-2.55874
-2.55872
-2.55873
-2.55873
-2.55873
-2.55873
-2.55873
-2.55872
-2.5587
-2.55868
-2.55867
-2.55867
-2.55868
-2.55868
-2.55869
-2.5587
-2.5587
-2.55869
-2.55869
-2.55868
-2.55867
-2.55867
-2.65708
-2.6571
-2.65713
-2.65716
-2.65719
-2.65722
-2.65724
-2.65726
-2.65727
-2.65728
-2.65728
-2.65728
-2.65728
-2.65727
-2.65725
-2.65723
-2.65722
-2.65718
-2.65714
-2.65711
-2.65712
-2.65713
-2.65714
-2.65714
-2.65713
-2.65712
-2.6571
-2.65709
-2.65708
-2.65708
-2.65708
-2.65709
-2.65709
-2.6571
-2.6571
-2.6571
-2.65709
-2.65708
-2.65708
-2.65708
-2.75547
-2.75549
-2.75552
-2.75555
-2.75559
-2.75562
-2.75565
-2.75567
-2.75568
-2.75569
-2.7557
-2.75569
-2.75569
-2.75568
-2.75566
-2.75564
-2.75562
-2.75558
-2.75553
-2.75551
-2.75552
-2.75553
-2.75554
-2.75554
-2.75553
-2.75552
-2.7555
-2.75549
-2.75548
-2.75548
-2.75548
-2.75549
-2.7555
-2.7555
-2.7555
-2.7555
-2.75549
-2.75549
-2.75548
-2.75548
-2.85386
-2.85389
-2.85392
-2.85395
-2.85399
-2.85402
-2.85405
-2.85407
-2.85409
-2.8541
-2.85411
-2.8541
-2.8541
-2.85409
-2.85407
-2.85405
-2.85402
-2.85397
-2.85392
-2.85389
-2.85391
-2.85393
-2.85394
-2.85394
-2.85393
-2.85392
-2.8539
-2.85388
-2.85388
-2.85388
-2.85388
-2.85389
-2.8539
-2.8539
-2.85391
-2.85391
-2.8539
-2.85389
-2.85389
-2.85389
-2.95225
-2.95228
-2.95231
-2.95234
-2.95238
-2.95242
-2.95245
-2.95248
-2.9525
-2.95251
-2.95251
-2.95251
-2.95251
-2.95249
-2.95247
-2.95245
-2.95242
-2.95236
-2.9523
-2.95228
-2.9523
-2.95232
-2.95233
-2.95234
-2.95233
-2.95232
-2.9523
-2.95228
-2.95227
-2.95228
-2.95229
-2.95229
-2.9523
-2.95231
-2.95231
-2.95231
-2.9523
-2.9523
-2.9523
-2.95229
-3.05064
-3.05067
-3.0507
-3.05074
-3.05078
-3.05082
-3.05085
-3.05088
-3.0509
-3.05091
-3.05092
-3.05092
-3.05091
-3.0509
-3.05088
-3.05085
-3.05081
-3.05074
-3.05067
-3.05065
-3.05068
-3.05071
-3.05072
-3.05073
-3.05073
-3.05071
-3.0507
-3.05068
-3.05067
-3.05068
-3.05069
-3.0507
-3.0507
-3.05071
-3.05071
-3.05071
-3.05071
-3.0507
-3.0507
-3.0507
-3.14903
-3.14906
-3.14909
-3.14913
-3.14917
-3.14921
-3.14925
-3.14928
-3.1493
-3.14932
-3.14933
-3.14933
-3.14932
-3.1493
-3.14928
-3.14924
-3.14919
-3.14912
-3.14904
-3.14903
-3.14906
-3.14909
-3.14911
-3.14912
-3.14912
-3.14911
-3.14909
-3.14907
-3.14907
-3.14908
-3.14909
-3.1491
-3.14911
-3.14912
-3.14912
-3.14912
-3.14911
-3.14911
-3.14911
-3.1491
-3.24742
-3.24745
-3.24748
-3.24752
-3.24756
-3.2476
-3.24764
-3.24767
-3.2477
-3.24772
-3.24773
-3.24773
-3.24772
-3.2477
-3.24767
-3.24763
-3.24757
-3.24749
-3.24741
-3.2474
-3.24743
-3.24747
-3.2475
-3.24751
-3.24751
-3.2475
-3.24749
-3.24747
-3.24747
-3.24748
-3.24749
-3.2475
-3.24751
-3.24752
-3.24752
-3.24752
-3.24752
-3.24752
-3.24752
-3.2475
-3.34582
-3.34585
-3.34587
-3.34591
-3.34595
-3.34599
-3.34603
-3.34607
-3.3461
-3.34611
-3.34613
-3.34613
-3.34612
-3.3461
-3.34607
-3.34602
-3.34594
-3.34585
-3.34577
-3.34576
-3.3458
-3.34585
-3.34589
-3.3459
-3.34591
-3.3459
-3.34588
-3.34586
-3.34586
-3.34588
-3.3459
-3.34591
-3.34592
-3.34593
-3.34593
-3.34593
-3.34593
-3.34592
-3.34592
-3.34591
-3.44422
-3.44424
-3.44427
-3.4443
-3.44434
-3.44439
-3.44443
-3.44446
-3.44449
-3.44451
-3.44452
-3.44452
-3.44451
-3.44449
-3.44446
-3.4444
-3.44431
-3.44421
-3.44412
-3.44413
-3.44417
-3.44423
-3.44427
-3.44429
-3.4443
-3.44429
-3.44428
-3.44426
-3.44426
-3.44428
-3.4443
-3.44431
-3.44433
-3.44433
-3.44434
-3.44434
-3.44433
-3.44433
-3.44433
-3.4443
-3.54263
-3.54264
-3.54267
-3.5427
-3.54274
-3.54278
-3.54282
-3.54285
-3.54288
-3.5429
-3.54292
-3.54292
-3.54291
-3.54288
-3.54284
-3.54278
-3.54268
-3.54256
-3.54248
-3.54249
-3.54254
-3.54261
-3.54266
-3.54268
-3.54269
-3.54269
-3.54267
-3.54265
-3.54265
-3.54268
-3.5427
-3.54272
-3.54273
-3.54274
-3.54275
-3.54275
-3.54274
-3.54274
-3.54273
-3.5427
-3.64104
-3.64105
-3.64107
-3.6411
-3.64113
-3.64117
-3.64121
-3.64125
-3.64127
-3.6413
-3.64131
-3.64131
-3.6413
-3.64127
-3.64123
-3.64116
-3.64105
-3.64092
-3.64084
-3.64085
-3.64091
-3.64099
-3.64104
-3.64107
-3.64108
-3.64108
-3.64107
-3.64105
-3.64105
-3.64108
-3.6411
-3.64113
-3.64114
-3.64115
-3.64115
-3.64115
-3.64115
-3.64114
-3.64113
-3.6411
-3.73946
-3.73946
-3.73948
-3.7395
-3.73953
-3.73957
-3.73961
-3.73964
-3.73967
-3.73969
-3.7397
-3.7397
-3.73969
-3.73966
-3.73962
-3.73954
-3.73942
-3.73928
-3.7392
-3.73922
-3.73929
-3.73937
-3.73943
-3.73947
-3.73948
-3.73948
-3.73947
-3.73946
-3.73945
-3.73948
-3.73951
-3.73953
-3.73955
-3.73956
-3.73956
-3.73956
-3.73956
-3.73955
-3.73952
-3.73949
-3.83788
-3.83788
-3.83789
-3.83791
-3.83794
-3.83797
-3.83801
-3.83804
-3.83807
-3.83809
-3.8381
-3.8381
-3.83809
-3.83806
-3.83801
-3.83793
-3.8378
-3.83765
-3.83757
-3.83759
-3.83767
-3.83776
-3.83783
-3.83786
-3.83788
-3.83788
-3.83787
-3.83787
-3.83787
-3.83789
-3.83792
-3.83794
-3.83795
-3.83796
-3.83797
-3.83797
-3.83796
-3.83795
-3.83792
-3.83789
)
;

boundaryField
{
    floor
    {
        type            calculated;
        value           nonuniform List<scalar> 
40
(
0.0491696
0.0491909
0.049172
0.049135
0.0491001
0.0490728
0.0490518
0.0490355
0.0490231
0.0490141
0.049008
0.0490043
0.0490026
0.0490024
0.0490033
0.0490045
0.0490042
0.0490018
0.0489891
0.048999
0.0489806
0.0489627
0.0489508
0.0489487
0.0489581
0.0489798
0.0490125
0.0490509
0.0490893
0.0491221
0.0491455
0.0491584
0.0491622
0.0491601
0.0491549
0.0491521
0.0491559
0.0491683
0.0491724
0.0491436
)
;
    }
    ceiling
    {
        type            calculated;
        value           nonuniform List<scalar> 
40
(
-3.88709
-3.8871
-3.8871
-3.88712
-3.88714
-3.88718
-3.88721
-3.88724
-3.88727
-3.88729
-3.8873
-3.8873
-3.88728
-3.88726
-3.88721
-3.88712
-3.887
-3.88685
-3.88676
-3.88679
-3.88687
-3.88696
-3.88703
-3.88706
-3.88708
-3.88708
-3.88708
-3.88707
-3.88707
-3.8871
-3.88712
-3.88714
-3.88716
-3.88717
-3.88717
-3.88717
-3.88717
-3.88715
-3.88712
-3.88709
)
;
    }
    fixedWalls
    {
        type            calculated;
        value           nonuniform List<scalar> 
80
(
-6.93889e-18
-0.0983661
-0.196771
-0.295192
-0.393616
-0.49204
-0.590464
-0.688888
-0.78731
-0.885732
-0.984152
-1.08257
-1.18099
-1.27941
-1.37782
-1.47623
-1.57465
-1.67306
-1.77147
-1.86988
-1.96828
-2.06669
-2.16509
-2.26349
-2.36189
-2.46029
-2.55869
-2.65708
-2.75547
-2.85386
-2.95225
-3.05064
-3.14903
-3.24742
-3.34582
-3.44422
-3.54263
-3.64104
-3.73946
-3.83788
-4.51375e-05
-0.098437
-0.19684
-0.295245
-0.393651
-0.492056
-0.590463
-0.68887
-0.787278
-0.885686
-0.984095
-1.08251
-1.18092
-1.27933
-1.37774
-1.47615
-1.57456
-1.67298
-1.77139
-1.8698
-1.96821
-2.06663
-2.16504
-2.26345
-2.36185
-2.46026
-2.55867
-2.65708
-2.75548
-2.85389
-2.95229
-3.0507
-3.1491
-3.2475
-3.34591
-3.4443
-3.5427
-3.6411
-3.73949
-3.83789
)
;
    }
    frontAndBack
    {
        type            empty;
    }
}


// ************************************************************************* //
