/*--------------------------------*- C++ -*----------------------------------*\
| =========                 |                                                 |
| \\      /  F ield         | OpenFOAM: The Open Source CFD Toolbox           |
|  \\    /   O peration     | Version:  4.1                                   |
|   \\  /    A nd           | Web:      www.OpenFOAM.org                      |
|    \\/     M anipulation  |                                                 |
\*---------------------------------------------------------------------------*/
FoamFile
{
    version     2.0;
    format      ascii;
    class       volScalarField;
    location    "1600";
    object      T;
}
// * * * * * * * * * * * * * * * * * * * * * * * * * * * * * * * * * * * * * //

dimensions      [0 0 0 1 0 0 0];

internalField   nonuniform List<scalar> 
5000
(
286.295
285.895
285.925
286.406
286.656
286.641
286.478
286.155
285.882
285.727
285.65
285.608
285.582
285.565
285.556
285.552
285.552
285.553
285.555
285.558
285.562
285.567
285.575
285.59
285.614
285.652
285.71
285.793
285.9
286.015
286.148
286.321
286.563
286.861
287.046
286.971
286.848
286.75
286.663
286.583
286.508
286.436
286.366
286.297
286.228
286.164
286.115
286.079
286.052
286.036
286.028
286.029
286.038
286.055
286.081
286.116
286.162
286.213
286.267
286.328
286.396
286.471
286.555
286.648
286.75
286.864
286.991
287.131
287.284
287.452
287.63
287.817
288.008
288.195
288.373
288.537
288.687
288.828
288.971
289.145
289.398
289.677
289.953
289.816
286.633
285.952
285.745
285.574
285.428
285.302
285.193
285.096
285.01
284.93
284.864
284.814
284.769
284.719
284.832
285.236
285.44
284.372
284.383
284.425
284.559
284.58
284.464
284.438
284.446
284.453
284.458
284.462
284.465
284.468
284.47
284.471
284.473
284.474
284.475
284.476
284.477
284.479
284.48
284.482
284.483
284.486
284.49
284.503
284.544
284.662
284.89
285.261
285.758
286.227
286.325
285.911
285.474
285.235
285.055
284.916
284.809
284.73
284.675
284.642
284.631
284.63
284.627
284.623
284.617
284.61
284.602
284.593
284.583
284.573
284.563
284.552
284.542
284.533
284.524
284.516
284.508
284.5
284.493
284.487
284.481
284.475
284.47
284.466
284.463
284.461
284.46
284.461
284.465
284.472
284.484
284.501
284.526
284.559
284.606
284.674
284.806
285.293
286.553
287.906
287.334
285.779
284.865
284.709
284.607
284.539
284.499
284.486
284.502
284.55
284.607
284.64
284.636
284.583
284.49
284.961
285.179
284.357
284.367
284.383
284.403
284.418
284.428
284.445
284.46
284.47
284.477
284.483
284.487
284.491
284.493
284.495
284.496
284.497
284.498
284.498
284.498
284.498
284.498
284.498
284.498
284.498
284.499
284.503
284.521
284.576
284.718
285.009
285.459
285.897
285.956
285.537
285.092
284.878
284.783
284.733
284.709
284.701
284.701
284.703
284.705
284.704
284.7
284.695
284.687
284.677
284.666
284.653
284.639
284.624
284.609
284.594
284.58
284.566
284.553
284.541
284.529
284.517
284.507
284.497
284.487
284.478
284.47
284.461
284.454
284.446
284.439
284.432
284.426
284.42
284.415
284.412
284.411
284.415
284.424
284.444
284.492
284.681
285.426
286.667
287.024
286.324
285.25
284.562
284.514
284.517
284.556
284.621
284.702
284.785
284.853
284.874
284.826
284.711
284.615
284.907
285.039
284.358
284.371
284.389
284.407
284.426
284.447
284.47
284.487
284.498
284.507
284.514
284.52
284.525
284.528
284.53
284.532
284.532
284.532
284.532
284.531
284.53
284.529
284.527
284.525
284.523
284.521
284.522
284.533
284.572
284.679
284.916
285.304
285.684
285.725
285.366
284.981
284.796
284.745
284.738
284.743
284.752
284.759
284.764
284.766
284.765
284.761
284.755
284.747
284.735
284.722
284.706
284.688
284.669
284.651
284.633
284.615
284.597
284.58
284.565
284.55
284.536
284.523
284.511
284.5
284.49
284.48
284.471
284.463
284.455
284.448
284.441
284.435
284.429
284.423
284.417
284.412
284.408
284.407
284.411
284.428
284.504
284.904
285.835
286.511
286.4
285.739
285.009
284.573
284.594
284.688
284.806
284.929
285.035
285.112
285.111
285.006
284.822
284.713
284.92
284.951
284.359
284.374
284.395
284.417
284.441
284.471
284.497
284.512
284.525
284.536
284.545
284.552
284.558
284.563
284.566
284.568
284.569
284.569
284.568
284.567
284.565
284.562
284.559
284.555
284.551
284.547
284.545
284.551
284.582
284.671
284.873
285.207
285.532
285.568
285.278
284.954
284.79
284.754
284.762
284.776
284.787
284.796
284.801
284.803
284.803
284.802
284.797
284.789
284.778
284.763
284.746
284.726
284.705
284.683
284.661
284.639
284.618
284.597
284.578
284.56
284.544
284.529
284.515
284.502
284.491
284.48
284.471
284.462
284.455
284.448
284.441
284.435
284.43
284.424
284.419
284.414
284.409
284.406
284.404
284.409
284.438
284.635
285.265
285.975
286.22
285.952
285.431
284.942
284.717
284.79
284.974
285.157
285.298
285.375
285.352
285.189
284.925
284.787
284.947
284.891
284.36
284.377
284.401
284.427
284.461
284.498
284.519
284.535
284.55
284.562
284.573
284.583
284.591
284.597
284.601
284.604
284.605
284.605
284.604
284.602
284.599
284.595
284.59
284.585
284.578
284.572
284.568
284.571
284.596
284.673
284.849
285.139
285.417
285.454
285.227
284.957
284.807
284.77
284.778
284.792
284.803
284.81
284.816
284.82
284.823
284.824
284.823
284.817
284.808
284.794
284.777
284.755
284.732
284.707
284.681
284.656
284.631
284.607
284.585
284.564
284.545
284.528
284.512
284.498
284.485
284.473
284.463
284.454
284.447
284.44
284.434
284.429
284.424
284.42
284.416
284.412
284.408
284.404
284.401
284.4
284.411
284.5
284.881
285.49
285.905
285.936
285.67
285.296
285
284.914
285.007
285.244
285.541
285.612
285.587
285.383
285.032
284.831
284.995
284.847
284.361
284.38
284.408
284.44
284.487
284.519
284.539
284.556
284.572
284.587
284.6
284.612
284.622
284.629
284.635
284.639
284.641
284.641
284.639
284.637
284.632
284.627
284.621
284.613
284.605
284.597
284.59
284.591
284.612
284.68
284.835
285.086
285.325
285.369
285.196
284.973
284.833
284.787
284.787
284.797
284.805
284.81
284.815
284.821
284.828
284.834
284.837
284.836
284.829
284.817
284.799
284.777
284.751
284.724
284.695
284.666
284.637
284.61
284.585
284.562
284.541
284.521
284.504
284.488
284.474
284.462
284.451
284.442
284.434
284.427
284.422
284.417
284.414
284.41
284.408
284.405
284.402
284.399
284.396
284.395
284.398
284.435
284.64
285.092
285.542
285.761
285.721
285.515
285.276
285.126
285.112
285.246
285.455
285.67
285.765
285.589
285.161
284.863
285.084
284.812
284.363
284.384
284.416
284.455
284.51
284.535
284.556
284.575
284.593
284.61
284.626
284.64
284.652
284.661
284.669
284.673
284.675
284.675
284.674
284.67
284.664
284.657
284.649
284.639
284.629
284.62
284.612
284.611
284.628
284.688
284.825
285.044
285.252
285.302
285.175
284.992
284.861
284.806
284.794
284.797
284.8
284.804
284.809
284.817
284.828
284.839
284.846
284.848
284.844
284.833
284.816
284.792
284.765
284.734
284.702
284.67
284.638
284.608
284.581
284.555
284.532
284.51
284.492
284.475
284.46
284.446
284.435
284.425
284.417
284.411
284.405
284.402
284.399
284.397
284.396
284.395
284.393
284.392
284.391
284.389
284.39
284.404
284.503
284.795
285.194
285.5
285.622
285.579
285.448
285.323
285.267
285.314
285.443
285.607
285.758
285.772
285.327
284.887
285.225
284.785
284.366
284.39
284.425
284.486
284.524
284.549
284.572
284.593
284.614
284.633
284.652
284.668
284.682
284.693
284.701
284.706
284.709
284.708
284.706
284.701
284.693
284.684
284.674
284.663
284.651
284.64
284.631
284.629
284.644
284.698
284.819
285.01
285.191
285.247
285.158
285.011
284.892
284.828
284.804
284.798
284.797
284.798
284.804
284.815
284.829
284.843
284.854
284.859
284.856
284.846
284.827
284.802
284.772
284.738
284.703
284.668
284.633
284.601
284.571
284.544
284.519
284.496
284.476
284.458
284.442
284.428
284.416
284.406
284.397
284.391
284.386
284.383
284.381
284.38
284.381
284.381
284.382
284.382
284.383
284.382
284.383
284.389
284.433
284.599
284.9
285.215
285.43
285.515
285.498
285.439
285.396
285.41
285.489
285.616
285.754
285.805
285.526
284.91
285.266
284.763
284.369
284.397
284.436
284.506
284.537
284.564
284.588
284.612
284.635
284.658
284.679
284.697
284.713
284.725
284.733
284.738
284.74
284.738
284.734
284.728
284.719
284.708
284.695
284.682
284.669
284.657
284.649
284.646
284.66
284.708
284.815
284.981
285.141
285.201
285.144
285.028
284.922
284.855
284.821
284.806
284.8
284.8
284.806
284.819
284.836
284.852
284.865
284.87
284.868
284.856
284.835
284.807
284.773
284.736
284.698
284.66
284.623
284.589
284.557
284.528
284.502
284.478
284.457
284.438
284.421
284.407
284.394
284.384
284.375
284.368
284.364
284.361
284.36
284.36
284.362
284.365
284.367
284.37
284.372
284.374
284.375
284.378
284.398
284.483
284.683
284.953
285.201
285.366
285.443
285.461
285.46
285.48
285.541
285.645
285.769
285.826
285.614
284.976
285.219
284.745
284.373
284.405
284.469
284.518
284.551
284.58
284.607
284.633
284.659
284.685
284.707
284.727
284.743
284.755
284.763
284.766
284.767
284.764
284.758
284.75
284.739
284.726
284.711
284.696
284.682
284.671
284.663
284.661
284.674
284.718
284.813
284.958
285.099
285.162
285.129
285.043
284.952
284.886
284.845
284.824
284.814
284.813
284.82
284.833
284.851
284.868
284.879
284.883
284.878
284.863
284.838
284.806
284.769
284.728
284.687
284.646
284.608
284.572
284.539
284.509
284.482
284.457
284.435
284.415
284.398
284.383
284.37
284.359
284.35
284.343
284.339
284.337
284.336
284.338
284.341
284.345
284.35
284.355
284.359
284.363
284.366
284.369
284.379
284.42
284.539
284.743
284.978
285.182
285.324
285.409
285.459
285.505
285.572
285.67
285.784
285.839
285.644
285.035
285.121
284.732
284.377
284.416
284.493
284.534
284.568
284.599
284.628
284.658
284.686
284.713
284.737
284.757
284.772
284.782
284.788
284.789
284.787
284.782
284.774
284.765
284.752
284.738
284.721
284.705
284.691
284.681
284.675
284.675
284.688
284.728
284.813
284.939
285.063
285.127
285.115
285.053
284.979
284.918
284.877
284.852
284.84
284.838
284.845
284.858
284.874
284.889
284.897
284.897
284.887
284.867
284.837
284.8
284.758
284.714
284.67
284.627
284.587
284.55
284.517
284.486
284.458
284.433
284.41
284.39
284.372
284.356
284.343
284.331
284.323
284.316
284.312
284.31
284.31
284.313
284.317
284.323
284.33
284.337
284.344
284.35
284.355
284.36
284.366
284.387
284.454
284.594
284.792
285
285.18
285.315
285.413
285.494
285.581
285.685
285.797
285.839
285.643
285.062
284.998
284.72
284.4
284.445
284.512
284.555
284.59
284.622
284.654
284.686
284.716
284.744
284.768
284.785
284.797
284.803
284.805
284.802
284.797
284.789
284.781
284.77
284.758
284.743
284.727
284.71
284.696
284.687
284.684
284.686
284.701
284.739
284.814
284.924
285.033
285.097
285.1
285.059
285.003
284.951
284.912
284.887
284.875
284.873
284.879
284.89
284.903
284.912
284.915
284.909
284.892
284.864
284.828
284.785
284.739
284.692
284.646
284.603
284.562
284.525
284.49
284.459
284.431
284.405
284.382
284.361
284.343
284.327
284.313
284.302
284.294
284.287
284.284
284.282
284.283
284.287
284.292
284.3
284.308
284.317
284.327
284.335
284.343
284.349
284.356
284.368
284.407
284.499
284.655
284.848
285.041
285.21
285.348
285.465
285.576
285.694
285.805
285.83
285.612
285.052
284.903
284.709
284.45
284.493
284.544
284.583
284.617
284.65
284.684
284.717
284.748
284.775
284.796
284.809
284.815
284.814
284.809
284.802
284.793
284.784
284.774
284.764
284.754
284.741
284.727
284.711
284.698
284.691
284.692
284.698
284.714
284.75
284.817
284.912
285.008
285.07
285.083
285.06
285.02
284.98
284.947
284.924
284.913
284.911
284.916
284.924
284.931
284.934
284.929
284.914
284.889
284.853
284.81
284.762
284.713
284.664
284.617
284.573
284.533
284.495
284.461
284.429
284.4
284.374
284.35
284.329
284.311
284.295
284.282
284.271
284.263
284.257
284.254
284.254
284.255
284.26
284.266
284.275
284.285
284.297
284.308
284.319
284.329
284.338
284.345
284.355
284.38
284.443
284.563
284.735
284.93
285.118
285.286
285.433
285.57
285.702
285.811
285.81
285.556
285.012
284.834
284.697
284.523
284.553
284.586
284.618
284.65
284.683
284.718
284.751
284.781
284.804
284.818
284.822
284.819
284.81
284.798
284.785
284.773
284.762
284.753
284.746
284.74
284.732
284.722
284.709
284.698
284.694
284.698
284.708
284.726
284.761
284.821
284.903
284.987
285.045
285.066
285.058
285.032
285.003
284.977
284.959
284.949
284.947
284.95
284.953
284.954
284.949
284.935
284.91
284.875
284.832
284.782
284.73
284.679
284.63
284.583
284.54
284.5
284.463
284.428
284.396
284.366
284.34
284.316
284.295
284.277
284.262
284.25
284.24
284.232
284.227
284.225
284.225
284.228
284.233
284.241
284.251
284.262
284.276
284.289
284.303
284.315
284.326
284.335
284.345
284.364
284.411
284.508
284.661
284.852
285.052
285.241
285.413
285.57
285.712
285.811
285.775
285.479
284.947
284.775
284.684
284.619
284.615
284.63
284.655
284.686
284.72
284.755
284.787
284.811
284.826
284.829
284.821
284.806
284.788
284.769
284.751
284.736
284.724
284.717
284.714
284.713
284.712
284.71
284.704
284.696
284.694
284.702
284.717
284.738
284.772
284.826
284.897
284.969
285.023
285.049
285.05
285.037
285.018
285
284.987
284.979
284.975
284.975
284.973
284.967
284.952
284.928
284.893
284.848
284.798
284.744
284.69
284.639
284.591
284.546
284.504
284.464
284.426
284.391
284.359
284.329
284.303
284.28
284.26
284.243
284.229
284.217
284.208
284.202
284.198
284.197
284.198
284.202
284.208
284.216
284.227
284.241
284.256
284.271
284.287
284.301
284.314
284.325
284.336
284.353
284.392
284.476
284.619
284.807
285.014
285.219
285.408
285.578
285.723
285.802
285.722
285.383
284.858
284.718
284.669
284.643
284.646
284.665
284.693
284.727
284.762
284.795
284.82
284.834
284.834
284.822
284.801
284.775
284.748
284.722
284.7
284.683
284.671
284.666
284.666
284.671
284.679
284.687
284.692
284.691
284.691
284.703
284.723
284.749
284.783
284.831
284.892
284.954
285.003
285.031
285.039
285.035
285.025
285.013
285.004
284.997
284.992
284.987
284.979
284.964
284.939
284.904
284.858
284.807
284.752
284.697
284.645
284.597
284.551
284.507
284.465
284.425
284.386
284.351
284.318
284.289
284.264
284.242
284.224
284.208
284.195
284.185
284.178
284.173
284.171
284.171
284.173
284.178
284.185
284.195
284.207
284.221
284.238
284.255
284.272
284.289
284.304
284.317
284.328
284.344
284.38
284.459
284.599
284.789
285.003
285.218
285.418
285.594
285.73
285.778
285.647
285.272
284.759
284.673
284.625
284.643
284.671
284.704
284.739
284.775
284.807
284.832
284.844
284.841
284.823
284.795
284.761
284.726
284.693
284.662
284.637
284.618
284.605
284.601
284.604
284.615
284.631
284.651
284.669
284.68
284.686
284.698
284.724
284.755
284.79
284.834
284.887
284.94
284.984
285.012
285.025
285.027
285.023
285.016
285.009
285.002
284.994
284.983
284.967
284.941
284.905
284.86
284.807
284.752
284.698
284.647
284.599
284.554
284.51
284.466
284.423
284.382
284.343
284.307
284.276
284.248
284.225
284.205
284.188
284.175
284.164
284.156
284.15
284.147
284.146
284.148
284.151
284.157
284.166
284.176
284.189
284.205
284.222
284.241
284.26
284.278
284.294
284.309
284.322
284.338
284.371
284.45
284.592
284.789
285.011
285.233
285.437
285.609
285.725
285.732
285.549
285.15
284.669
284.636
284.624
284.678
284.723
284.762
284.796
284.826
284.847
284.856
284.849
284.824
284.789
284.749
284.708
284.667
284.629
284.595
284.567
284.546
284.532
284.527
284.532
284.546
284.569
284.599
284.631
284.66
284.677
284.689
284.716
284.753
284.792
284.834
284.881
284.927
284.965
284.992
285.007
285.013
285.013
285.008
285.001
284.992
284.978
284.959
284.931
284.895
284.85
284.798
284.744
284.692
284.644
284.599
284.556
284.512
284.467
284.422
284.377
284.335
284.296
284.262
284.232
284.207
284.186
284.169
284.155
284.144
284.135
284.129
284.126
284.124
284.125
284.128
284.133
284.14
284.15
284.161
284.176
284.192
284.21
284.23
284.25
284.269
284.287
284.302
284.316
284.332
284.365
284.444
284.592
284.799
285.03
285.256
285.456
285.614
285.701
285.661
285.431
285.025
284.587
284.604
284.653
284.742
284.792
284.826
284.852
284.867
284.871
284.857
284.827
284.787
284.741
284.693
284.647
284.603
284.561
284.525
284.495
284.473
284.458
284.452
284.457
284.471
284.497
284.533
284.577
284.623
284.66
284.68
284.702
284.74
284.783
284.826
284.87
284.91
284.944
284.969
284.985
284.992
284.992
284.988
284.979
284.964
284.943
284.914
284.875
284.829
284.779
284.728
284.681
284.637
284.597
284.558
284.515
284.469
284.42
284.372
284.326
284.284
284.248
284.216
284.19
284.168
284.15
284.136
284.125
284.116
284.11
284.106
284.104
284.105
284.107
284.112
284.119
284.127
284.138
284.151
284.166
284.183
284.202
284.222
284.242
284.262
284.281
284.297
284.312
284.328
284.36
284.438
284.593
284.811
285.05
285.275
285.465
285.601
285.651
285.562
285.298
284.902
284.514
284.578
284.684
284.805
284.854
284.878
284.889
284.886
284.866
284.833
284.788
284.737
284.684
284.632
284.583
284.537
284.495
284.458
284.427
284.404
284.388
284.381
284.384
284.398
284.423
284.46
284.51
284.568
284.627
284.668
284.69
284.721
284.763
284.807
284.849
284.887
284.918
284.94
284.955
284.961
284.96
284.953
284.94
284.919
284.89
284.852
284.806
284.757
284.711
284.668
284.631
284.597
284.561
284.519
284.471
284.419
284.367
284.317
284.272
284.233
284.2
284.172
284.15
284.132
284.118
284.107
284.099
284.093
284.089
284.087
284.087
284.089
284.093
284.099
284.108
284.118
284.13
284.144
284.16
284.177
284.196
284.216
284.237
284.257
284.276
284.293
284.308
284.325
284.355
284.431
284.59
284.817
285.06
285.28
285.455
285.562
285.571
285.44
285.157
284.785
284.448
284.556
284.711
284.856
284.899
284.908
284.901
284.878
284.842
284.795
284.74
284.683
284.626
284.572
284.522
284.476
284.435
284.398
284.367
284.343
284.327
284.319
284.321
284.332
284.354
284.389
284.437
284.5
284.573
284.641
284.681
284.706
284.739
284.778
284.818
284.853
284.881
284.902
284.914
284.918
284.915
284.904
284.885
284.859
284.824
284.784
284.741
284.698
284.661
284.63
284.6
284.566
284.524
284.473
284.417
284.361
284.308
284.26
284.218
284.184
284.155
284.132
284.114
284.101
284.09
284.082
284.077
284.073
284.071
284.071
284.072
284.076
284.082
284.09
284.1
284.112
284.125
284.14
284.157
284.175
284.194
284.214
284.234
284.254
284.273
284.29
284.306
284.322
284.35
284.423
284.581
284.812
285.055
285.264
285.417
285.493
285.462
285.299
285.014
284.677
284.391
284.539
284.738
284.891
284.921
284.916
284.893
284.856
284.807
284.75
284.69
284.629
284.57
284.516
284.467
284.422
284.383
284.347
284.317
284.293
284.277
284.269
284.269
284.277
284.296
284.326
284.369
284.428
284.503
284.588
284.655
284.692
284.718
284.749
284.782
284.812
284.837
284.854
284.864
284.865
284.859
284.844
284.822
284.794
284.761
284.725
284.69
284.659
284.632
284.606
284.573
284.529
284.474
284.414
284.354
284.297
284.247
284.203
284.167
284.138
284.115
284.097
284.083
284.074
284.067
284.062
284.059
284.057
284.057
284.058
284.061
284.066
284.073
284.083
284.094
284.108
284.123
284.139
284.156
284.174
284.193
284.213
284.232
284.252
284.271
284.288
284.303
284.319
284.345
284.413
284.565
284.794
285.027
285.22
285.35
285.394
285.331
285.15
284.876
284.579
284.341
284.525
284.758
284.909
284.929
284.911
284.875
284.826
284.768
284.705
284.641
284.579
284.521
284.468
284.42
284.377
284.34
284.305
284.276
284.253
284.237
284.229
284.228
284.236
284.251
284.276
284.312
284.363
284.432
284.519
284.604
284.665
284.701
284.726
284.75
284.773
284.792
284.805
284.811
284.81
284.801
284.785
284.764
284.738
284.711
284.683
284.658
284.635
284.611
284.58
284.534
284.475
284.41
284.346
284.286
284.233
284.188
284.151
284.121
284.097
284.08
284.066
284.057
284.051
284.047
284.045
284.044
284.044
284.045
284.047
284.051
284.057
284.066
284.077
284.09
284.105
284.122
284.139
284.157
284.175
284.194
284.213
284.232
284.251
284.27
284.286
284.301
284.316
284.34
284.403
284.548
284.76
284.975
285.149
285.254
285.271
285.184
284.999
284.749
284.494
284.299
284.515
284.77
284.917
284.929
284.9
284.853
284.795
284.73
284.663
284.597
284.535
284.478
284.428
284.382
284.342
284.306
284.273
284.245
284.223
284.207
284.199
284.199
284.207
284.22
284.241
284.27
284.311
284.37
284.449
284.54
284.621
284.676
284.707
284.727
284.744
284.756
284.764
284.766
284.763
284.753
284.738
284.72
284.7
284.679
284.659
284.639
284.616
284.585
284.538
284.475
284.405
284.336
284.273
284.218
284.172
284.134
284.104
284.08
284.062
284.049
284.04
284.034
284.031
284.03
284.03
284.031
284.032
284.035
284.038
284.043
284.05
284.06
284.073
284.087
284.104
284.122
284.14
284.158
284.177
284.195
284.214
284.233
284.251
284.269
284.285
284.299
284.313
284.336
284.395
284.524
284.712
284.903
285.055
285.137
285.132
285.033
284.855
284.634
284.421
284.263
284.509
284.776
284.921
284.925
284.886
284.83
284.765
284.695
284.625
284.559
284.498
284.444
284.396
284.353
284.315
284.28
284.249
284.222
284.2
284.185
284.179
284.18
284.189
284.202
284.22
284.243
284.276
284.323
284.39
284.477
284.568
284.64
284.685
284.711
284.725
284.733
284.737
284.736
284.73
284.721
284.708
284.694
284.678
284.662
284.643
284.621
284.59
284.542
284.474
284.399
284.326
284.26
284.203
284.156
284.118
284.087
284.063
284.045
284.032
284.022
284.017
284.014
284.013
284.015
284.017
284.02
284.023
284.026
284.03
284.036
284.045
284.055
284.069
284.085
284.103
284.122
284.141
284.16
284.179
284.197
284.215
284.233
284.251
284.268
284.283
284.297
284.31
284.332
284.385
284.495
284.655
284.819
284.946
285.008
284.987
284.886
284.723
284.535
284.359
284.234
284.505
284.776
284.922
284.919
284.873
284.809
284.737
284.664
284.593
284.528
284.47
284.418
284.373
284.332
284.295
284.261
284.231
284.204
284.183
284.17
284.165
284.169
284.18
284.195
284.212
284.231
284.256
284.293
284.347
284.426
284.517
284.6
284.659
284.694
284.712
284.72
284.722
284.719
284.713
284.704
284.693
284.68
284.666
284.648
284.625
284.592
284.544
284.473
284.391
284.313
284.245
284.187
284.139
284.101
284.07
284.046
284.028
284.014
284.004
283.999
283.996
283.996
283.998
284.001
284.005
284.009
284.014
284.018
284.024
284.03
284.039
284.051
284.066
284.083
284.102
284.122
284.142
284.161
284.18
284.198
284.216
284.234
284.251
284.267
284.281
284.294
284.307
284.327
284.373
284.464
284.595
284.73
284.833
284.877
284.847
284.75
284.608
284.452
284.308
284.209
284.503
284.774
284.922
284.914
284.86
284.79
284.713
284.638
284.567
284.504
284.449
284.4
284.357
284.318
284.281
284.248
284.218
284.191
284.171
284.159
284.157
284.164
284.179
284.197
284.214
284.231
284.25
284.278
284.32
284.389
284.476
284.563
284.631
284.676
284.7
284.711
284.714
284.711
284.705
284.696
284.684
284.67
284.653
284.628
284.593
284.543
284.471
284.381
284.298
284.228
284.169
284.122
284.084
284.054
284.029
284.011
283.997
283.987
283.98
283.977
283.977
283.979
283.983
283.989
283.994
284
284.005
284.011
284.017
284.025
284.034
284.047
284.062
284.08
284.1
284.121
284.142
284.162
284.181
284.199
284.217
284.234
284.25
284.265
284.279
284.291
284.304
284.322
284.36
284.433
284.536
284.643
284.723
284.752
284.719
284.631
284.511
284.383
284.267
284.189
284.504
284.769
284.921
284.908
284.849
284.773
284.693
284.616
284.547
284.486
284.434
284.388
284.347
284.309
284.273
284.24
284.209
284.182
284.163
284.152
284.153
284.165
284.184
284.206
284.226
284.242
284.256
284.276
284.309
284.369
284.449
284.535
284.608
284.659
284.689
284.704
284.708
284.706
284.699
284.689
284.675
284.656
284.63
284.593
284.54
284.465
284.368
284.28
284.209
284.151
284.104
284.067
284.037
284.013
283.994
283.98
283.97
283.963
283.96
283.959
283.961
283.965
283.971
283.977
283.984
283.991
283.997
284.003
284.01
284.019
284.029
284.042
284.059
284.077
284.098
284.119
284.142
284.162
284.182
284.2
284.217
284.234
284.249
284.263
284.276
284.288
284.299
284.316
284.347
284.403
284.482
284.564
284.623
284.64
284.607
284.53
284.431
284.328
284.233
284.173
284.506
284.761
284.919
284.904
284.839
284.759
284.677
284.6
284.533
284.475
284.426
284.383
284.343
284.306
284.27
284.235
284.203
284.176
284.157
284.148
284.152
284.169
284.194
284.221
284.244
284.26
284.272
284.286
284.312
284.364
284.438
284.52
284.592
284.646
284.679
284.696
284.702
284.699
284.691
284.678
284.658
284.63
284.589
284.533
284.455
284.355
284.259
284.187
284.131
284.086
284.05
284.021
283.997
283.978
283.964
283.953
283.947
283.943
283.942
283.944
283.948
283.953
283.96
283.967
283.975
283.982
283.989
283.996
284.004
284.013
284.024
284.039
284.057
284.076
284.097
284.118
284.14
284.161
284.181
284.199
284.216
284.232
284.247
284.261
284.273
284.284
284.294
284.309
284.334
284.377
284.435
284.494
284.536
284.544
284.513
284.448
284.367
284.284
284.206
284.16
284.509
284.752
284.917
284.901
284.832
284.748
284.665
284.589
284.524
284.47
284.424
284.383
284.345
284.307
284.271
284.235
284.201
284.173
284.153
284.146
284.153
284.175
284.207
284.239
284.266
284.285
284.297
284.309
284.332
284.378
284.444
284.517
284.585
284.636
284.669
284.687
284.692
284.687
284.676
284.656
284.628
284.585
284.521
284.439
284.336
284.233
284.163
284.11
284.068
284.033
284.005
283.981
283.963
283.949
283.939
283.932
283.929
283.928
283.929
283.932
283.937
283.944
283.951
283.959
283.967
283.975
283.982
283.99
283.999
284.009
284.022
284.037
284.054
284.074
284.094
284.116
284.138
284.159
284.178
284.197
284.214
284.229
284.244
284.257
284.268
284.279
284.289
284.301
284.321
284.353
284.394
284.436
284.463
284.464
284.436
284.383
284.316
284.248
284.184
284.149
284.513
284.74
284.916
284.899
284.826
284.741
284.657
284.583
284.521
284.47
284.427
284.388
284.351
284.313
284.275
284.237
284.202
284.172
284.151
284.144
284.154
284.181
284.219
284.258
284.29
284.313
284.328
284.342
284.365
284.406
284.462
284.525
284.584
284.629
284.659
284.673
284.675
284.667
284.648
284.619
284.577
284.515
284.416
284.309
284.204
284.137
284.089
284.05
284.017
283.989
283.966
283.949
283.935
283.926
283.919
283.916
283.915
283.917
283.919
283.924
283.93
283.936
283.944
283.952
283.96
283.968
283.976
283.985
283.994
284.005
284.019
284.034
284.051
284.071
284.092
284.113
284.135
284.155
284.175
284.193
284.21
284.225
284.239
284.252
284.263
284.273
284.282
284.293
284.308
284.331
284.36
284.387
284.403
284.4
284.375
284.331
284.277
284.22
284.165
284.14
284.517
284.725
284.914
284.899
284.824
284.736
284.653
284.581
284.523
284.475
284.435
284.398
284.362
284.324
284.284
284.244
284.205
284.172
284.15
284.142
284.154
284.184
284.227
284.273
284.313
284.342
284.363
284.382
284.406
284.441
284.488
284.539
284.586
284.623
284.645
284.653
284.648
284.631
284.601
284.557
284.496
284.41
284.28
284.171
284.111
284.07
284.033
284.001
283.974
283.953
283.936
283.923
283.914
283.909
283.906
283.905
283.906
283.909
283.913
283.918
283.924
283.931
283.938
283.946
283.954
283.962
283.97
283.98
283.99
284.002
284.016
284.031
284.049
284.068
284.089
284.11
284.131
284.151
284.17
284.188
284.205
284.22
284.233
284.246
284.256
284.265
284.274
284.283
284.295
284.311
284.33
284.347
284.356
284.349
284.327
284.29
284.245
284.196
284.149
284.132
284.523
284.707
284.912
284.901
284.824
284.735
284.653
284.584
284.529
284.486
284.449
284.414
284.378
284.339
284.297
284.254
284.212
284.175
284.149
284.139
284.15
284.182
284.23
284.283
284.33
284.368
284.397
284.421
284.446
284.475
284.512
284.55
284.585
284.61
284.622
284.62
284.603
284.573
284.526
284.462
284.378
284.273
284.162
284.09
284.052
284.017
283.986
283.961
283.94
283.924
283.912
283.904
283.9
283.897
283.897
283.898
283.901
283.905
283.91
283.915
283.921
283.927
283.934
283.942
283.949
283.958
283.967
283.976
283.988
284
284.014
284.03
284.047
284.066
284.086
284.106
284.127
284.146
284.165
284.183
284.199
284.213
284.227
284.238
284.248
284.257
284.265
284.273
284.282
284.293
284.305
284.315
284.317
284.309
284.289
284.258
284.22
284.177
284.135
284.125
284.528
284.684
284.909
284.904
284.828
284.739
284.657
284.592
284.541
284.501
284.467
284.434
284.399
284.359
284.315
284.268
284.222
284.181
284.15
284.136
284.143
284.175
284.224
284.281
284.336
284.381
284.417
284.447
284.472
284.496
284.523
284.549
284.57
284.581
284.58
284.563
284.532
284.483
284.418
284.336
284.241
284.148
284.078
284.035
284.002
283.973
283.948
283.929
283.914
283.903
283.896
283.892
283.891
283.891
283.892
283.895
283.899
283.903
283.908
283.913
283.919
283.926
283.932
283.94
283.947
283.956
283.965
283.976
283.987
284
284.014
284.03
284.047
284.065
284.084
284.103
284.122
284.141
284.159
284.176
284.192
284.206
284.218
284.23
284.239
284.248
284.255
284.262
284.269
284.276
284.283
284.287
284.286
284.276
284.258
284.231
284.198
284.159
284.122
284.119
284.533
284.655
284.905
284.91
284.836
284.747
284.667
284.604
284.557
284.521
284.491
284.46
284.426
284.385
284.338
284.287
284.236
284.19
284.153
284.132
284.133
284.16
284.208
284.266
284.324
284.375
284.416
284.449
284.474
284.494
284.511
284.525
284.532
284.528
284.51
284.478
284.429
284.366
284.289
284.205
284.126
284.064
284.018
283.987
283.96
283.938
283.92
283.906
283.896
283.89
283.886
283.885
283.886
283.888
283.89
283.894
283.898
283.903
283.908
283.914
283.92
283.926
283.933
283.94
283.948
283.957
283.967
283.977
283.989
284.002
284.015
284.031
284.047
284.064
284.082
284.1
284.118
284.136
284.153
284.169
284.184
284.197
284.209
284.22
284.229
284.237
284.243
284.249
284.254
284.259
284.262
284.263
284.259
284.249
284.232
284.208
284.179
284.144
284.11
284.113
284.538
284.623
284.897
284.918
284.848
284.761
284.682
284.62
284.577
284.546
284.519
284.492
284.459
284.417
284.367
284.311
284.255
284.203
284.16
284.13
284.122
284.14
284.182
284.238
284.295
284.346
284.388
284.421
284.444
284.459
284.468
284.47
284.463
284.444
284.412
284.366
284.308
284.239
284.168
284.102
284.047
284.005
283.974
283.949
283.928
283.911
283.899
283.89
283.884
283.881
283.881
283.882
283.884
283.887
283.891
283.895
283.9
283.905
283.911
283.916
283.923
283.929
283.936
283.944
283.952
283.961
283.97
283.981
283.992
284.004
284.018
284.032
284.047
284.063
284.08
284.097
284.114
284.13
284.146
284.161
284.175
284.187
284.199
284.209
284.217
284.225
284.23
284.235
284.239
284.242
284.243
284.241
284.235
284.225
284.209
284.187
284.161
284.129
284.099