/*--------------------------------*- C++ -*----------------------------------*\
| =========                 |                                                 |
| \\      /  F ield         | OpenFOAM: The Open Source CFD Toolbox           |
|  \\    /   O peration     | Version:  4.1                                   |
|   \\  /    A nd           | Web:      www.OpenFOAM.org                      |
|    \\/     M anipulation  |                                                 |
\*---------------------------------------------------------------------------*/
FoamFile
{
    version     2.0;
    format      ascii;
    class       volScalarField;
    location    "1600";
    object      T;
}
// * * * * * * * * * * * * * * * * * * * * * * * * * * * * * * * * * * * * * //

dimensions      [0 0 0 1 0 0 0];

internalField   nonuniform List<scalar> 
1600
(
288.611
286.566
286.626
286.745
286.887
287.048
287.232
287.439
287.662
287.888
288.118
288.355
288.602
288.864
289.147
289.457
289.799
290.221
290.757
290.51
290.465
290.287
290.033
289.638
289.122
288.56
288.008
287.477
287.094
286.874
286.784
286.802
286.923
287.14
287.396
287.458
287.11
286.404
286.1
286.779
286.336
285.752
285.588
285.53
285.505
285.494
285.492
285.496
285.511
285.547
285.609
285.697
285.817
285.97
286.163
286.352
286.74
288.323
288.62
286.456
286.716
287.211
287.518
287.479
287.107
286.554
286.008
285.647
285.458
285.351
285.279
285.222
285.173
285.136
285.122
285.13
285.15
285.196
285.239
286.125
285.226
285.23
285.239
285.248
285.257
285.264
285.272
285.28
285.29
285.303
285.322
285.35
285.392
285.453
285.544
285.659
285.957
287.516
287.815
285.758
285.835
286.082
286.287
286.3
286.093
285.783
285.531
285.422
285.382
285.356
285.329
285.297
285.252
285.196
285.154
285.146
285.171
285.216
285.256
285.918
285.161
285.183
285.197
285.206
285.21
285.213
285.215
285.217
285.219
285.223
285.231
285.245
285.265
285.297
285.347
285.424
285.648
287.056
287.408
285.545
285.533
285.625
285.704
285.694
285.583
285.447
285.384
285.388
285.388
285.38
285.367
285.353
285.333
285.288
285.228
285.198
285.214
285.242
285.272
285.817
285.164
285.197
285.216
285.226
285.23
285.231
285.231
285.23
285.228
285.226
285.226
285.228
285.234
285.248
285.276
285.327
285.497
286.754
287.17
285.46
285.433
285.469
285.497
285.49
285.454
285.428
285.428
285.425
285.414
285.397
285.379
285.368
285.363
285.349
285.311
285.269
285.26
285.269
285.287
285.753
285.168
285.213
285.236
285.247
285.251
285.251
285.25
285.247
285.244
285.241
285.238
285.235
285.234
285.238
285.251
285.284
285.414
286.539
287.017
285.422
285.404
285.428
285.446
285.45
285.447
285.448
285.448
285.44
285.424
285.4
285.376
285.361
285.36
285.364
285.356
285.331
285.308
285.299
285.302
285.707
285.171
285.228
285.256
285.268
285.271
285.269
285.266
285.261
285.256
285.252
285.248
285.244
285.24
285.239
285.244
285.264
285.365
286.377
286.913
285.403
285.4
285.426
285.445
285.456
285.462
285.466
285.465
285.454
285.432
285.4
285.37
285.353
285.349
285.355
285.363
285.359
285.343
285.326
285.316
285.671
285.174
285.243
285.275
285.287
285.289
285.285
285.279
285.272
285.265
285.259
285.253
285.249
285.244
285.242
285.242
285.254
285.334
286.251
286.836
285.405
285.402
285.434
285.457
285.471
285.479
285.484
285.482
285.468
285.439
285.399
285.364
285.345
285.339
285.342
285.353
285.362
285.358
285.344
285.328
285.641
285.177
285.257
285.292
285.304
285.304
285.298
285.289
285.279
285.269
285.261
285.254
285.249
285.245
285.242
285.242
285.249
285.314
286.148
286.763
285.451
285.407
285.444
285.469
285.485
285.495
285.5
285.498
285.482
285.445
285.397
285.358
285.338
285.329
285.329
285.339
285.353
285.361
285.354
285.336
285.615
285.18
285.27
285.309
285.32
285.318
285.308
285.296
285.282
285.27
285.259
285.251
285.246
285.242
285.241
285.24
285.246
285.299
286.064
286.694
285.508
285.411
285.452
285.48
285.497
285.509
285.516
285.514
285.494
285.448
285.393
285.353
285.331
285.32
285.317
285.325
285.341
285.355
285.357
285.342
285.593
285.183
285.282
285.324
285.334
285.329
285.316
285.3
285.283
285.267
285.254
285.245
285.239
285.236
285.236
285.238
285.243
285.289
285.993
286.629
285.564
285.414
285.459
285.488
285.507
285.52
285.529
285.53
285.505
285.449
285.388
285.347
285.323
285.311
285.307
285.312
285.327
285.345
285.354
285.344
285.573
285.185
285.293
285.337
285.347
285.339
285.322
285.302
285.282
285.263
285.247
285.235
285.229
285.227
285.229
285.233
285.239
285.28
285.932
286.569
285.614
285.416
285.463
285.494
285.514
285.529
285.541
285.545
285.513
285.447
285.383
285.34
285.314
285.302
285.297
285.301
285.315
285.334
285.349
285.345
285.554
285.188
285.304
285.35
285.358
285.347
285.327
285.303
285.279
285.256
285.237
285.224
285.216
285.215
285.22
285.226
285.235
285.273
285.879
286.512
285.658
285.417
285.466
285.498
285.518
285.535
285.553
285.559
285.517
285.444
285.378
285.331
285.305
285.293
285.289
285.291
285.303
285.323
285.342
285.343
285.538
285.19
285.313
285.361
285.368
285.354
285.331
285.303
285.274
285.248
285.226
285.211
285.202
285.202
285.208
285.218
285.23
285.267
285.832
286.458
285.695
285.416
285.468
285.499
285.52
285.54
285.565
285.573
285.518
285.44
285.371
285.322
285.297
285.286
285.281
285.282
285.293
285.313
285.335
285.341
285.523
285.193
285.322
285.372
285.377
285.361
285.333
285.301
285.269
285.239
285.214
285.196
285.187
285.187
285.196
285.209
285.224
285.261
285.791
286.409
285.726
285.415
285.467
285.499
285.519
285.543
285.58
285.582
285.515
285.435
285.362
285.312
285.288
285.279
285.275
285.275
285.283
285.303
285.328
285.338
285.509
285.195
285.329
285.381
285.386
285.366
285.335
285.299
285.263
285.229
285.202
285.182
285.172
285.172
285.182
285.199
285.217
285.255
285.755
286.363
285.751
285.413
285.465
285.496
285.516
285.546
285.597
285.588
285.512
285.427
285.351
285.301
285.28
285.275
285.271
285.27
285.276
285.295
285.321
285.335
285.497
285.197
285.336
285.39
285.393
285.372
285.337
285.297
285.256
285.22
285.19
285.168
285.156
285.157
285.168
285.188
285.21
285.249
285.723
286.32
285.772
285.41
285.462
285.491
285.511
285.549
285.616
285.588
285.508
285.418
285.339
285.29
285.274
285.272
285.27
285.267
285.271
285.288
285.316
285.332
285.487
285.2
285.342
285.398
285.401
285.377
285.339
285.295
285.25
285.211
285.179
285.155
285.142
285.142
285.154
285.177
285.202
285.243
285.694
286.281
285.788
285.407
285.458
285.484
285.505
285.554
285.632
285.587
285.501
285.407
285.326
285.28
285.269
285.272
285.271
285.266
285.267
285.283
285.311
285.329
285.477
285.202
285.348
285.405
285.408
285.383
285.341
285.293
285.245
285.203
285.169
285.144
285.129
285.128
285.141
285.166
285.195
285.238
285.668
286.245
285.801
285.404
285.452
285.476
285.5
285.567
285.641
285.585
285.492
285.394
285.313
285.27
285.265
285.275
285.275
285.268
285.266
285.28
285.308
285.327
285.469
285.204
285.353
285.412
285.416
285.389
285.345
285.293
285.241
285.196
285.162
285.135
285.118
285.116
285.129
285.155
285.187
285.233
285.645
286.212
285.81
285.401
285.445
285.467
285.496
285.591
285.646
285.581
285.481
285.38
285.299
285.26
285.264
285.28
285.282
285.271
285.266
285.278
285.305
285.325
285.462
285.206
285.357
285.419
285.423
285.396
285.35
285.294
285.239
285.192
285.157
285.129
285.11
285.106
285.119
285.146
285.18
285.228
285.626
286.182
285.817
285.398
285.438
285.457
285.491
285.621
285.648
285.574
285.468
285.365
285.285
285.252
285.265
285.288
285.291
285.276
285.267
285.277
285.304
285.323
285.456
285.208
285.361
285.425
285.431
285.404
285.356
285.298
285.239
285.189
285.154
285.126
285.104
285.098
285.11
285.138
285.174
285.223
285.608
286.155
285.823
285.397
285.429
285.447
285.488
285.644
285.649
285.566
285.453
285.35
285.272
285.246
285.269
285.297
285.299
285.282
285.269
285.277
285.304
285.322
285.451
285.21
285.365
285.431
285.44
285.413
285.365
285.304
285.242
285.19
285.154
285.126
285.1
285.092
285.104
285.132
285.168
285.22
285.594
286.13
285.828
285.398
285.42
285.438
285.494
285.654
285.649
285.556
285.438
285.334
285.259
285.241
285.274
285.307
285.306
285.285
285.27
285.279
285.305
285.321
285.447
285.21
285.368
285.437
285.448
285.424
285.376
285.313
285.249
285.194
285.156
285.13
285.097
285.088
285.1
285.128
285.164
285.217
285.582
286.108
285.832
285.403
285.412
285.43
285.519
285.658
285.647
285.546
285.422
285.319
285.247
285.238
285.281
285.314
285.309
285.286
285.272
285.281
285.307
285.32
285.443
285.21
285.371
285.444
285.458
285.436
285.388
285.327
285.26
285.202
285.162
285.136
285.102
285.088
285.099
285.126
285.162
285.215
285.573
286.089
285.836
285.412
285.405
285.424
285.552
285.664
285.644
285.534
285.406
285.305
285.237
285.237
285.288
285.319
285.308
285.283
285.274
285.286
285.31
285.319
285.441
285.21
285.374
285.451
285.47
285.45
285.404
285.343
285.276
285.215
285.171
285.142
285.114
285.093
285.101
285.127
285.162
285.215
285.568
286.073
285.839
285.428
285.402
285.427
285.575
285.67
285.642
285.523
285.391
285.292
285.229
285.236
285.295
285.319
285.307
285.286
285.28
285.292
285.313
285.317
285.439
285.208
285.375
285.459
285.482
285.467
285.424
285.364
285.296
285.233
285.184
285.152
285.127
285.106
285.108
285.13
285.163
285.216
285.567
286.061
285.841
285.45
285.404
285.442
285.591
285.676
285.639
285.511
285.376
285.281
285.222
285.237
285.299
285.318
285.309
285.294
285.288
285.298
285.315
285.315
285.437
285.205
285.376
285.466
285.496
285.486
285.448
285.39
285.323
285.257
285.203
285.165
285.141
285.123
285.12
285.137
285.166
285.224
285.567
286.051
285.844
285.478
285.417
285.469
285.608
285.683
285.636
285.501
285.362
285.272
285.217
285.238
285.298
285.316
285.312
285.302
285.297
285.304
285.316
285.311
285.435
285.2
285.375
285.473
285.511
285.508
285.476
285.422
285.357
285.289
285.229
285.185
285.158
285.141
285.136
285.147
285.175
285.245
285.574
286.042
285.846
285.51
285.442
285.503
285.629
285.691
285.635
285.492
285.35
285.264
285.214
285.238
285.293
285.313
285.314
285.309
285.304
285.309
285.314
285.306
285.434
285.194
285.372
285.478
285.526
285.532
285.507
285.46
285.398
285.331
285.266
285.214
285.181
285.164
285.156
285.164
285.194
285.278
285.586
286.033
285.847
285.544
285.478
285.542
285.653
285.7
285.633
285.484
285.339
285.258
285.213
285.236
285.286
285.309
285.314
285.312
285.309
285.31
285.311
285.298
285.432
285.185
285.366
285.482
285.54
285.557
285.541
285.502
285.447
285.383
285.318
285.26
285.218
285.197
285.187
285.194
285.228
285.326
285.606
286.024
285.848
285.581
285.523
285.585
285.679
285.709
285.633
285.478
285.329
285.254
285.214
285.231
285.276
285.302
285.311
285.312
285.31
285.308
285.304
285.288
285.431
285.172
285.356
285.483
285.553
285.581
285.577
285.549
285.502
285.445
285.383
285.324
285.275
285.248
285.235
285.242
285.281
285.385
285.634
286.014
285.85
285.618
285.572
285.629
285.705
285.719
285.633
285.473
285.32
285.252
285.216
285.225
285.263
285.292
285.304
285.307
285.305
285.302
285.293
285.275
285.43
285.156
285.34
285.479
285.562
285.604
285.613
285.597
285.562
285.514
285.459
285.404
285.354
285.322
285.307
285.314
285.354
285.455
285.668
286.004
285.851
285.655
285.622
285.673
285.731
285.728
285.635
285.469
285.311
285.249
285.222
285.219
285.248
285.277
285.293
285.298
285.296
285.291
285.278
285.263
285.428
285.135
285.317
285.468
285.566
285.623
285.647
285.645
285.623
285.587
285.543
285.496
285.451
285.418
285.402
285.407
285.444
285.532
285.708
285.994
285.853
285.692
285.672
285.715
285.756
285.737
285.637
285.467
285.303
285.247
285.229
285.217
285.233
285.257
285.275
285.283
285.282
285.275
285.262
285.261
285.427
285.106
285.282
285.448
285.56
285.633
285.674
285.688
285.681
285.659
285.628
285.592
285.556
285.526
285.51
285.512
285.542
285.613
285.752
285.982
285.856
285.73
285.72
285.754
285.777
285.745
285.639
285.465
285.293
285.243
285.24
285.223
285.221
285.235
285.25
285.259
285.261
285.256
285.249
285.276
285.426
285.067
285.232
285.413
285.541
285.632
285.69
285.722
285.732
285.726
285.709
285.685
285.66
285.635
285.621
285.621
285.642
285.695
285.797
285.97
285.86
285.767
285.765
285.789
285.796
285.753
285.641
285.461
285.281
285.235
285.252
285.238
285.224
285.22
285.225
285.232
285.239
285.244
285.258
285.305
285.425
285.013
285.159
285.357
285.501
285.61
285.688
285.739
285.767
285.779
285.778
285.768
285.753
285.737
285.726
285.724
285.736
285.771
285.839
285.958
285.866
285.805
285.806
285.82
285.812
285.758
285.639
285.453
285.264
285.221
285.261
285.263
285.252
285.241
285.237
285.241
285.253
285.271
285.297
285.339
285.423
284.935
285.048
285.27
285.43
285.555
285.652
285.724
285.774
285.806
285.824
285.83
285.828
285.821
285.814
285.812
285.818
285.837
285.876
285.946
285.875
285.842
285.844
285.845
285.823
285.757
285.627
285.432
285.236
285.194
285.258
285.287
285.297
285.3
285.302
285.307
285.315
285.328
285.347
285.372
285.422
284.796
284.877
285.131
285.306
285.443
285.556
285.647
285.719
285.776
285.817
285.847
285.865
285.874
285.876
285.877
285.879
285.888
285.905
285.937
285.89
285.876
285.872
285.858
285.818
285.728
285.579
285.377
285.183
285.141
285.219
285.272
285.309
285.335
285.352
285.365
285.373
285.379
285.387
285.398
285.42
284.537
284.569
284.888
285.075
285.207
285.314
285.404
285.481
285.548
285.607
285.658
285.702
285.741
285.775
285.804
285.827
285.847
285.867
285.887
285.865
285.831
285.788
285.727
285.638
285.524
285.382
285.212
285.058
285.021
285.075
285.111
285.142
285.17
285.197
285.225
285.252
285.282
285.311
285.342
285.373
)
;

boundaryField
{
    floor
    {
        type            fixedValue;
        value           uniform 340;
    }
    ceiling
    {
        type            fixedValue;
        value           uniform 280;
    }
    fixedWalls
    {
        type            zeroGradient;
    }
    frontAndBack
    {
        type            empty;
    }
}


// ************************************************************************* //
