/*--------------------------------*- C++ -*----------------------------------*\
| =========                 |                                                 |
| \\      /  F ield         | OpenFOAM: The Open Source CFD Toolbox           |
|  \\    /   O peration     | Version:  4.1                                   |
|   \\  /    A nd           | Web:      www.OpenFOAM.org                      |
|    \\/     M anipulation  |                                                 |
\*---------------------------------------------------------------------------*/
FoamFile
{
    version     2.0;
    format      ascii;
    class       volVectorField;
    location    "1600";
    object      U;
}
// * * * * * * * * * * * * * * * * * * * * * * * * * * * * * * * * * * * * * //

dimensions      [0 1 -1 0 0 0 0];

internalField   nonuniform List<vector> 
1600
(
(-0.00334866 0.000181381 0)
(0.00555451 -0.00214318 0)
(0.00827088 -0.00105756 0)
(0.0107155 -0.000566457 0)
(0.0123372 -0.000338017 0)
(0.0132823 -0.000197951 0)
(0.0137862 -9.94922e-05 0)
(0.0139917 -2.86878e-05 0)
(0.0139764 2.067e-05 0)
(0.0137919 5.70577e-05 0)
(0.0134578 8.69156e-05 0)
(0.0129852 0.0001136 0)
(0.0123813 0.000137528 0)
(0.0116556 0.000157142 0)
(0.0108197 0.000173555 0)
(0.00996551 0.000130847 0)
(0.00916276 0.000182874 0)
(0.00813434 0.00155698 0)
(-0.00415986 0.00183124 0)
(-0.00520518 -0.000278203 0)
(-0.00458462 2.76272e-05 0)
(-0.00582075 0.000405393 0)
(-0.00851164 0.000705664 0)
(-0.011944 0.000762794 0)
(-0.01496 0.000554446 0)
(-0.0167484 0.000223482 0)
(-0.0170734 -9.23054e-05 0)
(-0.016096 -0.00035757 0)
(-0.014282 -0.000525355 0)
(-0.012005 -0.000612595 0)
(-0.00956183 -0.000629327 0)
(-0.00723621 -0.000578012 0)
(-0.00526071 -0.000470156 0)
(-0.00375672 -0.00031866 0)
(-0.00280261 -0.000140013 0)
(-0.00241281 -6.03129e-05 0)
(-0.00217379 -0.000210125 0)
(-0.000924002 -0.000831095 0)
(0.00285075 -0.00126716 0)
(0.00459862 0.000764989 0)
(0.00328124 -0.000889889 0)
(0.00743265 -0.00273311 0)
(0.0101717 -0.00170665 0)
(0.0123603 -0.00103547 0)
(0.0139248 -0.000669752 0)
(0.0149457 -0.000418765 0)
(0.0155824 -0.000223852 0)
(0.0159506 -7.00059e-05 0)
(0.0161068 5.08984e-05 0)
(0.0160683 0.00015172 0)
(0.01585 0.000242618 0)
(0.0154543 0.000329637 0)
(0.0148777 0.000413478 0)
(0.0141158 0.000491241 0)
(0.0131591 0.000563086 0)
(0.0120484 0.000544157 0)
(0.0105121 0.000827726 0)
(0.00866678 0.0038041 0)
(-0.00437166 0.00446344 0)
(-0.00680486 -0.000129498 0)
(-0.00741808 0.00039047 0)
(-0.00857635 0.0011427 0)
(-0.0102908 0.00167879 0)
(-0.0123306 0.00174331 0)
(-0.0141022 0.00130316 0)
(-0.0150269 0.000570108 0)
(-0.0148699 -0.00019099 0)
(-0.0137721 -0.000808105 0)
(-0.0121304 -0.00118564 0)
(-0.0101068 -0.00137969 0)
(-0.00792486 -0.00139995 0)
(-0.00591081 -0.00124906 0)
(-0.00435177 -0.000996856 0)
(-0.00325782 -0.000731829 0)
(-0.00235952 -0.000450676 0)
(-0.0014303 -0.000248567 0)
(-0.000747126 -0.000255915 0)
(0.000884954 -0.00128613 0)
(0.00148535 -0.00202833 0)
(0.0039926 0.00232564 0)
(0.00488918 -0.00432443 0)
(0.00781606 -0.00407149 0)
(0.0103409 -0.0028046 0)
(0.0123027 -0.00182293 0)
(0.0137518 -0.00120992 0)
(0.0147454 -0.000789939 0)
(0.0153972 -0.000472857 0)
(0.0158021 -0.000223879 0)
(0.0160133 -2.05222e-05 0)
(0.0160406 0.0001577 0)
(0.0158872 0.000325226 0)
(0.0155496 0.00049155 0)
(0.0150137 0.000659225 0)
(0.014259 0.000826016 0)
(0.0132611 0.000991217 0)
(0.0119568 0.00109752 0)
(0.00989016 0.00175886 0)
(0.008326 0.00630886 0)
(-0.00335131 0.00749471 0)
(-0.00588777 0.000719939 0)
(-0.00795349 0.000923158 0)
(-0.00945427 0.00168553 0)
(-0.0107117 0.00226044 0)
(-0.0117823 0.00227868 0)
(-0.0125111 0.00164787 0)
(-0.0126617 0.000612102 0)
(-0.0121858 -0.000466793 0)
(-0.0112932 -0.00130263 0)
(-0.00992185 -0.00186976 0)
(-0.00805118 -0.0022028 0)
(-0.00592361 -0.00223763 0)
(-0.00391878 -0.00194052 0)
(-0.00244296 -0.00145902 0)
(-0.00162604 -0.00104768 0)
(-0.00115017 -0.000775033 0)
(-0.000542813 -0.000659521 0)
(-0.000217282 -0.000802267 0)
(0.00126572 -0.00156539 0)
(0.000637034 -0.00263822 0)
(0.00338619 0.00346775 0)
(0.00359036 -0.00661207 0)
(0.00688766 -0.00512295 0)
(0.00947211 -0.00364088 0)
(0.0113798 -0.00246037 0)
(0.0127854 -0.00165786 0)
(0.0137758 -0.0010971 0)
(0.0144461 -0.000675437 0)
(0.0148813 -0.000342433 0)
(0.0151323 -6.45123e-05 0)
(0.0152213 0.000183893 0)
(0.0151399 0.000422401 0)
(0.0148787 0.000664611 0)
(0.0144149 0.000916775 0)
(0.0137144 0.00118017 0)
(0.0127334 0.00145828 0)
(0.0113804 0.00174062 0)
(0.00911909 0.0027619 0)
(0.00788863 0.00856108 0)
(-0.00220104 0.0102931 0)
(-0.00472302 0.00183609 0)
(-0.00734458 0.00167152 0)
(-0.00910039 0.00223212 0)
(-0.0102796 0.00264111 0)
(-0.0109678 0.00251225 0)
(-0.0112581 0.00172531 0)
(-0.0111912 0.000524569 0)
(-0.0107974 -0.000704059 0)
(-0.0100376 -0.00172246 0)
(-0.00868494 -0.00251871 0)
(-0.00678098 -0.00303043 0)
(-0.0046053 -0.00311122 0)
(-0.00251767 -0.00269087 0)
(-0.000871646 -0.0019509 0)
(7.87944e-05 -0.00124683 0)
(0.000364522 -0.000859116 0)
(0.000622474 -0.000746956 0)
(0.000585183 -0.00102048 0)
(0.00153375 -0.00167667 0)
(0.000345167 -0.0029318 0)
(0.00287164 0.0042461 0)
(0.00277161 -0.00855928 0)
(0.00608118 -0.00624579 0)
(0.00857528 -0.00448871 0)
(0.010391 -0.00310841 0)
(0.0117229 -0.00212151 0)
(0.0126748 -0.00142 0)
(0.0133303 -0.000896253 0)
(0.0137638 -0.000485007 0)
(0.0140228 -0.000142282 0)
(0.0141368 0.000168173 0)
(0.0140973 0.000472819 0)
(0.0138932 0.00079004 0)
(0.0134971 0.0011307 0)
(0.0128662 0.00150104 0)
(0.0119429 0.00191241 0)
(0.0106472 0.00239163 0)
(0.00839601 0.00371471 0)
(0.00746989 0.0104167 0)
(-0.00113901 0.0127279 0)
(-0.00367578 0.0030234 0)
(-0.00644866 0.00251466 0)
(-0.00828564 0.00282825 0)
(-0.00949645 0.00299182 0)
(-0.0101271 0.00266752 0)
(-0.010359 0.00174887 0)
(-0.0103254 0.000449906 0)
(-0.00998885 -0.000906227 0)
(-0.00917166 -0.0021478 0)
(-0.00772292 -0.00319202 0)
(-0.00575671 -0.00387634 0)
(-0.00358223 -0.00399796 0)
(-0.00153773 -0.00348721 0)
(0.000206505 -0.00251558 0)
(0.00136779 -0.00153559 0)
(0.00184802 -0.000939705 0)
(0.00191571 -0.000729071 0)
(0.0016034 -0.00100491 0)
(0.00192231 -0.00161082 0)
(0.000346144 -0.00298641 0)
(0.00238861 0.00477901 0)
(0.00222644 -0.010232 0)
(0.00538504 -0.00735884 0)
(0.0077268 -0.0053014 0)
(0.00944589 -0.00371879 0)
(0.0107064 -0.00256408 0)
(0.0116181 -0.00173199 0)
(0.0122567 -0.0011114 0)
(0.0126859 -0.000625158 0)
(0.0129488 -0.000219193 0)
(0.0130736 0.000150392 0)
(0.0130546 0.00051658 0)
(0.0128821 0.000903118 0)
(0.0125294 0.00132693 0)
(0.011953 0.00180134 0)
(0.0110921 0.00234737 0)
(0.00989575 0.00301429 0)
(0.00774628 0.00457199 0)
(0.00707777 0.0119217 0)
(-0.000207086 0.0148488 0)
(-0.00281336 0.0042214 0)
(-0.00559389 0.00337375 0)
(-0.00740662 0.00345273 0)
(-0.00866722 0.00336339 0)
(-0.00935598 0.00283809 0)
(-0.0096472 0.00179044 0)
(-0.00963991 0.000386127 0)
(-0.00923123 -0.0011321 0)
(-0.00829277 -0.00261352 0)
(-0.00674214 -0.00389278 0)
(-0.0047299 -0.00472269 0)
(-0.002604 -0.00485439 0)
(-0.000669785 -0.00423785 0)
(0.000971895 -0.00308714 0)
(0.00216022 -0.00194458 0)
(0.00289611 -0.00108977 0)
(0.00305381 -0.000679438 0)
(0.00262945 -0.00083179 0)
(0.00243225 -0.00137865 0)
(0.000535939 -0.00281423 0)
(0.00193044 0.00519906 0)
(0.00181905 -0.0116784 0)
(0.00476783 -0.0084065 0)
(0.00692939 -0.00606564 0)
(0.00855374 -0.00428859 0)
(0.00975058 -0.00298348 0)
(0.0106282 -0.00203205 0)
(0.0112546 -0.00132042 0)
(0.011684 -0.000763291 0)
(0.0119545 -0.000297875 0)
(0.0120908 0.000127139 0)
(0.01209 0.000550851 0)
(0.0119415 0.00100262 0)
(0.01162 0.00150562 0)
(0.0110854 0.0020799 0)
(0.0102801 0.00275461 0)
(0.00919042 0.00358954 0)
(0.00717586 0.00532642 0)
(0.00670502 0.0131547 0)
(0.000602806 0.0167215 0)
(-0.00212578 0.00540904 0)
(-0.00487649 0.00419593 0)
(-0.00658197 0.0040831 0)
(-0.00787081 0.00375806 0)
(-0.00861421 0.00303841 0)
(-0.00894628 0.00184914 0)
(-0.00891185 0.0003083 0)
(-0.00840338 -0.00139919 0)
(-0.00736014 -0.00312039 0)
(-0.00571659 -0.00462015 0)
(-0.00368079 -0.00556505 0)
(-0.00163101 -0.00567126 0)
(0.000197174 -0.00489459 0)
(0.00160791 -0.00365475 0)
(0.00275096 -0.00236079 0)
(0.00354402 -0.0012963 0)
(0.00382232 -0.000651254 0)
(0.00344407 -0.000596342 0)
(0.00293996 -0.00102614 0)
(0.000821752 -0.00243721 0)
(0.00151323 0.00557937 0)
(0.00149486 -0.0129336 0)
(0.00421725 -0.00937248 0)
(0.00618855 -0.00678233 0)
(0.00772436 -0.00482589 0)
(0.00886692 -0.00338628 0)
(0.00971887 -0.00232624 0)
(0.0103395 -0.00152934 0)
(0.0107745 -0.000904835 0)
(0.0110569 -0.000382242 0)
(0.0112072 9.68535e-05 0)
(0.0112255 0.000576708 0)
(0.0110988 0.00109189 0)
(0.0108032 0.0016713 0)
(0.0103029 0.00234039 0)
(0.00954581 0.0031339 0)
(0.00855576 0.0041148 0)
(0.00668417 0.00598717 0)
(0.00634351 0.0141769 0)
(0.0013045 0.0183945 0)
(-0.00155417 0.0065996 0)
(-0.00431025 0.00494691 0)
(-0.0058247 0.00470072 0)
(-0.00710917 0.00416149 0)
(-0.00786729 0.00325342 0)
(-0.00820343 0.00190717 0)
(-0.00812353 0.000205334 0)
(-0.0075323 -0.00170496 0)
(-0.00639544 -0.00366602 0)
(-0.00466721 -0.00537044 0)
(-0.00263721 -0.00639649 0)
(-0.000673652 -0.0064335 0)
(0.000997237 -0.00550355 0)
(0.0022762 -0.00415333 0)
(0.00329881 -0.00274133 0)
(0.00400808 -0.00151189 0)
(0.00430053 -0.000647838 0)
(0.00399053 -0.000346466 0)
(0.00333828 -0.000602214 0)
(0.00112124 -0.00189586 0)
(0.00115251 0.00594975 0)
(0.0012268 -0.014024 0)
(0.00372496 -0.010253 0)
(0.005507 -0.0074516 0)
(0.00696421 -0.0053353 0)
(0.00806226 -0.0037757 0)
(0.00889745 -0.00261637 0)
(0.00951851 -0.00173943 0)
(0.00996373 -0.00105048 0)
(0.0102619 -0.000472259 0)
(0.0104284 5.99164e-05 0)
(0.0104664 0.000594913 0)
(0.0103594 0.00117235 0)
(0.0100858 0.00182605 0)
(0.00961467 0.00258521 0)
(0.00889898 0.00348731 0)
(0.0079964 0.00459416 0)
(0.00626547 0.00656807 0)
(0.00599852 0.0150302 0)
(0.00188015 0.0198125 0)
(-0.00100987 0.00798303 0)
(-0.00384706 0.00562079 0)
(-0.00512275 0.00529027 0)
(-0.00637915 0.00455715 0)
(-0.00711377 0.00346759 0)
(-0.00742955 0.00195681 0)
(-0.00730484 8.25856e-05 0)
(-0.00665111 -0.002043 0)
(-0.00541746 -0.00424885 0)
(-0.00361606 -0.00613702 0)
(-0.0016243 -0.00720487 0)
(0.000244538 -0.00712256 0)
(0.00173756 -0.00608098 0)
(0.00294917 -0.00460392 0)
(0.00384416 -0.00306754 0)
(0.00441415 -0.00169574 0)
(0.00462961 -0.000643046 0)
(0.00433824 -9.82355e-05 0)
(0.00360762 -0.000150957 0)
(0.00138899 -0.00123959 0)
(0.000853344 0.00632071 0)
(0.000999317 -0.0149704 0)
(0.0032838 -0.0110501 0)
(0.00488425 -0.00807541 0)
(0.00627525 -0.00582165 0)
(0.00733777 -0.00415572 0)
(0.00816398 -0.00290513 0)
(0.00879031 -0.00195293 0)
(0.00924926 -0.0012022 0)
(0.00956597 -0.000569413 0)
(0.00975029 1.54428e-05 0)
(0.00980779 0.000605612 0)
(0.00971816 0.00124507 0)
(0.00946288 0.00197144 0)
(0.00901639 0.00281636 0)
(0.00833606 0.00381771 0)
(0.00750753 0.00503351 0)
(0.00590982 0.00708303 0)
(0.0056729 0.0157443 0)
(0.00233708 0.0210248 0)
(-0.000527212 0.00936541 0)
(-0.00343325 0.00623441 0)
(-0.00446835 0.00584164 0)
(-0.00568527 0.00493209 0)
(-0.00636933 0.00366907 0)
(-0.00664796 0.00199231 0)
(-0.00646847 -6.00453e-05 0)
(-0.00578181 -0.00240994 0)
(-0.00443646 -0.00486951 0)
(-0.00258332 -0.00691046 0)
(-0.000654888 -0.00797098 0)
(0.00105945 -0.00776556 0)
(0.0024628 -0.00661652 0)
(0.00359793 -0.00501244 0)
(0.00437571 -0.00333729 0)
(0.00479899 -0.00182793 0)
(0.00489054 -0.000614068 0)
(0.00456857 0.000158444 0)
(0.00379184 0.000346074 0)
(0.00162096 -0.000521338 0)
(0.000611821 0.00669623 0)
(0.000802584 -0.0157896 0)
(0.00288729 -0.0117685 0)
(0.00431743 -0.00865714 0)
(0.00565532 -0.00628946 0)
(0.00668944 -0.00452968 0)
(0.00751249 -0.00319448 0)
(0.00814704 -0.00217115 0)
(0.0086215 -0.00136104 0)
(0.00895809 -0.000674508 0)
(0.0091627 -3.65952e-05 0)
(0.0092377 0.000609572 0)
(0.00916292 0.00131128 0)
(0.00892273 0.00210896 0)
(0.00849705 0.00303574 0)
(0.00784696 0.00412809 0)
(0.00707977 0.00543872 0)
(0.00560513 0.00754457 0)
(0.00536645 0.0163437 0)
(0.00268516 0.0220702 0)
(-0.00011294 0.0107263 0)
(-0.00304838 0.00680585 0)
(-0.00386194 0.00635092 0)
(-0.00503658 0.00527932 0)
(-0.00565724 0.00385163 0)
(-0.00590092 0.00201159 0)
(-0.00568409 -0.000217197 0)
(-0.00493354 -0.00281004 0)
(-0.00345935 -0.00552776 0)
(-0.00158764 -0.00767716 0)
(0.000245804 -0.00867744 0)
(0.00179465 -0.00837047 0)
(0.00314311 -0.00712242 0)
(0.00419754 -0.00538205 0)
(0.00486902 -0.00355484 0)
(0.00515716 -0.00190369 0)
(0.00511169 -0.000546187 0)
(0.00471351 0.000426435 0)
(0.00389456 0.000845027 0)
(0.0018379 0.000265274 0)
(0.000425083 0.0070808 0)
(0.000629871 -0.0164955 0)
(0.00252943 -0.0124138 0)
(0.00380178 -0.00920084 0)
(0.00509868 -0.00674255 0)
(0.00610888 -0.00489992 0)
(0.00693227 -0.00348548 0)
(0.00757588 -0.0023946 0)
(0.00806578 -0.00152739 0)
(0.00842218 -0.000787951 0)
(0.00864721 -9.61912e-05 0)
(0.00873892 0.000607477 0)
(0.00867736 0.00137199 0)
(0.00844985 0.00223987 0)
(0.00804204 0.00324501 0)
(0.00741838 0.00442118 0)
(0.00670177 0.00581495 0)
(0.00533911 0.00796344 0)
(0.0050774 0.0168502 0)
(0.00293691 0.0229781 0)
(0.000233556 0.0120582 0)
(-0.00269266 0.00734465 0)
(-0.00330779 0.00681823 0)
(-0.00444027 0.00559676 0)
(-0.0049907 0.00401436 0)
(-0.00520165 0.00201672 0)
(-0.0049517 -0.000391331 0)
(-0.00410454 -0.00325397 0)
(-0.00249498 -0.00621937 0)
(-0.000643617 -0.00842067 0)
(0.00103374 -0.0093244 0)
(0.0024856 -0.00894166 0)
(0.00375981 -0.00759737 0)
(0.00472759 -0.00571404 0)
(0.00530003 -0.00372552 0)
(0.00546965 -0.00192589 0)
(0.00529457 -0.000431685 0)
(0.0047908 0.000713159 0)
(0.00391506 0.00134195 0)
(0.00201478 0.00110794 0)
(0.000293505 0.00748064 0)
(0.000476257 -0.0170997 0)
(0.00220448 -0.0129921 0)
(0.00333115 -0.00971046 0)
(0.00459661 -0.00718369 0)
(0.00558432 -0.00526753 0)
(0.00640931 -0.00377835 0)
(0.00706084 -0.00262304 0)
(0.00756428 -0.00170096 0)
(0.00793884 -0.000909547 0)
(0.00818337 -0.000163103 0)
(0.00829148 0.000599675 0)
(0.00824239 0.00142778 0)
(0.00802641 0.00236498 0)
(0.00763489 0.00344532 0)
(0.00703552 0.00469911 0)
(0.00636143 0.00616645 0)
(0.00510037 0.00834837 0)
(0.00480321 0.0172828 0)
(0.00310465 0.0237731 0)
(0.000514243 0.0133445 0)
(-0.00237158 0.00785418 0)
(-0.00281065 0.00724495 0)
(-0.00390113 0.00588413 0)
(-0.00437728 0.00415663 0)
(-0.00455729 0.00200729 0)
(-0.00427074 -0.000587493 0)
(-0.00328353 -0.00375197 0)
(-0.00155836 -0.00693382 0)
(0.000218978 -0.0091194 0)
(0.0017338 -0.00992179 0)
(0.00311367 -0.00948114 0)
(0.00429646 -0.0080368 0)
(0.00516945 -0.00600802 0)
(0.00564717 -0.00385394 0)
(0.00571514 -0.00190099 0)
(0.00542912 -0.000271102 0)
(0.00481608 0.00102958 0)
(0.00387062 0.0018531 0)
(0.00208865 0.00187326 0)
(0.000206684 0.00790008 0)
(0.000337903 -0.0176118 0)
(0.00190685 -0.0135085 0)
(0.0028983 -0.0101892 0)
(0.00413817 -0.0076143 0)
(0.00510181 -0.00563249 0)
(0.0059278 -0.00407253 0)
(0.00658441 -0.00285545 0)
(0.00709766 -0.00188069 0)
(0.007487 -0.00103857 0)
(0.00774895 -0.000236956 0)
(0.00787338 0.000586294 0)
(0.00783712 0.00147876 0)
(0.00763314 0.00248451 0)
(0.00725814 0.00363717 0)
(0.00668296 0.00496319 0)
(0.00604657 0.00649625 0)
(0.00487863 0.00870588 0)
(0.00454055 0.0176574 0)
(0.00319905 0.0244742 0)
(0.000732197 0.0145722 0)
(-0.00209023 0.00833595 0)
(-0.00237434 0.0076323 0)
(-0.00342155 0.00614171 0)
(-0.00382109 0.00427769 0)
(-0.00397252 0.00198196 0)
(-0.00363776 -0.000812753 0)
(-0.00245847 -0.0043115 0)
(-0.000668968 -0.00765741 0)
(0.000963399 -0.00974951 0)
(0.00237611 -0.0104868 0)
(0.00366463 -0.00998415 0)
(0.00473798 -0.00843578 0)
(0.00550552 -0.0062627 0)
(0.00589088 -0.00394391 0)
(0.00587343 -0.00183689 0)
(0.00550076 -7.16532e-05 0)
(0.00479279 0.00137323 0)
(0.00378397 0.00237883 0)
(0.00211046 0.00261863 0)
(0.00015379 0.00833224 0)
(0.000211631 -0.0180393 0)
(0.00163103 -0.0139676 0)
(0.00249522 -0.0106393 0)
(0.00371099 -0.00803445 0)
(0.00464637 -0.00599378 0)
(0.0054713 -0.00436683 0)
(0.0061288 -0.00309019 0)
(0.00664646 -0.00206478 0)
(0.00704519 -0.00117367 0)
(0.00732093 -0.000317146 0)
(0.00746163 0.000567145 0)
(0.00743963 0.00152442 0)
(0.00724997 0.00259793 0)
(0.00689393 0.00382021 0)
(0.00634519 0.00521374 0)
(0.00574514 0.00680609 0)
(0.00466459 0.0090403 0)
(0.00428572 0.017987 0)
(0.0032292 0.0250979 0)
(0.00089115 0.0157338 0)
(-0.00185231 0.00879178 0)
(-0.0020015 0.00798109 0)
(-0.00300148 0.00636974 0)
(-0.00332298 0.00437665 0)
(-0.00344872 0.00193927 0)
(-0.00303491 -0.00107949 0)
(-0.00163058 -0.00493439 0)
(0.000137876 -0.00836011 0)
(0.00161361 -0.0103229 0)
(0.00294895 -0.0110158 0)
(0.00412538 -0.0104427 0)
(0.00506973 -0.0087882 0)
(0.00571888 -0.00647606 0)
(0.00601303 -0.00399858 0)
(0.00592599 -0.00174117 0)
(0.00548849 0.000169226 0)
(0.00471203 0.00174185 0)
(0.00365869 0.00290965 0)
(0.0020929 0.00333455 0)
(0.000125167 0.00876942 0)
(9.46818e-05 -0.0183884 0)
(0.00137154 -0.0143727 0)
(0.00211346 -0.0110613 0)
(0.00330197 -0.00844283 0)
(0.00420297 -0.00634964 0)
(0.00502366 -0.00465967 0)
(0.00567689 -0.00332504 0)
(0.0061922 -0.00225067 0)
(0.00659286 -0.00131272 0)
(0.00687679 -0.000402636 0)
(0.00703312 0.00054201 0)
(0.00702777 0.00156367 0)
(0.00685668 0.00270384 0)
(0.00652441 0.00399313 0)
(0.00600694 0.00544996 0)
(0.00544546 0.00709628 0)
(0.00444981 0.00935394 0)
(0.0040349 0.0182818 0)
(0.00320291 0.0256577 0)
(0.000995475 0.0168265 0)
(-0.0016603 0.00922406 0)
(-0.0016939 0.00829154 0)
(-0.00263884 0.00656812 0)
(-0.00288089 0.00445224 0)
(-0.00298385 0.00187842 0)
(-0.00242497 -0.00140331 0)
(-0.0008211 -0.00561486 0)
(0.000824266 -0.00899063 0)
(0.00220129 -0.0108694 0)
(0.00344221 -0.0115035 0)
(0.00448482 -0.0108488 0)
(0.00527839 -0.00908714 0)
(0.00579364 -0.00664547 0)
(0.00599709 -0.00402079 0)
(0.0058557 -0.00161987 0)
(0.00536811 0.000421688 0)
(0.0045586 0.0021196 0)
(0.0034884 0.00343209 0)
(0.00203702 0.00401102 0)
(0.000112396 0.00920518 0)
(-1.54241e-05 -0.0186635 0)
(0.00112296 -0.0147258 0)
(0.00174442 -0.0114545 0)
(0.00289794 -0.00883702 0)
(0.00375727 -0.00669777 0)
(0.00456955 -0.00494915 0)
(0.00521283 -0.00355737 0)
(0.00571823 -0.00243508 0)
(0.0061115 -0.00145275 0)
(0.00639582 -0.000491781 0)
(0.00656582 0.000510995 0)
(0.00658011 0.00159523 0)
(0.00643375 0.00280015 0)
(0.00613246 0.00415366 0)
(0.00565358 0.00566989 0)
(0.00513639 0.00736567 0)
(0.00422661 0.00964724 0)
(0.00378443 0.0185495 0)
(0.00312714 0.0261649 0)
(0.00105022 0.0178503 0)
(-0.00151553 0.0096357 0)
(-0.00145301 0.00856331 0)
(-0.00233081 0.00673602 0)
(-0.00249193 0.00450217 0)
(-0.00257508 0.00179666 0)
(-0.00176885 -0.0018114 0)
(-6.93562e-05 -0.00632726 0)
(0.00140817 -0.00955011 0)
(0.00272062 -0.0113817 0)
(0.00384672 -0.011941 0)
(0.00473326 -0.0111935 0)
(0.00535257 -0.00932469 0)
(0.0057158 -0.0067677 0)
(0.0058287 -0.00401358 0)
(0.00565131 -0.00147961 0)
(0.00513667 0.000687993 0)
(0.00432407 0.0024979 0)
(0.00326632 0.00393546 0)
(0.00194206 0.00463935 0)
(0.000108476 0.00963237 0)
(-0.000120996 -0.0188675 0)
(0.000879878 -0.0150274 0)
(0.0013796 -0.0118169 0)
(0.00248612 -0.00921351 0)
(0.00329607 -0.00703554 0)
(0.00409464 -0.00523324 0)
(0.00472227 -0.00378445 0)
(0.00521029 -0.00261432 0)
(0.00558555 -0.00158998 0)
(0.00586042 -0.000582183 0)
(0.00603984 0.000473758 0)
(0.00607702 0.00161681 0)
(0.00596326 0.00288377 0)
(0.00570231 0.00429851 0)
(0.00527161 0.00587045 0)
(0.00480758 0.00761173 0)
(0.0039881 0.00991891 0)
(0.00353085 0.0187957 0)
(0.00300829 0.0266283 0)
(0.00106132 0.0188071 0)
(-0.00141792 0.0100302 0)
(-0.00128045 0.00879551 0)
(-0.00207502 0.0068718 0)
(-0.00215536 0.00452341 0)
(-0.00221047 0.00168886 0)
(-0.00106415 -0.00233028 0)
(0.000562934 -0.00696285 0)
(0.00193216 -0.0100948 0)
(0.0031661 -0.0118551 0)
(0.0041562 -0.0123199 0)
(0.00486351 -0.0114674 0)
(0.00528381 -0.00949204 0)
(0.00547441 -0.00683894 0)
(0.00549617 -0.0039805 0)
(0.00530367 -0.00132908 0)
(0.00478753 0.000954359 0)
(0.0040023 0.00286491 0)
(0.00298687 0.00440967 0)
(0.00180713 0.00521051 0)
(0.000108037 0.0100419 0)
(-0.00022431 -0.019001 0)
(0.000636931 -0.0152778 0)
(0.00101095 -0.0121443 0)
(0.00205448 -0.00956772 0)
(0.00280739 -0.00736003 0)
(0.00358557 -0.00550984 0)
(0.00419242 -0.0040037 0)
(0.00465668 -0.00278461 0)
(0.00500308 -0.00172006 0)
(0.00525743 -0.000670641 0)
(0.00543893 0.000431529 0)
(0.00550236 0.00162644 0)
(0.00543035 0.00295117 0)
(0.00522046 0.00442365 0)
(0.00484907 0.00604761 0)
(0.00444971 0.00783068 0)
(0.00372804 0.0101662 0)
(0.00327089 0.0190235 0)
(0.00285247 0.0270542 0)
(0.00103607 0.0197005 0)
(-0.00136486 0.0104124 0)
(-0.00117759 0.00898707 0)
(-0.00186969 0.0069733 0)
(-0.00187528 0.00451354 0)
(-0.00182807 0.00154881 0)
(-0.000348185 -0.00300061 0)
(0.00108923 -0.00750641 0)
(0.00239557 -0.0106105 0)
(0.00353152 -0.0122806 0)
(0.00436605 -0.0126316 0)
(0.00487134 -0.0116607 0)
(0.00506764 -0.00957971 0)
(0.00506346 -0.00685472 0)
(0.00499177 -0.00392561 0)
(0.0048078 -0.00117777 0)
(0.00431757 0.00120868 0)
(0.00359015 0.00320858 0)
(0.00264637 0.00484458 0)
(0.00163222 0.00571445 0)
(0.000107358 0.0104242 0)
(-0.000327943 -0.0190633 0)
(0.000388857 -0.0154762 0)
(0.000631304 -0.012432 0)
(0.00159177 -0.00989384 0)
(0.00228029 -0.0076678 0)
(0.00302976 -0.0057766 0)
(0.00361175 -0.00421307 0)
(0.00404808 -0.00294269 0)
(0.00435615 -0.00183857 0)
(0.00457941 -0.000753412 0)
(0.00475101 0.000385321 0)
(0.00484399 0.00162166 0)
(0.00482388 0.00299842 0)
(0.00467626 0.00452457 0)
(0.004376 0.00619665 0)
(0.00405475 0.00801766 0)
(0.00344082 0.0103851 0)
(0.00300134 0.0192345 0)
(0.00266554 0.0274461 0)
(0.000983643 0.0205341 0)
(-0.00134918 0.0107899 0)
(-0.00114356 0.00913712 0)
(-0.00171174 0.00703798 0)
(-0.00166517 0.00446434 0)
(-0.00131788 0.00135526 0)
(0.000272999 -0.00361974 0)
(0.00155898 -0.00802762 0)
(0.00279604 -0.0110935 0)
(0.00381417 -0.012651 0)
(0.00447451 -0.0128675 0)
(0.00475621 -0.011764 0)
(0.00470483 -0.00957798 0)
(0.00448438 -0.00680979 0)
(0.00431377 -0.00385296 0)
(0.00416382 -0.00103556 0)
(0.00372798 0.00143924 0)
(0.00308791 0.00351703 0)
(0.0022436 0.00522987 0)
(0.00141918 0.00614014 0)
(0.00010459 0.0107705 0)
(-0.000434985 -0.0190524 0)
(0.000130226 -0.0156222 0)
(0.00023483 -0.0126747 0)
(0.00108791 -0.0101863 0)
(0.00170449 -0.00795454 0)
(0.00241527 -0.00603052 0)
(0.00296946 -0.00441115 0)
(0.0033767 -0.00308638 0)
(0.00364066 -0.00194171 0)
(0.00382435 -0.000826413 0)
(0.00396907 0.000337485 0)
(0.00409542 0.00159988 0)
(0.00413746 0.00302165 0)
(0.00406225 0.00459672 0)
(0.00384452 0.00631253 0)
(0.00361606 0.00816702 0)
(0.00312126 0.0105709 0)
(0.00271867 0.0194279 0)
(0.00245257 0.0278044 0)
(0.00091512 0.0213095 0)
(-0.00135663 0.0111732 0)
(-0.00117134 0.00924518 0)
(-0.00159036 0.00706412 0)
(-0.00152323 0.00435639 0)
(-0.000625528 0.000925989 0)
(0.000799308 -0.0041427 0)
(0.00198429 -0.00852102 0)
(0.00312988 -0.0115354 0)
(0.00401307 -0.0129591 0)
(0.00448287 -0.01302 0)
(0.00452182 -0.0117686 0)
(0.00420258 -0.00947781 0)
(0.00374915 -0.0066981 0)
(0.00346941 -0.00376516 0)
(0.00337702 -0.000911029 0)
(0.00302367 0.00163577 0)
(0.00249959 0.00377913 0)
(0.00178044 0.00555524 0)
(0.00117257 0.00647612 0)
(9.98474e-05 0.0110724 0)
(-0.000549994 -0.0189716 0)
(-0.000142023 -0.0156976 0)
(-0.000183827 -0.012872 0)
(0.000535021 -0.0104414 0)
(0.00107079 -0.00821516 0)
(0.00173059 -0.00626835 0)
(0.00225451 -0.0045967 0)
(0.00263515 -0.0032145 0)
(0.00285556 -0.00202651 0)
(0.00299547 -0.000885186 0)
(0.00309258 0.000292719 0)
(0.00325741 0.00155972 0)
(0.00336991 0.00301769 0)
(0.00337399 0.00463592 0)
(0.00324882 0.0063902 0)
(0.00312852 0.0082726 0)
(0.00276427 0.0107183 0)
(0.00241851 0.0196013 0)
(0.00221736 0.0281261 0)
(0.000843564 0.0220262 0)
(-0.00136493 0.0115727 0)
(-0.00124369 0.00931047 0)
(-0.00148354 0.0070513 0)
(-0.00137893 0.00417524 0)
(6.43272e-05 0.000344754 0)
(0.00126491 -0.00459516 0)
(0.00236806 -0.00897927 0)
(0.00339681 -0.0119285 0)
(0.00412973 -0.0131986 0)
(0.00439582 -0.0130827 0)
(0.00417648 -0.0116672 0)
(0.00357564 -0.00927244 0)
(0.00288363 -0.00651466 0)
(0.00248016 -0.00366376 0)
(0.00245827 -0.0008092 0)
(0.00221569 0.00179049 0)
(0.00183486 0.00398484 0)
(0.00126305 0.00581024 0)
(0.000900597 0.00671148 0)
(9.50512e-05 0.0113235 0)
(-0.0006767 -0.0188147 0)
(-0.000435971 -0.0157058 0)
(-0.000630689 -0.0130038 0)
(-7.13831e-05 -0.0106611 0)
(0.000371858 -0.00844813 0)
(0.000965112 -0.00648786 0)
(0.00145535 -0.00476818 0)
(0.00181487 -0.00332673 0)
(0.00200084 -0.00209113 0)
(0.00209821 -0.000925478 0)
(0.00213504 0.000250726 0)
(0.00233966 0.0015009 0)
(0.00252335 0.00298499 0)
(0.00260872 0.00463886 0)
(0.00258466 0.00642487 0)
(0.00258855 0.00832796 0)
(0.00236428 0.0108228 0)
(0.00209487 0.0197508 0)
(0.00196201 0.0284048 0)
(0.000783331 0.0226808 0)
(-0.00134444 0.0119954 0)
(-0.00133121 0.00933131 0)
(-0.00136694 0.00699252 0)
(-0.00107934 0.00390569 0)
(0.00064379 -0.00024453 0)
(0.0017083 -0.00502949 0)
(0.00271185 -0.0093938 0)
(0.00359933 -0.0122653 0)
(0.0041684 -0.0133643 0)
(0.00422149 -0.0130505 0)
(0.0037331 -0.0114553 0)
(0.00284664 -0.00896007 0)
(0.00192929 -0.00626086 0)
(0.00139125 -0.00355413 0)
(0.00143474 -0.000737997 0)
(0.00132971 0.00189421 0)
(0.00111128 0.00412567 0)
(0.000702872 0.00598381 0)
(0.000616125 0.00683753 0)
(9.34164e-05 0.0115196 0)
(-0.000817748 -0.0185731 0)
(-0.000759521 -0.0156443 0)
(-0.00112237 -0.0130737 0)
(-0.000726849 -0.0108092 0)
(-0.000396507 -0.00866005 0)
(0.000110509 -0.00669235 0)
(0.000560787 -0.00492864 0)
(0.000904421 -0.00342801 0)
(0.0010735 -0.00213844 0)
(0.00113744 -0.000947231 0)
(0.00112878 0.000212316 0)
(0.0013321 0.00142205 0)
(0.00159033 0.00292475 0)
(0.00176226 0.00460338 0)
(0.0018491 0.0064118 0)
(0.0019944 0.00832656 0)
(0.0019141 0.0108815 0)
(0.00173894 0.0198704 0)
(0.00168638 0.0286298 0)
(0.000747857 0.0232643 0)
(-0.00125825 0.0124421 0)
(-0.00139199 0.00930791 0)
(-0.00121733 0.00685999 0)
(-0.000476084 0.00345861 0)
(0.00115204 -0.000716707 0)
(0.00215203 -0.00542788 0)
(0.00302097 -0.00975262 0)
(0.00374221 -0.0125385 0)
(0.00413598 -0.0134522 0)
(0.0039712 -0.0129203 0)
(0.0032086 -0.0111314 0)
(0.00204506 -0.00854757 0)
(0.000940799 -0.00594458 0)
(0.000285539 -0.00343574 0)
(0.000357712 -0.000708401 0)
(0.000400815 0.00194304 0)
(0.00035009 0.00420235 0)
(0.000116327 0.00607034 0)
(0.000337296 0.0068524 0)
(9.8444e-05 0.0116594 0)
(-0.000975409 -0.0182373 0)
(-0.00111825 -0.0155044 0)
(-0.00166924 -0.0130779 0)
(-0.00144833 -0.0109055 0)
(-0.00123355 -0.00880655 0)
(-0.000831107 -0.00686628 0)
(-0.000437767 -0.00509464 0)
(-0.000110384 -0.00353653 0)
(6.38258e-05 -0.00218112 0)
(0.00011539 -0.000956888 0)
(9.91988e-05 0.000181258 0)
(0.000185981 0.00132425 0)
(0.000557131 0.00284765 0)
(0.000831618 0.00453933 0)
(0.00104181 0.00634691 0)
(0.001347 0.0082623 0)
(0.00140301 0.0108951 0)
(0.00133759 0.0199521 0)
(0.00138853 0.0287869 0)
(0.000744409 0.0237575 0)
(-0.0010641 0.0129108 0)
(-0.00136852 0.00924865 0)
(-0.000985869 0.00661992 0)
(0.000325549 0.00291685 0)
(0.00170542 -0.00117527 0)
(0.00261178 -0.00578227 0)
(0.00330605 -0.0100439 0)
(0.00383314 -0.0127405 0)
(0.00404177 -0.0134596 0)
(0.00365895 -0.0126909 0)
(0.00262263 -0.0106983 0)
(0.00120582 -0.0080503 0)
(-1.628e-05 -0.00556649 0)
(-0.000717637 -0.00326101 0)
(-0.000703177 -0.000711744 0)
(-0.000541637 0.00194299 0)
(-0.000430337 0.0042159 0)
(-0.000464745 0.0060438 0)
(7.86411e-05 0.00675068 0)
(0.000111762 0.0117444 0)
(-0.00115174 -0.0177968 0)
(-0.00151601 -0.0152772 0)
(-0.00227614 -0.013007 0)
(-0.00224596 -0.0109426 0)
(-0.00216194 -0.00891482 0)
(-0.00186712 -0.00700074 0)
(-0.00153526 -0.00522311 0)
(-0.00123164 -0.00362884 0)
(-0.00104094 -0.00222163 0)
(-0.000971591 -0.000964857 0)
(-0.000979172 0.000169217 0)
(-0.000965244 0.00125922 0)
(-0.000595126 0.00269056 0)
(-0.000200386 0.00439316 0)
(0.000162266 0.0062352 0)
(0.000650609 0.00813854 0)
(0.000812695 0.0108699 0)
(0.000871385 0.0199835 0)
(0.00106705 0.0288572 0)
(0.000770205 0.0241176 0)
(-0.000726904 0.0133936 0)
(-0.00117872 0.00916836 0)
(-0.000536557 0.0061908 0)
(0.00111177 0.00242297 0)
(0.00231537 -0.00159019 0)
(0.00309365 -0.00607433 0)
(0.00357827 -0.0102546 0)
(0.00388225 -0.0128641 0)
(0.00389703 -0.0133852 0)
(0.00330055 -0.0123634 0)
(0.00199666 -0.0101642 0)
(0.000372569 -0.00748266 0)
(-0.000861096 -0.0051515 0)
(-0.00153148 -0.00310386 0)
(-0.00166667 -0.000697434 0)
(-0.00145752 0.00188133 0)
(-0.00119893 0.00414246 0)
(-0.00100819 0.00590305 0)
(-0.000159072 0.00653194 0)
(0.000132909 0.0117792 0)
(-0.00134842 -0.0172403 0)
(-0.00195554 -0.0149532 0)
(-0.00294606 -0.0128529 0)
(-0.00312461 -0.0109125 0)
(-0.00318972 -0.0089714 0)
(-0.0030149 -0.00710482 0)
(-0.00275274 -0.0053417 0)
(-0.00247024 -0.00372618 0)
(-0.00225017 -0.00227448 0)
(-0.00213247 -0.000985033 0)
(-0.0021081 0.000148944 0)
(-0.00209474 0.00122097 0)
(-0.00179929 0.00255585 0)
(-0.00131508 0.00421639 0)
(-0.000798286 0.00602192 0)
(-0.000104675 0.00792955 0)
(0.000106885 0.0107989 0)
(0.000312436 0.019964 0)
(0.000718823 0.0288187 0)
(0.00082112 0.0243079 0)
(-0.000231878 0.0138562 0)
(-0.000726156 0.00906871 0)
(0.000228481 0.00562606 0)
(0.00189837 0.00192514 0)
(0.00299278 -0.00195673 0)
(0.0036055 -0.00628904 0)
(0.00385014 -0.0103722 0)
(0.00390207 -0.012902 0)
(0.00371419 -0.0132287 0)
(0.00291223 -0.0119417 0)
(0.00135566 -0.00954323 0)
(-0.00039505 -0.00686195 0)
(-0.00151042 -0.00483409 0)
(-0.0022321 -0.00293131 0)
(-0.0025074 -0.000675247 0)
(-0.00230513 0.00178777 0)
(-0.00191814 0.00399233 0)
(-0.00149161 0.00565809 0)
(-0.000375064 0.00621038 0)
(0.000157837 0.0117656 0)
(-0.00156652 -0.0165557 0)
(-0.00243802 -0.0145229 0)
(-0.00367988 -0.0126077 0)
(-0.00408662 -0.0108075 0)
(-0.00432137 -0.00896939 0)
(-0.00428352 -0.00716886 0)
(-0.0041054 -0.00544068 0)
(-0.00384982 -0.00382611 0)
(-0.0035944 -0.0023481 0)
(-0.00340131 -0.00102819 0)
(-0.00330332 0.000115903 0)
(-0.00325523 0.00116962 0)
(-0.00301265 0.00242256 0)