/*--------------------------------*- C++ -*----------------------------------*\
| =========                 |                                                 |
| \\      /  F ield         | OpenFOAM: The Open Source CFD Toolbox           |
|  \\    /   O peration     | Version:  4.1                                   |
|   \\  /    A nd           | Web:      www.OpenFOAM.org                      |
|    \\/     M anipulation  |                                                 |
\*---------------------------------------------------------------------------*/
FoamFile
{
    version     2.0;
    format      ascii;
    class       volScalarField;
    location    "1040";
    object      p;
}
// * * * * * * * * * * * * * * * * * * * * * * * * * * * * * * * * * * * * * //

dimensions      [0 2 -2 0 0 0 0];

internalField   nonuniform List<scalar> 
5000
(
0
-1.64057e-05
-2.64357e-05
-3.24978e-05
-3.56631e-05
-3.65128e-05
-3.52717e-05
-3.21136e-05
-2.74776e-05
-2.20221e-05
-1.64172e-05
-1.12212e-05
-6.84086e-06
-3.54114e-06
-1.46748e-06
-6.67549e-07
-1.10817e-06
-2.69314e-06
-5.28349e-06
-8.56588e-06
-1.26267e-05
-1.76941e-05
-2.35715e-05
-3.0065e-05
-3.69971e-05
-4.42201e-05
-5.16141e-05
-5.90769e-05
-6.65139e-05
-7.38326e-05
-8.0943e-05
-8.77612e-05
-9.42135e-05
-0.000100239
-0.00010579
-0.000110837
-0.000115366
-0.000119382
-0.000122907
-0.00012592
-0.000128467
-0.000130584
-0.000132312
-0.000133691
-0.00013475
-0.000135506
-0.000135968
-0.000136132
-0.000135985
-0.000135499
-0.000134634
-0.000133332
-0.000131553
-0.000129393
-0.000127329
-0.000126465
-0.000128212
-0.000132381
-0.000135272
-0.000133212
-0.000127274
-0.000125561
-0.000123736
-0.000120091
-0.000118499
-0.000119458
-0.000122109
-0.000125589
-0.000128985
-0.000131203
-0.00013098
-0.000127023
-0.000118286
-0.000104353
-8.5942e-05
-6.50795e-05
-4.47686e-05
-2.81384e-05
-1.72534e-05
-1.23713e-05
-1.07481e-05
-1.0884e-05
-1.43535e-05
-2.01799e-05
-2.71937e-05
-3.45233e-05
-4.15178e-05
-4.77005e-05
-5.27765e-05
-5.66322e-05
-5.93174e-05
-6.0992e-05
-6.18591e-05
-6.2127e-05
-6.19991e-05
-6.16508e-05
-6.11608e-05
-6.02862e-05
-5.77041e-05
-4.88571e-05
-0.0984239
-0.0984448
-0.0984579
-0.0984671
-0.0984731
-0.0984765
-0.0984772
-0.0984756
-0.098472
-0.0984673
-0.0984623
-0.0984575
-0.0984534
-0.0984502
-0.0984483
-0.0984475
-0.098448
-0.0984495
-0.0984518
-0.098455
-0.0984592
-0.0984641
-0.0984697
-0.0984758
-0.0984822
-0.0984889
-0.0984957
-0.0985026
-0.0985093
-0.098516
-0.0985224
-0.0985285
-0.0985342
-0.0985395
-0.0985443
-0.0985485
-0.0985521
-0.098555
-0.0985573
-0.098559
-0.09856
-0.0985605
-0.0985604
-0.0985599
-0.0985589
-0.0985576
-0.0985559
-0.098554
-0.0985518
-0.0985493
-0.0985466
-0.0985437
-0.0985405
-0.0985372
-0.0985339
-0.0985312
-0.098529
-0.0985281
-0.0985266
-0.0985237
-0.0985213
-0.0985297
-0.098541
-0.0985444
-0.098547
-0.0985516
-0.0985579
-0.0985649
-0.0985718
-0.0985774
-0.0985803
-0.0985792
-0.0985729
-0.0985609
-0.0985439
-0.098524
-0.098504
-0.098487
-0.0984751
-0.0984689
-0.0984657
-0.0984646
-0.0984669
-0.0984715
-0.0984772
-0.0984831
-0.0984886
-0.0984931
-0.0984964
-0.0984982
-0.0984986
-0.0984979
-0.0984961
-0.0984935
-0.0984904
-0.0984869
-0.0984831
-0.0984789
-0.0984732
-0.0984602
-0.196884
-0.196905
-0.196918
-0.196928
-0.196935
-0.196939
-0.19694
-0.196938
-0.196935
-0.19693
-0.196925
-0.19692
-0.196916
-0.196913
-0.196911
-0.19691
-0.196911
-0.196912
-0.196914
-0.196918
-0.196922
-0.196927
-0.196932
-0.196938
-0.196944
-0.196951
-0.196958
-0.196964
-0.196971
-0.196977
-0.196984
-0.19699
-0.196995
-0.197001
-0.197005
-0.197009
-0.197013
-0.197016
-0.197018
-0.197019
-0.19702
-0.19702
-0.197019
-0.197018
-0.197016
-0.197014
-0.197011
-0.197008
-0.197005
-0.197001
-0.196998
-0.196994
-0.196991
-0.196987
-0.196983
-0.196979
-0.196974
-0.196968
-0.196962
-0.196958
-0.196956
-0.196962
-0.19698
-0.196992
-0.196998
-0.197005
-0.197014
-0.197025
-0.197035
-0.197043
-0.197049
-0.19705
-0.197045
-0.197034
-0.197017
-0.196997
-0.196977
-0.196959
-0.196946
-0.196938
-0.196934
-0.196932
-0.196933
-0.196937
-0.196942
-0.196948
-0.196953
-0.196957
-0.19696
-0.196961
-0.196961
-0.19696
-0.196957
-0.196953
-0.196948
-0.196943
-0.196938
-0.196931
-0.196924
-0.19691
-0.295358
-0.295375
-0.295385
-0.295394
-0.295401
-0.295404
-0.295404
-0.295402
-0.295398
-0.295393
-0.295388
-0.295384
-0.29538
-0.295377
-0.295375
-0.295374
-0.295374
-0.295376
-0.295378
-0.295382
-0.295386
-0.295391
-0.295396
-0.295402
-0.295408
-0.295414
-0.295421
-0.295427
-0.295434
-0.29544
-0.295447
-0.295452
-0.295458
-0.295463
-0.295468
-0.295472
-0.295475
-0.295478
-0.29548
-0.295481
-0.295482
-0.295481
-0.29548
-0.295479
-0.295477
-0.295474
-0.295471
-0.295468
-0.295464
-0.29546
-0.295457
-0.295453
-0.295449
-0.295444
-0.29544
-0.295435
-0.295429
-0.295422
-0.295415
-0.295411
-0.29541
-0.295413
-0.295429
-0.295447
-0.295454
-0.295464
-0.295476
-0.295489
-0.295502
-0.295513
-0.295521
-0.295524
-0.295522
-0.295512
-0.295496
-0.295475
-0.295453
-0.295434
-0.295419
-0.29541
-0.295404
-0.295401
-0.295401
-0.295404
-0.295409
-0.295413
-0.295418
-0.295422
-0.295424
-0.295426
-0.295425
-0.295423
-0.29542
-0.295415
-0.29541
-0.295404
-0.295398
-0.295392
-0.295386
-0.295374
-0.393833
-0.393847
-0.393855
-0.393862
-0.393867
-0.393869
-0.393869
-0.393867
-0.393863
-0.393857
-0.393852
-0.393848
-0.393844
-0.393841
-0.393839
-0.393839
-0.393839
-0.393841
-0.393843
-0.393847
-0.393851
-0.393856
-0.393861
-0.393867
-0.393873
-0.393879
-0.393885
-0.393892
-0.393898
-0.393904
-0.393911
-0.393916
-0.393922
-0.393927
-0.393931
-0.393935
-0.393939
-0.393941
-0.393943
-0.393944
-0.393944
-0.393944
-0.393943
-0.393941
-0.393939
-0.393937
-0.393933
-0.39393
-0.393926
-0.393922
-0.393918
-0.393913
-0.393909
-0.393904
-0.393899
-0.393894
-0.393888
-0.393882
-0.393876
-0.393872
-0.393871
-0.393872
-0.393885
-0.393905
-0.393916
-0.393927
-0.393941
-0.393956
-0.393971
-0.393985
-0.393996
-0.394002
-0.394001
-0.393993
-0.393977
-0.393956
-0.393933
-0.393911
-0.393894
-0.393883
-0.393875
-0.393871
-0.39387
-0.393872
-0.393876
-0.393881
-0.393885
-0.393888
-0.39389
-0.393891
-0.39389
-0.393888
-0.393884
-0.393879
-0.393874
-0.393868
-0.393862
-0.393856
-0.39385
-0.393841
-0.492307
-0.492317
-0.492323
-0.492329
-0.492333
-0.492334
-0.492334
-0.492331
-0.492327
-0.492322
-0.492317
-0.492312
-0.492309
-0.492306
-0.492305
-0.492304
-0.492305
-0.492307
-0.492309
-0.492313
-0.492317
-0.492322
-0.492327
-0.492332
-0.492338
-0.492344
-0.492351
-0.492357
-0.492363
-0.49237
-0.492376
-0.492381
-0.492387
-0.492392
-0.492396
-0.4924
-0.492403
-0.492406
-0.492407
-0.492408
-0.492409
-0.492408
-0.492407
-0.492405
-0.492403
-0.4924
-0.492397
-0.492393
-0.492389
-0.492385
-0.49238
-0.492376
-0.492371
-0.492366
-0.492361
-0.492356
-0.49235
-0.492345
-0.49234
-0.492337
-0.492336
-0.492336
-0.492346
-0.492365
-0.492381
-0.492393
-0.492408
-0.492425
-0.492442
-0.492459
-0.492472
-0.492481
-0.492482
-0.492476
-0.49246
-0.492438
-0.492414
-0.49239
-0.492371
-0.492358
-0.492348
-0.492342
-0.492341
-0.492342
-0.492345
-0.492349
-0.492352
-0.492355
-0.492357
-0.492357
-0.492356
-0.492353
-0.492349
-0.492344
-0.492338
-0.492332
-0.492326
-0.492321
-0.492316
-0.492309
-0.590778
-0.590786
-0.590791
-0.590795
-0.590798
-0.590799
-0.590798
-0.590795
-0.59079
-0.590786
-0.590781
-0.590777
-0.590774
-0.590771
-0.59077
-0.59077
-0.590771
-0.590773
-0.590776
-0.59078
-0.590784
-0.590788
-0.590793
-0.590799
-0.590805
-0.590811
-0.590817
-0.590823
-0.590829
-0.590836
-0.590842
-0.590848
-0.590853
-0.590858
-0.590862
-0.590866
-0.590869
-0.590872
-0.590873
-0.590874
-0.590874
-0.590874
-0.590872
-0.59087
-0.590868
-0.590865
-0.590861
-0.590857
-0.590853
-0.590849
-0.590844
-0.590839
-0.590834
-0.590829
-0.590824
-0.590819
-0.590814
-0.59081
-0.590806
-0.590804
-0.590803
-0.590802
-0.59081
-0.590827
-0.590846
-0.590861
-0.590876
-0.590894
-0.590913
-0.590932
-0.590947
-0.590958
-0.590961
-0.590956
-0.590942
-0.59092
-0.590894
-0.590869
-0.590848
-0.590832
-0.590821
-0.590814
-0.590812
-0.590812
-0.590814
-0.590817
-0.590821
-0.590823
-0.590824
-0.590824
-0.590823
-0.59082
-0.590815
-0.59081
-0.590804
-0.590798
-0.590792
-0.590787
-0.590783
-0.590777
-0.689247
-0.689254
-0.689257
-0.68926
-0.689262
-0.689263
-0.689261
-0.689258
-0.689254
-0.68925
-0.689245
-0.689242
-0.689239
-0.689237
-0.689236
-0.689237
-0.689238
-0.68924
-0.689243
-0.689247
-0.689251
-0.689256
-0.689261
-0.689266
-0.689272
-0.689278
-0.689284
-0.68929
-0.689297
-0.689303
-0.689309
-0.689315
-0.68932
-0.689325
-0.689329
-0.689333
-0.689336
-0.689339
-0.68934
-0.689341
-0.689341
-0.68934
-0.689339
-0.689337
-0.689334
-0.689331
-0.689327
-0.689323
-0.689318
-0.689314
-0.689309
-0.689304
-0.689299
-0.689294
-0.689289
-0.689284
-0.68928
-0.689276
-0.689273
-0.68927
-0.68927
-0.689269
-0.689275
-0.689291
-0.689311
-0.689328
-0.689345
-0.689363
-0.689383
-0.689402
-0.689419
-0.68943
-0.689435
-0.689432
-0.689419
-0.689398
-0.689371
-0.689345
-0.689323
-0.689306
-0.689294
-0.689286
-0.689283
-0.689283
-0.689284
-0.689287
-0.68929
-0.689292
-0.689293
-0.689292
-0.68929
-0.689287
-0.689282
-0.689277
-0.689271
-0.689265
-0.689259
-0.689254
-0.689251
-0.689245
-0.787714
-0.78772
-0.787722
-0.787724
-0.787726
-0.787725
-0.787724
-0.787721
-0.787717
-0.787713
-0.78771
-0.787706
-0.787704
-0.787703
-0.787703
-0.787704
-0.787705
-0.787708
-0.787711
-0.787715
-0.787719
-0.787723
-0.787728
-0.787734
-0.787739
-0.787745
-0.787752
-0.787758
-0.787764
-0.787771
-0.787777
-0.787783
-0.787788
-0.787793
-0.787798
-0.787801
-0.787805
-0.787807
-0.787808
-0.787809
-0.787809
-0.787808
-0.787806
-0.787804
-0.787801
-0.787798
-0.787794
-0.78779
-0.787785
-0.78778
-0.787775
-0.78777
-0.787765
-0.787759
-0.787755
-0.78775
-0.787746
-0.787742
-0.787739
-0.787738
-0.787737
-0.787737
-0.78774
-0.787754
-0.787774
-0.787794
-0.787812
-0.78783
-0.787849
-0.787868
-0.787884
-0.787896
-0.787902
-0.7879
-0.787889
-0.78787
-0.787844
-0.787819
-0.787796
-0.787778
-0.787765
-0.787758
-0.787754
-0.787753
-0.787755
-0.787757
-0.787759
-0.787761
-0.787762
-0.787761
-0.787759
-0.787755
-0.78775
-0.787745
-0.787739
-0.787733
-0.787727
-0.787722
-0.787719
-0.787714
-0.88618
-0.886184
-0.886186
-0.886188
-0.886188
-0.886188
-0.886186
-0.886184
-0.88618
-0.886177
-0.886174
-0.886171
-0.88617
-0.886169
-0.88617
-0.886171
-0.886173
-0.886176
-0.886179
-0.886183
-0.886187
-0.886191
-0.886196
-0.886202
-0.886208
-0.886214
-0.88622
-0.886226
-0.886233
-0.886239
-0.886246
-0.886252
-0.886257
-0.886262
-0.886267
-0.886271
-0.886274
-0.886276
-0.886278
-0.886278
-0.886278
-0.886277
-0.886275
-0.886273
-0.88627
-0.886266
-0.886262
-0.886257
-0.886252
-0.886247
-0.886242
-0.886236
-0.886231
-0.886226
-0.886221
-0.886216
-0.886212
-0.886209
-0.886206
-0.886205
-0.886204
-0.886204
-0.886207
-0.886218
-0.886236
-0.886257
-0.886275
-0.886293
-0.886311
-0.886328
-0.886344
-0.886355
-0.88636
-0.886359
-0.88635
-0.886334
-0.886311
-0.886287
-0.886265
-0.886248
-0.886235
-0.886228
-0.886225
-0.886224
-0.886225
-0.886227
-0.88623
-0.886231
-0.886232
-0.88623
-0.886228
-0.886224
-0.886219
-0.886213
-0.886207
-0.886201
-0.886196
-0.886191
-0.886188
-0.886184
-0.984644
-0.984648
-0.984649
-0.98465
-0.98465
-0.98465
-0.984648
-0.984646
-0.984643
-0.98464
-0.984638
-0.984636
-0.984636
-0.984636
-0.984637
-0.984638
-0.984641
-0.984643
-0.984647
-0.98465
-0.984655
-0.984659
-0.984664
-0.98467
-0.984676
-0.984682
-0.984689
-0.984695
-0.984702
-0.984709
-0.984715
-0.984721
-0.984727
-0.984732
-0.984737
-0.984741
-0.984744
-0.984746
-0.984748
-0.984748
-0.984748
-0.984747
-0.984745
-0.984742
-0.984739
-0.984735
-0.98473
-0.984725
-0.98472
-0.984715
-0.984709
-0.984704
-0.984698
-0.984693
-0.984688
-0.984683
-0.984679
-0.984676
-0.984673
-0.984672
-0.984671
-0.984671
-0.984673
-0.984682
-0.984697
-0.984716
-0.984735
-0.984753
-0.98477
-0.984785
-0.984798
-0.984807
-0.984812
-0.984811
-0.984804
-0.984791
-0.984771
-0.98475
-0.98473
-0.984714
-0.984703
-0.984697
-0.984694
-0.984694
-0.984696
-0.984698
-0.9847
-0.984702
-0.984702
-0.9847
-0.984698
-0.984693
-0.984688
-0.984682
-0.984676
-0.98467
-0.984664
-0.98466
-0.984657
-0.984653
-1.08311
-1.08311
-1.08311
-1.08311
-1.08311
-1.08311
-1.08311
-1.08311
-1.08311
-1.0831
-1.0831
-1.0831
-1.0831
-1.0831
-1.0831
-1.08311
-1.08311
-1.08311
-1.08311
-1.08312
-1.08312
-1.08313
-1.08313
-1.08314
-1.08314
-1.08315
-1.08316
-1.08316
-1.08317
-1.08318
-1.08319
-1.08319
-1.0832
-1.0832
-1.08321
-1.08321
-1.08322
-1.08322
-1.08322
-1.08322
-1.08322
-1.08322
-1.08322
-1.08321
-1.08321
-1.0832
-1.0832
-1.08319
-1.08319
-1.08318
-1.08318
-1.08317
-1.08317
-1.08316
-1.08316
-1.08315
-1.08315
-1.08314
-1.08314
-1.08314
-1.08314
-1.08314
-1.08314
-1.08315
-1.08316
-1.08317
-1.08319
-1.08321
-1.08322
-1.08324
-1.08325
-1.08326
-1.08326
-1.08326
-1.08325
-1.08324
-1.08322
-1.08321
-1.08319
-1.08318
-1.08317
-1.08316
-1.08316
-1.08316
-1.08317
-1.08317
-1.08317
-1.08317
-1.08317
-1.08317
-1.08317
-1.08316
-1.08316
-1.08315
-1.08315
-1.08314
-1.08313
-1.08313
-1.08313
-1.08312
-1.18157
-1.18157
-1.18157
-1.18157
-1.18157
-1.18157
-1.18157
-1.18157
-1.18157
-1.18157
-1.18157
-1.18157
-1.18157
-1.18157
-1.18157
-1.18157
-1.18158
-1.18158
-1.18158
-1.18159
-1.18159
-1.1816
-1.1816
-1.18161
-1.18161
-1.18162
-1.18163
-1.18163
-1.18164
-1.18165
-1.18166
-1.18166
-1.18167
-1.18167
-1.18168
-1.18168
-1.18169
-1.18169
-1.18169
-1.18169
-1.18169
-1.18169
-1.18169
-1.18168
-1.18168
-1.18167
-1.18167
-1.18166
-1.18166
-1.18165
-1.18165
-1.18164
-1.18163
-1.18163
-1.18162
-1.18162
-1.18161
-1.18161
-1.18161
-1.1816
-1.1816
-1.1816
-1.1816
-1.18161
-1.18162
-1.18163
-1.18164
-1.18166
-1.18167
-1.18168
-1.18169
-1.1817
-1.1817
-1.1817
-1.18169
-1.18168
-1.18167
-1.18166
-1.18165
-1.18164
-1.18163
-1.18163
-1.18163
-1.18163
-1.18164
-1.18164
-1.18164
-1.18164
-1.18164
-1.18164
-1.18164
-1.18163
-1.18163
-1.18162
-1.18161
-1.18161
-1.1816
-1.1816
-1.1816
-1.18159
-1.28003
-1.28003
-1.28003
-1.28003
-1.28003
-1.28003
-1.28003
-1.28003
-1.28003
-1.28003
-1.28003
-1.28003
-1.28003
-1.28003
-1.28004
-1.28004
-1.28004
-1.28005
-1.28005
-1.28005
-1.28006
-1.28006
-1.28007
-1.28008
-1.28008
-1.28009
-1.2801
-1.2801
-1.28011
-1.28012
-1.28013
-1.28013
-1.28014
-1.28015
-1.28015
-1.28016
-1.28016
-1.28016
-1.28016
-1.28016
-1.28016
-1.28016
-1.28016
-1.28015
-1.28015
-1.28015
-1.28014
-1.28013
-1.28013
-1.28012
-1.28012
-1.28011
-1.2801
-1.2801
-1.28009
-1.28008
-1.28008
-1.28008
-1.28007
-1.28007
-1.28007
-1.28007
-1.28007
-1.28007
-1.28008
-1.28009
-1.2801
-1.28011
-1.28012
-1.28012
-1.28013
-1.28013
-1.28013
-1.28013
-1.28013
-1.28012
-1.28011
-1.2801
-1.2801
-1.28009
-1.28009
-1.28009
-1.2801
-1.2801
-1.2801
-1.28011
-1.28011
-1.28011
-1.28011
-1.28011
-1.28011
-1.2801
-1.2801
-1.28009
-1.28008
-1.28008
-1.28007
-1.28007
-1.28006
-1.28006
-1.37849
-1.37849
-1.37849
-1.3785
-1.3785
-1.3785
-1.37849
-1.37849
-1.37849
-1.37849
-1.37849
-1.3785
-1.3785
-1.3785
-1.3785
-1.3785
-1.37851
-1.37851
-1.37852
-1.37852
-1.37853
-1.37853
-1.37854
-1.37854
-1.37855
-1.37856
-1.37857
-1.37858
-1.37858
-1.37859
-1.3786
-1.37861
-1.37861
-1.37862
-1.37862
-1.37863
-1.37863
-1.37863
-1.37863
-1.37863
-1.37863
-1.37863
-1.37863
-1.37863
-1.37862
-1.37862
-1.37861
-1.3786
-1.3786
-1.37859
-1.37858
-1.37858
-1.37857
-1.37856
-1.37856
-1.37855
-1.37855
-1.37854
-1.37854
-1.37854
-1.37853
-1.37853
-1.37853
-1.37853
-1.37854
-1.37854
-1.37855
-1.37855
-1.37856
-1.37856
-1.37856
-1.37856
-1.37856
-1.37856
-1.37856
-1.37856
-1.37855
-1.37855
-1.37855
-1.37855
-1.37855
-1.37855
-1.37856
-1.37856
-1.37857
-1.37858
-1.37858
-1.37858
-1.37858
-1.37858
-1.37858
-1.37857
-1.37857
-1.37856
-1.37855
-1.37855
-1.37854
-1.37854
-1.37853
-1.37853
-1.47695
-1.47696
-1.47696
-1.47696
-1.47696
-1.47696
-1.47696
-1.47696
-1.47696
-1.47696
-1.47696
-1.47696
-1.47696
-1.47696
-1.47697
-1.47697
-1.47697
-1.47698
-1.47698
-1.47699
-1.47699
-1.477
-1.47701
-1.47701
-1.47702
-1.47703
-1.47704
-1.47705
-1.47705
-1.47706
-1.47707
-1.47708
-1.47708
-1.47709
-1.47709
-1.4771
-1.4771
-1.4771
-1.47711
-1.47711
-1.47711
-1.4771
-1.4771
-1.4771
-1.47709
-1.47709
-1.47708
-1.47708
-1.47707
-1.47706
-1.47705
-1.47705
-1.47704
-1.47703
-1.47702
-1.47702
-1.47701
-1.47701
-1.477
-1.477
-1.477
-1.477
-1.477
-1.47699
-1.47699
-1.47699
-1.47699
-1.47699
-1.47699
-1.47699
-1.47699
-1.47699
-1.47699
-1.47699
-1.47699
-1.47699
-1.47699
-1.47699
-1.47699
-1.477
-1.477
-1.47701
-1.47702
-1.47703
-1.47704
-1.47704
-1.47705
-1.47705
-1.47705
-1.47705
-1.47705
-1.47704
-1.47703
-1.47703
-1.47702
-1.47701
-1.47701
-1.477
-1.477
-1.477
-1.57541
-1.57542
-1.57542
-1.57542
-1.57542
-1.57542
-1.57542
-1.57542
-1.57542
-1.57542
-1.57542
-1.57542
-1.57543
-1.57543
-1.57543
-1.57544
-1.57544
-1.57544
-1.57545
-1.57545
-1.57546
-1.57547
-1.57547
-1.57548
-1.57549
-1.5755
-1.57551
-1.57552
-1.57552
-1.57553
-1.57554
-1.57555
-1.57555
-1.57556
-1.57557
-1.57557
-1.57557
-1.57558
-1.57558
-1.57558
-1.57558
-1.57558
-1.57557
-1.57557
-1.57556
-1.57556
-1.57555
-1.57555
-1.57554
-1.57553
-1.57552
-1.57551
-1.57551
-1.5755
-1.57549
-1.57548
-1.57548
-1.57547
-1.57547
-1.57546
-1.57546
-1.57546
-1.57546
-1.57546
-1.57545
-1.57545
-1.57544
-1.57544
-1.57543
-1.57542
-1.57541
-1.57541
-1.57541
-1.57541
-1.57541
-1.57542
-1.57542
-1.57543
-1.57544
-1.57545
-1.57546
-1.57547
-1.57548
-1.57549
-1.5755
-1.57551
-1.57552
-1.57552
-1.57552
-1.57552
-1.57551
-1.57551
-1.5755
-1.57549
-1.57549
-1.57548
-1.57547
-1.57547
-1.57547
-1.57546
-1.67387
-1.67388
-1.67388
-1.67388
-1.67388
-1.67388
-1.67388
-1.67388
-1.67388
-1.67388
-1.67388
-1.67389
-1.67389
-1.67389
-1.6739
-1.6739
-1.6739
-1.67391
-1.67391
-1.67392
-1.67393
-1.67393
-1.67394
-1.67395
-1.67396
-1.67397
-1.67398
-1.67398
-1.67399
-1.674
-1.67401
-1.67402
-1.67402
-1.67403
-1.67404
-1.67404
-1.67404
-1.67405
-1.67405
-1.67405
-1.67405
-1.67405
-1.67404
-1.67404
-1.67403
-1.67403
-1.67402
-1.67401
-1.67401
-1.674
-1.67399
-1.67398
-1.67397
-1.67397
-1.67396
-1.67395
-1.67394
-1.67394
-1.67393
-1.67393
-1.67392
-1.67392
-1.67392
-1.67392
-1.67391
-1.6739
-1.67389
-1.67388
-1.67386
-1.67385
-1.67384
-1.67383
-1.67383
-1.67383
-1.67384
-1.67385
-1.67386
-1.67387
-1.67388
-1.6739
-1.67391
-1.67393
-1.67394
-1.67395
-1.67396
-1.67397
-1.67398
-1.67398
-1.67399
-1.67399
-1.67398
-1.67397
-1.67397
-1.67396
-1.67395
-1.67394
-1.67394
-1.67393
-1.67393
-1.67393
-1.77233
-1.77233
-1.77233
-1.77234
-1.77234
-1.77234
-1.77234
-1.77234
-1.77234
-1.77234
-1.77234
-1.77235
-1.77235
-1.77235
-1.77236
-1.77236
-1.77237
-1.77237
-1.77238
-1.77239
-1.77239
-1.7724
-1.77241
-1.77242
-1.77243
-1.77244
-1.77244
-1.77245
-1.77246
-1.77247
-1.77248
-1.77249
-1.77249
-1.7725
-1.77251
-1.77251
-1.77251
-1.77252
-1.77252
-1.77252
-1.77252
-1.77252
-1.77251
-1.77251
-1.7725
-1.7725
-1.77249
-1.77248
-1.77248
-1.77247
-1.77246
-1.77245
-1.77244
-1.77243
-1.77242
-1.77242
-1.77241
-1.7724
-1.7724
-1.77239
-1.77239
-1.77238
-1.77238
-1.77238
-1.77237
-1.77236
-1.77234
-1.77232
-1.7723
-1.77228
-1.77227
-1.77226
-1.77226
-1.77226
-1.77227
-1.77228
-1.7723
-1.77231
-1.77233
-1.77235
-1.77236
-1.77238
-1.7724
-1.77241
-1.77242
-1.77243
-1.77244
-1.77245
-1.77245
-1.77245
-1.77244
-1.77244
-1.77243
-1.77242
-1.77241
-1.77241
-1.7724
-1.7724
-1.7724
-1.77239
-1.87079
-1.87079
-1.87079
-1.87079
-1.87079
-1.8708
-1.8708
-1.8708
-1.8708
-1.8708
-1.8708
-1.87081
-1.87081
-1.87082
-1.87082
-1.87083
-1.87083
-1.87084
-1.87084
-1.87085
-1.87086
-1.87087
-1.87088
-1.87088
-1.87089
-1.8709
-1.87091
-1.87092
-1.87093
-1.87094
-1.87095
-1.87096
-1.87096
-1.87097
-1.87098
-1.87098
-1.87098
-1.87099
-1.87099
-1.87099
-1.87099
-1.87099
-1.87098
-1.87098
-1.87097
-1.87097
-1.87096
-1.87095
-1.87094
-1.87094
-1.87093
-1.87092
-1.87091
-1.8709
-1.87089
-1.87088
-1.87087
-1.87087
-1.87086
-1.87085
-1.87085
-1.87084
-1.87084
-1.87083
-1.87083
-1.87082
-1.8708
-1.87077
-1.87074
-1.87072
-1.8707
-1.87069
-1.87069
-1.8707
-1.87071
-1.87072
-1.87074
-1.87076
-1.87078
-1.8708
-1.87082
-1.87083
-1.87085
-1.87087
-1.87088
-1.87089
-1.8709
-1.87091
-1.87091
-1.87091
-1.87091
-1.8709
-1.87089
-1.87088
-1.87088
-1.87087
-1.87086
-1.87086
-1.87086
-1.87085
-1.96925
-1.96925
-1.96925
-1.96925
-1.96925
-1.96925
-1.96925
-1.96926
-1.96926
-1.96926
-1.96926
-1.96927
-1.96927
-1.96928
-1.96928
-1.96929
-1.9693
-1.9693
-1.96931
-1.96932
-1.96932
-1.96933
-1.96934
-1.96935
-1.96936
-1.96937
-1.96938
-1.96939
-1.9694
-1.96941
-1.96942
-1.96943
-1.96943
-1.96944
-1.96945
-1.96945
-1.96945
-1.96946
-1.96946
-1.96946
-1.96946
-1.96945
-1.96945
-1.96945
-1.96944
-1.96944
-1.96943
-1.96942
-1.96941
-1.9694
-1.96939
-1.96938
-1.96937
-1.96936
-1.96936
-1.96935
-1.96934
-1.96933
-1.96932
-1.96932
-1.96931
-1.9693
-1.9693
-1.96929
-1.96929
-1.96927
-1.96925
-1.96922
-1.96919
-1.96916
-1.96914
-1.96913
-1.96913
-1.96914
-1.96915
-1.96917
-1.96919
-1.96921
-1.96923
-1.96925
-1.96927
-1.96929
-1.96931
-1.96932
-1.96934
-1.96935
-1.96936
-1.96937
-1.96937
-1.96937
-1.96936
-1.96936
-1.96935
-1.96934
-1.96933
-1.96933
-1.96932
-1.96932
-1.96932
-1.96931
-2.06771
-2.06771
-2.06771
-2.06771
-2.06771
-2.06771
-2.06771
-2.06771
-2.06772
-2.06772
-2.06772
-2.06773
-2.06773
-2.06774
-2.06775
-2.06775
-2.06776
-2.06777
-2.06777
-2.06778
-2.06779
-2.0678
-2.06781
-2.06782
-2.06783
-2.06784
-2.06785
-2.06786
-2.06787
-2.06788
-2.06788
-2.06789
-2.0679
-2.06791
-2.06791
-2.06792
-2.06792
-2.06792
-2.06793
-2.06793
-2.06793
-2.06792
-2.06792
-2.06792
-2.06791
-2.0679
-2.0679
-2.06789
-2.06788
-2.06787
-2.06786
-2.06785
-2.06784
-2.06783
-2.06782
-2.06781
-2.0678
-2.06779
-2.06779
-2.06778
-2.06777
-2.06777
-2.06776
-2.06775
-2.06775
-2.06773
-2.0677
-2.06767
-2.06763
-2.06761
-2.06759
-2.06757
-2.06758
-2.06759
-2.0676
-2.06762
-2.06764
-2.06766
-2.06768
-2.0677
-2.06772
-2.06774
-2.06776
-2.06778
-2.06779
-2.0678
-2.06781
-2.06782
-2.06782
-2.06782
-2.06782
-2.06781
-2.0678
-2.0678
-2.06779
-2.06778
-2.06778
-2.06778
-2.06777
-2.06777
-2.16616
-2.16617
-2.16616
-2.16616
-2.16617
-2.16616
-2.16617
-2.16617
-2.16617
-2.16618
-2.16618
-2.16619
-2.16619
-2.1662
-2.16621
-2.16621
-2.16622
-2.16623
-2.16624
-2.16625
-2.16625
-2.16626
-2.16627
-2.16628
-2.16629
-2.1663
-2.16631
-2.16632
-2.16633
-2.16634
-2.16635
-2.16636
-2.16637
-2.16637
-2.16638
-2.16639
-2.16639
-2.16639
-2.16639
-2.16639
-2.16639
-2.16639
-2.16639
-2.16638
-2.16638
-2.16637
-2.16636
-2.16635
-2.16634
-2.16633
-2.16632
-2.16631
-2.1663
-2.16629
-2.16628
-2.16627
-2.16627
-2.16626
-2.16625
-2.16624
-2.16623
-2.16623
-2.16622
-2.16621
-2.1662
-2.16618
-2.16615
-2.16612
-2.16608
-2.16606
-2.16604
-2.16603
-2.16603
-2.16604
-2.16606
-2.16607
-2.16609
-2.16611
-2.16613
-2.16615
-2.16617
-2.16619
-2.16621
-2.16623
-2.16625
-2.16626
-2.16627
-2.16627
-2.16627
-2.16627
-2.16627
-2.16626
-2.16626
-2.16625
-2.16624
-2.16624
-2.16623
-2.16623
-2.16623
-2.16623
-2.26462
-2.26462
-2.26462
-2.26462
-2.26462
-2.26462
-2.26462
-2.26462
-2.26463
-2.26463
-2.26464
-2.26465
-2.26465
-2.26466
-2.26467
-2.26468
-2.26468
-2.26469
-2.2647
-2.26471
-2.26472
-2.26473
-2.26474
-2.26475
-2.26476
-2.26477
-2.26478
-2.26479
-2.2648
-2.26481
-2.26482
-2.26483
-2.26483
-2.26484
-2.26485
-2.26485
-2.26486
-2.26486
-2.26486
-2.26486
-2.26486
-2.26486
-2.26485
-2.26485
-2.26484
-2.26484
-2.26483
-2.26482
-2.26481
-2.2648
-2.26479
-2.26478
-2.26477
-2.26476
-2.26475
-2.26474
-2.26473
-2.26472
-2.26471
-2.2647
-2.2647
-2.26469
-2.26468
-2.26468
-2.26466
-2.26464
-2.26461
-2.26457
-2.26454
-2.26451
-2.26449
-2.26449
-2.2645
-2.26451
-2.26452
-2.26453
-2.26455
-2.26456
-2.26458
-2.26461
-2.26463
-2.26465
-2.26467
-2.26468
-2.2647
-2.26471
-2.26472
-2.26472
-2.26472
-2.26472
-2.26472
-2.26471
-2.26471
-2.2647
-2.2647
-2.26469
-2.26469
-2.26469
-2.26468
-2.26468
-2.36308
-2.36308
-2.36308
-2.36308
-2.36308
-2.36308
-2.36308
-2.36308
-2.36309
-2.36309
-2.3631
-2.36311
-2.36311
-2.36312
-2.36313
-2.36314
-2.36315
-2.36316
-2.36316
-2.36317
-2.36318
-2.36319
-2.3632
-2.36321
-2.36322
-2.36323
-2.36324
-2.36325
-2.36326
-2.36327
-2.36328
-2.36329
-2.3633
-2.36331
-2.36331
-2.36332
-2.36332
-2.36332
-2.36333
-2.36333
-2.36332
-2.36332
-2.36332
-2.36331
-2.36331
-2.3633
-2.36329
-2.36328
-2.36327
-2.36326
-2.36325
-2.36324
-2.36323
-2.36322
-2.36321
-2.3632
-2.36319
-2.36318
-2.36317
-2.36316
-2.36316
-2.36315
-2.36314
-2.36314
-2.36312
-2.36309
-2.36306
-2.36302
-2.36299
-2.36296
-2.36295
-2.36296
-2.36296
-2.36297
-2.36298
-2.36299
-2.36301
-2.36302
-2.36304
-2.36306
-2.36308
-2.3631
-2.36312
-2.36313
-2.36315
-2.36316
-2.36316
-2.36317
-2.36317
-2.36317
-2.36317
-2.36316
-2.36316
-2.36315
-2.36315
-2.36314
-2.36314
-2.36314
-2.36314
-2.36314
-2.46153
-2.46153
-2.46153
-2.46153
-2.46153
-2.46153
-2.46153
-2.46154
-2.46154
-2.46155
-2.46156
-2.46157
-2.46157
-2.46158
-2.46159
-2.4616
-2.46161
-2.46162
-2.46163
-2.46164
-2.46165
-2.46165
-2.46166
-2.46167
-2.46168
-2.46169
-2.4617
-2.46172
-2.46172
-2.46173
-2.46174
-2.46175
-2.46176
-2.46177
-2.46178
-2.46178
-2.46179
-2.46179
-2.46179
-2.46179
-2.46179
-2.46179
-2.46178
-2.46178
-2.46177
-2.46176
-2.46175
-2.46175
-2.46174
-2.46173
-2.46171
-2.4617
-2.46169
-2.46168
-2.46167
-2.46166
-2.46165
-2.46164
-2.46163
-2.46163
-2.46162
-2.46161
-2.4616
-2.46159
-2.46157
-2.46155
-2.46151
-2.46148
-2.46145
-2.46143
-2.46142
-2.46142
-2.46143
-2.46143
-2.46144
-2.46145
-2.46147
-2.46148
-2.4615
-2.46152
-2.46153
-2.46155
-2.46157
-2.46158
-2.4616
-2.46161
-2.46161
-2.46161
-2.46162
-2.46161
-2.46161
-2.46161
-2.46161
-2.4616
-2.4616
-2.46159
-2.46159
-2.46159
-2.46159
-2.46159
-2.55999
-2.55999
-2.55999
-2.55999
-2.55999
-2.55999
-2.55999
-2.56
-2.56
-2.56001
-2.56002
-2.56003
-2.56003
-2.56004
-2.56005
-2.56006
-2.56007
-2.56008
-2.56009
-2.5601
-2.56011
-2.56012
-2.56013
-2.56014
-2.56015
-2.56016
-2.56017
-2.56018
-2.56019
-2.5602
-2.56021
-2.56021
-2.56022
-2.56023
-2.56024
-2.56024
-2.56025
-2.56025
-2.56025
-2.56025
-2.56025
-2.56025
-2.56025
-2.56024
-2.56023
-2.56023
-2.56022
-2.56021
-2.5602
-2.56019
-2.56018
-2.56016
-2.56015
-2.56014
-2.56013
-2.56012
-2.56011
-2.5601
-2.5601
-2.56009
-2.56008
-2.56007
-2.56006
-2.56005
-2.56003
-2.56
-2.55997
-2.55994
-2.55991
-2.5599
-2.55989
-2.55989
-2.5599
-2.5599
-2.55991
-2.55992
-2.55993
-2.55994
-2.55996
-2.55997
-2.55999
-2.56001
-2.56002
-2.56003
-2.56005
-2.56005
-2.56006
-2.56006
-2.56006
-2.56006
-2.56006
-2.56006
-2.56005
-2.56005
-2.56005
-2.56004
-2.56004
-2.56004
-2.56004
-2.56004
-2.65845
-2.65845
-2.65845
-2.65845
-2.65845
-2.65845
-2.65845
-2.65846
-2.65846
-2.65847
-2.65848
-2.65849
-2.65849
-2.6585
-2.65851
-2.65852
-2.65853
-2.65854
-2.65855
-2.65856
-2.65857
-2.65858
-2.65859
-2.6586
-2.65861
-2.65862
-2.65863
-2.65864
-2.65865
-2.65866
-2.65867
-2.65867
-2.65868
-2.65869
-2.6587
-2.6587
-2.65871
-2.65871
-2.65871
-2.65872
-2.65871
-2.65871
-2.65871
-2.6587
-2.65869
-2.65869
-2.65868
-2.65867
-2.65866
-2.65865
-2.65864
-2.65862
-2.65861
-2.6586
-2.65859
-2.65858
-2.65857
-2.65857
-2.65856
-2.65855
-2.65854
-2.65853
-2.65852
-2.6585
-2.65848
-2.65845
-2.65843
-2.6584
-2.65838
-2.65837
-2.65836
-2.65836
-2.65837
-2.65837
-2.65838
-2.65839
-2.65839
-2.65841
-2.65842
-2.65843
-2.65845
-2.65846
-2.65847
-2.65849
-2.65849
-2.6585
-2.65851
-2.65851
-2.65851
-2.65851
-2.6585
-2.6585
-2.6585
-2.6585
-2.6585
-2.65849
-2.65849
-2.65849
-2.65849
-2.65849
-2.75691
-2.75691
-2.75691
-2.75691
-2.75691
-2.75691
-2.75691
-2.75692
-2.75692
-2.75693
-2.75694
-2.75695
-2.75696
-2.75697
-2.75698
-2.75699
-2.75699
-2.757
-2.75701
-2.75702
-2.75703
-2.75704
-2.75705
-2.75706
-2.75707
-2.75708
-2.75709
-2.7571
-2.75711
-2.75712
-2.75712
-2.75713
-2.75714
-2.75715
-2.75716
-2.75716
-2.75717
-2.75717
-2.75717
-2.75717
-2.75717
-2.75717
-2.75717
-2.75716
-2.75715
-2.75714
-2.75714
-2.75713
-2.75712
-2.75711
-2.75709
-2.75708
-2.75707
-2.75706
-2.75705
-2.75704
-2.75703
-2.75703
-2.75702
-2.75701
-2.757
-2.75699
-2.75698
-2.75696
-2.75693
-2.75691
-2.75689
-2.75687
-2.75685
-2.75684
-2.75684
-2.75684
-2.75684
-2.75684
-2.75685
-2.75685
-2.75686
-2.75687
-2.75688
-2.75689
-2.7569
-2.75692
-2.75693
-2.75694
-2.75694
-2.75695
-2.75695
-2.75695
-2.75695
-2.75695
-2.75695
-2.75695
-2.75695
-2.75695
-2.75694
-2.75694
-2.75694
-2.75694
-2.75694
-2.75694
-2.85537
-2.85537
-2.85537
-2.85537
-2.85537
-2.85537
-2.85537
-2.85538
-2.85538
-2.85539
-2.8554
-2.85541
-2.85542
-2.85543
-2.85544
-2.85545
-2.85546
-2.85546
-2.85547
-2.85548
-2.85549
-2.8555
-2.85551
-2.85552
-2.85553
-2.85553
-2.85554
-2.85555
-2.85556
-2.85557
-2.85558
-2.85559
-2.8556
-2.85561
-2.85561
-2.85562
-2.85563
-2.85563
-2.85563
-2.85563
-2.85563
-2.85563
-2.85562
-2.85562
-2.85561
-2.8556
-2.85559
-2.85558
-2.85557
-2.85556
-2.85555
-2.85554
-2.85553
-2.85552
-2.85551
-2.8555
-2.85549
-2.85548
-2.85548
-2.85547
-2.85546
-2.85544
-2.85543
-2.85541
-2.85539
-2.85537
-2.85535
-2.85533
-2.85532
-2.85531
-2.85531
-2.85531
-2.85531
-2.85531
-2.85532
-2.85532
-2.85533
-2.85534
-2.85534
-2.85535
-2.85536
-2.85537
-2.85538
-2.85539
-2.85539
-2.8554
-2.8554
-2.8554
-2.8554
-2.8554
-2.8554
-2.85539
-2.85539
-2.85539
-2.85539
-2.85539
-2.85539
-2.85539
-2.85539
-2.85539
-2.95383
-2.95383
-2.95383
-2.95383
-2.95383
-2.95384
-2.95384
-2.95384
-2.95385
-2.95386
-2.95386
-2.95387
-2.95388
-2.95389
-2.9539
-2.95391
-2.95392
-2.95393
-2.95393
-2.95394
-2.95395
-2.95396
-2.95397
-2.95397
-2.95398
-2.95399
-2.954
-2.95401
-2.95402
-2.95403
-2.95404
-2.95405
-2.95406
-2.95406
-2.95407
-2.95408
-2.95408
-2.95408
-2.95409
-2.95409
-2.95409
-2.95408
-2.95408
-2.95407
-2.95407
-2.95406
-2.95405
-2.95404
-2.95403
-2.95402
-2.95401
-2.954
-2.95399
-2.95398
-2.95397
-2.95396
-2.95395
-2.95394
-2.95393
-2.95392
-2.95391
-2.9539
-2.95388
-2.95386
-2.95384
-2.95382
-2.95381
-2.9538
-2.95379
-2.95378
-2.95378
-2.95378
-2.95378
-2.95378
-2.95379
-2.95379
-2.9538
-2.9538
-2.95381
-2.95382
-2.95382
-2.95383
-2.95384
-2.95384
-2.95385
-2.95385
-2.95385
-2.95385
-2.95385
-2.95384
-2.95384
-2.95384
-2.95384
-2.95384
-2.95384
-2.95384
-2.95384
-2.95384
-2.95384
-2.95384
-3.0523
-3.0523
-3.0523
-3.0523
-3.0523
-3.0523
-3.05231
-3.05231
-3.05232
-3.05232