/*--------------------------------*- C++ -*----------------------------------*\
| =========                 |                                                 |
| \\      /  F ield         | OpenFOAM: The Open Source CFD Toolbox           |
|  \\    /   O peration     | Version:  4.1                                   |
|   \\  /    A nd           | Web:      www.OpenFOAM.org                      |
|    \\/     M anipulation  |                                                 |
\*---------------------------------------------------------------------------*/
FoamFile
{
    version     2.0;
    format      ascii;
    class       volScalarField;
    location    "1040";
    object      T;
}
// * * * * * * * * * * * * * * * * * * * * * * * * * * * * * * * * * * * * * //

dimensions      [0 0 0 1 0 0 0];

internalField   nonuniform List<scalar> 
5000
(
285.921
285.599
285.389
285.211
285.046
284.886
284.726
284.583
284.477
284.399
284.345
284.308
284.283
284.268
284.26
284.258
284.26
284.266
284.27
284.271
284.276
284.29
284.314
284.344
284.379
284.419
284.463
284.512
284.565
284.621
284.679
284.738
284.798
284.861
284.927
285
285.081
285.173
285.28
285.391
285.505
285.621
285.739
285.858
285.978
286.097
286.216
286.335
286.455
286.575
286.699
286.826
286.956
287.09
287.187
287.27
287.462
287.641
287.816
287.917
287.692
286.265
285.559
285.324
285.137
284.965
284.805
284.654
284.511
284.375
284.242
284.111
283.979
283.868
283.785
283.727
283.692
283.681
283.695
283.742
283.818
283.87
283.932
284.005
284.09
284.188
284.301
284.431
284.58
284.749
284.929
285.106
285.282
285.459
285.638
285.819
286.005
286.198
286.409
286.699
285.176
284.2
283.592
283.236
283.029
282.918
282.877
282.87
282.865
282.862
282.861
282.86
282.861
282.861
282.862
282.864
282.865
282.867
282.868
282.87
282.871
282.873
282.875
282.876
282.878
282.88
282.882
282.884
282.886
282.888
282.89
282.893
282.895
282.898
282.901
282.903
282.907
282.91
282.913
282.926
282.949
282.986
283.036
283.098
283.172
283.254
283.34
283.427
283.51
283.584
283.641
283.67
283.65
283.56
283.453
283.444
283.674
284.388
285.249
285.571
285.623
285.815
284.443
283.545
283.303
283.241
283.173
283.083
282.99
282.907
282.843
282.805
282.798
282.798
282.798
282.796
282.794
282.793
282.794
282.798
282.805
282.808
282.811
282.814
282.816
282.818
282.82
282.822
282.824
282.826
282.839
282.875
282.932
283.008
283.101
283.215
283.374
283.671
284.371
285.656
284.826
283.723
283.184
282.962
282.878
282.85
282.84
282.835
282.832
282.83
282.829
282.83
282.831
282.833
282.835
282.837
282.84
282.842
282.844
282.845
282.847
282.849
282.85
282.852
282.853
282.855
282.856
282.858
282.859
282.86
282.862
282.863
282.865
282.866
282.868
282.87
282.872
282.875
282.877
282.88
282.883
282.888
282.895
282.905
282.918
282.936
282.957
282.982
283.009
283.035
283.057
283.071
283.07
283.049
283.021
283.015
283.109
283.457
284.004
284.223
284.274
285.15
284.582
283.279
282.997
282.936
282.897
282.861
282.833
282.817
282.811
282.813
282.818
282.82
282.819
282.813
282.806
282.799
282.797
282.801
282.808
282.813
282.816
282.819
282.821
282.823
282.824
282.824
282.824
282.823
282.823
282.824
282.83
282.842
282.865
282.904
282.975
283.147
283.727
285.173
284.619
283.502
283.045
282.896
282.851
282.835
282.827
282.821
282.817
282.815
282.815
282.816
282.818
282.821
282.823
282.826
282.829
282.831
282.833
282.835
282.838
282.839
282.841
282.843
282.844
282.845
282.847
282.848
282.849
282.85
282.851
282.852
282.853
282.854
282.855
282.857
282.858
282.86
282.863
282.865
282.868
282.871
282.874
282.878
282.883
282.888
282.895
282.903
282.911
282.92
282.929
282.935
282.937
282.934
282.928
282.927
282.957
283.087
283.34
283.471
283.525
284.456
284.596
283.471
282.916
282.862
282.844
282.835
282.833
282.838
282.847
282.857
282.866
282.869
282.864
282.85
282.831
282.816
282.808
282.81
282.818
282.824
282.83
282.834
282.837
282.838
282.839
282.839
282.838
282.837
282.836
282.835
282.834
282.835
282.84
282.852
282.885
282.985
283.438
284.884
284.484
283.381
282.985
282.874
282.842
282.829
282.82
282.813
282.808
282.805
282.806
282.808
282.81
282.813
282.816
282.819
282.821
282.824
282.827
282.829
282.832
282.834
282.836
282.837
282.839
282.84
282.841
282.842
282.842
282.843
282.843
282.844
282.845
282.845
282.846
282.847
282.848
282.849
282.851
282.853
282.855
282.858
282.861
282.864
282.868
282.872
282.876
282.881
282.885
282.89
282.894
282.898
282.9
282.901
282.9
282.899
282.908
282.949
283.044
283.109
283.152
283.894
284.41
283.778
282.917
282.845
282.842
282.85
282.865
282.884
282.904
282.922
282.935
282.939
282.927
282.9
282.866
282.837
282.821
282.821
282.829
282.837
282.845
282.851
282.855
282.857
282.858
282.857
282.855
282.852
282.849
282.847
282.845
282.843
282.842
282.845
282.86
282.921
283.279
284.686
284.389
283.309
282.956
282.865
282.84
282.828
282.818
282.809
282.802
282.799
282.8
282.802
282.804
282.807
282.81
282.813
282.816
282.819
282.822
282.826
282.828
282.831
282.833
282.835
282.836
282.837
282.838
282.839
282.839
282.839
282.839
282.839
282.839
282.839
282.839
282.839
282.84
282.841
282.842
282.843
282.845
282.847
282.85
282.853
282.856
282.86
282.863
282.867
282.872
282.876
282.88
282.883
282.886
282.888
282.888
282.888
282.891
282.902
282.932
282.959
282.985
283.489
284.15
283.907
283.156
282.843
282.853
282.876
282.906
282.94
282.975
283.004
283.024
283.028
283.007
282.964
282.909
282.862
282.836
282.832
282.84
282.85
282.861
282.869
282.875
282.879
282.879
282.878
282.875
282.87
282.866
282.861
282.857
282.854
282.85
282.849
282.854
282.893
283.181
284.541
284.32
283.263
282.941
282.863
282.841
282.829
282.818
282.805
282.796
282.794
282.796
282.798
282.8
282.802
282.805
282.809
282.813
282.817
282.82
282.824
282.828
282.831
282.833
282.835
282.836
282.837
282.837
282.837
282.836
282.836
282.835
282.835
282.834
282.833
282.833
282.833
282.833
282.833
282.834
282.835
282.836
282.838
282.84
282.842
282.845
282.849
282.852
282.856
282.86
282.864
282.869
282.873
282.876
282.879
282.881
282.882
282.883
282.886
282.894
282.903
282.916
283.223
283.879
283.916
283.385
282.928
282.864
282.901
282.947
282.999
283.052
283.097
283.125
283.129
283.099
283.036
282.956
282.889
282.851
282.843
282.851
282.863
282.876
282.887
282.896
282.901
282.903
282.901
282.897
282.891
282.884
282.878
282.871
282.865
282.86
282.855
282.855
282.879
283.116
284.429
284.269
283.232
282.933
282.863
282.842
282.83
282.816
282.799
282.791
282.791
282.792
282.794
282.796
282.799
282.802
282.807
282.811
282.816
282.821
282.825
282.829
282.832
282.835
282.836
282.837
282.837
282.837
282.836
282.835
282.833
282.832
282.83
282.829
282.828
282.827
282.826
282.826
282.826
282.826
282.827
282.828
282.829
282.831
282.833
282.835
282.838
282.842
282.846
282.85
282.854
282.859
282.863
282.867
282.871
282.874
282.876
282.878
282.879
282.881
282.883
282.888
283.063
283.627
283.845
283.534
283.092
282.895
282.917
282.979
283.05
283.123
283.187
283.226
283.231
283.194
283.111
283.005
282.916
282.867
282.854
282.861
282.876
282.891
282.906
282.917
282.924
282.927
282.925
282.921
282.914
282.905
282.896
282.887
282.878
282.87
282.863
282.858
282.873
283.071
284.338
284.229
283.212
282.929
282.864
282.844
282.83
282.811
282.792
282.788
282.789
282.789
282.79
282.793
282.797
282.802
282.807
282.813
282.819
282.825
282.83
282.834
282.836
282.838
282.839
282.839
282.838
282.837
282.835
282.832
282.83
282.828
282.826
282.824
282.822
282.821
282.819
282.819
282.818
282.818
282.819
282.819
282.82
282.822
282.824
282.826
282.829
282.832
282.836
282.84
282.844
282.849
282.854
282.858
282.863
282.867
282.87
282.873
282.875
282.876
282.875
282.877
282.972
283.413
283.727
283.606
283.254
282.986
282.931
282.992
283.081
283.174
283.258
283.306
283.314
283.279
283.18
283.051
282.943
282.882
282.865
282.871
282.888
282.907
282.924
282.937
282.946
282.951
282.95
282.945
282.937
282.927
282.915
282.903
282.892
282.881
282.872
282.864
282.87
283.038
284.262
284.197
283.197
282.928
282.865
282.844
282.827
282.802
282.787
282.787
282.786
282.786
282.788
282.792
282.798
282.805
282.812
282.819
282.825
282.831
282.836
282.84
282.842
282.843
282.842
282.841
282.839
282.836
282.833
282.829
282.826
282.823
282.82
282.818
282.815
282.814
282.812
282.811
282.811
282.81
282.811
282.811
282.812
282.813
282.815
282.817
282.82
282.823
282.827
282.831
282.835
282.84
282.844
282.85
282.855
282.859
282.864
282.867
282.87
282.871
282.871
282.872
282.923
283.242
283.586
283.611
283.377
283.11
282.981
282.997
283.081
283.185
283.28
283.333
283.357
283.337
283.233
283.088
282.966
282.897
282.875
282.881
282.9
282.922
282.942
282.958
282.969
282.974
282.975
282.97
282.961
282.949
282.935
282.921
282.906
282.893
282.881
282.87
282.871
283.013
284.197
284.171
283.187
282.927
282.865
282.841
282.82
282.788
282.785
282.785
282.784
282.785
282.789
282.795
282.803
282.811
282.82
282.828
282.835
282.841
282.845
282.848
282.848
282.847
282.845
282.842
282.838
282.833
282.829
282.825
282.821
282.817
282.814
282.811
282.808
282.807
282.805
282.804
282.803
282.803
282.803
282.803
282.804
282.805
282.807
282.809
282.811
282.814
282.818
282.822
282.826
282.831
282.836
282.841
282.846
282.852
282.857
282.861
282.865
282.867
282.868
282.869
282.897
283.116
283.442
283.569
283.451
283.231
283.066
283.025
283.076
283.166
283.241
283.293
283.352
283.358
283.265
283.115
282.983
282.907
282.883
282.891
282.913
282.938
282.961
282.979
282.991
282.997
282.998
282.994
282.985
282.972
282.956
282.939
282.921
282.905
282.89
282.876
282.872
282.994
284.14
284.149
283.179
282.926
282.863
282.837
282.811
282.777
282.786
282.783
282.783
282.786
282.793
282.802
282.812
282.822
282.831
282.84
282.847
282.852
282.854
282.855
282.854
282.85
282.846
282.841
282.835
282.829
282.824
282.819
282.814
282.81
282.807
282.804
282.802
282.8
282.798
282.797
282.796
282.796
282.796
282.796
282.797
282.798
282.799
282.801
282.804
282.806
282.81
282.813
282.818
282.822
282.827
282.833
282.838
282.844
282.85
282.855
282.859
282.863
282.865
282.866
282.882
283.027
283.31
283.496
283.478
283.326
283.165
283.083
283.089
283.148
283.207
283.27
283.349
283.369
283.278
283.123
282.986
282.91
282.889
282.901
282.927
282.955
282.98
282.999
283.012
283.019
283.021
283.017
283.008
282.994
282.976
282.957
282.936
282.917
282.899
282.883
282.875
282.98
284.091
284.131
283.174
282.925
282.86
282.831
282.802
282.773
282.786
282.782
282.785
282.792
282.802
282.813
282.825
282.836
282.846
282.854
282.859
282.863
282.863
282.861
282.857
282.851
282.844
282.837
282.83
282.823
282.817
282.812
282.808
282.804
282.801
282.798
282.796
282.795
282.793
282.792
282.792
282.791
282.791
282.791
282.791
282.792
282.793
282.795
282.797
282.799
282.803
282.806
282.81
282.815
282.82
282.825
282.831
282.837
282.843
282.849
282.854
282.858
282.861
282.863
282.873
282.967
283.197
283.407
283.466
283.387
283.257
283.161
283.132
283.159
283.208
283.279
283.364
283.38
283.276
283.113
282.977
282.907
282.893
282.912
282.942
282.973
282.999
283.018
283.032
283.039
283.041
283.038
283.029
283.015
282.996
282.974
282.951
282.929
282.908
282.889
282.878
282.97
284.047
284.115
283.169
282.923
282.855
282.823
282.794
282.777
282.784
282.784
282.79
282.801
282.815
282.828
282.841
282.852
282.861
282.868
282.872
282.872
282.87
282.865
282.857
282.849
282.84
282.832
282.824
282.817
282.811
282.806
282.802
282.799
282.796
282.795
282.793
282.792
282.791
282.79
282.789
282.788
282.788
282.787
282.787
282.788
282.789
282.79
282.792
282.794
282.796
282.8
282.804
282.808
282.813
282.818
282.824
282.83
282.836
282.842
282.848
282.853
282.857
282.86
282.867
282.929
283.108
283.318
283.429
283.415
283.329
283.241
283.197
283.203
283.245
283.318
283.397
283.389
283.258
283.086
282.958
282.9
282.898
282.924
282.959
282.991
283.017
283.037
283.05
283.057
283.059
283.056
283.048
283.034
283.014
282.99
282.965
282.94
282.917
282.896
282.881
282.962
284.009
284.102
283.165
282.92
282.849
282.815
282.79
282.784
282.785
282.788
282.8
282.815
282.831
282.846
282.859
282.869
282.877
282.881
282.882
282.879
282.873
282.865
282.855
282.844
282.834
282.824
282.816
282.81
282.805
282.801
282.798
282.796
282.794
282.793
282.792
282.791
282.79
282.789
282.788
282.788
282.787
282.786
282.786
282.786
282.786
282.787
282.788
282.79
282.792
282.795
282.798
282.802
282.807
282.812
282.818
282.824
282.83
282.837
282.843
282.849
282.853
282.856
282.862
282.904
283.041
283.236
283.379
283.417
283.377
283.312
283.269
283.267
283.305
283.376
283.437
283.386
283.22
283.044
282.932
282.894
282.905
282.939
282.977
283.01
283.035
283.053
283.065
283.072
283.075
283.072
283.065
283.05
283.03
283.005
282.978
282.951
282.926
282.902
282.885
282.955
283.975
284.09
283.16
282.915
282.842
282.809
282.784
282.792
282.789
282.796
282.814
282.833
282.85
282.865
282.877
282.886
282.891
282.892
282.89
282.883
282.873
282.862
282.849
282.837
282.826
282.817
282.81
282.804
282.801
282.798
282.796
282.795
282.794
282.794
282.793
282.793
282.792
282.791
282.79
282.789
282.788
282.787
282.786
282.786
282.785
282.785
282.786
282.787
282.789
282.791
282.794
282.798
282.802
282.807
282.813
282.819
282.825
282.832
282.838
282.844
282.849
282.853
282.858
282.888
282.992
283.167
283.325
283.403
283.404
283.367
283.336
283.335
283.373
283.441
283.468
283.356
283.158
282.99
282.904
282.89
282.917
282.957
282.996
283.028
283.052
283.068
283.078
283.084
283.087
283.085
283.078
283.064
283.044
283.018
282.99
282.961
282.933
282.908
282.888
282.951
283.945
284.079
283.156
282.909
282.836
282.805
282.771
282.798
282.795
282.809
282.831
282.853
282.871
282.884
282.894
282.9
282.902
282.9
282.893
282.883
282.87
282.856
282.842
282.829
282.819
282.811
282.805
282.801
282.799
282.798
282.797
282.797
282.797
282.797
282.796
282.796
282.795
282.794
282.793
282.792
282.79
282.789
282.788
282.787
282.786
282.785
282.785
282.785
282.787
282.788
282.791
282.794
282.798
282.803
282.808
282.814
282.821
282.827
282.834
282.84
282.846
282.85
282.855
282.877
282.959
283.113
283.276
283.382
283.416
283.407
283.393
283.4
283.44
283.499
283.469
283.286
283.072
282.932
282.883
282.894
282.933
282.976
283.014
283.044
283.066
283.08
283.088
283.092
283.095
283.095
283.089
283.076
283.055
283.029
283
282.969
282.94
282.913
282.891
282.948
283.918
284.07
283.152
282.903
282.831
282.805
282.771
282.802
282.804
282.825
282.851
282.874
282.891
282.902
282.909
282.912
282.91
282.904
282.894
282.88
282.864
282.848
282.834
282.822
282.813
282.806
282.802
282.8
282.8
282.8
282.8
282.801
282.801
282.801
282.8
282.799
282.798
282.797
282.796
282.794
282.793
282.791
282.79
282.788
282.787
282.786
282.785
282.785
282.785
282.786
282.788
282.791
282.795
282.799
282.804
282.81
282.817
282.824
282.831
282.837
282.843
282.848
282.853
282.87
282.938
283.075
283.237
283.361
283.423
283.438
283.44
283.458
283.501
283.539
283.413
283.171
282.976
282.883
282.874
282.906
282.952
282.995
283.032
283.059
283.077
283.088
283.094
283.097
283.1
283.101
283.096
283.084
283.064
283.038
283.008
282.976
282.946
282.918
282.894
282.945
283.895
284.062
283.148
282.896
282.828
282.811
282.787
282.808
282.816
282.843
282.874
282.896
282.91
282.917
282.921
282.92
282.915
282.904
282.89
282.874
282.857
282.84
282.826
282.815
282.808
282.804
282.802
282.802
282.803
282.804
282.805
282.805
282.806
282.805
282.804
282.803
282.801
282.799
282.798
282.796
282.794
282.792
282.791
282.789
282.788
282.787
282.786
282.785
282.785
282.785
282.787
282.789
282.792
282.796
282.801
282.807
282.814
282.821
282.828
282.835
282.841
282.846
282.851
282.866
282.924
283.05
283.211
283.348
283.429
283.464
283.482
283.509
283.551
283.526
283.279
283.028
282.889
282.855
282.879
282.925
282.972
283.014
283.047
283.071
283.086
283.093
283.096
283.099
283.102
283.104
283.101
283.09
283.071
283.044
283.014
282.982
282.951
282.921
282.897
282.944
283.875
284.055
283.144
282.889
282.828
282.816
282.811
282.818
282.831
282.864
282.896
282.917
282.927
282.93
282.929
282.924
282.915
282.902
282.885
282.866
282.848
282.833
282.82
282.811
282.806
282.804
282.804
282.805
282.807
282.809
282.81
282.811
282.81
282.809
282.808
282.805
282.803
282.801
282.798
282.796
282.794
282.792
282.791
282.789
282.788
282.787
282.786
282.785
282.784
282.785
282.786
282.788
282.791
282.794
282.799
282.805
282.811
282.819
282.826
282.833
282.839
282.845
282.849
282.863
282.916
283.036
283.198
283.345
283.441
283.491
283.522
283.556
283.576
283.389
283.079
282.894
282.836
282.852
282.897
282.946
282.992
283.029
283.059
283.079
283.091
283.096
283.097
283.098
283.102
283.106
283.105
283.094
283.075
283.049
283.018
282.986
282.955
282.924
282.899
282.943
283.858
284.048
283.139
282.883
282.83
282.801
282.832
282.831
282.848
282.887
282.919
282.936
282.941
282.939
282.934
282.926
282.913
282.896
282.878
282.859
282.841
282.826
282.815
282.809
282.806
282.806
282.808
282.81
282.813
282.814
282.815
282.815
282.814
282.812
282.81
282.806
282.803
282.8
282.797
282.794
282.792
282.791
282.789
282.788
282.787
282.786
282.785
282.784
282.784
282.784
282.785
282.787
282.789
282.793
282.798
282.803
282.81
282.817
282.825
282.832
282.839
282.844
282.848
282.861
282.912
283.033
283.2
283.355
283.462
283.523
283.561
283.593
283.499
283.119
282.885
282.811
282.824
282.868
282.919
282.967
283.008
283.042
283.068
283.085
283.094
283.096
283.095
283.095
283.1
283.108
283.107
283.096
283.077
283.051
283.021
282.989
282.957
282.927
282.9
282.943
283.843
284.043
283.134
282.878
282.833
282.784
282.848
282.842
282.868
282.911
282.941
282.952
282.952
282.945
282.936
282.924
282.908
282.89
282.87
282.851
282.834
282.821
282.813
282.808
282.808
282.81
282.813
282.816
282.818
282.82
282.82
282.819
282.817
282.814
282.81
282.806
282.801
282.797
282.794
282.791
282.789
282.787
282.786
282.785
282.785
282.784
282.784
282.784
282.783
282.783
282.784
282.786
282.788
282.792
282.797
282.803
282.809
282.817
282.824
282.832
282.838
282.844
282.848
282.86
282.912
283.039
283.217
283.382
283.496
283.56
283.599
283.602
283.181
282.854
282.778
282.795
282.841
282.891
282.94
282.983
283.02
283.05
283.073
283.088
283.095
283.095
283.092
283.093
283.098
283.106
283.107
283.096
283.077
283.051
283.022
282.99
282.959
282.928
282.902
282.943
283.83
284.038
283.128
282.874
282.838
282.81
282.86
282.854
282.891
282.937
282.962
282.966
282.96
282.949
282.935
282.92
282.902
282.883
282.863
282.845
282.829
282.818
282.812
282.81
282.811
282.814
282.818
282.821
282.824
282.825
282.824
282.822
282.819
282.814
282.809
282.804
282.798
282.793
282.788
282.785
282.783
282.782
282.781
282.781
282.782
282.782
282.782
282.782
282.782
282.783
282.784
282.785
282.788
282.791
282.796
282.802
282.809
282.817
282.825
282.833
282.839
282.844
282.848
282.86
282.916
283.06
283.261
283.428
283.537
283.595
283.612
283.553
282.782
282.736
282.769
282.816
282.865
282.911
282.955
282.995
283.028
283.056
283.076
283.089
283.094
283.093
283.09
283.089
283.094
283.101
283.102
283.093
283.074
283.05
283.021
282.991
282.96
282.93
282.903
282.943
283.819
284.033
283.123
282.872
282.844
282.838
282.86
282.866
282.918
282.963
282.98
282.978
282.966
282.95
282.933
282.915
282.895
282.876
282.857
282.84
282.826
282.817
282.813
282.813
282.816
282.82
282.824
282.827
282.829
282.829
282.827
282.824
282.819
282.813
282.807
282.8
282.793
282.787
282.781
282.778
282.776
282.775
282.775
282.776
282.778
282.779
282.78
282.781
282.781
282.782
282.783
282.785
282.788
282.791
282.797
282.803
282.81
282.818
282.826
282.834
282.84
282.845
282.849
282.865
282.946
283.122
283.323
283.479
283.572
283.606
283.566
283.39
282.712
282.75
282.794
282.839
282.884
282.926
282.966
283.001
283.032
283.058
283.077
283.089
283.093
283.091
283.087
283.084
283.088
283.094
283.095
283.087
283.07
283.047
283.02
282.99
282.96
282.931
282.904
282.944
283.809
284.029
283.116
282.873
282.849
282.849
282.854
282.886
282.949
282.987
282.995
282.987
282.97
282.95
282.929
282.909
282.889
282.87
282.852
282.836
282.825
282.818
282.815
282.817
282.821
282.825
282.829
282.832
282.833
282.832
282.829
282.825
282.819
282.812
282.804
282.796
282.788
282.78
282.774
282.769
282.767
282.767
282.769
282.771
282.774
282.776
282.778
282.78
282.78
282.781
282.783
282.785
282.788
282.792
282.798
282.805
282.812
282.821
282.829
282.836
282.842
282.847
282.856
282.896
283.016
283.204
283.39
283.523
283.587
283.569
283.435
283.108
282.734
282.773
282.814
282.855
282.896
282.935
282.971
283.004
283.033
283.057
283.076
283.088
283.093
283.09
283.084
283.079
283.08
283.085
283.086
283.08
283.065
283.044
283.018
282.99
282.961
282.931
282.905
282.945
283.801
284.024
283.108
282.874
282.845
282.861
282.853
282.915
282.981
283.008
283.009
282.994
282.973
282.949
282.925
282.903
282.883
282.865
282.848
282.834
282.825
282.819
282.819
282.821
282.826
282.83
282.834
282.836
282.836
282.834
282.831
282.825
282.818
282.81
282.801
282.792
282.783
282.774
282.766
282.76
282.758
282.76
282.763
282.767
282.771
282.774
282.777
282.778
282.78
282.781
282.783
282.785
282.789
282.793
282.8
282.807
282.815
282.824
282.832
282.84
282.847
282.858
282.887
282.964
283.109
283.29
283.45
283.549
283.566
283.478
283.245
282.851
282.752
282.789
282.827
282.865
282.903
282.938
282.972
283.003
283.03
283.054
283.073
283.086
283.092
283.09
283.083
283.075
283.072
283.075
283.076
283.071
283.058
283.039
283.015
282.988
282.96
282.932
282.906
282.946
283.794
284.018
283.098
282.876
282.829
282.881
282.867
282.952
283.008
283.027
283.021
283.002
282.976
282.949
282.922
282.899
282.878
282.86
282.845
282.833
282.826
282.822
282.823
282.826
282.83
282.835
282.838
282.84
282.839
282.837
282.832
282.826
282.818
282.809
282.799
282.789
282.779
282.77
282.761
282.753
282.751
282.755
282.76
282.765
282.77
282.773
282.776
282.778
282.779
282.781
282.783
282.786
282.79
282.796
282.803
282.811
282.82
282.829
282.838
282.848
282.863
282.891
282.949
283.056
283.207
283.367
283.491
283.546
283.508
283.352
283.065
282.755
282.766
282.8
282.835
282.87
282.905
282.938
282.969
282.998
283.025
283.049
283.069
283.083
283.091
283.09
283.083
283.073
283.066
283.064
283.066
283.062
283.051
283.034
283.012
282.987
282.96
282.932
282.907
282.947
283.787
284.012
283.088
282.878
282.832
282.895
282.9
282.988
283.034
283.045
283.034
283.011
282.981
282.95
282.921
282.896
282.874
282.857
282.844
282.833
282.827
282.825
282.827
282.83
282.835
282.84
282.843
282.843
282.842
282.839
282.833
282.826
282.818
282.809
282.799
282.789
282.778
282.769
282.76
282.753
282.752
282.756
282.761
282.766
282.77
282.773
282.776
282.778
282.78
282.782
282.784
282.788
282.793
282.8
282.808
282.817
282.826
282.837
282.85
282.869
282.9
282.952
283.036
283.155
283.295
283.424
283.507
283.515
283.423
283.217
282.929
282.745
282.774
282.806
282.838
282.87
282.902
282.933
282.963
282.99
283.016
283.04
283.061
283.078
283.089
283.091
283.086
283.074
283.062
283.056
283.055
283.052
283.043
283.028
283.008
282.985
282.959
282.932
282.908
282.948
283.781
284.005
283.076
282.882
282.856
282.888
282.939
283.021
283.058
283.064
283.048
283.021
282.987
282.953
282.921
282.894
282.872
282.855
282.843
282.834
282.829
282.828
282.831
282.835
282.84
282.844
282.847
282.847
282.845
282.841
282.836
282.828
282.819
282.81
282.8
282.79
282.78
282.772
282.765
282.76
282.759
282.76
282.764
282.767
282.771
282.774
282.776
282.778
282.781
282.783
282.787
282.792
282.798
282.806
282.815
282.825
282.838
282.855
282.878
282.912
282.963
283.035
283.131
283.246
283.364
283.457
283.496
283.457
283.321
283.09
282.836
282.749
282.778
282.807
282.837
282.867
282.896
282.925
282.953
282.979
283.004
283.028
283.051
283.07
283.084
283.091
283.09
283.079
283.064
283.05
283.045
283.043
283.036
283.022
283.004
282.982
282.958
282.932
282.91
282.949
283.775
283.997
283.063
282.886
282.866
282.893
282.979
283.052
283.083
283.084
283.065
283.034
282.997
282.959
282.924
282.895
282.871
282.855
282.843
282.835
282.832
282.832
282.835
282.839
282.844
282.848
282.851
282.851
282.849
282.845
282.839
282.831
282.822
282.813
282.803
282.793
282.784
282.777
282.771
282.767
282.765
282.765
282.767
282.77
282.773
282.775
282.778
282.78
282.783
282.786
282.791
282.797
282.805
282.814
282.826
282.84
282.86
282.888
282.926
282.977
283.043
283.124
283.219
283.319
283.407
283.461
283.458
283.377
283.209
282.975
282.779
282.751
282.777
282.804
282.831
282.859
282.886
282.913
282.939
282.964
282.988
283.013
283.036
283.058
283.076
283.089
283.093
283.087
283.072
283.052
283.038
283.034
283.028
283.017
283.001
282.98
282.957
282.933
282.911
282.95
283.769
283.989
283.051
282.89
282.873
282.917
283.017
283.083
283.109
283.107
283.086
283.052
283.012
282.97
282.931
282.898
282.873
282.855
282.844
282.837
282.834
282.835
282.839
282.844
282.849
282.853
282.856
282.856
282.854
282.849
282.843
282.835
282.827
282.817
282.808
282.798
282.79
282.783
282.777
282.773
282.771
282.771
282.772
282.773
282.776
282.778
282.78
282.783
282.787
282.791
282.797
282.805
282.814
282.827
282.844
282.867
282.898
282.94
282.991
283.054
283.126
283.206
283.288
283.365
283.42
283.435
283.392
283.277
283.091
282.877
282.748
282.749
282.773
282.797
282.822
282.848
282.873
282.898
282.922
282.946
282.969
282.993
283.017
283.041
283.063
283.082
283.093
283.095
283.084
283.063
283.039
283.026
283.021
283.011
282.997
282.978
282.956
282.933
282.913
282.952
283.763
283.979
283.039
282.893
282.884
282.952
283.053
283.114
283.137
283.134
283.111
283.075
283.032
282.985
282.942
282.904
282.876
282.857
282.845
282.839
282.837
282.839
282.843
282.848
282.854
282.858
282.861
282.861
282.859
282.855
282.849
282.841
282.833
282.823
282.814
282.805
282.797
282.79
282.784
282.78
282.777
282.776
282.776
282.778
282.779
282.782
282.784
282.788
282.792
282.798
282.806
282.816
282.83
282.848
282.874
282.908
282.951
283.003
283.063
283.129
283.198
283.267
283.33
283.379
283.4
283.379
283.302
283.162
282.975
282.801
282.732
282.744
282.765
282.787
282.81
282.833
282.857
282.88
282.902
282.924
282.947
282.97
282.994
283.019
283.044
283.068
283.087
283.098
283.097
283.081
283.052
283.025
283.015
283.006
282.994
282.976
282.956
282.933
282.914
282.954
283.757
283.969
283.028
282.897
282.903
282.994
283.088
283.146
283.169
283.166
283.142
283.105
283.058
283.007
282.958
282.915
282.882
282.86
282.847
282.841
282.84
282.842
282.847
282.853
282.859
282.864
282.867
282.868
282.866
282.862
282.856
282.849
282.84
282.831
282.822
282.813
282.805
282.797
282.792
282.787
282.784
282.783
282.782
282.783
282.785
282.787
282.79
282.794
282.8
282.808
282.818
282.833
282.852
282.879
282.915
282.959
283.011
283.069
283.129
283.19
283.248
283.3
283.34
283.359
283.347
283.293
283.19
283.04
282.872
282.751
282.721
282.735
282.753
282.773
282.794
282.816
282.838
282.859
282.88
282.901
282.922
282.944
282.967
282.993
283.019
283.047
283.073
283.094
283.105
283.101
283.076
283.039
283.011
283.002
282.991
282.975
282.956
282.934
282.915
282.955
283.751
283.957
283.018
282.901
282.925
283.03
283.126
283.181
283.205
283.203
283.18
283.142
283.092
283.036
282.981
282.93
282.891
282.865
282.85
282.844
282.843
282.846
282.851
282.857
282.864
282.87
282.874
282.875
282.874
282.871
282.865
282.858
282.849
282.84
282.831
282.822
282.814
282.806
282.8
282.796
282.792
282.79
282.79
282.79
282.792
282.794
282.798
282.803
282.811
282.821
282.836
282.856
282.883
282.918
282.962
283.013
283.068
283.124
283.179
283.228
283.27
283.301
283.315
283.305
283.264
283.185
283.068
282.924
282.791
282.718
282.709
282.722
282.738
282.756
282.775
282.796
282.816
282.836
282.856
282.876
282.896
282.917
282.939
282.963
282.99
283.019
283.05
283.079
283.103
283.114
283.104
283.069
283.02
283
282.989
282.974
282.956
282.935
282.916
282.957
283.744
283.946
283.01
282.905
282.948
283.065
283.163
283.218
283.245
283.245
283.224
283.186
283.134
283.074
283.011
282.953
282.905
282.872
282.854
282.847
282.846
282.849
282.855
282.862
282.87
282.877
282.882
282.884
282.884
282.881
282.876
282.869
282.86
282.851
282.842
282.833
282.824
282.816
282.81
282.805
282.801
282.799
282.798
282.798
282.8
282.803
282.808
282.815
282.825
282.839
282.859
282.885
282.919
282.961
283.01
283.062
283.114
283.163
283.205
283.239
283.262
283.269
283.258
283.223
283.159
283.066
282.948
282.825
282.732
282.694
282.694
282.705
282.719
282.736
282.754
282.773
282.792
282.812
282.831
282.85
282.869
282.889
282.91
282.933
282.959
282.988
283.02
283.055
283.09
283.116
283.126
283.107
283.057
283.004
282.989
282.974
282.957
282.937
282.918
282.959
283.738
283.935
283.003
282.911
282.97
283.096
283.199
283.26
283.288
283.292
283.274
283.237
283.185
283.121
283.052
282.984
282.926
282.884
282.86
282.85
282.849
282.853
282.859
282.867
282.876
282.884
282.89
282.894
282.895
282.893
282.889
282.882
282.874
282.864
282.855
282.845
282.836
282.828
282.821
282.816
282.812
282.809
282.808
282.808
282.811
282.814
282.821
282.83
282.843
282.861
282.885
282.917
282.956
283.001
283.05
283.098
283.142
283.179
283.206
283.222
283.223
283.209
283.176
283.121
283.044
282.948
282.843
282.75
282.692
282.673
282.676
282.685
282.697
282.712
282.73
282.748
282.767
282.786
282.805
282.824
282.843
282.862
282.882
282.904
282.928
282.955
282.987
283.025
283.066
283.105
283.134
283.138
283.103
283.027
282.993
282.976
282.958
282.939
282.92
282.96
283.731
283.923
282.998
282.916
282.99
283.124
283.233
283.301
283.333
283.342
283.327
283.292
283.242
283.177
283.102
283.025
282.954
282.9
282.868
282.854
282.852
282.856
282.863
282.872
282.882
282.891
282.899
282.905
282.908
282.907
282.904
282.898
282.89
282.881
282.87
282.86
282.85
282.841
282.834
282.828
282.824
282.821
282.82
282.82
282.823
282.828
282.835
282.847
282.863
282.885
282.913
282.949
282.99
283.034
283.079
283.119
283.151
283.173
283.183
283.179
283.161
283.128
283.079
283.013
282.932
282.843
282.759
282.694
282.66
282.651
282.653
282.66
282.671
282.686
282.703
282.722
282.74
282.76
282.779
282.798
282.818
282.838
282.858
282.878
282.9
282.925
282.954
282.991
283.035
283.084
283.128
283.155
283.147
283.085
283.005
282.98
282.961