/*--------------------------------*- C++ -*----------------------------------*\
| =========                 |                                                 |
| \\      /  F ield         | OpenFOAM: The Open Source CFD Toolbox           |
|  \\    /   O peration     | Version:  4.1                                   |
|   \\  /    A nd           | Web:      www.OpenFOAM.org                      |
|    \\/     M anipulation  |                                                 |
\*---------------------------------------------------------------------------*/
FoamFile
{
    version     2.0;
    format      ascii;
    class       volScalarField;
    location    "1580";
    object      mag(U);
}
// * * * * * * * * * * * * * * * * * * * * * * * * * * * * * * * * * * * * * //

dimensions      [0 1 -1 0 0 0 0];

internalField   nonuniform List<scalar> 
5000
(
0.00278722
0.00238666
0.00181483
0.00201066
0.00334194
0.00497369
0.00671156
0.00849725
0.0102791
0.0119732
0.013468
0.0146545
0.0154635
0.0158823
0.0159247
0.0156084
0.0148867
0.0135816
0.0113053
0.00749975
0.00304324
0.00164419
0.00299944
0.00455548
0.0059103
0.00706799
0.00803008
0.00878441
0.00931168
0.00959065
0.00960748
0.00936491
0.00886484
0.00812778
0.0071858
0.00607716
0.0048442
0.00353486
0.00219853
0.00101434
0.00116814
0.00230295
0.00351542
0.00467459
0.0057548
0.00674722
0.00764839
0.0084579
0.0091772
0.00980881
0.0103558
0.0108215
0.0112091
0.011522
0.0117635
0.0119372
0.0120479
0.0121017
0.0121075
0.0120679
0.011984
0.0118571
0.0116884
0.0114795
0.0112324
0.0109491
0.0106325
0.0102859
0.0099132
0.0095185
0.0091061
0.00867981
0.0082422
0.00779332
0.00732913
0.00683951
0.00630633
0.00570213
0.00499037
0.00412841
0.00307657
0.00194402
0.00112017
0.00246936
0.00432485
0.00621718
0.00798519
0.00931509
0.00969363
0.00900266
0.00798892
0.00680591
0.00553948
0.00422107
0.00288489
0.00171986
0.00215498
0.00365317
0.00467849
0.00545373
0.00385145
0.00187846
0.00270073
0.00278949
0.00352825
0.00470768
0.00610576
0.00761788
0.00918186
0.0107256
0.0121519
0.0133516
0.0142392
0.0147721
0.0149102
0.0146454
0.0139582
0.0128206
0.0112632
0.0091741
0.00634448
0.0036742
0.00329253
0.00415503
0.00526428
0.0063089
0.00719888
0.00789048
0.00835404
0.00856634
0.00851183
0.00821988
0.00769939
0.00697634
0.00608722
0.00507884
0.0040181
0.00301374
0.00229655
0.0022751
0.00292669
0.00391666
0.00500301
0.00608486
0.00712146
0.00809433
0.00899481
0.00981939
0.0105675
0.0112401
0.0118392
0.0123673
0.0128268
0.0132205
0.0135511
0.0138214
0.0140342
0.014191
0.0142902
0.0143352
0.0143278
0.0142695
0.0141626
0.0140092
0.0138117
0.0135728
0.013295
0.0129812
0.0126345
0.0122576
0.0118534
0.0114241
0.0109712
0.0104945
0.00999181
0.00945767
0.00888289
0.00825447
0.00755708
0.00677787
0.00591578
0.00502818
0.00416396
0.00340159
0.00283402
0.00266175
0.00297457
0.00344222
0.00342188
0.00346736
0.00332214
0.00291553
0.00244675
0.00214101
0.00222783
0.00269778
0.00334032
0.00383216
0.00311554
0.00713486
0.00505106
0.00233183
0.00359486
0.00380879
0.00419848
0.00487544
0.00577359
0.0068216
0.00795983
0.00912744
0.0102631
0.0112889
0.0121188
0.0126831
0.0129242
0.0128304
0.0124694
0.0120153
0.0117347
0.0112385
0.00934287
0.0064284
0.00454719
0.00410021
0.00436429
0.00493064
0.00554383
0.00606807
0.00642983
0.00658244
0.00651907
0.00628757
0.00589235
0.0053725
0.00478039
0.00419657
0.00373634
0.0035245
0.00365238
0.00409573
0.00478941
0.00563242
0.00653873
0.00745332
0.00834384
0.00919164
0.00998624
0.0107222
0.0113974
0.0120113
0.012565
0.0130597
0.0134972
0.013879
0.0142063
0.01448
0.0146998
0.0148653
0.014976
0.0150328
0.0150387
0.0149955
0.0149052
0.01477
0.0145923
0.0143742
0.0141178
0.0138251
0.0134981
0.0131383
0.0127473
0.0123263
0.0118766
0.0113993
0.0108959
0.0103684
0.0098198
0.00925468
0.00868065
0.00811
0.00756118
0.0070651
0.00662855
0.00618166
0.00563229
0.00492698
0.00410707
0.0031338
0.00231807
0.00188064
0.00202842
0.0022723
0.00251656
0.00280911
0.0031742
0.00359836
0.00397552
0.00396491
0.00206727
0.00950615
0.00593091
0.00273948
0.00411829
0.0044762
0.0047953
0.00523891
0.00580718
0.00647616
0.00719919
0.00791239
0.00858841
0.00925866
0.00992245
0.0105168
0.0109595
0.0111729
0.0112887
0.0116473
0.0125375
0.0130532
0.0116454
0.00887837
0.00654223
0.00513747
0.00444396
0.00415165
0.00409876
0.00414757
0.0042003
0.00419503
0.00412921
0.00406724
0.00400446
0.00397999
0.00403219
0.00420723
0.00450865
0.00489984
0.00538789
0.00597173
0.00663702
0.0073572
0.00810379
0.00885251
0.00958509
0.0102888
0.0109552
0.0115793
0.0121584
0.0126914
0.0131782
0.0136192
0.0140151
0.0143664
0.0146734
0.014936
0.0151535
0.015325
0.0154494
0.0155254
0.0155542
0.015536
0.0154713
0.0153616
0.0152082
0.0150128
0.0147769
0.0145023
0.0141905
0.0138429
0.0134609
0.0130457
0.0125989
0.0121228
0.0116214
0.0111011
0.0105721
0.0100497
0.00955501
0.00911373
0.00875103
0.00848256
0.00829195
0.00810548
0.00782887
0.00740272
0.0068412
0.00617447
0.00551588
0.00483538
0.00422733
0.00385436
0.00369738
0.0037065
0.00383744
0.00404022
0.00418737
0.00388552
0.00168059
0.0114913
0.0066084
0.0030155
0.00441759
0.00487011
0.00523017
0.00562991
0.00608411
0.00657967
0.00706405
0.0074461
0.00763531
0.00776349
0.00804473
0.00853457
0.00915623
0.00972779
0.010369
0.0115057
0.0132838
0.0144016
0.0133601
0.0108574
0.00849556
0.0068199
0.00562826
0.00462508
0.00370627
0.00283723
0.00202082
0.0014318
0.00148672
0.00212859
0.00293908
0.00377925
0.00456181
0.00530379
0.00599327
0.00663794
0.00725369
0.00785469
0.00845158
0.00904782
0.00964114
0.0102263
0.0107972
0.0113484
0.0118754
0.012375
0.012845
0.0132843
0.0136922
0.0140684
0.0144126
0.0147244
0.0150031
0.0152478
0.0154571
0.0156293
0.0157629
0.015856
0.0159074
0.0159167
0.0158832
0.0158069
0.0156883
0.015528
0.0153268
0.0150858
0.014806
0.0144886
0.0141347
0.013746
0.0133242
0.0128725
0.0123958
0.0119022
0.0114039
0.0109191
0.0104716
0.0100894
0.00979703
0.00960502
0.00949385
0.00940238
0.00924838
0.00896828
0.00854473
0.00798845
0.00732935
0.00662106
0.00586315
0.00520256
0.00470842
0.00439052
0.00423416
0.0041971
0.00414949
0.00367332
0.00160006
0.0131314
0.0071743
0.00314668
0.00454936
0.00504649
0.00547002
0.00592034
0.00640502
0.00689513
0.00733365
0.00762536
0.00758519
0.00726337
0.0070272
0.00714736
0.00770496
0.00853906
0.00963737
0.0114253
0.0138277
0.0153288
0.0146427
0.0124901
0.0102499
0.00853422
0.00725564
0.00614525
0.00502146
0.00383075
0.00263965
0.00183589
0.00209365
0.00303636
0.0041107
0.00515157
0.00613005
0.00702614
0.00782602
0.00852903
0.00914673
0.00969583
0.0101944
0.010658
0.0110975
0.0115198
0.011928
0.0123234
0.0127057
0.0130741
0.0134277
0.0137657
0.0140872
0.0143912
0.0146769
0.014943
0.015188
0.0154102
0.0156073
0.0157771
0.0159171
0.016025
0.0160978
0.0161342
0.0161324
0.0160916
0.0160113
0.0158913
0.0157319
0.0155336
0.015297
0.0150232
0.0147132
0.0143687
0.013992
0.0135862
0.0131567
0.0127112
0.0122612
0.0118228
0.0114168
0.0110662
0.0107909
0.0105985
0.0104732
0.0103695
0.0102228
0.00997402
0.00959092
0.00906711
0.00841632
0.00767996
0.00691779
0.00614941
0.00545728
0.00489449
0.0044788
0.00420212
0.00396496
0.00336706
0.00180863
0.0145914
0.00766504
0.00316134
0.00455253
0.00506512
0.00555811
0.0060915
0.00666337
0.00722495
0.00771295
0.00804848
0.00807046
0.00768962
0.00718064
0.00676559
0.00682095
0.00761315
0.00902021
0.0113057
0.0141277
0.0159107
0.0156046
0.013868
0.0118546
0.0101907
0.00893518
0.00790895
0.00695897
0.00607633
0.00536142
0.00498127
0.00508291
0.00563377
0.00642699
0.00730867
0.00819435
0.00903301
0.0097892
0.0104433
0.0109925
0.0114469
0.0118247
0.0121462
0.0124296
0.0126896
0.0129364
0.0131765
0.0134137
0.0136495
0.0138845
0.0141182
0.0143497
0.0145777
0.0148008
0.0150169
0.015224
0.0154196
0.0156009
0.015765
0.0159087
0.0160289
0.0161221
0.016185
0.0162152
0.0162107
0.0161702
0.0160929
0.0159783
0.0158267
0.0156384
0.0154145
0.015156
0.0148648
0.0145433
0.0141949
0.0138244
0.0134388
0.0130477
0.0126635
0.0123017
0.0119787
0.0117078
0.0114933
0.0113232
0.0111651
0.0109717
0.0106951
0.0103019
0.00977893
0.00913312
0.0083938
0.00760532
0.00681096
0.00602965
0.00529774
0.00466739
0.00415901
0.00371968
0.00301738
0.00226608
0.0159466
0.00809646
0.00309945
0.00447126
0.0049736
0.00552662
0.00616547
0.00685857
0.0075181
0.00806253
0.00844971
0.00861082
0.00843695
0.00803036
0.0073756
0.0066058
0.00686576
0.00840295
0.0110585
0.0141653
0.0161937
0.0163026
0.0150395
0.0133432
0.0118108
0.0106151
0.00969199
0.00894261
0.00834495
0.0079457
0.00781414
0.00794814
0.00835026
0.00894324
0.0096394
0.0103716
0.0110854
0.0117347
0.0122868
0.0127273
0.0130597
0.0133007
0.0134726
0.0135986
0.0136986
0.013788
0.0138775
0.013974
0.0140811
0.0142003
0.0143316
0.014474
0.014626
0.0147853
0.0149495
0.015116
0.0152816
0.0154432
0.0155974
0.0157407
0.0158693
0.0159803
0.0160678
0.016129
0.0161607
0.0161606
0.0161271
0.0160591
0.0159562
0.0158187
0.0156474
0.0154435
0.0152088
0.0149461
0.0146584
0.0143503
0.0140276
0.0136976
0.0133694
0.0130533
0.0127595
0.0124956
0.0122624
0.01205
0.0118352
0.0115846
0.0112625
0.0108409
0.0103062
0.00966067
0.00892321
0.00812375
0.00729465
0.0064628
0.00564529
0.00485723
0.00414452
0.00349523
0.00270226
0.00288869
0.017229
0.00847626
0.00299754
0.00434516
0.00482456
0.00543674
0.00619646
0.00702889
0.00779794
0.00840621
0.00882297
0.00904133
0.00905842
0.00886987
0.00838365
0.0071053
0.00628338
0.00763643
0.0105786
0.013913
0.0161909
0.016747
0.0160074
0.014716
0.0134083
0.0123229
0.0114957
0.0108888
0.0104776
0.010268
0.0102831
0.0104772
0.0108366
0.0113179
0.0118744
0.0124639
0.0130418
0.0135619
0.0139864
0.0142951
0.0144883
0.0145819
0.0146004
0.0145703
0.0145156
0.0144554
0.0144035
0.0143688
0.0143563
0.0143681
0.0144042
0.0144633
0.0145433
0.0146414
0.0147545
0.0148794
0.0150127
0.0151509
0.0152905
0.0154278
0.0155591
0.0156812
0.0157892
0.0158779
0.0159433
0.0159823
0.0159921
0.0159708
0.0159175
0.0158317
0.0157141
0.0155658
0.0153885
0.0151847
0.0149575
0.0147108
0.0144491
0.014178
0.0139036
0.0136323
0.0133695
0.0131183
0.0128769
0.0126364
0.0123798
0.0120832
0.0117212
0.0112726
0.0107256
0.0100799
0.00934674
0.00854534
0.00769766
0.00682406
0.00594199
0.00506568
0.00420474
0.00336925
0.00254209
0.00361926
0.0184579
0.00880924
0.00287552
0.00419885
0.00466004
0.0053461
0.00625263
0.00724548
0.00812873
0.00879177
0.00921743
0.0094327
0.00949525
0.00942802
0.00918008
0.00803554
0.00617823
0.00668325
0.0097674
0.0133252
0.0158833
0.016914
0.0167347
0.0159246
0.0149442
0.0140529
0.0133527
0.012861
0.0125686
0.0124644
0.0125482
0.0127646
0.0130868
0.0134806
0.0139194
0.0143776
0.0148195
0.0152013
0.0154842
0.0156471
0.0156903
0.015631
0.0154963
0.0153158
0.0151162
0.014919
0.0147399
0.0145889
0.0144714
0.0143895
0.0143427
0.014329
0.0143453
0.0143883
0.014454
0.0145388
0.0146389
0.0147507
0.0148709
0.0149959
0.0151225
0.0152472
0.0153674
0.0154762
0.0155694
0.0156428
0.0156925
0.0157157
0.0157104
0.0156758
0.0156116
0.0155186
0.0153982
0.0152525
0.0150842
0.0148964
0.0146928
0.0144773
0.0142537
0.0140256
0.0137951
0.0135624
0.0133238
0.0130713
0.0127916
0.0124676
0.012081
0.0116164
0.0110644
0.0104236
0.00970019
0.00890628
0.00805634
0.00716449
0.0062433
0.00530492
0.00436113
0.00341922
0.00264982
0.00442335
0.0196512
0.00910095
0.00273346
0.00403875
0.00450792
0.00530238
0.0063937
0.00756573
0.0085572
0.009248
0.00965354
0.00983725
0.00986128
0.00977545
0.00959396
0.0088315
0.00676626
0.00575201
0.00859714
0.012357
0.0152315
0.0167555
0.0171554
0.016878
0.0163104
0.015705
0.0151963
0.0148397
0.0146467
0.01461
0.0147088
0.0148915
0.015135
0.0154201
0.0157337
0.0160586
0.0163614
0.016598
0.0167301
0.0167384
0.0166262
0.0164141
0.0161322
0.0158123
0.0154832
0.0151674
0.014881
0.0146341
0.0144316
0.0142746
0.0141617
0.0140897
0.0140544
0.0140514
0.0140762
0.0141243
0.0141919
0.0142754
0.0143717
0.0144778
0.0145911
0.0147087
0.0148303
0.0149484
0.0150594
0.0151584
0.0152409
0.0153029
0.0153414
0.0153547
0.0153417
0.0153023
0.0152374
0.0151483
0.015037
0.0149061
0.014758
0.0145955
0.0144206
0.0142348
0.0140385
0.0138297
0.013604
0.0133541
0.0130692
0.0127366
0.0123429
0.0118769
0.0113314
0.0107046
0.00999976
0.0092245
0.00838846
0.00750153
0.00657307
0.00561264
0.00463345
0.00366168
0.00301545
0.0052856
0.0208237
0.00935887
0.00255928
0.00386247
0.00438607
0.00534454
0.00666652
0.00802622
0.00908771
0.00976361
0.0101388
0.0102744
0.0102261
0.0100448
0.00977047
0.0092084
0.00760017
0.00539882
0.0071237
0.0109722
0.0141873
0.0162091
0.0171854
0.0174595
0.0173532
0.0170992
0.0168415
0.0166552
0.0165675
0.016577
0.0166542
0.0167641
0.0169006
0.017063
0.0172492
0.0174435
0.0176084
0.0176975
0.0176746
0.0175256
0.0172596
0.0169021
0.0164862
0.0160456
0.0156092
0.0151995
0.0148315
0.0145142
0.014251
0.0140414
0.0138824
0.0137693
0.0136966
0.0136587
0.0136503
0.0136666
0.0137035
0.0137576
0.0138263
0.0139074
0.0139991
0.0140995
0.0142091
0.0143243
0.0144405
0.014553
0.0146575
0.014749
0.0148238
0.0148789
0.0149124
0.0149231
0.0149109
0.0148761
0.0148201
0.0147442
0.0146499
0.0145388
0.0144119
0.0142692
0.0141096
0.0139304
0.0137268
0.0134921
0.0132176
0.0128932
0.012509
0.0120567
0.0115306
0.010929
0.0102536
0.00950926
0.00870271
0.00784138
0.00693305
0.00598696
0.00502019
0.00407675
0.00357383
0.00618586
0.0219831
0.00959242
0.00234096
0.00367321
0.00431364
0.00551093
0.00711175
0.0086298
0.00968098
0.0103359
0.0106739
0.0107498
0.0106152
0.0103162
0.00988992
0.00929234
0.00810623
0.00597734
0.00573995
0.00922568
0.0127194
0.0152088
0.0167326
0.0175435
0.0179064
0.0180286
0.0180506
0.0180545
0.0180765
0.0181232
0.0181672
0.0181984
0.0182353
0.0182945
0.0183773
0.0184603
0.0184982
0.0184442
0.018269
0.0179683
0.0175596
0.017074
0.0165472
0.0160129
0.0154991
0.0150263
0.0146074
0.0142489
0.013952
0.013714
0.01353
0.0133935
0.0132976
0.0132358
0.0132019
0.0131911
0.0131992
0.0132233
0.0132614
0.0133122
0.013375
0.0134492
0.0135354
0.0136344
0.0137417
0.0138539
0.0139669
0.0140759
0.0141764
0.0142647
0.0143377
0.0143929
0.0144291
0.0144456
0.0144424
0.0144197
0.0143782
0.0143182
0.0142397
0.0141418
0.0140225
0.0138787
0.0137057
0.0134974
0.0132463
0.0129447
0.0125847
0.01216
0.0116661
0.0111015
0.0104669
0.00976582
0.00900318
0.00818508
0.00731874
0.00641421
0.00549305
0.00461437
0.00424959
0.00710699
0.0231327
0.00981308
0.00207438
0.00348816
0.00432132
0.00584978
0.0077632
0.00930772
0.0103341
0.0109631
0.0112546
0.0112625
0.0110375
0.0106237
0.0100528
0.00932496
0.00827834
0.00667454
0.00519947
0.00729668
0.0108183
0.013694
0.0157057
0.0170099
0.0178159
0.018303
0.0186016
0.0187937
0.0189217
0.0190032
0.0190282
0.0190163
0.019007
0.0190214
0.019049
0.019051
0.0189776
0.0187899
0.0184731
0.0180369
0.0175086
0.0169241
0.0163197
0.0157276
0.0151728
0.0146724
0.0142359
0.0138666
0.013563
0.0133198
0.0131301
0.0129857
0.0128786
0.0128015
0.0127482
0.0127135
0.012694
0.0126873
0.0126922
0.0127085
0.0127366
0.0127771
0.0128315
0.0129026
0.012988
0.0130861
0.0131939
0.0133072
0.0134216
0.0135326
0.0136363
0.013729
0.0138081
0.0138716
0.0139181
0.0139469
0.0139572
0.0139483
0.0139194
0.0138687
0.0137938
0.0136913
0.0135566
0.0133843
0.013168
0.0129014
0.0125783
0.0121935
0.0117435
0.0112269
0.0106442
0.00999768
0.00929149
0.00853094
0.00772314
0.00687912
0.0060243
0.0052287
0.00498883
0.00803669
0.0242737
0.0100356
0.00176478
0.00333969
0.0044579
0.00643164
0.00855587
0.0100438
0.0110485
0.0116389
0.0118719
0.0118044
0.0114901
0.0109747
0.0102909
0.00945109
0.00840867
0.00710013
0.00569094
0.00584431
0.0086522
0.011673
0.0140501
0.0157695
0.0169646
0.0177808
0.0183331
0.0187012
0.0189353
0.0190709
0.0191283
0.0191551
0.0191898
0.0192321
0.0192477
0.019188
0.0190126
0.0187029
0.0182648
0.0177228
0.0171118
0.0164695
0.0158302
0.0152224
0.0146663
0.0141747
0.013753
0.013401
0.0131139
0.0128845
0.0127037
0.0125624
0.0124519
0.0123647
0.0122947
0.0122375
0.0121903
0.0121515
0.012121
0.0120996
0.0120889
0.0120907
0.0121073
0.0121424
0.0121961
0.0122689
0.0123594
0.0124649
0.0125816
0.0127048
0.0128299
0.0129524
0.0130681
0.0131738
0.0132666
0.0133444
0.0134054
0.0134477
0.0134696
0.0134686
0.013442
0.0133862
0.0132967
0.0131687
0.0129968
0.0127755
0.0124998
0.0121654
0.0117696
0.0113108
0.0107895
0.0102074
0.00956792
0.00887588
0.00813837
0.00736708
0.00659011
0.00588445
0.00575654
0.00896498
0.0254062
0.0102772
0.0014282
0.00327403
0.00480258
0.00730377
0.00939417
0.0108516
0.0118175
0.0123501
0.01251
0.0123594
0.011957
0.0113542
0.0105905
0.00969077
0.00865917
0.00750613
0.00634299
0.00569622
0.00685373
0.00938595
0.0118559
0.0138382
0.0153322
0.0164226
0.0172011
0.0177444
0.0181159
0.0183718
0.018563
0.0187355
0.0188893
0.0189893
0.0189922
0.0188635
0.0185895
0.0181783
0.0176542
0.0170516
0.0164074
0.0157569
0.0151298
0.0145488
0.0140292
0.0135787
0.0131986
0.0128852
0.0126312
0.0124274
0.0122638
0.0121306
0.0120193
0.0119229
0.0118361
0.0117555
0.0116793
0.011607
0.0115394
0.0114786
0.0114269
0.0113875
0.0113634
0.0113578
0.0113739
0.0114138
0.0114785
0.0115672
0.011677
0.0118037
0.0119421
0.0120871
0.0122332
0.012376
0.0125112
0.0126353
0.0127454
0.0128385
0.012912
0.0129628
0.0129877
0.0129831
0.0129446
0.0128678
0.0127479
0.0125802
0.0123605
0.0120852
0.0117518
0.011359
0.0109069
0.010397
0.00983191
0.00921614
0.00855651
0.0078649
0.007171
0.00655605
0.00652989
0.00988345
0.0265295
0.0105459
0.00109402
0.00335252
0.00550915
0.00831647
0.0103147
0.0117273
0.0126254
0.0130753
0.0131444
0.0129007
0.0124088
0.0117273
0.0109057
0.00998366
0.00899458
0.00798506
0.00705341
0.006414
0.00647414
0.00771035
0.00965863
0.0115737
0.0131834
0.0144566
0.0154358
0.0161847
0.0167705
0.0172439
0.0176569
0.0180001
0.0182389
0.0183421
0.0182902
0.0180808
0.0177277
0.0172567
0.0167003
0.0160937
0.0154706
0.014861
0.0142886
0.0137705
0.0133166
0.0129301
0.0126086
0.0123458
0.0121324
0.011958
0.0118126
0.0116867
0.0115728
0.0114648
0.0113589
0.0112527
0.0111458
0.0110388
0.0109336
0.010833
0.0107405
0.0106598
0.0105946
0.0105471
0.0105236
0.0105278
0.0105629
0.0106301
0.0107278
0.0108521
0.010998
0.0111596
0.0113309
0.0115059
0.0116794
0.0118466
0.0120035
0.0121462
0.0122711
0.0123747
0.0124533
0.012503
0.0125197
0.0124992
0.0124372
0.0123295
0.0121723
0.0119625
0.0116979
0.0113772
0.0110002
0.0105678
0.0100824
0.00954767
0.00897005
0.00836123
0.00775163
0.00722528
0.00729346
0.010785
0.0276422
0.0108229
0.000766685
0.00366436
0.00667597
0.00938655
0.0113252
0.012651
0.0134447
0.0137834
0.0137414
0.0133917
0.012805
0.0120468
0.0111757
0.010243
0.00929894
0.00840574
0.00765709
0.0071854
0.00713739
0.0076182
0.00866095
0.0100484
0.0114586
0.0127315
0.0138249
0.0147498
0.0155216
0.0161631
0.0166792
0.0170456
0.0172481
0.0172855
0.0171644
0.0169009
0.0165188
0.016047
0.0155166
0.0149586
0.0144017
0.01387
0.0133819
0.0129492
0.0125772
0.0122652
0.0120081
0.0117974
0.011623
0.0114746
0.0113427
0.0112191
0.0110976
0.0109739
0.0108454
0.0107115
0.0105728
0.0104311
0.0102891
0.0101505
0.0100193
0.0098998
0.00979525
0.00970768
0.00964687
0.00961763
0.00962487
0.00967119
0.00975586
0.00987577
0.0100259
0.0102002
0.0103921
0.0105948
0.0108022
0.0110086
0.011209
0.0113988
0.0115737
0.0117295
0.0118622
0.0119678
0.0120421
0.0120811
0.0120807
0.0120371
0.0119468
0.0118069
0.0116154
0.0113707
0.0110724
0.0107209
0.0103179
0.00986639
0.00937221
0.0088465
0.00832006
0.00787907
0.00803643
0.0116637
0.0287426
0.0110657
0.000526639
0.0044278
0.00801016
0.0105706
0.0123956
0.0135836
0.0142336
0.0144318
0.0142577
0.0137882
0.0130988
0.0122608
0.0113391
0.0103921
0.00947566
0.0086527
0.00800241
0.00761901
0.00758565
0.0079319
0.00861782
0.00955997
0.0106414
0.0117309
0.0127423
0.0136313
0.0143884
0.0150051
0.0154638
0.0157606
0.0159003
0.0158906
0.0157446
0.0154812
0.0151241
0.0146999
0.0142365
0.0137607
0.013296
0.0128617
0.012471
0.0121312
0.0118436
0.0116045
0.0114068
0.0112412
0.0110977
0.0109667
0.0108401
0.0107115
0.0105765
0.0104326
0.0102789
0.0101161
0.00994591
0.00977123
0.0095955
0.00942281
0.00925764
0.00910451
0.00896489
0.00884378
0.008753
0.00869789
0.00868407
0.00871467
0.00878948
0.00890585
0.00905914
0.00924335
0.00945169
0.00967727
0.00991342
0.0101539
0.0103931
0.0106259
0.0108473
0.011053
0.0112384
0.0113993
0.0115315
0.0116309
0.0116937
0.0117162
0.011695
0.0116274
0.011511
0.0113443
0.0111262
0.0108567
0.0105367
0.0101684
0.00975694
0.00931284
0.00886706
0.00850791
0.00875103
0.0125144
0.0298285
0.0107634
0.000714754
0.00565421
0.00931097
0.0117976
0.0134559
0.0144608
0.014933
0.014966
0.0146419
0.0140407
0.0132416
0.0123203
0.0113451
0.0103764
0.0094693
0.00867938
0.00806856
0.00770235
0.00763289
0.00787397
0.00838909
0.00910759
0.00994511
0.0108206
0.0116687
0.01244
0.0130998
0.0136285
0.0140174
0.0142647
0.0143741
0.0143551
0.0142219
0.0139934
0.0136917
0.0133408
0.0129645
0.0125853
0.0122218
0.0118884
0.0115938
0.0113412
0.0111291
0.0109518
0.0108013
0.0106682
0.0105435
0.010419
0.0102885
0.0101475
0.00999367
0.00982626
0.00964607
0.00945504
0.009256
0.00905246
0.00884846
0.00864839
0.0084568
0.00827786
0.0081103
0.00796989
0.00786271
0.0077944
0.00777052
0.00779372
0.007864
0.00797919
0.00813521
0.00832654
0.00854684
0.00878944
0.00904775
0.00931552
0.0095869
0.00985646
0.0101191
0.01037
0.0106044
0.0108179
0.0110062
0.011165
0.0112905
0.011379
0.0114271
0.0114318
0.0113907
0.0113018
0.0111635
0.0109752
0.0107368
0.0104501
0.010119
0.0097538
0.00938548
0.00910479
0.00943153
0.0133332
0.0308977
0.00972703
0.00185999
0.00698841
0.0106238
0.0129538
0.014403
0.0151961
0.0154705
0.0153239
0.0148397
0.0141008
0.01319
0.0121862
0.0111591
0.0101675
0.00926067
0.00848376
0.00788202
0.00750016
0.00737201
0.00750515
0.00787256
0.00841985
0.00908043
0.00978818
0.0104867
0.0111324
0.0116935
0.0121493
0.012489
0.0127096
0.0128147
0.0128132
0.0127182
0.0125464
0.0123173
0.0120512
0.0117681
0.0114856
0.0112183
0.0109761
0.0107644
0.0105837
0.0104305
0.0102984
0.010179
0.0100638
0.00994496
0.00981613
0.00967303
0.00951343
0.00933692
0.00914465
0.0089389
0.00872276
0.00849992
0.00827443
0.00805066
0.00783321
0.00762665
0.00743343
0.00725674
0.00711417
0.00700735
0.00694104
0.00691948
0.00694447
0.00701602
0.00713246
0.0072905
0.00748556
0.00771224
0.0079647
0.00823706
0.00852353
0.00881857
0.00911687
0.00941331
0.00970289
0.00998076
0.0102422
0.0104827
0.0106978
0.0108836
0.011036
0.0111515
0.0112269
0.0112593
0.0112462
0.0111856
0.0110759
0.0109164
0.010708
0.0104541
0.0101642
0.00986984
0.00966457
0.0100738
0.0141165
0.0319481
0.00794102
0.0033673
0.00845543
0.0118418
0.0139152
0.0151237
0.0156974
0.0157728
0.015446
0.0148024
0.013929
0.0129136
0.011838
0.0107713
0.00976734
0.00886653
0.00810134
0.00750169
0.00709639
0.00690787
0.00694191
0.00718017
0.00758231
0.00809578
0.00866621
0.00924494
0.00979259
0.0102795
0.0106856
0.0109993
0.0112161
0.011338
0.0113718
0.0113282
0.0112215
0.0110676
0.0108832
0.0106845
0.0104854
0.0102971
0.0101268
0.00997752
0.00984823
0.00973443
0.00962923
0.00952466
0.00941301
0.00928793
0.00914506
0.00898231
0.00879961
0.00859864
0.00838227
0.00815421
0.00791857
0.0076797
0.00744206
0.00721022
0.00698877
0.00678209
0.00659061
0.00642946
0.006304
0.00621481
0.00616529
0.00615778
0.0061932
0.00627148
0.00639142
0.00655064
0.00674583
0.00697299
0.00722769
0.00750526
0.00780099
0.0081101
0.00842781
0.00874929
0.00906962
0.00938383
0.00968701
0.00997434
0.0102412
0.0104831
0.0106958
0.0108753
0.011018
0.0111205
0.0111798
0.011193
0.011158
0.0110735
0.0109392
0.0107582
0.0105398
0.0103159
0.0101834
0.0106747
0.014862
0.0329774
0.00547228
0.00517822
0.00986725
0.0128092
0.0145631
0.0155261
0.0158952
0.0157863
0.0152909
0.014499
0.0135054
0.012405
0.0112823
0.0102032
0.0092133
0.00834076
0.00760369
0.00701751
0.00659833
0.00636095
0.00631171
0.0064411
0.00672186
0.00711416
0.00757366
0.00805829
0.00853228
0.00896759
0.00934409
0.00964905
0.00987622
0.010025
0.0100995
0.0101077
0.0100606
0.00997106
0.00985268
0.00971871
0.00958079
0.009448
0.009326
0.00921658
0.00911772
0.00902422
0.00892891
0.00882415
0.00870322
0.00856144
0.00839656
0.00820881
0.00800043
0.00777512
0.00753748
0.00729245
0.00704505
0.00680016
0.00656258
0.00633701
0.00612796
0.00593914
0.00577331
0.00564595
0.00555294
0.00549502
0.00547385
0.00548995
0.00554334
0.00563361
0.00575985
0.00592056
0.00611377
0.0063371
0.00658784
0.00686303
0.00715945
0.0074736
0.00780166
0.0081394
0.00848221
0.00882518
0.00916322
0.00949119
0.00980407
0.0100969
0.010365
0.0106037
0.0108091
0.010977
0.0111037
0.0111858
0.0112206
0.0112059
0.011141
0.0110284
0.0108773
0.0107206
0.0106586
0.0112321
0.0155678
0.0339839
0.00303664
0.00683908
0.0109018
0.013367
0.0148219
0.0155754
0.0157699
0.0154975
0.0148498
0.0139281
0.0128405
0.0116899
0.0105613
0.00951378
0.00857955
0.00777107
0.00709099
0.00654131
0.006128
0.00586058
0.00574704
0.00578656
0.00596483
0.00625472
0.00662164
0.00702961
0.00744582
0.00784306
0.00820051
0.00850361
0.00874365
0.00891714
0.00902528
0.00907316
0.00906901
0.00902326
0.00894749
0.00885332
0.00875124
0.00864944
0.00855281
0.00846234
0.0083751
0.00828505
0.00818463
0.00806651
0.00792516
0.0077578
0.00756463
0.00734833
0.00711347
0.00686574
0.00661121
0.0063559
0.0061055
0.00586531
0.00564041
0.0054355
0.00525482
0.00510031
0.00497871
0.00489486
0.00484432
0.00482706
0.00484274
0.00489036
0.00496887
0.00507726
0.0052146
0.00538
0.00557262
0.00579162
0.00603608
0.00630491
0.00659671
0.0069096
0.0072411
0.00758795
0.00794614
0.00831097
0.00867727
0.00903961
0.0093925
0.00973046
0.0100481
0.0103405
0.0106026
0.01083
0.0110183
0.0111636
0.0112623
0.0113117
0.0113109
0.0112619
0.0111741
0.0110814
0.0110882
0.0117445
0.0162325
0.034966
0.00365002
0.00819601
0.0114355
0.013514
0.0147438
0.0153294
0.0153668
0.0149395
0.0141518
0.0131249
0.0119824
0.0108332
0.00975677
0.00879747
0.00796835
0.00726362
0.00667128
0.00618295
0.00579746
0.00552081
0.00536257
0.00532926
0.00541858
0.00561616
0.00589807
0.00623482
0.00659653
0.00695653
0.00729276
0.00758837
0.00783183
0.0080168
0.00814171
0.00820917
0.00822532
0.00819898
0.00814064
0.00806129
0.00797114
0.00787819
0.00778693
0.00769752
0.00760586
0.0075048
0.00738624
0.00724332
0.00707202
0.006872
0.00664618
0.00639982
0.00613962
0.00587286
0.00560672
0.00534778
0.00510199
0.00487489
0.00467164
0.00449683
0.00435401
0.00424264
0.00417062
0.00413485
0.00413261
0.00416254
0.00422232
0.00430934
0.00442117
0.00455592
0.00471227
0.00488956
0.00508771
0.00530707
0.0055483
0.00581207
0.00609887
0.00640863
0.00674046
0.00709239
0.00746126
0.00784281
0.00823195
0.00862302
0.00901009
0.00938714
0.00974823
0.0100877
0.0104001
0.0106803
0.0109235
0.0111251
0.0112813
0.0113889
0.0114466
0.0114564
0.0114279
0.0113964
0.0114706
0.012211
0.0168554
0.035922
0.00646994
0.00929784
0.0117625
0.0134953
0.0145164
0.0149173
0.0147721
0.0141764
0.0132579
0.01216
0.0110183
0.00993857
0.00898174
0.00816692
0.00748443
0.00691155
0.0064267
0.0060165
0.00567626
0.00540948
0.00522639
0.00513746
0.00514981
0.00526016
0.00545627
0.00571604
0.00601393
0.00632479
0.00662545
0.00689687
0.00712493
0.00730068
0.00742014
0.00748389
0.00749644
0.00746556
0.00740121
0.0073144
0.00721555
0.00711279
0.00701027
0.0069071
0.00679759
0.00667316
0.00652528
0.00634798
0.00613939
0.00590222
0.0056423
0.0053672
0.00508522
0.00480449
0.00453223
0.00427465
0.00403713
0.00382503
0.00364357
0.00349747
0.00338979
0.00332058
0.00329499
0.00330933
0.00336072
0.00344531
0.00355824
0.00369468
0.00385047
0.00402248
0.00420879
0.00440863
0.00462234
0.00485113
0.00509687
0.00536177
0.005648
0.00595731
0.00629049
0.00664699
0.00702471
0.00742005
0.00782811
0.00824317
0.00865895
0.00906901
0.00946692
0.00984648
0.0102019
0.0105275
0.0108182
0.011069
0.0112759
0.0114353
0.0115459
0.0116097
0.0116369
0.011664
0.0118048
0.0126309
0.0174361
0.0368503
0.00822346
0.0103696
0.0122143
0.0135606
0.0142967
0.0144382
0.014058
0.0132767
0.0122489
0.0111354
0.0100679
0.00913142
0.00835218
0.00771844
0.00719872
0.00676241
0.00638679
0.00605917
0.00577411
0.0055331
0.00534486
0.00521996
0.00517038
0.00520018
0.00530846
0.00548042
0.0056976
0.00593863
0.00618039
0.00640298
0.00659064
0.00673242
0.00682225
0.00685886
0.00684533
0.00678848
0.00669798
0.00658504
0.00646057
0.00633296
0.0062059
0.00607709
0.00593884
0.00578099
0.00559503
0.00537669
0.00512717
0.00485312
0.00456286
0.00426544
0.00396969
0.00368318
0.00341136
0.00315819
0.00292683
0.00272195
0.0025483
0.0024135
0.0023254
0.00228879
0.00230742
0.00237836
0.00249455
0.00264706
0.0028268
0.00302582
0.00323796
0.00345901
0.00368655
0.00391984
0.00415958
0.0044077
0.00466706
0.00494114
0.00523354
0.00554758
0.00588563
0.00624854
0.0066353
0.00704298
0.00746707
0.00790188
0.008341
0.00877773
0.00920535
0.0096174
0.0100078
0.0103708
0.010701
0.0109935
0.0112439
0.0114488
0.0116067
0.01172
0.0117993
0.0118832
0.01209
0.0130039
0.017974
0.0377493
0.00968435
0.0114857
0.0128106
0.0137246
0.0140937
0.0139081
0.0132607
0.0123071
0.0112238
0.0101723
0.0092586
0.00852372
0.00794383
0.00749082
0.00712152
0.0068082
0.00653273
0.00628483
0.0060594
0.00585663
0.00567876
0.00553816
0.00544478
0.00540572
0.00542847
0.00550388
0.00562339
0.00577114
0.00592614
0.00607079
0.00618956
0.00627052
0.00630609
0.00629324
0.00623348
0.0061325
0.00599946
0.00584568
0.00568262
0.00551892
0.00535757
0.00519451
0.00501967
0.00482174
0.00459323
0.00433269
0.00404583
0.00374469
0.00343847
0.00313718
0.00284784
0.00257505
0.0023193
0.0020787
0.00185055
0.00163728
0.00143859
0.00127249
0.00116565
0.00114738
0.0012196
0.00137082
0.00157778
0.0018201
0.0020825
0.0023548
0.00263056
0.00290599
0.0031793
0.00345042
0.00372078
0.0039931
0.00427117
0.00455953
0.00486271
0.00518539
0.00553121
0.00590208
0.00629787
0.00671628
0.00715313
0.00760289
0.00805922
0.0085154
0.00896475
0.00940075
0.0098174
0.010209
0.0105704
0.0108965
0.0111832
0.0114271
0.0116269
0.0117853
0.0119139
0.0120527
0.0123257
0.0133298
0.0184695
0.0386176
0.0108384
0.0124316
0.0133684
0.0138707
0.0138425
0.0133099
0.0124135
0.0113453
0.010292
0.00939109
0.00868292
0.00816362
0.00777394
0.00747091
0.007225
0.00701567
0.00682812