/*--------------------------------*- C++ -*----------------------------------*\
| =========                 |                                                 |
| \\      /  F ield         | OpenFOAM: The Open Source CFD Toolbox           |
|  \\    /   O peration     | Version:  4.1                                   |
|   \\  /    A nd           | Web:      www.OpenFOAM.org                      |
|    \\/     M anipulation  |                                                 |
\*---------------------------------------------------------------------------*/
FoamFile
{
    version     2.0;
    format      ascii;
    class       surfaceScalarField;
    location    "1580";
    object      phi;
}
// * * * * * * * * * * * * * * * * * * * * * * * * * * * * * * * * * * * * * //

dimensions      [0 3 -1 0 0 0 0];

internalField   nonuniform List<scalar> 
9850
(
-2.61131e-06
2.61131e-06
-1.49717e-06
-1.11414e-06
4.66686e-07
-1.96385e-06
2.22448e-06
-1.75779e-06
3.95393e-06
-1.72946e-06
5.71208e-06
-1.75814e-06
7.51404e-06
-1.80196e-06
9.33378e-06
-1.81974e-06
1.11045e-05
-1.77075e-06
1.27227e-05
-1.61822e-06
1.40722e-05
-1.34945e-06
1.50662e-05
-9.94013e-07
1.56703e-05
-6.04055e-07
1.58988e-05
-2.285e-07
1.5763e-05
1.35789e-07
1.52408e-05
5.22221e-07
1.41783e-05
1.06242e-06
1.22194e-05
1.95897e-06
8.9096e-06
3.30976e-06
4.49313e-06
4.41647e-06
6.55059e-07
3.83807e-06
-1.81008e-06
2.46514e-06
-3.65255e-06
1.84247e-06
-5.16599e-06
1.51344e-06
-6.4428e-06
1.27682e-06
-7.51477e-06
1.07197e-06
-8.38286e-06
8.68088e-07
-9.03337e-06
6.5051e-07
-9.4476e-06
4.14237e-07
-9.60259e-06
1.5499e-07
-9.50264e-06
-9.99584e-08
-9.13628e-06
-3.66359e-07
-8.51602e-06
-6.20259e-07
-7.66828e-06
-8.47741e-07
-6.62664e-06
-1.04163e-06
-5.42777e-06
-1.19887e-06
-4.11223e-06
-1.31554e-06
-2.719e-06
-1.39323e-06
-1.28078e-06
-1.43822e-06
1.51819e-07
-1.4326e-06
1.52818e-06
-1.37636e-06
2.831e-06
-1.30282e-06
4.05422e-06
-1.22322e-06
5.19116e-06
-1.13694e-06
6.23695e-06
-1.04579e-06
7.18929e-06
-9.52343e-07
8.04803e-06
-8.58737e-07
8.81457e-06
-7.66542e-07
9.49138e-06
-6.76816e-07
1.00816e-05
-5.90173e-07
1.05884e-05
-5.06888e-07
1.10155e-05
-4.27008e-07
1.13659e-05
-3.50464e-07
1.16431e-05
-2.77227e-07
1.18507e-05
-2.07516e-07
1.19928e-05
-1.42098e-07
1.20751e-05
-8.23255e-08
1.21045e-05
-2.94068e-08
1.20873e-05
1.71426e-08
1.20254e-05
6.19776e-08
1.19198e-05
1.05617e-07
1.17717e-05
1.48015e-07
1.15827e-05
1.89003e-07
1.13544e-05
2.28319e-07
1.10888e-05
2.65582e-07
1.07885e-05
3.00319e-07
1.04565e-05
3.32006e-07
1.00964e-05
3.6012e-07
9.71217e-06
3.84224e-07
9.30808e-06
4.04088e-07
8.88819e-06
4.19887e-07
8.45572e-06
4.32467e-07
8.01203e-06
4.43696e-07
7.55515e-06
4.5688e-07
7.07798e-06
4.77167e-07
6.56619e-06
5.11787e-07
5.99632e-06
5.69877e-07
5.33468e-06
6.61635e-07
4.53798e-06
7.96704e-07
3.55554e-06
9.82439e-07
2.32917e-06
1.22637e-06
7.79167e-07
1.55001e-06
-1.12665e-06
1.90582e-06
-3.1671e-06
2.04045e-06
-5.17089e-06
2.00378e-06
-7.00634e-06
1.83545e-06
-8.55936e-06
1.55302e-06
-9.5836e-06
1.02424e-06
-9.44263e-06
-1.40973e-07
-8.54209e-06
-9.00538e-07
-7.36486e-06
-1.17723e-06
-6.098e-06
-1.26686e-06
-4.76562e-06
-1.33238e-06
-3.32675e-06
-1.43887e-06
-1.69389e-06
-1.63286e-06
1.95737e-07
-1.88963e-06
2.28718e-06
-2.09145e-06
4.34133e-06
-2.05415e-06
4.69532e-06
-3.53986e-07
4.69532e-06
-1.60076e-06
4.21207e-06
-8.01757e-07
-1.91315e-06
3.49912e-07
-3.11552e-06
1.73035e-06
-3.13823e-06
3.18939e-06
-3.18849e-06
4.71976e-06
-3.28851e-06
6.32218e-06
-3.40439e-06
7.98215e-06
-3.47972e-06
9.65518e-06
-3.44377e-06
1.12541e-05
-3.21713e-06
1.26564e-05
-2.75172e-06
1.37555e-05
-2.0932e-06
1.44911e-05
-1.33956e-06
1.48317e-05
-5.69144e-07
1.4765e-05
2.02521e-07
1.4244e-05
1.04317e-06
1.31433e-05
2.1631e-06
1.12571e-05
3.84522e-06
8.49162e-06
6.07524e-06
5.16017e-06
7.74792e-06
1.86248e-06
7.13576e-06
-7.19451e-07
5.04707e-06
-2.61326e-06
3.73628e-06
-4.16754e-06
3.06771e-06
-5.47524e-06
2.58452e-06
-6.56486e-06
2.16158e-06
-7.43413e-06
1.73736e-06
-8.06639e-06
1.28277e-06
-8.44041e-06
7.88256e-07
-8.54532e-06
2.59901e-07
-8.37897e-06
-2.66305e-07
-7.95192e-06
-7.93414e-07
-7.2841e-06
-1.28808e-06
-6.40334e-06
-1.72851e-06
-5.34303e-06
-2.10194e-06
-4.13514e-06
-2.40677e-06
-2.81459e-06
-2.63609e-06
-1.41287e-06
-2.79496e-06
5.66042e-09
-2.85675e-06
1.39101e-06
-2.81795e-06
2.73676e-06
-2.72212e-06
4.02971e-06
-2.59577e-06
5.25357e-06
-2.44708e-06
6.39905e-06
-2.28241e-06
7.46116e-06
-2.1079e-06
8.4378e-06
-1.92898e-06
9.32902e-06
-1.74996e-06
1.01364e-05
-1.5739e-06
1.08624e-05
-1.4028e-06
1.151e-05
-1.23779e-06
1.20824e-05
-1.07933e-06
1.25829e-05
-9.27467e-07
1.30144e-05
-7.8204e-07
1.33802e-05
-6.42944e-07
1.3683e-05
-5.104e-07
1.39261e-05
-3.85114e-07
1.41116e-05
-2.67892e-07
1.42406e-05
-1.58356e-07
1.43128e-05
-5.50355e-08
1.4331e-05
4.37001e-08
1.42975e-05
1.39197e-07
1.42139e-05
2.31545e-07
1.40826e-05
3.20353e-07
1.39057e-05
4.05183e-07
1.36858e-05
4.85466e-07
1.34256e-05
5.60556e-07
1.31278e-05
6.29765e-07
1.27955e-05
6.92451e-07
1.24316e-05
7.48141e-07
1.20389e-05
7.96722e-07
1.16201e-05
8.38727e-07
1.11768e-05
8.75744e-07
1.07096e-05
9.10944e-07
1.02168e-05
9.49704e-07
9.6937e-06
1.00022e-06
9.13159e-06
1.0739e-06
8.51641e-06
1.18506e-06
7.82847e-06
1.34958e-06
7.04321e-06
1.58196e-06
6.13463e-06
1.89102e-06
5.08577e-06
2.27523e-06
3.91386e-06
2.72191e-06
2.66024e-06
3.15944e-06
1.28566e-06
3.41503e-06
-1.31267e-07
3.42072e-06
-1.4201e-06
3.12429e-06
-2.46942e-06
2.60234e-06
-3.21816e-06
1.77298e-06
-3.48289e-06
1.23758e-07
-3.20609e-06
-1.17734e-06
-2.67035e-06
-1.71297e-06
-1.97988e-06
-1.95733e-06
-1.19764e-06
-2.11462e-06
-3.42229e-07
-2.29428e-06
5.51498e-07
-2.52659e-06
1.46445e-06
-2.80258e-06
2.40708e-06
-3.03407e-06
3.23266e-06
-2.87974e-06
3.18482e-06
-3.06141e-07
7.88014e-06
-1.07149e-06
5.28357e-06
-5.22883e-07
-2.46176e-06
1.84251e-07
-3.82266e-06
1.12756e-06
-4.08153e-06
2.2002e-06
-4.26113e-06
3.37576e-06
-4.46408e-06
4.64892e-06
-4.67754e-06
6.01972e-06
-4.85052e-06
7.47339e-06
-4.89744e-06
8.95382e-06
-4.69756e-06
1.03371e-05
-4.135e-06
1.14915e-05
-3.24755e-06
1.23262e-05
-2.17435e-06
1.27861e-05
-1.02902e-06
1.28437e-05
1.44941e-07
1.24766e-05
1.41024e-06
1.16035e-05
3.03617e-06
1.01035e-05
5.34525e-06
7.98756e-06
8.19119e-06
5.58479e-06
1.01507e-05
3.18404e-06
9.53651e-06
9.41249e-07
7.28986e-06
-8.41786e-07
5.51932e-06
-2.29186e-06
4.51779e-06
-3.54252e-06
3.83518e-06
-4.60737e-06
3.22644e-06
-5.46896e-06
2.59895e-06
-6.10052e-06
1.91433e-06
-6.4722e-06
1.15993e-06
-6.55352e-06
3.4122e-07
-6.38362e-06
-4.36196e-07
-5.96022e-06
-1.21682e-06
-5.31115e-06
-1.93714e-06
-4.46415e-06
-2.5755e-06
-3.45724e-06
-3.10885e-06
-2.31502e-06
-3.54898e-06
-1.06887e-06
-3.88223e-06
2.12728e-07
-4.07656e-06
1.48763e-06
-4.13165e-06
2.75662e-06
-4.08694e-06
4.00322e-06
-3.96872e-06
5.2038e-06
-3.79634e-06
6.3423e-06
-3.58558e-06
7.40914e-06
-3.34926e-06
8.39933e-06
-3.09809e-06
9.31109e-06
-2.84074e-06
1.01449e-05
-2.58375e-06
1.09027e-05
-2.33169e-06
1.15873e-05
-2.08742e-06
1.2202e-05
-1.85245e-06
1.275e-05
-1.62733e-06
1.32344e-05
-1.4119e-06
1.3658e-05
-1.20568e-06
1.40232e-05
-1.0081e-06
1.43315e-05
-8.18724e-07
1.45838e-05
-6.37382e-07
1.47799e-05
-4.6401e-07
1.49198e-05
-2.9828e-07
1.50044e-05
-1.39603e-07
1.50354e-05
1.26993e-08
1.50153e-05
1.59308e-07
1.49463e-05
3.00525e-07
1.48307e-05
4.36e-07
1.46706e-05
5.65215e-07
1.44685e-05
6.87586e-07
1.42266e-05
8.02498e-07
1.3947e-05
9.09345e-07
1.36318e-05
1.00762e-06
1.32829e-05
1.09706e-06
1.29018e-05
1.17777e-06
1.249e-05
1.25058e-06
1.20483e-05
1.3174e-06
1.15776e-05
1.38172e-06
1.1078e-05
1.44929e-06
1.05495e-05
1.52869e-06
9.99155e-06
1.63185e-06
9.40273e-06
1.77387e-06
8.78068e-06
1.97163e-06
8.12228e-06
2.24037e-06
7.42547e-06
2.58782e-06
6.69469e-06
3.00601e-06
5.95281e-06
3.4638e-06
5.22708e-06
3.88517e-06
4.50807e-06
4.13404e-06
3.82395e-06
4.10483e-06
3.2059e-06
3.74234e-06
2.73531e-06
3.07293e-06
2.43558e-06
2.07271e-06
1.88705e-06
6.72292e-07
1.29618e-06
-5.86472e-07
1.01752e-06
-1.43432e-06
9.91872e-07
-1.93167e-06
1.13918e-06
-2.26192e-06
1.39041e-06
-2.54551e-06
1.70514e-06
-2.84132e-06
2.05362e-06
-3.15106e-06
2.39303e-06
-3.37348e-06
2.58171e-06
-3.06843e-06
2.26545e-06
1.01205e-08
1.01456e-05
-8.33464e-07
6.11703e-06
-4.48511e-07
-2.84671e-06
-2.71624e-08
-4.24401e-06
5.54953e-07
-4.66365e-06
1.25785e-06
-4.96403e-06
2.06811e-06
-5.27433e-06
2.98507e-06
-5.59451e-06
4.02041e-06
-5.88586e-06
5.18592e-06
-6.06295e-06
6.4736e-06
-5.98524e-06
7.79109e-06
-5.4525e-06
9.00378e-06
-4.46024e-06
1.0004e-05
-3.17454e-06
1.06949e-05
-1.71992e-06
1.10075e-05
-1.67702e-07
1.09076e-05
1.51011e-06
1.03431e-05
3.60077e-06
9.25446e-06
6.43384e-06
7.72106e-06
9.72459e-06
6.03994e-06
1.18318e-05
4.34004e-06
1.12364e-05
2.62089e-06
9.00902e-06
1.07266e-06
7.06754e-06
-2.32961e-07
5.82341e-06
-1.36785e-06
4.97007e-06
-2.34842e-06
4.20701e-06
-3.1577e-06
3.40823e-06
-3.75511e-06
2.51174e-06
-4.09777e-06
1.50258e-06
-4.1588e-06
4.02254e-07
-3.97814e-06
-6.1686e-07
-3.56977e-06
-1.62519e-06
-2.96752e-06
-2.5394e-06
-2.18364e-06
-3.35938e-06
-1.25991e-06
-4.03258e-06
-2.31735e-07
-4.57716e-06
8.4906e-07
-4.96303e-06
1.95957e-06
-5.18707e-06
3.09809e-06
-5.27016e-06
4.24125e-06
-5.2301e-06
5.36399e-06
-5.09146e-06
6.4459e-06
-4.87825e-06
7.47238e-06
-4.61207e-06
8.43449e-06
-4.31136e-06
9.32769e-06
-3.99129e-06
1.01507e-05
-3.66375e-06
1.09045e-05
-3.3375e-06
1.15913e-05
-3.01851e-06
1.22142e-05
-2.71038e-06
1.27767e-05
-2.4149e-06
1.32818e-05
-2.13249e-06
1.37326e-05
-1.86266e-06
1.41314e-05
-1.60444e-06
1.44799e-05
-1.35667e-06
1.47795e-05
-1.11824e-06
1.50303e-05
-8.88239e-07
1.52322e-05
-6.65941e-07
1.53847e-05
-4.50708e-07
1.54871e-05
-2.42049e-07
1.55397e-05
-3.98387e-08
1.5543e-05
1.55988e-07
1.5498e-05
3.45534e-07
1.54058e-05
5.28171e-07
1.52679e-05
7.03097e-07
1.5086e-05
8.69509e-07
1.48618e-05
1.02665e-06
1.45973e-05
1.1739e-06
1.42941e-05
1.31081e-06
1.39539e-05
1.43729e-06
1.3578e-05
1.55366e-06
1.31676e-05
1.66098e-06
1.27238e-05
1.76122e-06
1.22477e-05
1.85775e-06
1.17412e-05
1.95578e-06
1.12071e-05
2.06282e-06
1.06499e-05
2.18909e-06
1.00764e-05
2.34732e-06
9.49643e-06
2.55163e-06
8.92233e-06
2.81447e-06
8.36918e-06
3.14097e-06
7.8545e-06
3.52068e-06
7.39942e-06
3.91889e-06
7.01941e-06
4.26518e-06
6.70202e-06
4.45143e-06
6.42692e-06
4.37993e-06
6.17139e-06
3.99788e-06
5.92865e-06
3.31566e-06
5.63968e-06
2.36168e-06
5.10288e-06
1.20909e-06
4.39761e-06
1.18801e-07
3.72991e-06
-7.66613e-07
3.21799e-06
-1.41976e-06
2.87048e-06
-1.91441e-06
2.65561e-06
-2.33065e-06
2.53345e-06
-2.71915e-06
2.46671e-06
-3.08432e-06
2.41538e-06
-3.32216e-06
2.2894e-06
-2.94245e-06
1.88703e-06
4.12497e-07
1.20326e-05
-6.74383e-07
6.79141e-06
-4.54584e-07
-3.06651e-06
-2.43648e-07
-4.45494e-06
5.2043e-08
-4.95934e-06
4.37718e-07
-5.34971e-06
9.22817e-07
-5.75943e-06
1.51455e-06
-6.18624e-06
2.22504e-06
-6.59635e-06
3.07492e-06
-6.91282e-06
4.09741e-06
-7.00773e-06
5.27363e-06
-6.62871e-06
6.50729e-06
-5.6939e-06
7.70043e-06
-4.36768e-06
8.71157e-06
-2.73106e-06
9.37833e-06
-8.34465e-07
9.61563e-06
1.27281e-06
9.39139e-06
3.82501e-06
8.70569e-06
7.11954e-06
7.70708e-06
1.07232e-05
6.63718e-06
1.29017e-05
5.47924e-06
1.23943e-05
4.19758e-06
1.02907e-05
2.9908e-06
8.27432e-06
1.92931e-06
6.8849e-06
9.88281e-07
5.9111e-06
1.55607e-07
5.03968e-06
-5.40176e-07
4.10401e-06
-1.0523e-06
3.02386e-06
-1.33435e-06
1.78464e-06
-1.3706e-06
4.38505e-07
-1.17841e-06
-8.09053e-07
-7.96091e-07
-2.00751e-06
-2.5534e-07
-3.08015e-06
3.92944e-07
-4.00766e-06
1.14554e-06
-4.78518e-06
1.97842e-06
-5.41004e-06
2.88017e-06
-5.86478e-06
3.8364e-06
-6.14329e-06
4.822e-06
-6.25577e-06
5.81321e-06
-6.22131e-06
6.78768e-06
-6.06593e-06
7.72722e-06
-5.81779e-06
8.61883e-06
-5.50368e-06
9.45456e-06
-5.14709e-06
1.02306e-05
-4.76735e-06
1.09463e-05
-4.37947e-06
1.16031e-05
-3.99429e-06
1.22037e-05
-3.61904e-06
1.27512e-05
-3.25793e-06
1.32491e-05
-2.91281e-06
1.37005e-05
-2.58385e-06
1.41079e-05
-2.27006e-06
1.44733e-05
-1.96985e-06
1.4798e-05
-1.68134e-06
1.50824e-05
-1.40271e-06
1.53265e-05
-1.13235e-06
1.55296e-05
-8.68992e-07
1.56905e-05
-6.1165e-07
1.58082e-05
-3.59725e-07
1.58815e-05
-1.1318e-07
1.59098e-05
1.27701e-07
1.58929e-05
3.62496e-07
1.58307e-05
5.90302e-07
1.57238e-05
8.09985e-07
1.55729e-05
1.02041e-06
1.5379e-05
1.22057e-06
1.51433e-05
1.40965e-06
1.48669e-05
1.58715e-06
1.45513e-05
1.75296e-06
1.41974e-05
1.90748e-06
1.38067e-05
2.05175e-06
1.33802e-05
2.18769e-06
1.29197e-05
2.31825e-06
1.24277e-05
2.44774e-06
1.19084e-05
2.58211e-06
1.13685e-05
2.72903e-06
1.08181e-05
2.89771e-06
1.02718e-05
3.09792e-06
9.74873e-06
3.33755e-06
9.27146e-06
3.61824e-06
8.86329e-06
3.92886e-06
8.54396e-06
4.23821e-06
8.32025e-06
4.48889e-06
8.17169e-06
4.59999e-06
8.05676e-06
4.49487e-06
7.92438e-06
4.13025e-06
7.72752e-06
3.51252e-06
7.40535e-06
2.68385e-06
6.88471e-06
1.72973e-06
6.19796e-06
8.05551e-07
5.44397e-06
-1.26194e-08
4.73626e-06
-7.12049e-07
4.12424e-06
-1.30239e-06
3.6123e-06
-1.81871e-06
3.18493e-06
-2.29178e-06
2.8191e-06
-2.71849e-06
2.49053e-06
-2.99359e-06
2.14849e-06
-2.60041e-06
1.63924e-06
9.2175e-07
1.36719e-05
-5.64777e-07
7.35619e-06
-4.86432e-07
-3.14486e-06
-4.25638e-07
-4.51573e-06
-3.45933e-07
-5.03905e-06
-1.95332e-07
-5.50031e-06
4.55801e-08
-6.00034e-06
3.93255e-07
-6.53392e-06
8.51244e-07
-7.05434e-06
1.42792e-06
-7.4895e-06
2.16142e-06
-7.74124e-06
3.12177e-06
-7.58906e-06
4.30365e-06
-6.87577e-06
5.65688e-06
-5.72092e-06
7.00322e-06
-4.0774e-06
8.04872e-06
-1.87997e-06
8.62481e-06
6.96722e-07
8.7269e-06
3.72292e-06
8.42313e-06
7.42331e-06
7.91564e-06
1.12307e-05
7.36776e-06
1.34496e-05
6.65898e-06
1.31031e-05
5.7399e-06
1.12098e-05
4.80996e-06
9.20426e-06
4.00991e-06
7.68495e-06
3.34889e-06
6.57211e-06
2.78999e-06
5.59859e-06
2.32912e-06
4.56488e-06
1.99246e-06
3.36052e-06
1.80234e-06
1.97476e-06
1.7596e-06
4.81249e-07
1.90994e-06
-9.59399e-07
2.19052e-06
-2.28809e-06
2.57635e-06
-3.46598e-06
3.06093e-06
-4.49224e-06
3.63898e-06
-5.36323e-06
4.29793e-06
-6.06899e-06
5.02514e-06
-6.59199e-06
5.80415e-06
-6.92231e-06
6.61334e-06
-7.06496e-06
7.43055e-06
-7.03852e-06
8.23565e-06
-6.87103e-06
9.01246e-06
-6.59461e-06
9.74967e-06
-6.24088e-06
1.04406e-05
-5.83798e-06
1.10823e-05
-5.40912e-06
1.1675e-05
-4.97214e-06
1.22205e-05
-4.5398e-06
1.27218e-05
-4.12038e-06
1.31824e-05
-3.71848e-06
1.36055e-05
-3.33588e-06
1.39939e-05
-2.9723e-06
1.435e-05
-2.62614e-06
1.46752e-05
-2.29504e-06
1.49702e-05
-1.97633e-06
1.52349e-05
-1.66743e-06
1.54686e-05
-1.36604e-06
1.56699e-05
-1.07029e-06
1.58371e-05
-7.78831e-07
1.59682e-05
-4.90842e-07
1.60611e-05
-2.06141e-07
1.6114e-05
7.4836e-08
1.61255e-05
3.50967e-07
1.60949e-05
6.20968e-07
1.60216e-05
8.83221e-07
1.59058e-05
1.1362e-06
1.57479e-05
1.37854e-06
1.55484e-05
1.60913e-06
1.53083e-05
1.82726e-06
1.50286e-05
2.03268e-06
1.47103e-05
2.22571e-06
1.43548e-05
2.40726e-06
1.39635e-05
2.57899e-06
1.35384e-05
2.74334e-06
1.30825e-05
2.90367e-06
1.26003e-05
3.06433e-06
1.20988e-05
3.23054e-06
1.15884e-05
3.40814e-06
1.10836e-05
3.60267e-06
1.06035e-05
3.81764e-06
1.01704e-05
4.05142e-06
9.80639e-06
4.29282e-06
9.52828e-06
4.51632e-06
9.33829e-06
4.67888e-06
9.21478e-06
4.7235e-06
9.11393e-06
4.59571e-06
8.98022e-06
4.26395e-06
8.76026e-06
3.73248e-06
8.40591e-06
3.03821e-06
7.88747e-06
2.24816e-06
7.23965e-06
1.45337e-06
6.50772e-06
7.19318e-07
5.74486e-06
5.08079e-08
5.00698e-06
-5.64508e-07
4.32518e-06
-1.13691e-06
3.70047e-06
-1.66708e-06
3.12655e-06
-2.14457e-06
2.59509e-06
-2.46213e-06
2.08206e-06
-2.08738e-06
1.46724e-06
1.53657e-06
1.51391e-05
-4.84933e-07
7.84112e-06
-5.08271e-07
-3.12152e-06
-5.50522e-07
-4.47348e-06
-6.04969e-07
-4.9846e-06
-6.05559e-07
-5.49972e-06
-5.15162e-07
-6.09074e-06
-3.09826e-07
-6.73925e-06
4.06698e-09
-7.36823e-06
4.07823e-07
-7.89325e-06
9.14587e-07
-8.248e-06
1.62798e-06
-8.30246e-06
2.65216e-06
-7.89994e-06
4.01351e-06
-7.08227e-06
5.60676e-06
-5.67065e-06
7.0113e-06
-3.28452e-06
7.90812e-06
-2.00096e-07
8.30856e-06
3.32247e-06
8.36212e-06
7.36975e-06
8.29998e-06
1.12928e-05
8.20002e-06
1.35495e-05
7.88071e-06
1.34224e-05
7.28692e-06
1.18035e-05
6.60436e-06
9.88682e-06
6.01534e-06
8.27397e-06
5.57751e-06
7.00994e-06
5.27353e-06
5.90257e-06
5.08416e-06
4.75425e-06
4.98564e-06
3.45904e-06
4.94415e-06
2.01625e-06
4.93524e-06
4.90157e-07
5.01606e-06
-1.04023e-06
5.18322e-06
-2.45524e-06
5.43481e-06
-3.71758e-06
5.76688e-06
-4.82431e-06
6.17687e-06
-5.77321e-06
6.65847e-06
-6.55059e-06
7.20196e-06
-7.13548e-06
7.79277e-06
-7.51312e-06
8.41232e-06
-7.6845e-06
9.04118e-06
-7.66738e-06
9.66195e-06
-7.4918e-06
1.0261e-05
-7.19365e-06
1.08291e-05
-6.80897e-06
1.13612e-05
-6.3701e-06
1.18557e-05
-5.90367e-06
1.23136e-05
-5.43003e-06
1.27373e-05
-4.96348e-06
1.313e-05
-4.51308e-06
1.34951e-05
-4.0836e-06
1.38358e-05
-3.67652e-06
1.41545e-05
-3.29102e-06
1.44531e-05
-2.92473e-06
1.47325e-05
-2.57446e-06
1.49929e-05
-2.23671e-06
1.52335e-05
-1.90808e-06
1.54531e-05
-1.58558e-06
1.56495e-05
-1.26674e-06
1.58204e-05
-9.49759e-07
1.59632e-05
-6.33548e-07
1.60747e-05
-3.17668e-07
1.6152e-05
-2.48369e-09
1.61925e-05
3.105e-07
1.61942e-05
6.19224e-07
1.6156e-05
9.21395e-07
1.60773e-05
1.21499e-06
1.59577e-05
1.49808e-06
1.57977e-05
1.76912e-06
1.55979e-05
2.02703e-06
1.53593e-05
2.27129e-06
1.50831e-05
2.50195e-06
1.47707e-05
2.7197e-06
1.44238e-05
2.92586e-06
1.40448e-05
3.12234e-06
1.36368e-05
3.31164e-06
1.32044e-05
3.49673e-06
1.27541e-05
3.68086e-06
1.2295e-05
3.8672e-06
1.18396e-05
4.05806e-06
1.14036e-05
4.25366e-06
1.10049e-05
4.45012e-06
1.0661e-05
4.63676e-06
1.03838e-05
4.79345e-06
1.01734e-05
4.88936e-06
1.00109e-05
4.88598e-06
9.85954e-06
4.74706e-06
9.67207e-06
4.45142e-06
9.40261e-06
4.00194e-06
9.01532e-06
3.4255e-06
8.49502e-06
2.76846e-06
7.86118e-06
2.08721e-06
7.15481e-06
1.42568e-06
6.40281e-06
8.02813e-07
5.62686e-06
2.11443e-07
4.85191e-06
-3.61956e-07
4.10362e-06
-9.18786e-07
3.38673e-06
-1.42768e-06
2.70475e-06
-1.78015e-06
2.05172e-06
-1.43435e-06
1.35349e-06
2.2348e-06
1.64926e-05
-4.20284e-07
8.2614e-06
-5.02388e-07
-3.03941e-06
-6.04913e-07
-4.37096e-06
-7.34452e-07
-4.85506e-06
-8.12196e-07
-5.42197e-06
-7.79699e-07
-6.12324e-06
-6.13448e-07
-6.9055e-06
-3.37661e-07
-7.64402e-06
5.11101e-09
-8.23602e-06
3.9494e-07
-8.63783e-06
9.02009e-07
-8.80952e-06
1.67853e-06
-8.67646e-06
2.81528e-06
-8.21903e-06
4.38006e-06
-7.23542e-06
6.05697e-06
-4.96142e-06
7.3077e-06
-1.45083e-06
8.0246e-06
2.60557e-06
8.43654e-06
6.95781e-06
8.78671e-06
1.09427e-05
9.08519e-06
1.32511e-05
9.1243e-06
1.33833e-05
8.84351e-06
1.20843e-05
8.40177e-06
1.03286e-05
7.99301e-06
8.68273e-06
7.71993e-06
7.28302e-06
7.59519e-06
6.02731e-06
7.58699e-06
4.76245e-06
7.64954e-06
3.39649e-06
7.73695e-06
1.92884e-06
7.82281e-06
4.04299e-07
7.90514e-06
-1.12255e-06
8.01484e-06
-2.56495e-06
8.16841e-06
-3.87115e-06
8.37447e-06
-5.03036e-06
8.63687e-06
-6.03561e-06
8.95464e-06
-6.86835e-06
9.32149e-06
-7.50233e-06
9.72601e-06
-7.91764e-06
1.01534e-05
-8.11186e-06
1.05882e-05
-8.10218e-06
1.10169e-05
-7.92057e-06
1.14296e-05
-7.60631e-06
1.18199e-05
-7.19925e-06
1.2185e-05
-6.73522e-06
1.2525e-05
-6.24363e-06
1.28416e-05
-5.74668e-06
1.31379e-05
-5.25977e-06
1.34172e-05
-4.79235e-06
1.36826e-05
-4.34905e-06
1.3937e-05
-3.93089e-06
1.41823e-05
-3.53632e-06
1.44197e-05
-3.16217e-06
1.46497e-05
-2.80439e-06
1.48716e-05
-2.45863e-06
1.50842e-05
-2.12073e-06
1.52857e-05
-1.787e-06
1.54733e-05
-1.45441e-06
1.56443e-05
-1.12073e-06
1.57953e-05
-7.84528e-07
1.59228e-05
-4.45139e-07
1.6023e-05
-1.02758e-07
1.60916e-05
2.41949e-07
1.61258e-05
5.85022e-07
1.61234e-05
9.23824e-07
1.60827e-05
1.25561e-06
1.60031e-05
1.57769e-06
1.58844e-05
1.88785e-06
1.5727e-05
2.18444e-06
1.55318e-05
2.46645e-06
1.53002e-05
2.73356e-06
1.50338e-05
2.98609e-06
1.47347e-05
3.22496e-06
1.44055e-05
3.4516e-06
1.40493e-05
3.66776e-06
1.36707e-05
3.87539e-06
1.32752e-05
4.07631e-06
1.28706e-05
4.27185e-06
1.24664e-05
4.46221e-06
1.20745e-05
4.64562e-06
1.17075e-05
4.81709e-06
1.13773e-05
4.96693e-06
1.10912e-05
5.07953e-06
1.08474e-05
5.1332e-06
1.06309e-05
5.10247e-06
1.04139e-05
4.96412e-06
1.01605e-05
4.70474e-06
9.83607e-06
4.32641e-06
9.41429e-06
3.84728e-06
8.88485e-06
3.2979e-06
8.2579e-06
2.71415e-06
7.55778e-06
2.12581e-06
6.81122e-06
1.54938e-06
6.03387e-06
9.88786e-07
5.23061e-06
4.41303e-07
4.4118e-06
-9.99736e-08
3.59782e-06
-6.13702e-07
2.80382e-06
-9.8615e-07
2.03822e-06
-6.68751e-07
1.2769e-06
2.99612e-06
1.77695e-05
-3.6449e-07
8.62589e-06
-4.75216e-07
-2.92869e-06
-6.07924e-07
-4.23825e-06
-7.6722e-07
-4.69576e-06
-8.6101e-07
-5.32818e-06
-8.16034e-07
-6.16821e-06
-6.15689e-07
-7.10585e-06
-3.03999e-07
-7.95571e-06
5.91085e-08
-8.59913e-06
4.31196e-07
-9.00992e-06
8.23071e-07
-9.2014e-06
1.34521e-06
-9.1986e-06
2.11342e-06
-8.98724e-06
3.32106e-06
-8.44306e-06
4.99776e-06
-6.63812e-06
6.60635e-06
-3.05942e-06
7.71129e-06
1.50063e-06
8.5247e-06
6.1444e-06
9.27975e-06
1.01876e-05
9.95397e-06
1.25768e-05
1.03433e-05
1.2994e-05
1.0383e-05
1.20446e-05
1.01973e-05
1.05143e-05
9.96719e-06
8.91287e-06
9.81971e-06
7.4305e-06
9.79759e-06
6.04943e-06
9.88148e-06
4.67857e-06
1.00252e-05
3.25281e-06
1.01855e-05
1.76846e-06
1.03339e-05
2.55908e-07
1.04535e-05
-1.24212e-06
1.05554e-05
-2.66686e-06
1.06574e-05
-3.97309e-06
1.07755e-05
-5.1485e-06
1.09209e-05
-6.18101e-06
1.10979e-05
-7.04535e-06
1.13042e-05
-7.70864e-06
1.15324e-05
-8.14587e-06
1.17726e-05
-8.35202e-06
1.20146e-05
-8.34426e-06
1.22505e-05
-8.15643e-06
1.24748e-05
-7.83063e-06
1.26852e-05
-7.40961e-06
1.28816e-05
-6.93167e-06
1.3066e-05
-6.428e-06
1.32412e-05
-5.92189e-06
1.34105e-05
-5.42911e-06
1.35772e-05
-4.95903e-06
1.3744e-05
-4.51582e-06
1.39129e-05
-4.0998e-06
1.40852e-05
-3.70861e-06
1.42613e-05
-3.33822e-06
1.44406e-05
-2.98374e-06
1.46221e-05
-2.6401e-06
1.48038e-05
-2.30244e-06
1.49833e-05
-1.96652e-06
1.51577e-05
-1.62882e-06
1.53237e-05
-1.28674e-06
1.54778e-05
-9.38558e-07
1.5616e-05
-5.83383e-07
1.57345e-05
-2.21226e-07
1.58281e-05
1.48315e-07
1.58927e-05
5.2044e-07
1.59247e-05
8.91805e-07
1.59217e-05
1.25859e-06
1.58821e-05
1.61729e-06
1.58052e-05
1.9648e-06
1.5691e-05
2.29868e-06
1.55402e-05
2.61725e-06
1.53541e-05
2.91962e-06
1.51345e-05
3.20563e-06
1.48838e-05
3.47575e-06
1.46044e-05
3.73092e-06
1.42999e-05
3.97234e-06
1.3974e-05
4.20121e-06
1.36319e-05
4.41844e-06
1.32795e-05
4.62425e-06
1.2924e-05
4.8177e-06
1.25736e-05
4.99607e-06
1.22365e-05
5.15416e-06
1.19198e-05
5.28362e-06
1.16269e-05
5.37246e-06
1.13547e-05
5.4054e-06
1.10915e-05
5.36569e-06
1.08169e-05
5.23863e-06
1.05056e-05
5.01604e-06
1.01325e-05
4.69955e-06
9.67871e-06
4.30106e-06
9.1362e-06
3.84042e-06
8.50957e-06
3.34078e-06
7.81292e-06
2.82246e-06
7.06362e-06
2.29868e-06
6.27691e-06
1.7755e-06
5.46332e-06
1.25489e-06
4.6216e-06
7.41744e-07
3.75738e-06
2.5052e-07
2.8847e-06
-1.13464e-07
2.04312e-06
1.72821e-07
1.22657e-06
3.81268e-06
1.89961e-05
-3.16635e-07
8.94253e-06
-4.46781e-07
-2.79854e-06
-5.97991e-07
-4.08704e-06
-7.57434e-07
-4.53632e-06
-8.21102e-07
-5.26452e-06
-7.08599e-07
-6.28072e-06
-4.22537e-07
-7.39191e-06
-3.47729e-08
-8.34347e-06
3.77161e-07
-9.01107e-06
7.66553e-07
-9.39931e-06
1.12396e-06
-9.55881e-06
1.48222e-06
-9.55686e-06
1.91672e-06
-9.42174e-06
2.60556e-06
-9.1319e-06
3.92088e-06
-7.95344e-06
5.70048e-06
-4.83902e-06
7.24332e-06
-4.22116e-08
8.5032e-06
4.88452e-06
9.67279e-06
9.01803e-06
1.07193e-05
1.15303e-05
1.14633e-05
1.225e-05
1.18405e-05
1.16674e-05
1.19416e-05
1.04131e-05
1.192e-05
8.93446e-06
1.19047e-05
7.44582e-06
1.19604e-05
5.9938e-06
1.20904e-05
4.54854e-06
1.22643e-05
3.0789e-06
1.2447e-05
1.58579e-06
1.26132e-05
8.96739e-08
1.27413e-05
-1.37027e-06
1.28277e-05
-2.75325e-06
1.28848e-05
-4.03019e-06
1.29296e-05
-5.19326e-06
1.29754e-05
-6.22677e-06
1.30283e-05
-7.09834e-06
1.30883e-05
-7.76857e-06
1.31511e-05
-8.20872e-06
1.3212e-05
-8.41289e-06
1.32671e-05
-8.39936e-06
1.33147e-05
-8.20399e-06
1.3355e-05
-7.87097e-06
1.33902e-05
-7.44478e-06
1.34234e-05
-6.96487e-06
1.34584e-05
-6.46299e-06
1.34989e-05
-5.96245e-06
1.35485e-05
-5.47866e-06
1.36097e-05
-5.02031e-06
1.36846e-05
-4.59072e-06
1.37742e-05
-4.18933e-06
1.38784e-05
-3.81286e-06
1.39967e-05
-3.45648e-06
1.41275e-05
-3.1146e-06
1.4269e-05
-2.78152e-06
1.44185e-05
-2.45193e-06
1.45731e-05
-2.12119e-06
1.47298e-05
-1.7855e-06
1.48851e-05
-1.44203e-06
1.50354e-05
-1.0889e-06
1.51772e-05
-7.25108e-07
1.53061e-05
-3.50167e-07
1.5418e-05
3.64145e-08
1.55072e-05
4.31201e-07
1.55692e-05
8.29829e-07
1.56005e-05
1.22733e-06
1.55985e-05
1.6193e-06
1.55617e-05
2.00157e-06
1.54896e-05
2.37075e-06
1.53826e-05
2.7243e-06
1.52416e-05
3.06057e-06
1.50684e-05
3.37882e-06
1.48652e-05
3.67899e-06
1.46346e-05
3.96155e-06
1.43797e-05
4.22724e-06
1.41041e-05
4.4768e-06
1.38119e-05
4.7106e-06
1.35078e-05
4.92831e-06
1.3197e-05
5.12852e-06
1.28848e-05
5.30833e-06
1.2576e-05
5.46293e-06
1.22742e-05
5.58539e-06
1.19801e-05
5.66656e-06
1.16899e-05
5.69562e-06
1.13942e-05
5.6614e-06
1.10783e-05
5.55456e-06
1.07242e-05
5.3701e-06
1.03145e-05
5.10928e-06
9.83565e-06
4.77989e-06
9.28131e-06
4.39477e-06
8.65309e-06
3.969e-06
7.95908e-06
3.51647e-06
7.2104e-06
3.04736e-06
6.41803e-06
2.56786e-06
5.59079e-06
2.08214e-06
4.73549e-06
1.59704e-06
3.85191e-06
1.1341e-06
2.94623e-06
7.92217e-07
2.06131e-06
1.05774e-06
1.19518e-06
4.6788e-06
2.01912e-05
-2.77436e-07
9.21997e-06
-4.34773e-07
-2.6412e-06
-6.05417e-07
-3.9164e-06
-7.46567e-07
-4.39517e-06
-7.42054e-07
-5.26903e-06
-5.17377e-07
-6.50539e-06
-1.1344e-07
-7.79585e-06
3.5886e-07
-8.81577e-06
8.16645e-07
-9.46885e-06
1.22891e-06
-9.81158e-06
1.58381e-06
-9.91371e-06
1.8698e-06
-9.84285e-06
2.10501e-06
-9.65695e-06
2.36634e-06
-9.39323e-06
3.08538e-06
-8.67247e-06
4.64231e-06
-6.39595e-06
6.56321e-06
-1.96311e-06
8.27145e-06
3.17628e-06
9.86315e-06
7.42633e-06
1.12832e-05
1.01103e-05
1.2386e-05
1.11472e-05
1.31138e-05
1.09396e-05
1.35302e-05
9.99673e-06
1.37578e-05
8.70689e-06
1.39129e-05
7.29069e-06
1.40686e-05
5.83816e-06
1.42476e-05
4.36949e-06
1.44385e-05
2.88797e-06
1.46173e-05
1.40701e-06
1.47578e-05
-5.08593e-08
1.48438e-05
-1.45626e-06
1.48733e-05
-2.78269e-06
1.48601e-05
-4.01707e-06
1.48212e-05
-5.1543e-06
1.47674e-05
-6.17303e-06
1.47021e-05
-7.03299e-06
1.46234e-05
-7.68993e-06
1.45292e-05
-8.11451e-06
1.44193e-05
-8.30296e-06
1.42964e-05
-8.27641e-06
1.41654e-05
-8.073e-06
1.40326e-05
-7.73818e-06
1.39046e-05
-7.31677e-06
1.37876e-05
-6.84788e-06
1.3687e-05
-6.3624e-06
1.36071e-05
-5.88255e-06
1.3551e-05
-5.42251e-06
1.35204e-05
-4.98971e-06
1.35159e-05
-4.58629e-06
1.35372e-05
-4.21059e-06
1.35828e-05
-3.85846e-06
1.36506e-05
-3.52434e-06
1.37382e-05
-3.2021e-06
1.38424e-05
-2.88572e-06
1.39601e-05
-2.56967e-06
1.40881e-05
-2.2492e-06
1.42231e-05
-1.92049e-06
1.43618e-05
-1.5807e-06
1.45008e-05
-1.22795e-06
1.4637e-05
-8.61269e-07
1.4767e-05
-4.80191e-07
1.4887e-05
-8.35698e-08
1.49913e-05
3.26896e-07
1.50748e-05
7.46286e-07
1.51332e-05
1.16895e-06
1.5163e-05
1.58955e-06
1.51617e-05
2.0028e-06
1.51283e-05
2.40424e-06
1.50622e-05
2.79031e-06
1.49643e-05
3.15854e-06
1.48356e-05
3.50744e-06
1.46783e-05
3.83637e-06
1.44944e-05
4.14535e-06
1.4287e-05
4.43474e-06
1.40588e-05
4.70493e-06
1.38134e-05
4.95605e-06
1.35541e-05
5.1876e-06
1.32845e-05
5.39815e-06
1.30078e-05
5.58503e-06
1.27265e-05
5.74416e-06
1.24419e-05
5.86997e-06
1.2153e-05
5.95554e-06
1.18555e-05
5.9931e-06
1.15418e-05
5.97505e-06
1.12011e-05
5.89526e-06
1.08207e-05
5.75058e-06
1.03881e-05
5.54187e-06
9.89381e-06
5.27415e-06
9.33287e-06
4.9557e-06
8.7055e-06
4.59637e-06
8.01637e-06
4.2056e-06
7.27275e-06
3.79098e-06
6.48257e-06
3.35804e-06
5.65313e-06
2.91157e-06
4.79059e-06
2.45958e-06
3.8993e-06
2.02539e-06
2.98776e-06
1.70376e-06
2.07914e-06
1.96636e-06
1.17507e-06
5.58287e-06
2.13663e-05
-2.47504e-07
9.46747e-06
-4.45203e-07
-2.4435e-06
-6.36006e-07
-3.72559e-06
-7.40469e-07
-4.29071e-06
-6.28052e-07
-5.38144e-06
-2.51703e-07
-6.88174e-06
2.76707e-07
-8.32426e-06
8.10959e-07
-9.35002e-06
1.3039e-06
-9.96179e-06
1.7409e-06
-1.02486e-05
2.10348e-06
-1.02763e-05
2.36918e-06
-1.01085e-05
2.51936e-06
-9.80714e-06
2.55257e-06
-9.42644e-06
2.72823e-06
-8.84813e-06
3.66752e-06
-7.33525e-06
5.61671e-06
-3.9123e-06
7.73994e-06
1.05305e-06
9.74971e-06
5.41656e-06
1.15385e-05
8.32154e-06
1.29953e-05
9.69037e-06
1.4073e-05
9.86194e-06
1.48157e-05
9.25399e-06
1.53183e-05
8.20429e-06
1.56787e-05
6.93033e-06
1.59669e-05
5.54992e-06
1.62155e-05
4.12094e-06
1.64258e-05
2.67762e-06
1.65827e-05
1.25009e-06
1.66696e-05
-1.37702e-07
1.6681e-05
-1.46771e-06
1.66273e-05
-2.72897e-06
1.65285e-05
-3.91827e-06
1.64004e-05
-5.02624e-06
1.62484e-05
-6.02099e-06
1.60693e-05
-6.8539e-06
1.58586e-05
-7.47922e-06
1.56156e-05
-7.87154e-06
1.53455e-05
-8.0328e-06
1.50577e-05
-7.98862e-06
1.4764e-05
-7.77933e-06
1.44763e-05
-7.45048e-06
1.42051e-05
-7.04562e-06
1.39591e-05
-6.60185e-06
1.37445e-05
-6.14783e-06
1.35656e-05
-5.70357e-06
1.34243e-05
-5.28121e-06
1.3321e-05
-4.88643e-06
1.32546e-05
-4.51988e-06
1.32228e-05
-4.17878e-06
1.32224e-05
-3.85813e-06
1.32499e-05
-3.55186e-06
1.33014e-05
-3.25359e-06
1.3373e-05
-2.95728e-06
1.34608e-05
-2.65753e-06
1.35615e-05
-2.34981e-06
1.36715e-05
-2.03059e-06
1.37881e-05
-1.69726e-06
1.39083e-05
-1.34818e-06
1.40296e-05
-9.82533e-07
1.41494e-05
-6.00023e-07
1.42653e-05
-1.99457e-07
1.43728e-05
2.1944e-07
1.44664e-05
6.52636e-07
1.45413e-05
1.09405e-06
1.45935e-05
1.53739e-06
1.46198e-05
1.97645e-06
1.46184e-05
2.40571e-06
1.45881e-05
2.82062e-06
1.45288e-05
3.21777e-06
1.44414e-05
3.5949e-06
1.4327e-05
3.95075e-06
1.41875e-05
4.28485e-06
1.4025e-05
4.59722e-06
1.38419e-05
4.88805e-06
1.36406e-05
5.15734e-06
1.34236e-05
5.40464e-06
1.3193e-05
5.62873e-06
1.29506e-05
5.82742e-06
1.26973e-05
5.99743e-06
1.24329e-05
6.13442e-06
1.21552e-05
6.23319e-06
1.18602e-05
6.28809e-06
1.15415e-05
6.29378e-06
1.11907e-05
6.24603e-06
1.07987e-05
6.14265e-06
1.03565e-05
5.98408e-06
9.85721e-06
5.7734e-06
9.2971e-06
5.51582e-06
8.6758e-06
5.21767e-06
7.99614e-06
4.88525e-06
7.2631e-06
4.52403e-06
6.48261e-06
4.13852e-06
5.66078e-06
3.73341e-06
4.80335e-06
3.31701e-06
3.91592e-06
2.91283e-06
3.00597e-06
2.61371e-06
2.08873e-06
2.88359e-06
1.16101e-06
6.51059e-06