/*--------------------------------*- C++ -*----------------------------------*\
| =========                 |                                                 |
| \\      /  F ield         | OpenFOAM: The Open Source CFD Toolbox           |
|  \\    /   O peration     | Version:  4.1                                   |
|   \\  /    A nd           | Web:      www.OpenFOAM.org                      |
|    \\/     M anipulation  |                                                 |
\*---------------------------------------------------------------------------*/
FoamFile
{
    version     2.0;
    format      ascii;
    class       volVectorField;
    location    "1580";
    object      U;
}
// * * * * * * * * * * * * * * * * * * * * * * * * * * * * * * * * * * * * * //

dimensions      [0 1 -1 0 0 0 0];

internalField   nonuniform List<vector> 
5000
(
(-0.00253371 0.00116143 0)
(-0.00214271 -0.00105117 0)
(-0.000578143 -0.00172028 0)
(0.00142127 -0.00142224 0)
(0.00307666 -0.00130489 0)
(0.00481372 -0.00125128 0)
(0.00659924 -0.0012227 0)
(0.00841396 -0.00118684 0)
(0.0102183 -0.00111666 0)
(0.011932 -0.000992944 0)
(0.0134434 -0.000813238 0)
(0.0146424 -0.000596781 0)
(0.015459 -0.000372941 0)
(0.0158814 -0.000165983 0)
(0.0159247 1.86527e-05 0)
(0.0156069 0.000217287 0)
(0.0148777 0.000518354 0)
(0.0135378 0.00109036 0)
(0.0111153 0.00206439 0)
(0.00692787 0.00287244 0)
(0.00201051 0.00228455 0)
(-0.000940946 0.00134832 0)
(-0.00283399 0.00098242 0)
(-0.00448838 0.000778989 0)
(-0.00587607 0.0006352 0)
(-0.00704923 0.000514655 0)
(-0.00802012 0.00039971 0)
(-0.00877988 0.00028187 0)
(-0.00931034 0.000157893 0)
(-0.00959062 2.61995e-05 0)
(-0.00960677 -0.000116615 0)
(-0.00936115 -0.000265189 0)
(-0.00885541 -0.00040892 0)
(-0.00810978 -0.00054067 0)
(-0.00715583 -0.00065553 0)
(-0.00603061 -0.000750761 0)
(-0.00477379 -0.000822944 0)
(-0.00342615 -0.00086987 0)
(-0.00201159 -0.000887157 0)
(-0.000537409 -0.000860275 0)
(0.000848645 -0.000802713 0)
(0.00218024 -0.000741707 0)
(0.00344875 -0.000681397 0)
(0.00463325 -0.000620319 0)
(0.00572761 -0.00055881 0)
(0.00672883 -0.000497887 0)
(0.00763581 -0.000438434 0)
(0.00844931 -0.000381097 0)
(0.0091714 -0.000326285 0)
(0.00980498 -0.000274209 0)
(0.0103534 -0.000224916 0)
(0.01082 -0.000178353 0)
(0.0112083 -0.000134423 0)
(0.0115217 -9.30712e-05 0)
(0.0117634 -5.44278e-05 0)
(0.0119372 -1.90436e-05 0)
(0.0120479 1.19533e-05 0)
(0.0121016 3.75331e-05 0)
(0.0121073 5.91024e-05 0)
(0.0120677 7.88953e-05 0)
(0.0119836 9.80151e-05 0)
(0.0118565 0.000116596 0)
(0.0116876 0.000134598 0)
(0.0114785 0.000151904 0)
(0.0112311 0.000168312 0)
(0.0109475 0.000183539 0)
(0.0106307 0.000197268 0)
(0.0102838 0.000209184 0)
(0.00991078 0.000219041 0)
(0.0095158 0.000226745 0)
(0.00910313 0.000232484 0)
(0.00867658 0.000236897 0)
(0.00823867 0.000241284 0)
(0.00778938 0.000247846 0)
(0.00732452 0.000259901 0)
(0.0068337 0.000281972 0)
(0.00629823 0.00031961 0)
(0.00568954 0.000378776 0)
(0.00496869 0.00046468 0)
(0.00408741 0.000580404 0)
(0.00298917 0.000728135 0)
(0.00171487 0.000915661 0)
(-0.000207421 0.0011008 0)
(-0.00221195 0.00109772 0)
(-0.00420354 0.00101711 0)
(-0.00615516 0.000875929 0)
(-0.00796207 0.000607287 0)
(-0.00931363 0.000164595 0)
(-0.00968578 -0.000389931 0)
(-0.00896857 -0.00078274 0)
(-0.00793444 -0.000931439 0)
(-0.00673175 -0.00100197 0)
(-0.00543371 -0.00107733 0)
(-0.00405058 -0.00118755 0)
(-0.00255035 -0.00134843 0)
(-0.000738332 -0.00155332 0)
(0.00131692 -0.00170577 0)
(0.00325437 -0.00165975 0)
(0.00463949 -0.000602841 0)
(0.00483853 0.00251632 0)
(-0.0020004 0.00329121 0)
(-0.00107933 -0.00153743 0)
(-0.000354575 -0.00267736 0)
(0.00109504 -0.00256557 0)
(0.00244267 -0.00254596 0)
(0.00393253 -0.00258794 0)
(0.00550063 -0.00265017 0)
(0.00713125 -0.00267906 0)
(0.00880141 -0.00261566 0)
(0.0104529 -0.00240303 0)
(0.0119833 -0.00201717 0)
(0.0132673 -0.00149798 0)
(0.0142094 -0.000919271 0)
(0.0147682 -0.000342793 0)
(0.0149087 0.000210201 0)
(0.0146233 0.000804358 0)
(0.0138651 0.00160948 0)
(0.0124952 0.00287042 0)
(0.0102658 0.00463396 0)
(0.00691677 0.0060268 0)
(0.00324036 0.00545459 0)
(0.000255328 0.00366532 0)
(-0.0017911 0.00276274 0)
(-0.00347477 0.0022782 0)
(-0.00489942 0.00192571 0)
(-0.00609775 0.00161854 0)
(-0.00707837 0.00131166 0)
(-0.00782898 0.000983249 0)
(-0.00833055 0.000626085 0)
(-0.00856291 0.000242429 0)
(-0.00851036 -0.000158216 0)
(-0.00820064 -0.000562097 0)
(-0.00764143 -0.000942894 0)
(-0.00685699 -0.00128492 0)
(-0.00587897 -0.0015786 0)
(-0.004741 -0.0018214 0)
(-0.00348025 -0.00200823 0)
(-0.00212432 -0.00213772 0)
(-0.000681728 -0.00219303 0)
(0.000713455 -0.00216034 0)
(0.00206533 -0.00207363 0)
(0.00338788 -0.00196531 0)
(0.00465019 -0.0018455 0)
(0.00583776 -0.00171644 0)
(0.00694367 -0.00158132 0)
(0.00796454 -0.00144366 0)
(0.00889944 -0.00130633 0)
(0.00974926 -0.00117144 0)
(0.0105161 -0.00104039 0)
(0.0112029 -0.000913959 0)
(0.0118127 -0.00079248 0)
(0.0123488 -0.000675965 0)
(0.0128144 -0.000564295 0)
(0.0132126 -0.000457411 0)
(0.0135464 -0.000355579 0)
(0.013819 -0.000259669 0)
(0.0140331 -0.000171076 0)
(0.0141907 -9.04522e-05 0)
(0.0142902 -1.57946e-05 0)
(0.0143351 5.5105e-05 0)
(0.0143272 0.000123859 0)
(0.0142682 0.000190673 0)
(0.0141603 0.000255226 0)
(0.0140056 0.000317122 0)
(0.0138066 0.000375831 0)
(0.0135659 0.000430718 0)
(0.0132863 0.000481102 0)
(0.0129706 0.000526322 0)
(0.0126218 0.000565852 0)
(0.0122429 0.000599468 0)
(0.0118368 0.000627499 0)
(0.0114055 0.000651185 0)
(0.0109505 0.000673138 0)
(0.0104713 0.000697897 0)
(0.00996492 0.000732456 0)
(0.0094249 0.000786585 0)
(0.00883993 0.000872571 0)
(0.00819318 0.00100398 0)
(0.0074623 0.00119315 0)
(0.00662143 0.00144779 0)
(0.00564517 0.00176876 0)
(0.00454329 0.00215431 0)
(0.00328857 0.00255418 0)
(0.00195928 0.00278065 0)
(0.000574254 0.00277523 0)
(-0.00084411 0.00252436 0)
(-0.00207262 0.00213361 0)
(-0.00312364 0.00144629 0)
(-0.00342114 -7.12288e-05 0)
(-0.00323585 -0.00124572 0)
(-0.00290062 -0.00161958 0)
(-0.00232882 -0.00175412 0)
(-0.00160154 -0.00184977 0)
(-0.000778262 -0.00199455 0)
(0.000114113 -0.00222491 0)
(0.00101777 -0.00249843 0)
(0.00194456 -0.00271596 0)
(0.00279838 -0.00261812 0)
(0.00309161 -0.000385473 0)
(0.00388511 0.00598432 0)
(-0.00163441 0.00477932 0)
(-0.000558515 -0.00226396 0)
(-0.00033482 -0.00357924 0)
(0.000699103 -0.00374408 0)
(0.00164149 -0.00386429 0)
(0.00276692 -0.00401424 0)
(0.00398883 -0.00417416 0)
(0.00530404 -0.00428968 0)
(0.0067112 -0.00428003 0)
(0.00818318 -0.00404299 0)
(0.00964621 -0.00350449 0)
(0.0109584 -0.00271189 0)
(0.0119867 -0.00178438 0)
(0.0126567 -0.000818525 0)
(0.0129233 0.000156266 0)
(0.0127724 0.00121799 0)
(0.0121959 0.00259729 0)
(0.0111026 0.00459356 0)
(0.00931958 0.00713079 0)
(0.00679704 0.0089501 0)
(0.00422318 0.00833391 0)
(0.0019284 0.00613234 0)
(-0.000100806 0.00454607 0)
(-0.00164791 0.00375448 0)
(-0.00299433 0.00317506 0)
(-0.00415594 0.00265318 0)
(-0.00512209 0.0021209 0)
(-0.00586779 0.00154616 0)
(-0.00636339 0.000921947 0)
(-0.0065773 0.000260217 0)
(-0.00650614 -0.000410398 0)
(-0.00619634 -0.00106717 0)
(-0.00564902 -0.00167582 0)
(-0.00489396 -0.0022165 0)
(-0.00396328 -0.00267293 0)
(-0.00288644 -0.00304626 0)
(-0.00170106 -0.00332666 0)
(-0.000405849 -0.00350106 0)
(0.000860512 -0.00354957 0)
(0.00212431 -0.00350176 0)
(0.00338379 -0.00338946 0)
(0.00461017 -0.00323581 0)
(0.00578239 -0.00305269 0)
(0.00688723 -0.00284922 0)
(0.00791732 -0.00263357 0)
(0.00886935 -0.00241266 0)
(0.00974274 -0.00219182 0)
(0.0105388 -0.00197485 0)
(0.01126 -0.0017642 0)
(0.0119094 -0.00156121 0)
(0.0124905 -0.00136643 0)
(0.0130063 -0.00117985 0)
(0.01346 -0.00100119 0)
(0.0138541 -0.000830192 0)
(0.0141907 -0.000666813 0)
(0.0144709 -0.000511403 0)
(0.0146953 -0.000364372 0)
(0.0148635 -0.000225285 0)
(0.0149757 -9.2971e-05 0)
(0.0150328 3.36e-05 0)
(0.0150379 0.000155406 0)
(0.014993 0.000272738 0)
(0.0149002 0.000385251 0)
(0.0147618 0.000492471 0)
(0.0145802 0.000593836 0)
(0.0143577 0.000688731 0)
(0.0140964 0.000776521 0)
(0.0137986 0.000856634 0)
(0.0134661 0.000928697 0)
(0.0131008 0.000992721 0)
(0.012704 0.0010494 0)
(0.0122771 0.00110055 0)
(0.0118208 0.00114958 0)
(0.0113357 0.00120224 0)
(0.010822 0.00126716 0)
(0.0102794 0.00135631 0)
(0.0097069 0.00148478 0)
(0.00910289 0.00166926 0)
(0.00846456 0.00192483 0)
(0.00778885 0.00225962 0)
(0.00707467 0.00266841 0)
(0.00633454 0.00312877 0)
(0.00558663 0.00356754 0)
(0.00485275 0.00382931 0)
(0.00413706 0.00382196 0)
(0.00346792 0.0034998 0)
(0.00289883 0.00290944 0)
(0.0023908 0.00202602 0)
(0.00226465 0.000494816 0)
(0.00166209 -0.000879917 0)
(0.00117641 -0.00165243 0)
(0.000988725 -0.00204591 0)
(0.00104638 -0.00228871 0)
(0.0012525 -0.00251443 0)
(0.00154329 -0.00277377 0)
(0.00188242 -0.00306671 0)
(0.00222632 -0.00329367 0)
(0.00252213 -0.00305931 0)
(0.00205756 -0.000200113 0)
(0.00315239 0.00896824 0)
(-0.00138599 0.00576669 0)
(-0.000362355 -0.00271541 0)
(-0.000390992 -0.00409969 0)
(0.000308511 -0.00446555 0)
(0.000880962 -0.00471369 0)
(0.00164539 -0.00497382 0)
(0.00250339 -0.00523988 0)
(0.00346872 -0.00546888 0)
(0.0045571 -0.00557326 0)
(0.00576859 -0.00541565 0)
(0.00709589 -0.0048383 0)
(0.00841346 -0.00386478 0)
(0.00956206 -0.00264992 0)
(0.0104334 -0.00132169 0)
(0.0109594 4.76479e-05 0)
(0.0110692 0.00151869 0)
(0.0107722 0.00337561 0)
(0.0100087 0.00595707 0)
(0.00867235 0.00905417 0)
(0.00685982 0.0111053 0)
(0.00509885 0.0104698 0)
(0.00342931 0.00818934 0)
(0.00179478 0.00629123 0)
(0.000337794 0.00512636 0)
(-0.000880814 0.00435579 0)
(-0.00194276 0.00366905 0)
(-0.00284322 0.00295228 0)
(-0.00354321 0.00215592 0)
(-0.00400026 0.00128081 0)
(-0.00418049 0.000349006 0)
(-0.00408552 -0.00059908 0)
(-0.00378166 -0.00149715 0)
(-0.00326795 -0.00231435 0)
(-0.00257207 -0.00303724 0)
(-0.00172765 -0.00364332 0)
(-0.000744341 -0.00414087 0)
(0.000325844 -0.00449686 0)
(0.00140703 -0.00469347 0)
(0.00253084 -0.00475649 0)
(0.00367253 -0.00470894 0)
(0.00480736 -0.00457595 0)
(0.00591196 -0.00437917 0)
(0.00696828 -0.00413697 0)
(0.00796425 -0.00386492 0)
(0.00889307 -0.00357592 0)
(0.00975189 -0.00328019 0)
(0.0105406 -0.00298537 0)
(0.0112609 -0.00269671 0)
(0.0119157 -0.00241748 0)
(0.0125081 -0.00214934 0)
(0.0130416 -0.00189277 0)
(0.0135192 -0.0016475 0)
(0.0139437 -0.00141282 0)
(0.0143172 -0.00118786 0)
(0.0146412 -0.000971865 0)
(0.0149164 -0.000764245 0)
(0.015143 -0.000564539 0)
(0.0153205 -0.000372225 0)
(0.0154482 -0.000186862 0)
(0.0155254 -8.22208e-06 0)
(0.0155534 0.000163878 0)
(0.0155325 0.00032974 0)
(0.0154636 0.000488971 0)
(0.0153482 0.000640964 0)
(0.0151879 0.000785085 0)
(0.0149845 0.000920705 0)
(0.0147397 0.00104725 0)
(0.0144555 0.00116428 0)
(0.0141334 0.00127164 0)
(0.013775 0.00136959 0)
(0.0133816 0.00145907 0)
(0.0129542 0.00154206 0)
(0.012494 0.00162204 0)
(0.0120024 0.00170458 0)
(0.0114815 0.00179788 0)
(0.010935 0.00191323 0)
(0.0103685 0.00206487 0)
(0.00979027 0.00226873 0)
(0.00921147 0.00253912 0)
(0.00864578 0.00288281 0)
(0.00810882 0.00329052 0)
(0.00761921 0.00372847 0)
(0.00719515 0.00412144 0)
(0.00684128 0.00434691 0)
(0.0065403 0.00430299 0)
(0.00627144 0.0039331 0)
(0.00601885 0.00325201 0)
(0.00574378 0.00226564 0)
(0.00542656 0.000988623 0)
(0.00483159 -0.000191316 0)
(0.00408525 -0.00108676 0)
(0.00346055 -0.00169726 0)
(0.00302113 -0.00213152 0)
(0.00274431 -0.00249137 0)
(0.00258366 -0.00283736 0)
(0.00249715 -0.0031761 0)
(0.00243758 -0.00340474 0)
(0.00240249 -0.00305374 0)
(0.00166848 0.000201441 0)
(0.00266354 0.0111783 0)
(-0.00118469 0.00650134 0)
(-0.000282021 -0.00300228 0)
(-0.000471948 -0.00439231 0)
(-6.2793e-05 -0.00486971 0)
(0.000219095 -0.00522558 0)
(0.000664953 -0.00559051 0)
(0.00119667 -0.00596526 0)
(0.00183771 -0.00631782 0)
(0.00260613 -0.00656574 0)
(0.00350576 -0.00656918 0)
(0.00461008 -0.00608646 0)
(0.0058701 -0.00508072 0)
(0.00712978 -0.00372612 0)
(0.00825952 -0.00214921 0)
(0.00914665 -0.00041857 0)
(0.00961647 0.00146743 0)
(0.00965109 0.00379105 0)
(0.00922849 0.00687136 0)
(0.00832625 0.0103504 0)
(0.0071419 0.0125059 0)
(0.00601879 0.0119276 0)
(0.00482743 0.0097252 0)
(0.00356258 0.0077125 0)
(0.00241 0.00637988 0)
(0.00140841 0.00544919 0)
(0.000496383 0.00459837 0)
(-0.000288152 0.00369505 0)
(-0.000878708 0.00269773 0)
(-0.00124978 0.00158801 0)
(-0.00137381 0.000403357 0)
(-0.00126084 -0.000787807 0)
(-0.000981372 -0.00188887 0)
(-0.000534076 -0.00289015 0)
(7.46152e-05 -0.00377851 0)
(0.000777594 -0.00449505 0)
(0.00156649 -0.00506718 0)
(0.00243129 -0.00547797 0)
(0.00335916 -0.00572523 0)
(0.00433046 -0.0058192 0)
(0.00532024 -0.00577852 0)
(0.00630493 -0.00562824 0)
(0.00726389 -0.00539434 0)
(0.00818117 -0.00510098 0)
(0.00904613 -0.00476912 0)
(0.00985286 -0.004416 0)
(0.0105992 -0.00405506 0)
(0.0112856 -0.0036961 0)
(0.0119141 -0.00334574 0)
(0.0124879 -0.0030079 0)
(0.0130103 -0.00268443 0)
(0.0134846 -0.00237563 0)
(0.0139137 -0.00208082 0)
(0.0142999 -0.00179872 0)
(0.0146449 -0.00152786 0)
(0.0149495 -0.00126677 0)
(0.015214 -0.00101421 0)
(0.0154379 -0.000769187 0)
(0.0156203 -0.000530896 0)
(0.0157601 -0.000298809 0)
(0.0158558 -7.28238e-05 0)
(0.0159067 0.000146801 0)
(0.0159126 0.00035999 0)
(0.0158731 0.000566005 0)
(0.0157884 0.000763897 0)
(0.0156594 0.000952706 0)
(0.0154867 0.00113156 0)
(0.0152716 0.00129978 0)
(0.0150153 0.0014569 0)
(0.014719 0.00160286 0)
(0.0143839 0.00173807 0)
(0.0140114 0.00186359 0)
(0.0136024 0.0019814 0)
(0.0131585 0.00209471 0)
(0.0126817 0.00220828 0)
(0.0121751 0.0023289 0)
(0.011644 0.00246556 0)
(0.0110967 0.00262936 0)
(0.0105453 0.00283241 0)
(0.0100069 0.00308515 0)
(0.00950236 0.00339127 0)
(0.00905506 0.00374001 0)
(0.008687 0.00409784 0)
(0.00841276 0.00439986 0)
(0.00822726 0.00455159 0)
(0.00809923 0.00446488 0)
(0.00798141 0.00408988 0)
(0.00782458 0.00343343 0)
(0.00757649 0.00253222 0)
(0.00717872 0.00147832 0)
(0.00660356 0.000481089 0)
(0.00585065 -0.000382677 0)
(0.00509055 -0.00107373 0)
(0.00441818 -0.00162753 0)
(0.00385415 -0.0021029 0)
(0.00338811 -0.00253945 0)
(0.00299681 -0.0029385 0)
(0.00264725 -0.00319536 0)
(0.00237377 -0.0028033 0)
(0.00145563 0.000664329 0)
(0.00230421 0.0129276 0)
(-0.00100609 0.00710341 0)
(-0.000259577 -0.00313596 0)
(-0.000549875 -0.004516 0)
(-0.000359612 -0.00503366 0)
(-0.000289649 -0.00546235 0)
(-9.29131e-05 -0.00591961 0)
(0.00019643 -0.00640201 0)
(0.000594112 -0.00686949 0)
(0.0011063 -0.00724972 0)
(0.00171954 -0.00742895 0)
(0.00254263 -0.00714634 0)
(0.00365483 -0.00627684 0)
(0.00496157 -0.00497638 0)
(0.00634829 -0.00328389 0)
(0.00760602 -0.00123074 0)
(0.00846968 0.00108627 0)
(0.00882814 0.0038656 0)
(0.00872736 0.00737362 0)
(0.00824307 0.0111021 0)
(0.00761637 0.0133028 0)
(0.0070097 0.0128558 0)
(0.00621586 0.0108336 0)
(0.00525878 0.00879804 0)
(0.00436849 0.00733139 0)
(0.00362496 0.00628522 0)
(0.00299472 0.00536616 0)
(0.00246315 0.00437584 0)
(0.00209213 0.00320899 0)
(0.00186806 0.00186497 0)
(0.00178537 0.000427725 0)
(0.00185811 -0.000964777 0)
(0.00206595 -0.00222516 0)
(0.0023932 -0.00334222 0)
(0.00282394 -0.0043086 0)
(0.00335203 -0.00513239 0)
(0.00396881 -0.00579786 0)
(0.00466111 -0.00628655 0)
(0.00541425 -0.00659017 0)
(0.00620924 -0.00671625 0)
(0.00702391 -0.00668385 0)
(0.00783676 -0.00652008 0)
(0.00862933 -0.00625515 0)
(0.00938768 -0.00591831 0)
(0.0101027 -0.00553545 0)
(0.0107695 -0.00512787 0)
(0.0113869 -0.00471205 0)
(0.011956 -0.00429983 0)
(0.0124792 -0.00389902 0)
(0.0129598 -0.00351404 0)
(0.0134012 -0.00314676 0)
(0.0138067 -0.00279715 0)
(0.0141787 -0.00246396 0)
(0.0145193 -0.00214522 0)
(0.0148295 -0.00183869 0)
(0.0151095 -0.00154219 0)
(0.0153591 -0.00125376 0)
(0.015577 -0.000971832 0)
(0.0157618 -0.000695252 0)
(0.0159115 -0.000423319 0)
(0.0160243 -0.000155922 0)
(0.0160975 0.000106452 0)
(0.0161301 0.000363043 0)
(0.0161208 0.000612764 0)
(0.0160689 0.000854344 0)
(0.0159744 0.00108648 0)
(0.0158374 0.00130803 0)
(0.0156585 0.00151806 0)
(0.0154385 0.00171599 0)
(0.0151784 0.00190169 0)
(0.0148791 0.00207553 0)
(0.0145419 0.00223852 0)
(0.0141682 0.00239245 0)
(0.0137595 0.00254003 0)
(0.0133183 0.0026851 0)
(0.0128481 0.00283275 0)
(0.0123546 0.00298941 0)
(0.0118463 0.00316253 0)
(0.0113354 0.00335969 0)
(0.0108388 0.00358655 0)
(0.0103775 0.0038431 0)
(0.0099742 0.00411816 0)
(0.00964962 0.00438325 0)
(0.00941479 0.00458808 0)
(0.00926138 0.00466412 0)
(0.00915638 0.00454593 0)
(0.00904851 0.00419589 0)
(0.00888191 0.00361904 0)
(0.00860542 0.00285643 0)
(0.0081782 0.00198782 0)
(0.00759588 0.00113336 0)
(0.00690795 0.000368839 0)
(0.00614077 -0.000325987 0)
(0.00537497 -0.000944212 0)
(0.00466093 -0.00149391 0)
(0.00400737 -0.00200016 0)
(0.00341008 -0.00245543 0)
(0.00285284 -0.00275359 0)
(0.0023939 -0.00236776 0)
(0.00133237 0.00122309 0)
(0.00202616 0.01445 0)
(-0.000844866 0.00761833 0)
(-0.000260122 -0.00315062 0)
(-0.000595609 -0.0045134 0)
(-0.000558748 -0.00503421 0)
(-0.000622237 -0.00552317 0)
(-0.000583718 -0.00606347 0)
(-0.000439243 -0.00664888 0)
(-0.000178083 -0.00722275 0)
(0.000184631 -0.00771074 0)
(0.000614445 -0.00802499 0)
(0.00118306 -0.00798328 0)
(0.00205844 -0.00740899 0)
(0.00327252 -0.00639157 0)
(0.00476872 -0.00479922 0)
(0.0063597 -0.00246569 0)
(0.00760471 0.000358418 0)
(0.008263 0.00361759 0)
(0.00846103 0.00749867 0)
(0.00837334 0.0113789 0)
(0.00823656 0.0136129 0)
(0.0080615 0.013361 0)
(0.00761813 0.0115882 0)
(0.00694493 0.00960721 0)
(0.0062769 0.00802815 0)
(0.00574788 0.006841 0)
(0.00536579 0.00581032 0)
(0.00510841 0.00472561 0)
(0.00498328 0.00347689 0)
(0.00495013 0.00205939 0)
(0.00495292 0.000530739 0)
(0.0049862 -0.000986797 0)
(0.00510496 -0.00238301 0)
(0.00531184 -0.00361808 0)
(0.00560169 -0.00469443 0)
(0.00597138 -0.00561159 0)
(0.00641655 -0.00635792 0)
(0.00692904 -0.00691497 0)
(0.00749663 -0.00727073 0)
(0.00810272 -0.00742836 0)
(0.00872815 -0.0074062 0)
(0.00935427 -0.00723342 0)
(0.00996533 -0.00694419 0)
(0.0105498 -0.00657247 0)
(0.0111004 -0.00614865 0)
(0.011614 -0.00569778 0)
(0.0120902 -0.00523905 0)
(0.0125308 -0.00478608 0)
(0.0129386 -0.00434762 0)
(0.0133172 -0.0039284 0)
(0.0136697 -0.00353011 0)
(0.0139992 -0.00315222 0)
(0.0143077 -0.00279278 0)
(0.0145967 -0.00244903 0)
(0.0148668 -0.00211789 0)
(0.0151177 -0.00179638 0)
(0.0153483 -0.00148184 0)
(0.0155568 -0.00117213 0)
(0.0157412 -0.000865661 0)
(0.0158987 -0.000561489 0)
(0.0160268 -0.000259305 0)
(0.016122 4.04435e-05 0)
(0.0161815 0.000336363 0)
(0.0162031 0.000626775 0)
(0.0161852 0.000909777 0)
(0.0161268 0.00118365 0)
(0.0160277 0.00144679 0)
(0.0158879 0.00169792 0)
(0.0157078 0.00193619 0)
(0.0154884 0.00216125 0)
(0.0152307 0.00237331 0)
(0.014936 0.00257322 0)
(0.0146059 0.00276244 0)
(0.0142424 0.00294318 0)
(0.0138481 0.00311834 0)
(0.0134269 0.00329151 0)
(0.012984 0.00346687 0)
(0.0125271 0.00364877 0)
(0.012067 0.00384098 0)
(0.0116176 0.00404516 0)
(0.0111962 0.00425835 0)
(0.0108211 0.00446954 0)
(0.010508 0.00465598 0)
(0.0102643 0.00478109 0)
(0.0100817 0.00479792 0)
(0.00993203 0.00466191 0)
(0.00977182 0.00434711 0)
(0.00955262 0.00385711 0)
(0.00923217 0.00322406 0)
(0.00878298 0.00250465 0)
(0.00820489 0.00177078 0)
(0.00752898 0.00107484 0)
(0.00679697 0.000436373 0)
(0.00602721 -0.000171324 0)
(0.00524253 -0.00076284 0)
(0.00447948 -0.00131103 0)
(0.00374649 -0.00180585 0)
(0.00304062 -0.00214259 0)
(0.00243414 -0.00178313 0)
(0.00126801 0.0018781 0)
(0.00180717 0.0158439 0)
(-0.000701055 0.00806606 0)
(-0.000261056 -0.00308844 0)
(-0.000596287 -0.00443132 0)
(-0.000657616 -0.00492994 0)
(-0.000796223 -0.00546896 0)
(-0.000828283 -0.00610958 0)
(-0.000728212 -0.0068198 0)
(-0.000497751 -0.0075016 0)
(-0.000181908 -0.00806048 0)
(0.000178244 -0.00844783 0)
(0.000600307 -0.00858987 0)
(0.00121339 -0.00834924 0)
(0.00217522 -0.00773014 0)
(0.00348383 -0.00650096 0)
(0.00519577 -0.00407928 0)
(0.00682769 -0.000722051 0)
(0.00782666 0.00305826 0)
(0.00833685 0.00726545 0)
(0.00863647 0.011228 0)
(0.00893567 0.0135052 0)
(0.00914229 0.0134979 0)
(0.00903058 0.0120265 0)
(0.00863638 0.0101712 0)
(0.00817508 0.00852422 0)
(0.00781345 0.00718549 0)
(0.00760583 0.00600717 0)
(0.00754034 0.00480764 0)
(0.00758335 0.00348296 0)
(0.00768229 0.00202893 0)
(0.00779862 0.000492348 0)
(0.00787883 -0.0010474 0)
(0.00796796 -0.00249769 0)
(0.00809555 -0.00380046 0)
(0.00827307 -0.00494717 0)
(0.00850607 -0.00593432 0)
(0.00879571 -0.00674694 0)
(0.00913803 -0.00736208 0)
(0.00952399 -0.00776267 0)
(0.00994041 -0.00794805 0)
(0.0103721 -0.00793578 0)
(0.0108045 -0.00775702 0)
(0.0112257 -0.00744954 0)
(0.0116275 -0.00705153 0)
(0.0120053 -0.00659731 0)
(0.0123577 -0.0061151 0)
(0.0126858 -0.00562635 0)
(0.0129919 -0.00514604 0)
(0.0132793 -0.00468354 0)
(0.0135514 -0.00424362 0)
(0.013811 -0.0038276 0)
(0.0140607 -0.00343432 0)
(0.0143021 -0.00306101 0)
(0.0145359 -0.00270407 0)
(0.0147622 -0.00235958 0)
(0.0149799 -0.00202373 0)
(0.0151875 -0.00169316 0)
(0.0153828 -0.00136513 0)
(0.0155629 -0.00103761 0)
(0.0157247 -0.000709322 0)
(0.0158648 -0.000379718 0)
(0.0159802 -4.88111e-05 0)
(0.0160654 0.000281386 0)
(0.0161175 0.000608556 0)
(0.0161339 0.000930021 0)
(0.0161127 0.00124344 0)
(0.0160528 0.00154654 0)
(0.0159536 0.00183751 0)
(0.0158154 0.00211504 0)
(0.0156389 0.0023784 0)
(0.0154252 0.00262752 0)
(0.0151758 0.00286291 0)
(0.0148925 0.00308572 0)
(0.0145777 0.0032976 0)
(0.0142343 0.00350068 0)
(0.0138659 0.00369734 0)
(0.0134774 0.00389005 0)
(0.0130755 0.00408089 0)
(0.0126688 0.00427095 0)
(0.012268 0.00445924 0)
(0.0118855 0.0046411 0)
(0.0115343 0.00480626 0)
(0.0112247 0.00493696 0)
(0.0109603 0.00500738 0)
(0.0107335 0.00498637 0)
(0.0105228 0.00484505 0)
(0.0102951 0.00456668 0)
(0.0100136 0.00415377 0)
(0.00964628 0.00362856 0)
(0.00917358 0.00302885 0)
(0.00859454 0.00239947 0)
(0.0079272 0.00177616 0)
(0.00719914 0.00117657 0)
(0.00643446 0.000604577 0)
(0.00564508 4.88516e-05 0)
(0.00482951 -0.000518153 0)
(0.00401173 -0.0010407 0)
(0.00320038 -0.00140508 0)
(0.00247992 -0.00107341 0)
(0.00123877 0.00260959 0)
(0.00163151 0.0171516 0)
(-0.000575094 0.00845673 0)
(-0.000255468 -0.00298664 0)
(-0.000568192 -0.00430785 0)
(-0.000683067 -0.00477596 0)
(-0.000846872 -0.00537038 0)
(-0.000880585 -0.00613357 0)
(-0.000750701 -0.00698869 0)
(-0.000478751 -0.00778323 0)
(-0.000130529 -0.0084052 0)
(0.000241342 -0.00881966 0)
(0.000617393 -0.00902023 0)
(0.00103674 -0.00899889 0)
(0.00168327 -0.00870869 0)
(0.00257372 -0.00797881 0)
(0.0040183 -0.00585991 0)
(0.00588766 -0.00219463 0)
(0.00732921 0.00214421 0)
(0.0082205 0.00665813 0)
(0.00892416 0.0106739 0)
(0.00962925 0.0130163 0)
(0.0101963 0.0132853 0)
(0.0104185 0.0121529 0)
(0.010318 0.0104929 0)
(0.0100749 0.00884755 0)
(0.00986187 0.00738893 0)
(0.00976788 0.00606138 0)
(0.00980273 0.00474058 0)
(0.00992935 0.00334476 0)
(0.0100965 0.00186923 0)
(0.0102771 0.000350368 0)
(0.0104122 -0.00116455 0)
(0.0105185 -0.0026066 0)
(0.0106161 -0.00392361 0)
(0.0107227 -0.00510155 0)
(0.0108523 -0.00612983 0)
(0.0110126 -0.00698645 0)
(0.0112039 -0.00764188 0)
(0.0114209 -0.00807357 0)
(0.0116547 -0.00827759 0)
(0.0118954 -0.00827104 0)
(0.012134 -0.00808689 0)
(0.0123636 -0.00776605 0)
(0.0125806 -0.0073501 0)
(0.0127835 -0.00687643 0)
(0.0129735 -0.00637559 0)
(0.0131529 -0.00587057 0)
(0.0133247 -0.00537714 0)
(0.0134924 -0.00490484 0)
(0.0136589 -0.00445817 0)
(0.0138267 -0.00403785 0)
(0.0139973 -0.00364197 0)
(0.0141716 -0.00326693 0)
(0.0143496 -0.00290824 0)
(0.0145305 -0.00256118 0)
(0.0147126 -0.00222121 0)
(0.0148939 -0.00188431 0)
(0.0150717 -0.00154719 0)
(0.0152427 -0.0012074 0)
(0.0154037 -0.000863354 0)
(0.0155506 -0.000514246 0)
(0.0156804 -0.000159692 0)
(0.0157879 0.000198799 0)
(0.0158681 0.000557977 0)
(0.015917 0.000914276 0)
(0.0159322 0.00126453 0)
(0.0159113 0.00160566 0)
(0.0158532 0.00193505 0)
(0.0157575 0.00225069 0)
(0.0156248 0.0025513 0)
(0.015456 0.00283631 0)
(0.0152528 0.00310584 0)
(0.0150171 0.0033606 0)
(0.0147514 0.00360177 0)
(0.0144586 0.00383083 0)
(0.0141425 0.00404929 0)
(0.0138073 0.00425844 0)
(0.0134586 0.00445893 0)
(0.0131029 0.00465026 0)
(0.012748 0.00482999 0)
(0.0124022 0.00499288 0)
(0.0120737 0.00512982 0)
(0.0117683 0.00522713 0)
(0.0114866 0.0052667 0)
(0.0112217 0.00522808 0)
(0.0109574 0.00509301 0)
(0.0106702 0.00485119 0)
(0.0103335 0.00450451 0)
(0.00992432 0.00406767 0)
(0.00942832 0.00356525 0)
(0.00884339 0.0030259 0)
(0.00817941 0.00247391 0)
(0.00745334 0.00192395 0)
(0.00668275 0.00138153 0)
(0.00588109 0.000848555 0)
(0.00505489 0.00033047 0)
(0.00420114 -0.000174128 0)
(0.00332327 -0.000554732 0)
(0.00253032 -0.000244364 0)
(0.00123939 0.00340044 0)
(0.00148846 0.0183978 0)
(-0.000466323 0.00879689 0)
(-0.000247899 -0.00286481 0)
(-0.000542252 -0.00416369 0)
(-0.000683089 -0.0046097 0)
(-0.000835545 -0.00528041 0)
(-0.000816127 -0.00619914 0)
(-0.00059973 -0.00722062 0)
(-0.000240447 -0.00812517 0)
(0.000172587 -0.00879007 0)
(0.000579821 -0.00919918 0)
(0.000954595 -0.00938427 0)
(0.00129572 -0.00940643 0)
(0.00168805 -0.00927567 0)
(0.00216181 -0.00892191 0)
(0.00303658 -0.0074397 0)
(0.00474263 -0.00395955 0)
(0.00663236 0.000823175 0)
(0.00798264 0.00562846 0)
(0.00912037 0.00971493 0)
(0.0102208 0.0121578 0)
(0.0111452 0.0127227 0)
(0.011713 0.0119522 0)
(0.0119311 0.0105471 0)
(0.0119403 0.00898662 0)
(0.0118975 0.00747898 0)
(0.0119063 0.00604449 0)
(0.0120006 0.004625 0)
(0.0121617 0.0031719 0)
(0.0123505 0.00168098 0)
(0.0125469 0.00017659 0)
(0.0126978 -0.00130472 0)
(0.0128026 -0.00271255 0)
(0.0128706 -0.00400943 0)
(0.0129178 -0.00518454 0)
(0.0129608 -0.00622367 0)
(0.0130091 -0.00709792 0)
(0.0130649 -0.00777083 0)
(0.0131253 -0.00821495 0)
(0.0131858 -0.00842423 0)
(0.0132421 -0.00841606 0)
(0.0132918 -0.00822525 0)
(0.0133343 -0.0078951 0)
(0.0133708 -0.00746958 0)
(0.013404 -0.00698789 0)
(0.0134374 -0.00648184 0)
(0.0134746 -0.00597499 0)
(0.0135193 -0.00548316 0)
(0.0135745 -0.00501551 0)
(0.0136425 -0.00457592 0)
(0.0137249 -0.00416429 0)
(0.013822 -0.00377785 0)
(0.0139336 -0.00341214 0)
(0.0140587 -0.00306192 0)
(0.0141954 -0.00272173 0)
(0.0143416 -0.00238646 0)
(0.0144944 -0.00205159 0)
(0.0146509 -0.00171343 0)
(0.0148077 -0.00136919 0)
(0.0149614 -0.00101706 0)
(0.0151082 -0.000656048 0)
(0.0152445 -0.000285591 0)
(0.0153671 9.39722e-05 0)
(0.0154688 0.00047918 0)
(0.0155453 0.000865675 0)
(0.0155928 0.00124906 0)
(0.0156081 0.00162539 0)
(0.015589 0.00199108 0)
(0.0155347 0.00234322 0)
(0.015445 0.00267976 0)
(0.0153207 0.00299946 0)
(0.0151632 0.0033019 0)
(0.0149745 0.00358731 0)
(0.0147569 0.00385641 0)
(0.0145134 0.00411015 0)
(0.0142473 0.00434947 0)
(0.0139624 0.00457495 0)
(0.0136631 0.00478646 0)
(0.0133545 0.00498269 0)
(0.0130416 0.00516072 0)
(0.0127299 0.00531547 0)
(0.0124239 0.00543925 0)
(0.0121259 0.00552157 0)
(0.0118347 0.00554968 0)
(0.0115441 0.00551006 0)
(0.0112417 0.00539121 0)
(0.0109109 0.00518689 0)
(0.010533 0.0048986 0)
(0.0100919 0.00453597 0)
(0.00957699 0.00411487 0)
(0.00898572 0.00365383 0)
(0.00832325 0.00316945 0)
(0.00759989 0.00267326 0)
(0.00682749 0.00217147 0)
(0.00601647 0.0016676 0)
(0.00517478 0.00116781 0)
(0.00430527 0.000695778 0)
(0.00340131 0.000349471 0)
(0.00257717 0.000616219 0)
(0.00126332 0.00423911 0)
(0.00137137 0.0196033 0)
(-0.000373168 0.00909329 0)
(-0.000245937 -0.00272237 0)
(-0.000542551 -0.00400214 0)
(-0.000695345 -0.00445397 0)
(-0.000807838 -0.00524048 0)
(-0.00068693 -0.00635669 0)
(-0.000342296 -0.00755799 0)
(0.000122373 -0.00855632 0)
(0.000598372 -0.00922862 0)
(0.00103663 -0.00959772 0)
(0.00142322 -0.00973376 0)
(0.00174408 -0.00970582 0)
(0.00200507 -0.00956761 0)
(0.0022095 -0.00933607 0)
(0.00252901 -0.00846165 0)
(0.00360818 -0.00572393 0)
(0.00568149 -0.000897904 0)
(0.00752929 0.00414978 0)
(0.00911879 0.00833931 0)
(0.0106105 0.0109277 0)
(0.011893 0.0118027 0)
(0.0128148 0.0114056 0)
(0.0133716 0.0102989 0)
(0.0136689 0.00889885 0)
(0.0138382 0.00742631 0)
(0.0139812 0.00595447 0)
(0.0141466 0.00448225 0)
(0.0143369 0.00299646 0)
(0.0145327 0.00150173 0)
(0.0147088 1.93111e-05 0)
(0.0148237 -0.00141948 0)
(0.0148778 -0.00277845 0)
(0.0148823 -0.00403704 0)
(0.0148531 -0.0051899 0)
(0.0148053 -0.00621953 0)
(0.0147454 -0.00708992 0)
(0.0146729 -0.00775874 0)
(0.014585 -0.00819601 0)
(0.0144804 -0.00839608 0)
(0.014361 -0.00837818 0)
(0.0142311 -0.00817922 0)
(0.0140966 -0.00784424 0)
(0.0139642 -0.00741825 0)
(0.0138403 -0.00694089 0)
(0.0137305 -0.00644384 0)
(0.0136397 -0.00595015 0)
(0.0135714 -0.00547483 0)
(0.0135281 -0.00502608 0)
(0.0135108 -0.00460675 0)
(0.0135196 -0.00421575 0)
(0.0135536 -0.00384938 0)
(0.013611 -0.00350242 0)
(0.0136894 -0.00316896 0)
(0.013786 -0.00284308 0)
(0.0138978 -0.00251928 0)
(0.0140215 -0.00219279 0)
(0.0141538 -0.00185973 0)
(0.0142914 -0.00151722 0)
(0.014431 -0.00116331 0)
(0.0145693 -0.000796991 0)
(0.0147027 -0.000417727 0)
(0.0148302 -2.46047e-05 0)
(0.0149436 0.000379702 0)
(0.0150386 0.000790397 0)
(0.0151107 0.00120199 0)
(0.0151556 0.00160958 0)
(0.0151705 0.00200845 0)
(0.0151534 0.00239468 0)
(0.0151037 0.00276525 0)
(0.0150215 0.00311811 0)
(0.0149078 0.00345217 0)
(0.0147643 0.0037671 0)
(0.0145932 0.00406316 0)
(0.0143969 0.00434089 0)
(0.0141783 0.00460084 0)
(0.0139407 0.00484322 0)
(0.0136875 0.00506757 0)
(0.0134222 0.00527238 0)
(0.0131482 0.0054548 0)
(0.0128687 0.00561034 0)
(0.0125855 0.00573275 0)
(0.012299 0.00581408 0)
(0.0120069 0.00584524 0)
(0.0117032 0.00581714 0)
(0.0113787 0.00572237 0)
(0.0110212 0.0055571 0)
(0.0106176 0.00532247 0)
(0.0101565 0.00502472 0)
(0.0096302 0.00467409 0)
(0.00903625 0.00428268 0)
(0.00837723 0.0038618 0)
(0.00765954 0.00342018 0)
(0.00689124 0.00296374 0)
(0.00608029 0.00249708 0)
(0.00523353 0.00202777 0)
(0.00435622 0.00157868 0)
(0.00344312 0.00124612 0)
(0.00261106 0.00150842 0)
(0.00129535 0.00512442 0)
(0.00127497 0.0207846 0)
(-0.000294142 0.00935425 0)
(-0.000254643 -0.00254658 0)
(-0.000574076 -0.00381957 0)
(-0.000727451 -0.00432532 0)
(-0.000767619 -0.00528913 0)
(-0.000494522 -0.00664815 0)
(1.95461e-06 -0.00802622 0)
(0.000556194 -0.00907068 0)