/*--------------------------------*- C++ -*----------------------------------*\
| =========                 |                                                 |
| \\      /  F ield         | OpenFOAM: The Open Source CFD Toolbox           |
|  \\    /   O peration     | Version:  4.1                                   |
|   \\  /    A nd           | Web:      www.OpenFOAM.org                      |
|    \\/     M anipulation  |                                                 |
\*---------------------------------------------------------------------------*/
FoamFile
{
    version     2.0;
    format      ascii;
    class       volScalarField;
    location    "780";
    object      mag(U);
}
// * * * * * * * * * * * * * * * * * * * * * * * * * * * * * * * * * * * * * //

dimensions      [0 1 -1 0 0 0 0];

internalField   nonuniform List<scalar> 
5000
(
0.00485613
0.00581557
0.00727461
0.00817704
0.00878868
0.00920258
0.00944799
0.00952825
0.00943659
0.00916471
0.00871608
0.00811033
0.00737759
0.00655076
0.00566011
0.0047317
0.0037886
0.00285242
0.00194582
0.00111004
0.000546179
0.000944733
0.00163325
0.00218043
0.00246019
0.00271176
0.00311638
0.00363829
0.00419155
0.00472058
0.00520425
0.00564091
0.00603508
0.00638986
0.00669865
0.00692638
0.00696593
0.00671494
0.00615405
0.00546051
0.00515328
0.00558895
0.0061218
0.00641603
0.0029546
0.00312482
0.00418686
0.00499413
0.00524098
0.00482912
0.00382293
0.00219741
0.00153958
0.00266556
0.00395785
0.00496545
0.00561429
0.00550476
0.00483248
0.00307123
0.00328409
0.00306326
0.00280303
0.00270096
0.00275131
0.00283312
0.00287825
0.0028669
0.00279359
0.00266818
0.00251127
0.00234428
0.00218138
0.00201813
0.00181797
0.00152023
0.00112302
0.000748019
0.000105245
0.00131948
0.0024103
0.00304908
0.00319227
0.00287937
0.00226144
0.00148224
0.000657484
0.000419615
0.000763774
0.0011912
0.00158165
0.00159941
0.00109136
0.00128978
0.00267788
0.00316557
0.00234324
0.0021671
0.00279956
0.00357415
0.00694235
0.00592034
0.00701408
0.00796111
0.00867994
0.00918279
0.00948286
0.00958226
0.00947716
0.00918605
0.00872372
0.00811454
0.0073918
0.00658862
0.00573345
0.00485056
0.00396367
0.00310055
0.00230103
0.00164376
0.00129066
0.00137526
0.0016852
0.00211065
0.00273631
0.00340716
0.00391796
0.00427375
0.00454183
0.00474965
0.00489702
0.00498212
0.00501131
0.0050012
0.00497708
0.00496643
0.00501999
0.00514423
0.0053327
0.0056161
0.00604694
0.00651938
0.00692466
0.00782743
0.00759694
0.0052267
0.00267692
0.00356036
0.00414704
0.00421704
0.00422741
0.00387353
0.0030006
0.00278581
0.00322025
0.00366886
0.00375946
0.00350882
0.00525024
0.00564625
0.00371292
0.00387767
0.0040374
0.00409858
0.00406672
0.00397595
0.00384261
0.00367532
0.00348898
0.00329078
0.00308584
0.00288099
0.00268596
0.00251397
0.00238516
0.00234154
0.00245083
0.00270068
0.00291587
0.00301388
0.00295716
0.00273693
0.00252838
0.00241253
0.00235937
0.00221918
0.00187526
0.00154134
0.00136349
0.00125592
0.00112658
0.000870092
0.00137829
0.00176456
0.00140878
0.00118305
0.00245547
0.00322103
0.00272192
0.00496049
0.00977431
0.00659117
0.00642627
0.00703417
0.00772336
0.00827991
0.00864858
0.00880988
0.00875689
0.0085061
0.00809036
0.00754393
0.00690334
0.00620082
0.00546173
0.00470762
0.0039629
0.00326197
0.00265855
0.00223654
0.0020706
0.00215598
0.0023554
0.0026753
0.00312479
0.0036397
0.00409645
0.004455
0.00473823
0.00496506
0.00513544
0.00524195
0.00527813
0.00524104
0.00513588
0.00499587
0.00490348
0.00496726
0.00523006
0.0056156
0.00600358
0.00630362
0.00652988
0.00798948
0.00982349
0.00938427
0.00632458
0.00247054
0.0019789
0.00277248
0.00419375
0.00509223
0.00467012
0.00388201
0.00340896
0.00309262
0.00244591
0.00331199
0.00824076
0.0070212
0.00354621
0.00372793
0.00411519
0.00428118
0.00429684
0.00421527
0.00407244
0.0038882
0.00367591
0.0034473
0.0032118
0.00297999
0.00276714
0.00259608
0.00249978
0.00252402
0.00271122
0.00300558
0.00319684
0.00315017
0.00282352
0.00254948
0.00253634
0.00259707
0.00260709
0.0024799
0.00209873
0.00158982
0.00127646
0.00127195
0.0014711
0.00145177
0.00127183
0.00099188
0.000817308
0.0019521
0.00273334
0.00332606
0.0023552
0.00675137
0.0123584
0.00778899
0.00649532
0.00659103
0.00708445
0.00756176
0.00789585
0.00804704
0.00801043
0.00780682
0.0074683
0.00702503
0.00650983
0.00595086
0.00536912
0.00478169
0.00420839
0.00367964
0.00324568
0.00296563
0.00285733
0.00288174
0.00300173
0.00322313
0.0035364
0.0039053
0.0042688
0.00459035
0.0048695
0.00511357
0.00532143
0.00548486
0.00559338
0.00563837
0.00561816
0.00554889
0.0054726
0.00545703
0.0055429
0.00570327
0.00590236
0.00610181
0.00631034
0.00767554
0.0105645
0.0116752
0.0101321
0.00702123
0.00353872
0.000947854
0.00390223
0.00575899
0.00584015
0.00486992
0.00375627
0.00277159
0.00159977
0.00664788
0.0101279
0.00744195
0.00385026
0.00397766
0.00425569
0.00438874
0.00439081
0.00429491
0.00413372
0.00393041
0.00369963
0.00345112
0.00319199
0.00293018
0.00267852
0.00245921
0.00230737
0.00226863
0.00237718
0.00259613
0.00279781
0.00284733
0.00272801
0.00264081
0.0026678
0.00275738
0.00285502
0.00283812
0.00253567
0.00192027
0.0012637
0.000929615
0.000882972
0.000847695
0.000635294
6.30668e-05
0.000822738
0.00180784
0.00264241
0.00328821
0.00209776
0.00810605
0.0144901
0.00902611
0.00699663
0.00658567
0.00674883
0.00701288
0.00721932
0.00731503
0.00728978
0.00715659
0.00693247
0.00663155
0.00627507
0.00588628
0.00548361
0.00507794
0.00467611
0.00429361
0.00397053
0.00373572
0.00361076
0.00357249
0.00362448
0.00376005
0.00396542
0.0042171
0.0044832
0.00474004
0.00498125
0.00520818
0.00541946
0.00560831
0.00576372
0.00587304
0.00592713
0.00592704
0.00589145
0.00584955
0.0058229
0.00582546
0.00587587
0.00598918
0.00612046
0.00710756
0.0102907
0.0125604
0.0122557
0.0101095
0.00732576
0.00441692
0.00423877
0.0061061
0.00657798
0.00557944
0.00400233
0.00227371
0.00395252
0.00924212
0.0109236
0.00732226
0.00427276
0.00429919
0.00442126
0.00445936
0.00440356
0.0042736
0.00409468
0.00388354
0.00364984
0.00339796
0.0031294
0.00284533
0.00255002
0.002256
0.00199239
0.00181447
0.0017937
0.00194126
0.00216978
0.00233988
0.00240133
0.00244448
0.00254418
0.00272347
0.00296532
0.00312739
0.00300596
0.00248091
0.00164596
0.000947802
0.000597848
0.000420809
0.000248707
0.000398721
0.00105577
0.00189302
0.00272091
0.00334455
0.00190371
0.00915734
0.0162758
0.0101811
0.00769202
0.00686393
0.00664703
0.00661104
0.00662064
0.00662791
0.00661703
0.00658401
0.00651193
0.0063804
0.00619425
0.0059794
0.00575886
0.00553617
0.00529667
0.00503205
0.00476228
0.00451579
0.00433984
0.0042417
0.00422446
0.00427911
0.00439189
0.00454566
0.00472178
0.004906
0.00509246
0.00528054
0.00546922
0.00565385
0.00582521
0.00597004
0.00607355
0.00612357
0.0061197
0.00607115
0.0059869
0.00588925
0.00582324
0.0058591
0.00590208
0.00642231
0.00938017
0.012365
0.0130377
0.0116785
0.00936946
0.00699206
0.00585587
0.00671059
0.00703226
0.00589095
0.00383944
0.001698
0.00739541
0.0109355
0.0110395
0.00707926
0.00470893
0.00459773
0.00455943
0.00448552
0.00436171
0.00420069
0.00401561
0.0038127
0.00359377
0.00335704
0.00309842
0.00281271
0.00249503
0.00214333
0.00176476
0.00139338
0.00113517
0.00117071
0.00143172
0.00167971
0.00183615
0.00196325
0.00216158
0.00245727
0.00286882
0.0032459
0.00335791
0.0030277
0.00222474
0.00129306
0.000674386
0.000365787
0.000339595
0.000667731
0.00126896
0.00204513
0.00285148
0.00342729
0.00173933
0.0100508
0.0178212
0.0112468
0.00845274
0.00729781
0.00671014
0.00633139
0.00609268
0.00598552
0.0060003
0.00610325
0.00621364
0.00625627
0.00622774
0.00617521
0.00613399
0.00609686
0.00601753
0.00585196
0.00558371
0.00530253
0.00506308
0.00489464
0.00480083
0.00477414
0.00480197
0.00487016
0.00496565
0.00507901
0.00520571
0.00534463
0.00549509
0.00565435
0.00581575
0.00596747
0.00609279
0.00617204
0.00618971
0.00614062
0.00602708
0.00586519
0.00570357
0.00564188
0.00561195
0.00568062
0.00808658
0.0114482
0.0128252
0.0120903
0.0101782
0.00810215
0.00699291
0.00728273
0.00718446
0.0056655
0.00204232
0.00574041
0.00987558
0.0119329
0.0107838
0.00691955
0.00511474
0.0048412
0.00465119
0.00447473
0.00429874
0.0041251
0.00395044
0.00377053
0.00357972
0.00337121
0.00313722
0.002869
0.00255686
0.00219056
0.00176028
0.00126089
0.000720698
0.000509323
0.000974441
0.0012716
0.00134688
0.00136267
0.00153134
0.00195319
0.0025354
0.00314926
0.0035304
0.00345187
0.00280647
0.00180723
0.000988024
0.000564034
0.000536209
0.000858392
0.00143638
0.00219371
0.00298718
0.00351314
0.00160572
0.0108362
0.0191836
0.0122244
0.00921143
0.00780049
0.00687948
0.00614958
0.00562641
0.00538281
0.00544083
0.0057162
0.00602236
0.00621828
0.00632055
0.00641845
0.0065601
0.00671977
0.00680708
0.00672581
0.00643489
0.00609942
0.0057872
0.00553473
0.00535395
0.00524178
0.00518717
0.00517687
0.00519942
0.00524702
0.00531547
0.00540292
0.00550827
0.00562979
0.00576345
0.00590044
0.00602509
0.00611496
0.00614417
0.00609574
0.00596174
0.0057513
0.0055027
0.00530761
0.00519394
0.00491402
0.00657115
0.010101
0.0119703
0.0116584
0.0100456
0.00826226
0.00743324
0.00747487
0.00690042
0.00440261
0.00389559
0.00877271
0.0116593
0.0124107
0.0103703
0.006886
0.005452
0.00501878
0.00470417
0.00445705
0.00425821
0.00409196
0.00394128
0.00379326
0.00363683
0.00346201
0.00325906
0.00301778
0.00272716
0.00237528
0.00194915
0.00143404
0.000813214
4.72827e-05
0.000908062
0.00138789
0.00150065
0.00131296
0.000971458
0.00122734
0.00196189
0.0028197
0.00349827
0.00371427
0.00329526
0.00235042
0.00140306
0.000849849
0.000745303
0.00102477
0.00158236
0.00232888
0.00311083
0.00359096
0.00148971
0.0115364
0.020395
0.0131128
0.00993046
0.00831671
0.0071089
0.00604317
0.00521353
0.00481346
0.00493687
0.00541525
0.00590666
0.00621636
0.00642455
0.0066717
0.00700933
0.00738297
0.00764622
0.00763235
0.00731547
0.00691321
0.00651394
0.0061633
0.00588417
0.00568013
0.00554229
0.00545714
0.00541252
0.00540007
0.00541479
0.00545334
0.00551301
0.00559155
0.00568667
0.00579345
0.00590009
0.00598513
0.00601723
0.00596913
0.00582225
0.00557273
0.0052528
0.00493054
0.00472415
0.00435541
0.00505222
0.00860804
0.010772
0.010657
0.0092456
0.00785917
0.00740525
0.00721703
0.00588825
0.00263919
0.00769299
0.0111186
0.0128897
0.0125348
0.00995143
0.00694427
0.00570389
0.00513864
0.00474146
0.00446639
0.0042739
0.00413019
0.00401075
0.0038974
0.00377619
0.00363556
0.0034648
0.00325317
0.00298967
0.00266315
0.00226268
0.00177834
0.00120475
0.00051726
0.000759243
0.00147412
0.00180696
0.00177048
0.00141367
0.000757907
0.00114632
0.00225288
0.0032519
0.00379953
0.00365535
0.00284479
0.00184163
0.00117007
0.000974069
0.00119557
0.00172293
0.00245212
0.00321807
0.00365627
0.00138331
0.0121681
0.0214776
0.0139127
0.0105891
0.00881246
0.00736435
0.00599308
0.00484894
0.00427297
0.00448605
0.0051845
0.00582631
0.00620602
0.00650984
0.00691812
0.00747045
0.00807374
0.00851841
0.00856348
0.00821798
0.00774261
0.00724315
0.00678062
0.00639119
0.00608723
0.00586312
0.00570465
0.00559728
0.00553037
0.00549706
0.00549194
0.00550963
0.00554558
0.00559752
0.0056642
0.0057399
0.0058078
0.00583583
0.00578887
0.00563659
0.0053638
0.00497938
0.00456061
0.00423654
0.00384637
0.00369835
0.00732018
0.00950398
0.00927937
0.00804817
0.00727632
0.0071376
0.00652122
0.00350413
0.00667498
0.0105028
0.0129067
0.0136771
0.0124438
0.00960895
0.00703431
0.00586926
0.00521921
0.00479387
0.00452873
0.00436131
0.00424797
0.00416153
0.0040821
0.0039948
0.00388723
0.00374802
0.00356607
0.00333051
0.00303092
0.00265802
0.00220475
0.00166921
0.00103072
0.000479005
0.00131157
0.00188656
0.00208087
0.00191651
0.00142286
0.000463998
0.00143177
0.00279154
0.00370607
0.00387709
0.00325923
0.00226345
0.00149868
0.00121428
0.00137142
0.00185799
0.00256136
0.00330659
0.00370659
0.00128316
0.0127437
0.0224486
0.0146267
0.0111771
0.00926769
0.00762211
0.00598415
0.00453191
0.00376102
0.00408605
0.00500115
0.00574031
0.00615826
0.0065665
0.00715664
0.00794114
0.0087807
0.00940352
0.00950909
0.00913383
0.00858148
0.00797227
0.00738581
0.00687406
0.00646072
0.00614544
0.00591359
0.00574703
0.00563118
0.00555613
0.00551389
0.00549583
0.00549361
0.00550286
0.00552469
0.00556057
0.00560211
0.0056208
0.00557732
0.00543026
0.00514874
0.00472657
0.00420006
0.00371695
0.00318946
0.00260146
0.0068423
0.00827065
0.00755885
0.0067572
0.00674164
0.00658215
0.00474455
0.00578996
0.00991582
0.012697
0.0142393
0.0141322
0.0122465
0.00935729
0.00710545
0.0059636
0.00528652
0.00488382
0.00465297
0.00451805
0.00443712
0.00438315
0.00433661
0.00428229
0.00420703
0.00409874
0.00394592
0.00373735
0.00346225
0.00311068
0.00267441
0.00214945
0.00153
0.000489763
0.000951054
0.00171413
0.0021358
0.00219014
0.0018915
0.00120294
0.000272903
0.00213734
0.00344899
0.00396286
0.00358113
0.00264909
0.00181995
0.00145608
0.0015431
0.00198011
0.00265137
0.00337334
0.00373962
0.00118803
0.0132726
0.0233219
0.015259
0.0116906
0.00967155
0.0078665
0.00600473
0.00426558
0.00328227
0.00373352
0.00483875
0.00561468
0.00606331
0.00660052
0.0073955
0.00842211
0.00949095
0.0102793
0.0104519
0.010053
0.00942245
0.00869755
0.00797747
0.00733186
0.00679851
0.00638517
0.00607814
0.00585514
0.00569587
0.00558587
0.00551385
0.00546761
0.00543415
0.00540505
0.00538176
0.0053729
0.00538144
0.00538745
0.00535167
0.00522335
0.00495565
0.00452151
0.00392678
0.00324927
0.00246164
0.00229215
0.00765381
0.00656629
0.00541282
0.00564822
0.00598956
0.00512466
0.00557151
0.00930865
0.0123892
0.0144117
0.0151957
0.0143523
0.0120105
0.00916525
0.00712534
0.00600471
0.00535767
0.0050107
0.00482734
0.00472827
0.00468062
0.00465967
0.00464665
0.00462574
0.00458294
0.00450557
0.00438161
0.00419879
0.0039444
0.00360596
0.00317271
0.00263673
0.00197688
0.000998903
0.000482291
0.00135588
0.0019742
0.00223876
0.00213431
0.00163845
0.000612657
0.00132749
0.00306792
0.00392918
0.00380714
0.00298702
0.00212657
0.00169086
0.00170067
0.00208025
0.00271556
0.00341443
0.00375251
0.00109707
0.0137618
0.0241092
0.0158153
0.0121306
0.0100196
0.00808806
0.00604578
0.00405403
0.00284422
0.00342441
0.00467161
0.00542977
0.00592906
0.00662764
0.00764647
0.00891324
0.0101901
0.0111236
0.0113726
0.0109631
0.0102579
0.0094152
0.00855458
0.00776471
0.00709996
0.00657953
0.00619327
0.00591515
0.00571773
0.00558002
0.00548617
0.00542004
0.00536354
0.00530285
0.00523767
0.00518279
0.00515457
0.00514643
0.0051242
0.00503033
0.00480364
0.00439892
0.00379976
0.00304173
0.00213584
0.00311368
0.00894458
0.00378492
0.00353385
0.00458396
0.00456996
0.00545857
0.0086793
0.0118916
0.0142548
0.0156962
0.0158388
0.014408
0.011759
0.00897767
0.00706573
0.00599561
0.00543596
0.00516779
0.00503153
0.00497072
0.00495906
0.00497419
0.00499719
0.00501127
0.00500194
0.00495643
0.00486193
0.00470397
0.00446639
0.0041334
0.00369223
0.00313323
0.00243775
0.00154622
0.000284263
0.000891493
0.00166883
0.00211625
0.0021897
0.00185373
0.00101773
0.00073849
0.00264429
0.00381314
0.00394221
0.0032655
0.00241743
0.00190978
0.00183615
0.00215084
0.00274802
0.00342607
0.00374217
0.00100889
0.0142174
0.0248211
0.0163026
0.0125016
0.0103124
0.00828226
0.00610002
0.00389887
0.00245748
0.00315001
0.00447341
0.00518492
0.0057756
0.00666724
0.00792007
0.0094117
0.0108644
0.0119177
0.0122522
0.011852
0.0110807
0.0101219
0.00911694
0.00817437
0.00736689
0.00672845
0.00625613
0.00592198
0.00569069
0.00553258
0.00542537
0.00534807
0.00527716
0.00519271
0.00509105
0.00499172
0.00492543
0.00490332
0.00490131
0.00485713
0.00469625
0.00436036
0.00382658
0.00314969
0.00252591
0.0043427
0.0103314
0.000320957
0.0023863
0.00308298
0.00475263
0.00784616
0.0110696
0.0137151
0.0156253
0.0166084
0.0162311
0.0143476
0.0114861
0.00874715
0.00692297
0.00595184
0.00551283
0.00532954
0.00524144
0.00522358
0.00525386
0.00531041
0.00537302
0.00542438
0.00545063
0.00543937
0.0053762
0.00524281
0.00501847
0.00468433
0.00422753
0.00364105
0.00291624
0.00203049
0.000921193
0.000373337
0.0012952
0.00188745
0.00211057
0.00190795
0.0011921
0.000633437
0.00234955
0.0036667
0.00399698
0.00348238
0.00268222
0.00210626
0.00194425
0.00218695
0.00274473
0.00340564
0.00370584
0.0009201
0.0146443
0.0254679
0.0167293
0.012811
0.0105546
0.00844898
0.00616283
0.0038014
0.00213876
0.00289262
0.00421776
0.00489859
0.00562847
0.006737
0.008222
0.00991155
0.0115028
0.0126493
0.0130737
0.0127086
0.0118844
0.0108151
0.00966531
0.00856432
0.00760402
0.00683568
0.00626774
0.00587367
0.00561081
0.00543899
0.00532702
0.00524739
0.00517056
0.00507009
0.0049381
0.0047976
0.00469384
0.00465919
0.00468391
0.0047009
0.00461971
0.00436919
0.00392848
0.00340599
0.00315183
0.00550087
0.0115751
0.00135997
0.00107404
0.00321873
0.00647904
0.00978215
0.0126936
0.0149923
0.0165939
0.0172158
0.016433
0.0142051
0.0111765
0.00843751
0.00668461
0.0058584
0.00556587
0.00546563
0.0054329
0.00546748
0.00554867
0.00565301
0.0057591
0.0058508
0.00591638
0.00594364
0.00591492
0.00580635
0.00559218
0.00525185
0.00477515
0.00416196
0.00341525
0.00253204
0.00150788
0.000455764
0.000926906
0.00162122
0.00194785
0.00183827
0.00117997
0.000712046
0.00233969
0.00360012
0.00401312
0.00364421
0.00289723
0.00227025
0.00202014
0.00218572
0.002704
0.00335252
0.00364216
0.000828087
0.0150474
0.0260594
0.0171051
0.0130686
0.0107538
0.00859203
0.00623207
0.00375487
0.0018931
0.00266737
0.00389882
0.00460462
0.00551253
0.00684892
0.0085511
0.0104045
0.0120984
0.0133139
0.0138257
0.013523
0.0126635
0.0114931
0.0102013
0.00893945
0.0078188
0.00690923
0.00623423
0.0057732
0.00547829
0.00529779
0.00518905
0.00511562
0.00504058
0.00493079
0.00477399
0.00459607
0.00445653
0.00441211
0.00446989
0.00455444
0.00455237
0.00437436
0.00399929
0.00361088
0.00370152
0.00660716
0.0125152
0.00178468
0.000867294
0.00443812
0.00791146
0.0111128
0.0137973
0.015866
0.0172384
0.0175834
0.0164984
0.0140085
0.0108217
0.00802724
0.00633712
0.00569797
0.00557367
0.00555324
0.00558786
0.00568797
0.00583016
0.0059882
0.00614146
0.00627773
0.00638843
0.0064602
0.00646994
0.00638689
0.0061807
0.00583072
0.0053318
0.00469325
0.00393017
0.00305349
0.00207806
0.00109052
0.000720282
0.00136465
0.00175791
0.00168349
0.000984161
0.000947463
0.0025445
0.00366879
0.00405721
0.00375651
0.00305561
0.00239062
0.00205777
0.00214514
0.00262642
0.00326863
0.00355179
0.000729041
0.0154311
0.026605
0.0174399
0.0132853
0.01092
0.0087182
0.00630939
0.00375725
0.0017462
0.00246466
0.00355059
0.00434368
0.00544669
0.00700647
0.00889958
0.0108814
0.0126481
0.0139142
0.0145023
0.0142854
0.0134136
0.0121552
0.0107273
0.00930576
0.00802092
0.00696124
0.00616759
0.00563001
0.00529934
0.0051127
0.00501355
0.00495354
0.00488645
0.004772
0.00459409
0.00438181
0.00420859
0.00415971
0.00425861
0.00441405
0.00447927
0.00433871
0.003968
0.00366273
0.00418734
0.00808363
0.0129372
0.00137212
0.00213768
0.00556078
0.00897553
0.0120354
0.0145372
0.0164328
0.0176238
0.0177646
0.0164704
0.013786
0.0104339
0.00752288
0.00588573
0.00546764
0.00550824
0.00557617
0.0056961
0.00587657
0.00608852
0.00630436
0.0065083
0.00669482
0.00685816
0.00698152
0.00703422
0.00697817
0.00677923
0.00641776
0.00589474
0.00523011
0.00445213
0.00358381
0.00264683
0.00170935
0.00105009
0.00120696
0.00156406
0.00148345
0.000599513
0.00142669
0.0029239
0.00385523
0.00414056
0.00383573
0.00315295
0.00245595
0.00204953
0.0020631
0.00251481
0.00315884
0.00343777
0.000620651
0.0157992
0.0271133
0.0177436
0.0134724
0.0110636
0.00883571
0.00639873
0.00380334
0.00168999
0.00227458
0.00323754
0.00414841
0.00543964
0.00720388
0.00925512
0.0113338
0.0131523
0.0144579
0.0151053
0.0149861
0.0141305
0.0128017
0.0112472
0.00967044
0.00822193
0.00700763
0.00608589
0.0054612
0.00508807
0.00489454
0.00480852
0.00476659
0.0047108
0.00459328
0.00439516
0.00415011
0.00394618
0.0039031
0.00405654
0.00428777
0.00440424
0.00425415
0.00381058
0.00357477
0.00511357
0.00977797
0.0126821
0.000787329
0.00320267
0.0064963
0.00977583
0.0126704
0.015012
0.0167577
0.0177983
0.0177968
0.0163781
0.0135658
0.010047
0.00695392
0.00533608
0.0051573
0.00535635
0.00553099
0.00575745
0.00603124
0.00631765
0.00659271
0.00685053
0.00709403
0.00731847
0.00750082
0.00760149
0.0075754
0.00738522
0.00701226
0.00646277
0.00576698
0.00496755
0.00410104
0.00319312
0.00229424
0.00156674
0.00130186
0.00141117
0.00124786
0.000299702
0.00214023
0.00341606
0.00411456
0.00424739
0.00388173
0.00318426
0.00245527
0.00198679
0.00193713
0.00237449
0.00303121
0.00330567
0.00050406
0.0161554
0.0275921
0.0180252
0.0136404
0.0111949
0.00895269
0.00650441
0.00389274
0.00173759
0.00212684
0.00302784
0.0040322
0.00548844
0.00742785
0.0096039
0.0117549
0.0136132
0.0149538
0.0156472
0.0156146
0.0148093
0.0134321
0.0117658
0.0100425
0.00843527
0.00706751
0.00601312
0.00529219
0.00486791
0.00466298
0.00458942
0.00456586
0.00452027
0.00439698
0.004176
0.00389774
0.00366955
0.00365051
0.0038822
0.00420088
0.00435673
0.00414989
0.00357219
0.00369053
0.00706062
0.0109193
0.0118354
0.00110028
0.00412983
0.00729003
0.0103834
0.0130979
0.0152826
0.0168861
0.0177965
0.0177009
0.0162334
0.0133675
0.00970544
0.00637261
0.00470766
0.00476929
0.00512293
0.00543097
0.00578289
0.00615609
0.00651504
0.00684721
0.00716144
0.00746881
0.0077626
0.00801118
0.00816578
0.00817499
0.00799838
0.00761665
0.00703848
0.00630183
0.00546415
0.00457993
0.0036835
0.00281084
0.00206183
0.00159313
0.0013672
0.000949669
0.00143066
0.00296663
0.00394428
0.00438746
0.00434063
0.00387759
0.00313889
0.00237686
0.0018601
0.00176455
0.00221432
0.00289711
0.0031632
0.000387116
0.0165025
0.0280479
0.0182923
0.0137984
0.0113226
0.0090763
0.00663002
0.00402679
0.00191623
0.00211369
0.00296122
0.00398858
0.00558053
0.00766122
0.00993302
0.01214
0.0140336
0.0154098
0.0161438
0.016169
0.0154402
0.014046
0.0122874
0.010433
0.00867644
0.00716251
0.00597796
0.00515635
0.00467216
0.00444751
0.00437996
0.00436851
0.00432558
0.00418818
0.00393768
0.0036246
0.00338403
0.00342103
0.00376856
0.00419609
0.00439199
0.00410583
0.00343809
0.00501934
0.00892337
0.0114785
0.0106036
0.00213644
0.00503851
0.00799364
0.0108587
0.0133721
0.0153919
0.016853
0.0176445
0.0174871
0.0160313
0.0131898
0.00944104
0.00584509
0.00404334
0.00432137
0.00483894
0.00530797
0.00579394
0.00626012
0.00668075
0.00706378
0.00743548
0.00781261
0.00818298
0.00850484
0.00872076
0.00877379
0.00861987
0.00823662
0.00763067
0.00684227
0.00594091
0.00500345
0.00408302
0.00320693
0.00242709
0.00183688
0.00135158
0.000691226
0.00269845
0.00379583
0.00443401
0.00461242
0.0043744
0.00379489
0.00299948
0.00220731
0.0016596
0.0015436
0.00204911
0.00277104
0.00301932
0.000297366
0.0168432
0.0284861
0.0185514
0.0139541
0.0114543
0.00921239
0.0067792
0.00421159
0.00224086
0.00231391
0.00302349
0.00399868
0.00569746
0.0078865
0.0102316
0.0124855
0.0144157
0.0158319
0.0166073
0.0166708
0.0160022
0.0146393
0.0128178
0.0108513
0.00896261
0.00731545
0.00601105
0.00509193
0.00454202
0.00428623
0.00421104
0.00419671
0.0041405
0.00397389
0.00368286
0.00333288
0.00310241
0.0032463
0.00375859
0.00432263
0.00457406
0.00424444
0.00400118
0.00694359
0.0103401
0.0115654
0.0092404
0.00332441
0.00595326
0.00863905
0.0112407
0.0135315
0.015374
0.0166886
0.0173657
0.0171627
0.0157573
0.0130086
0.00925257
0.00543151
0.00343206
0.0038644
0.00456505
0.00521003
0.00581854
0.00635386
0.00681529
0.00723856
0.00766665
0.00811755
0.00857023
0.0089723
0.00925863
0.00936745
0.00925043
0.00887963
0.00825469
0.00741054
0.00642074
0.00538415
0.00438616
0.00346113
0.00261405
0.00188571
0.00130871
0.00186663
0.00378803
0.00453708
0.0048308
0.00473901
0.00430571
0.00360221
0.00274546
0.00193255
0.00137547
0.00127744
0.00190378
0.0026695
0.00288328
0.000292119
0.0171794
0.0289109
0.0188072
0.0141133
0.0115956
0.00936549
0.00695637
0.004461
0.00271558
0.00271887
0.00315604
0.00403929
0.00581879
0.00808807
0.0104911
0.0127884
0.0147604
0.0162236
0.0170452
0.0171431
0.0165006
0.0151884
0.0133601
0.0113116
0.00930777
0.00754704
0.00613983
0.00513485
0.00451933
0.00421992
0.00411623
0.00407428
0.00397966
0.00376168
0.00341537
0.00302871
0.00284677
0.00316578
0.00389013
0.00461465
0.00495012
0.00467835
0.00538479
0.00868194
0.0113295
0.0113248
0.00808136
0.00455643
0.00685014
0.00923228
0.011551
0.0136041
0.0152579
0.0164206
0.0169835
0.0167383
0.0153984
0.0127873
0.00910571
0.00517202
0.00305335
0.00353591
0.00437059
0.0051607
0.00585659
0.00643219
0.00691384
0.0073656
0.00784692
0.00837323
0.00891231
0.00940136
0.00976869
0.00994829
0.0098873
0.00955075
0.00892769
0.00804029
0.00695427
0.00578049
0.00464596
0.00362754
0.00271957
0.00192938
0.00151425
0.00332168
0.00471667
0.00514357
0.00510194
0.00473591
0.00410355
0.00327334
0.00235838
0.00154154
0.000999061
0.000989464
0.00181684
0.00260786
0.00276287
0.000388351
0.0175124
0.0293253
0.0190632
0.01428
0.0117505
0.00953882
0.00716666
0.00478974
0.00330975
0.00320894
0.00331065
0.00408921
0.00592537
0.00825295
0.010704
0.0130455
0.0150665
0.0165857
0.0174611
0.0175977
0.0169745
0.0156765
0.013887
0.0118252
0.00973094
0.00787211
0.00638124
0.00530839
0.00463396
0.0042803
0.00412283
0.0040209
0.00385514
0.00355764
0.00313822
0.00272038
0.00264736
0.00321369
0.00417753
0.0050739
0.00552074
0.00549767
0.0069067
0.0101028
0.0119813
0.0109388
0.00742298
0.00572901
0.00768774
0.00976445
0.011799
0.0136099
0.0150684
0.0160751
0.016522
0.0162299
0.0149504
0.0124928
0.00895385
0.00507775
0.00303078
0.00350107
0.00437404
0.00520355
0.0059131
0.00648633
0.00696688
0.00743654
0.00796527
0.00856595
0.00919381
0.00977622
0.0102359
0.0105031
0.0105208
0.0102469
0.00965874
0.0087616
0.00760226
0.0062851
0.00497
0.00381247
0.00287257
0.00218641
0.00209538
0.0044782
0.00548161
0.00560059
0.00523366
0.00459213
0.00375478
0.0027934
0.00182285
0.00101624
0.000568365
0.000766623
0.00182913
0.00259466
0.00266311
0.000537715
0.0178427
0.0297311
0.0193212
0.0144566
0.0119212
0.00973423
0.00741517
0.0052031
0.00397101
0.00370156
0.00346409
0.00413299
0.00600154
0.00837061
0.0108638
0.0132524
0.0153307
0.0169159
0.0178551
0.0180395
0.0174409
0.0161513
0.0143745
0.012344
0.010252
0.00831044
0.00674144
0.0056156
0.00489234
0.00447738
0.00424156
0.0040455
0.00377293
0.00336462
0.00285263
0.00242033
0.002537
0.00340213
0.00460419
0.00567012
0.00625401
0.0065275
0.00828488
0.0112306
0.0124156
0.010584
0.00731971
0.00676685
0.00842819
0.0102213
0.0119863
0.0135614
0.0148245
0.0156738
0.0160026
0.0156551
0.0144189
0.0121078
0.00876531
0.00515
0.00337996
0.0037683
0.00457855
0.00535713
0.00600347
0.00651782
0.00696693
0.00743919
0.00800724
0.00867848
0.00939555
0.0100768
0.0106398
0.0110119
0.0111321
0.0109524
0.0104397
0.00958224
0.00840251
0.00698076
0.00548085
0.00413728
0.00314922
0.00264289
0.00297503
0.00520558
0.00607183
0.00591441
0.0052307
0.0043181
0.00327033
0.00216748
0.00112968
0.000552746
0.000319415
0.000769587
0.00195555
0.00262901
0.00258609
0.000705379
0.0181706
0.0301293
0.0195818
0.0146434
0.0121077
0.00995218
0.00770565
0.00569338
0.00465045
0.00416366
0.00360689
0.00415943
0.00603515
0.00843223
0.0109637
0.0134028
0.0155469
0.0172091
0.0182245
0.0184701
0.0179081
0.0166328
0.0148653
0.0128572
0.0107999
0.00886777
0.00723303
0.00604535
0.00527747
0.00479597
0.00446203
0.00414268
0.00373089
0.00318127
0.00255744
0.00214493
0.00253882
0.00371492
0.00513202
0.00636055
0.00707921
0.00757628
0.00945224
0.0121297
0.0127561
0.0103942
0.0076075
0.0076418
0.00904982
0.0105901
0.0121089
0.0134627
0.0145369
0.0152309
0.0154407
0.015029
0.0138159
0.0116372
0.00854435
0.00537675
0.00397951
0.00426503
0.00494255
0.00560431
0.00613216
0.0065362
0.00691076
0.00736499
0.00795699
0.00869022
0.00949431
0.0102783
0.0109549
0.0114479
0.0116935
0.011639
0.0112433
0.0104798
0.00934742
0.00789332
0.00625383
0.00469687
0.00357564
0.00316653
0.00380774
0.00566401
0.00647773
0.00608664
0.00510307
0.00394133
0.0026927
0.00142446
0.000238593
0.000746132
0.000367847
0.00101816
0.00217272
0.00270274
0.00253167
0.00087586
0.0184957
0.0305197
0.0198441
0.0148392
0.0123085
0.0101916
0.0080387
0.00624139
0.00531322
0.00458485
0.00373788
0.00415933
0.00601645
0.00842957
0.0109956
0.0134882
0.015706
0.0174569
0.0185639
0.0188882
0.0183799
0.0171312
0.0153765
0.0133895
0.0113703
0.00947049
0.00784317
0.00659267
0.0057622
0.00520509
0.00475816
0.00429513
0.00371957
0.00300191
0.00224796
0.00190668
0.0026553
0.00411736
0.00571695
0.00709659
0.0079134
0.00854857
0.0104099
0.0128659
0.0131075
0.0104339
0.00809484
0.00836259
0.00954827
0.0108627
0.0121601
0.013311
0.0142077
0.0147521
0.0148446
0.0143633
0.0131596
0.0111097
0.00832972
0.00572174
0.00467628
0.00486764
0.00539059
0.00590184
0.0062779
0.0065367
0.00679945
0.00720298
0.00779603
0.00857643
0.00946276
0.0103521
0.0111508
0.0117792
0.0121706
0.0122691
0.0120278
0.0114086
0.0103894
0.00898316
0.00728008
0.0055231
0.00416229
0.00370202
0.00442727
0.00592351
0.00669233
0.00611459
0.0048562
0.00348802
0.00208145
0.000678551
0.000798527
0.000939888
0.000397333
0.00132979
0.0024321
0.00280223
0.00249691
0.00104188
0.0188175
0.0309013
0.0201062
0.0150408
0.01252
0.0104497
0.00841033
0.00682246
0.00593877
0.00496391
0.0038539
0.00412301
0.00593638
0.00835409
0.0109501
0.0134976
0.015796
0.0176479
0.0188639
0.0192886
0.0188563
0.0176515
0.0159172
0.0139509
0.0119685
0.0101097
0.00850303
0.00723953
0.00632428
0.00567215
0.00509952
0.00448081
0.00372622
0.0028188
0.00191534
0.00172377
0.00286753
0.00456987
0.00631932
0.00781994
0.0087043
0.00940557
0.0111762
0.0134847
0.0135422
0.0107073
0.00865735
0.00895152
0.00992978
0.011037
0.0121335
0.0131003
0.0138335
0.014238
0.0142191
0.0136707
0.0124769
0.0105726
0.00816575
0.00612525
0.00535437
0.00546808
0.00584648
0.00620305
0.00641492
0.00650463
0.00661653
0.006922
0.00749824
0.00830757
0.00927
0.0102663
0.0111948
0.0119711
0.0125258
0.0128009
0.0127454
0.0123128
0.0114626
0.0101749
0.00848755
0.00658205
0.00491567
0.00424381
0.00484622
0.00602146
0.00672187
0.00600431
0.00449292
0.00295623
0.00142946
0.000814534
0.00106039
0.00091369
0.000493953
0.00167256
0.00268655
0.00290986
0.00247491
0.00120054
0.0191353
0.0312723
0.0203646
0.0152433
0.0127367
0.0107215
0.00881153
0.00741205
0.00651682
0.00530272
0.00395019