/*--------------------------------*- C++ -*----------------------------------*\
| =========                 |                                                 |
| \\      /  F ield         | OpenFOAM: The Open Source CFD Toolbox           |
|  \\    /   O peration     | Version:  4.1                                   |
|   \\  /    A nd           | Web:      www.OpenFOAM.org                      |
|    \\/     M anipulation  |                                                 |
\*---------------------------------------------------------------------------*/
FoamFile
{
    version     2.0;
    format      ascii;
    class       volScalarField;
    location    "780";
    object      p;
}
// * * * * * * * * * * * * * * * * * * * * * * * * * * * * * * * * * * * * * //

dimensions      [0 2 -2 0 0 0 0];

internalField   nonuniform List<scalar> 
5000
(
0
-1.09072e-05
-1.78601e-05
-2.31013e-05
-2.73404e-05
-3.07513e-05
-3.32504e-05
-3.46776e-05
-3.48848e-05
-3.38473e-05
-3.17645e-05
-2.89883e-05
-2.59133e-05
-2.28949e-05
-2.02219e-05
-1.81206e-05
-1.67583e-05
-1.6233e-05
-1.65679e-05
-1.77298e-05
-1.95807e-05
-2.18799e-05
-2.48487e-05
-2.86476e-05
-3.24413e-05
-3.51689e-05
-3.71689e-05
-3.92947e-05
-4.1878e-05
-4.48921e-05
-4.823e-05
-5.18323e-05
-5.57058e-05
-5.99171e-05
-6.4581e-05
-6.97382e-05
-7.50956e-05
-7.99004e-05
-8.29721e-05
-8.34408e-05
-8.15472e-05
-7.95354e-05
-8.03653e-05
-8.22472e-05
-8.16781e-05
-8.61847e-05
-9.43928e-05
-0.00010099
-0.000102146
-9.63506e-05
-8.50626e-05
-7.41271e-05
-6.65572e-05
-6.19195e-05
-6.12337e-05
-6.29533e-05
-6.59783e-05
-6.88748e-05
-6.72622e-05
-6.49668e-05
-6.37418e-05
-6.39419e-05
-6.54528e-05
-6.73552e-05
-6.89966e-05
-7.02183e-05
-7.1044e-05
-7.16e-05
-7.2005e-05
-7.2338e-05
-7.26354e-05
-7.28821e-05
-7.30197e-05
-7.29745e-05
-7.27379e-05
-7.25656e-05
-7.32666e-05
-7.57863e-05
-7.95294e-05
-8.16678e-05
-7.96574e-05
-7.48699e-05
-6.85108e-05
-6.19644e-05
-5.64055e-05
-5.30663e-05
-5.19913e-05
-5.20548e-05
-5.26366e-05
-5.42882e-05
-5.74167e-05
-6.19089e-05
-6.4069e-05
-6.35102e-05
-5.84531e-05
-4.5669e-05
-3.07322e-05
-1.92752e-05
-1.91151e-05
-2.61739e-05
-0.098433
-0.0984482
-0.0984585
-0.0984672
-0.0984748
-0.0984811
-0.0984862
-0.0984898
-0.0984918
-0.0984922
-0.0984912
-0.0984891
-0.0984866
-0.0984839
-0.0984814
-0.0984792
-0.0984777
-0.0984769
-0.0984769
-0.0984776
-0.0984789
-0.0984804
-0.0984821
-0.0984839
-0.098486
-0.098489
-0.0984922
-0.0984951
-0.0984976
-0.0985
-0.0985022
-0.0985042
-0.098506
-0.0985076
-0.098509
-0.0985103
-0.0985115
-0.0985124
-0.0985129
-0.0985138
-0.0985154
-0.0985176
-0.0985193
-0.0985216
-0.0985297
-0.0985454
-0.0985603
-0.0985722
-0.0985779
-0.0985755
-0.0985646
-0.0985511
-0.0985399
-0.0985325
-0.0985286
-0.0985268
-0.0985257
-0.0985237
-0.0985151
-0.0985047
-0.098505
-0.0985068
-0.0985084
-0.0985098
-0.0985111
-0.0985123
-0.0985135
-0.0985147
-0.0985158
-0.0985167
-0.0985175
-0.0985181
-0.0985185
-0.0985189
-0.0985191
-0.0985194
-0.0985198
-0.0985202
-0.0985189
-0.098516
-0.0985134
-0.0985112
-0.098509
-0.0985071
-0.098505
-0.0985026
-0.0984998
-0.0984969
-0.0984943
-0.098492
-0.09849
-0.0984878
-0.0984851
-0.0984827
-0.098482
-0.0984814
-0.0984802
-0.0984788
-0.0984782
-0.0984784
-0.196899
-0.196915
-0.196926
-0.196937
-0.196947
-0.196955
-0.196961
-0.196965
-0.196967
-0.196968
-0.196967
-0.196964
-0.196962
-0.196959
-0.196957
-0.196954
-0.196953
-0.196952
-0.196952
-0.196952
-0.196953
-0.196955
-0.196956
-0.196958
-0.196961
-0.196964
-0.196967
-0.196969
-0.196972
-0.196974
-0.196977
-0.196979
-0.196981
-0.196982
-0.196983
-0.196984
-0.196984
-0.196984
-0.196985
-0.196986
-0.196989
-0.196991
-0.196993
-0.196994
-0.197001
-0.197018
-0.197038
-0.197053
-0.197063
-0.197063
-0.197052
-0.197035
-0.197021
-0.197011
-0.197006
-0.197003
-0.197001
-0.196998
-0.196982
-0.196972
-0.196975
-0.196978
-0.19698
-0.196981
-0.196983
-0.196984
-0.196985
-0.196987
-0.196988
-0.196988
-0.196989
-0.19699
-0.19699
-0.196991
-0.196991
-0.196991
-0.196991
-0.19699
-0.196987
-0.196984
-0.196983
-0.196983
-0.196982
-0.196981
-0.196979
-0.196977
-0.196974
-0.196971
-0.196969
-0.196966
-0.196962
-0.196957
-0.196952
-0.196948
-0.196948
-0.196952
-0.196953
-0.196953
-0.196954
-0.196951
-0.295379
-0.295392
-0.295403
-0.295413
-0.295423
-0.295431
-0.295437
-0.295442
-0.295444
-0.295444
-0.295443
-0.29544
-0.295438
-0.295435
-0.295432
-0.29543
-0.295428
-0.295427
-0.295426
-0.295427
-0.295428
-0.295429
-0.295431
-0.295433
-0.295436
-0.295438
-0.295441
-0.295444
-0.295447
-0.295449
-0.295451
-0.295453
-0.295455
-0.295457
-0.295458
-0.295459
-0.29546
-0.295461
-0.295462
-0.295463
-0.295465
-0.295467
-0.295469
-0.295471
-0.295477
-0.295493
-0.295513
-0.295532
-0.295542
-0.295543
-0.295534
-0.295515
-0.295498
-0.295486
-0.29548
-0.295478
-0.295477
-0.295471
-0.295453
-0.295444
-0.295447
-0.295449
-0.295451
-0.295453
-0.295455
-0.295456
-0.295457
-0.295458
-0.295459
-0.29546
-0.295461
-0.295462
-0.295462
-0.295463
-0.295463
-0.295463
-0.295463
-0.295462
-0.29546
-0.295459
-0.295458
-0.295458
-0.295457
-0.295456
-0.295454
-0.295451
-0.295449
-0.295446
-0.295443
-0.295441
-0.295437
-0.295433
-0.295429
-0.295426
-0.295426
-0.295427
-0.295428
-0.295429
-0.29543
-0.295427
-0.393863
-0.393874
-0.393883
-0.393892
-0.393901
-0.393909
-0.393915
-0.393919
-0.393921
-0.39392
-0.393919
-0.393917
-0.393914
-0.393911
-0.393908
-0.393905
-0.393903
-0.393901
-0.393901
-0.393901
-0.393902
-0.393904
-0.393906
-0.393908
-0.393911
-0.393913
-0.393916
-0.393919
-0.393921
-0.393924
-0.393926
-0.393928
-0.39393
-0.393932
-0.393933
-0.393934
-0.393936
-0.393937
-0.393938
-0.393939
-0.393941
-0.393943
-0.393946
-0.393949
-0.393955
-0.393967
-0.393984
-0.394
-0.39401
-0.394012
-0.394004
-0.393987
-0.39397
-0.393957
-0.393951
-0.39395
-0.393949
-0.393939
-0.393923
-0.393916
-0.393919
-0.393921
-0.393923
-0.393925
-0.393927
-0.393928
-0.393929
-0.39393
-0.393931
-0.393932
-0.393933
-0.393933
-0.393934
-0.393934
-0.393935
-0.393935
-0.393935
-0.393935
-0.393934
-0.393933
-0.393933
-0.393933
-0.393932
-0.393931
-0.393929
-0.393926
-0.393924
-0.393921
-0.393918
-0.393915
-0.393912
-0.393909
-0.393906
-0.393904
-0.393904
-0.393904
-0.393904
-0.393904
-0.393905
-0.393903
-0.492347
-0.492357
-0.492364
-0.492372
-0.492381
-0.492388
-0.492393
-0.492397
-0.492398
-0.492397
-0.492396
-0.492393
-0.49239
-0.492387
-0.492383
-0.49238
-0.492378
-0.492376
-0.492375
-0.492376
-0.492376
-0.492378
-0.49238
-0.492383
-0.492385
-0.492388
-0.492391
-0.492393
-0.492396
-0.492398
-0.4924
-0.492402
-0.492404
-0.492406
-0.492408
-0.492409
-0.492411
-0.492412
-0.492413
-0.492415
-0.492416
-0.492419
-0.492422
-0.492426
-0.492431
-0.492439
-0.49245
-0.49246
-0.492467
-0.492468
-0.492462
-0.49245
-0.492435
-0.492424
-0.492419
-0.492419
-0.492415
-0.492406
-0.492393
-0.492388
-0.492391
-0.492393
-0.492395
-0.492397
-0.492399
-0.4924
-0.492401
-0.492402
-0.492403
-0.492404
-0.492405
-0.492405
-0.492406
-0.492406
-0.492407
-0.492407
-0.492407
-0.492407
-0.492408
-0.492408
-0.492408
-0.492408
-0.492407
-0.492406
-0.492404
-0.492402
-0.492399
-0.492396
-0.492393
-0.49239
-0.492388
-0.492385
-0.492383
-0.492381
-0.49238
-0.49238
-0.49238
-0.49238
-0.492381
-0.492379
-0.590832
-0.59084
-0.590846
-0.590853
-0.590861
-0.590867
-0.590872
-0.590875
-0.590875
-0.590874
-0.590872
-0.590869
-0.590866
-0.590863
-0.590859
-0.590855
-0.590852
-0.590851
-0.59085
-0.59085
-0.590851
-0.590852
-0.590855
-0.590857
-0.59086
-0.590863
-0.590866
-0.590868
-0.590871
-0.590873
-0.590875
-0.590877
-0.590879
-0.590881
-0.590882
-0.590884
-0.590885
-0.590887
-0.590888
-0.590889
-0.590891
-0.590893
-0.590897
-0.590901
-0.590907
-0.590912
-0.590916
-0.590919
-0.590921
-0.59092
-0.590916
-0.590907
-0.590896
-0.590888
-0.590886
-0.590885
-0.590881
-0.590873
-0.590863
-0.590861
-0.590864
-0.590866
-0.590868
-0.59087
-0.590871
-0.590873
-0.590874
-0.590875
-0.590876
-0.590877
-0.590877
-0.590878
-0.590879
-0.590879
-0.590879
-0.59088
-0.59088
-0.59088
-0.590881
-0.590881
-0.590882
-0.590882
-0.590882
-0.590881
-0.590879
-0.590877
-0.590874
-0.590871
-0.590868
-0.590865
-0.590863
-0.59086
-0.590859
-0.590857
-0.590856
-0.590855
-0.590855
-0.590855
-0.590856
-0.590854
-0.689316
-0.689323
-0.689328
-0.689335
-0.689341
-0.689346
-0.689351
-0.689353
-0.689353
-0.689352
-0.689349
-0.689346
-0.689342
-0.689338
-0.689334
-0.68933
-0.689327
-0.689325
-0.689324
-0.689324
-0.689325
-0.689327
-0.689329
-0.689332
-0.689335
-0.689338
-0.689341
-0.689343
-0.689346
-0.689348
-0.68935
-0.689352
-0.689354
-0.689355
-0.689357
-0.689358
-0.68936
-0.689361
-0.689362
-0.689364
-0.689365
-0.689367
-0.68937
-0.689375
-0.68938
-0.689383
-0.689381
-0.689377
-0.689375
-0.689373
-0.68937
-0.689364
-0.689357
-0.689353
-0.689352
-0.689351
-0.689348
-0.689341
-0.689335
-0.689335
-0.689337
-0.68934
-0.689342
-0.689343
-0.689345
-0.689346
-0.689347
-0.689348
-0.689349
-0.68935
-0.689351
-0.689351
-0.689352
-0.689352
-0.689352
-0.689353
-0.689353
-0.689353
-0.689354
-0.689355
-0.689356
-0.689356
-0.689356
-0.689355
-0.689354
-0.689352
-0.689349
-0.689346
-0.689343
-0.68934
-0.689337
-0.689336
-0.689334
-0.689333
-0.689332
-0.689331
-0.689331
-0.68933
-0.689331
-0.68933
-0.7878
-0.787806
-0.78781
-0.787816
-0.787821
-0.787826
-0.787829
-0.787831
-0.78783
-0.787829
-0.787826
-0.787822
-0.787818
-0.787814
-0.78781
-0.787805
-0.787802
-0.7878
-0.787798
-0.787798
-0.787799
-0.787801
-0.787804
-0.787807
-0.78781
-0.787813
-0.787816
-0.787818
-0.787821
-0.787823
-0.787825
-0.787827
-0.787828
-0.78783
-0.787832
-0.787833
-0.787834
-0.787835
-0.787836
-0.787837
-0.787839
-0.78784
-0.787843
-0.787848
-0.787852
-0.787853
-0.787847
-0.787838
-0.787831
-0.787829
-0.787828
-0.787825
-0.787821
-0.78782
-0.787819
-0.78782
-0.787818
-0.787812
-0.787808
-0.78781
-0.787812
-0.787814
-0.787816
-0.787817
-0.787819
-0.78782
-0.787821
-0.787822
-0.787823
-0.787824
-0.787824
-0.787825
-0.787825
-0.787825
-0.787826
-0.787826
-0.787826
-0.787827
-0.787827
-0.787828
-0.787829
-0.787829
-0.78783
-0.787829
-0.787828
-0.787827
-0.787824
-0.787821
-0.787818
-0.787815
-0.787812
-0.78781
-0.787809
-0.787808
-0.787807
-0.787806
-0.787806
-0.787806
-0.787806
-0.787805
-0.886283
-0.886288
-0.886291
-0.886296
-0.886301
-0.886305
-0.886308
-0.886309
-0.886308
-0.886305
-0.886302
-0.886298
-0.886294
-0.88629
-0.886285
-0.886281
-0.886277
-0.886274
-0.886273
-0.886273
-0.886274
-0.886276
-0.886279
-0.886282
-0.886285
-0.886288
-0.886291
-0.886294
-0.886296
-0.886298
-0.8863
-0.886302
-0.886303
-0.886305
-0.886306
-0.886308
-0.886309
-0.88631
-0.886311
-0.886311
-0.886312
-0.886313
-0.886315
-0.886319
-0.886323
-0.886323
-0.886312
-0.886299
-0.886292
-0.886292
-0.886292
-0.886291
-0.886289
-0.886288
-0.88629
-0.886291
-0.88629
-0.886286
-0.886284
-0.886286
-0.886288
-0.886289
-0.886291
-0.886292
-0.886294
-0.886295
-0.886296
-0.886297
-0.886297
-0.886298
-0.886298
-0.886298
-0.886299
-0.886299
-0.886299
-0.8863
-0.8863
-0.8863
-0.886301
-0.886301
-0.886302
-0.886302
-0.886302
-0.886302
-0.886302
-0.886301
-0.886298
-0.886295
-0.886292
-0.886289
-0.886287
-0.886285
-0.886284
-0.886283
-0.886282
-0.886281
-0.886281
-0.886281
-0.886281
-0.88628
-0.984765
-0.984769
-0.984772
-0.984776
-0.98478
-0.984784
-0.984786
-0.984786
-0.984785
-0.984782
-0.984778
-0.984775
-0.98477
-0.984766
-0.984761
-0.984756
-0.984752
-0.98475
-0.984748
-0.984748
-0.984749
-0.984751
-0.984754
-0.984757
-0.984761
-0.984764
-0.984767
-0.984769
-0.984771
-0.984773
-0.984775
-0.984777
-0.984778
-0.98478
-0.984781
-0.984782
-0.984783
-0.984784
-0.984785
-0.984785
-0.984785
-0.984786
-0.984787
-0.984789
-0.984792
-0.98479
-0.984774
-0.984762
-0.984759
-0.984762
-0.984764
-0.984764
-0.984762
-0.984762
-0.984765
-0.984766
-0.984765
-0.984762
-0.984762
-0.984763
-0.984764
-0.984766
-0.984767
-0.984768
-0.984769
-0.98477
-0.984771
-0.984771
-0.984772
-0.984772
-0.984772
-0.984772
-0.984772
-0.984773
-0.984773
-0.984773
-0.984774
-0.984774
-0.984774
-0.984775
-0.984775
-0.984775
-0.984775
-0.984775
-0.984774
-0.984774
-0.984772
-0.98477
-0.984767
-0.984764
-0.984761
-0.984759
-0.984758
-0.984757
-0.984757
-0.984756
-0.984756
-0.984755
-0.984756
-0.984755
-1.08325
-1.08325
-1.08325
-1.08326
-1.08326
-1.08326
-1.08326
-1.08326
-1.08326
-1.08326
-1.08325
-1.08325
-1.08325
-1.08324
-1.08324
-1.08323
-1.08323
-1.08323
-1.08322
-1.08322
-1.08323
-1.08323
-1.08323
-1.08323
-1.08324
-1.08324
-1.08324
-1.08324
-1.08325
-1.08325
-1.08325
-1.08325
-1.08325
-1.08325
-1.08326
-1.08326
-1.08326
-1.08326
-1.08326
-1.08326
-1.08326
-1.08326
-1.08326
-1.08326
-1.08326
-1.08326
-1.08324
-1.08323
-1.08323
-1.08324
-1.08324
-1.08324
-1.08324
-1.08324
-1.08324
-1.08324
-1.08324
-1.08324
-1.08324
-1.08324
-1.08324
-1.08324
-1.08324
-1.08324
-1.08325
-1.08325
-1.08325
-1.08325
-1.08325
-1.08325
-1.08325
-1.08325
-1.08325
-1.08325
-1.08325
-1.08325
-1.08325
-1.08325
-1.08325
-1.08325
-1.08325
-1.08325
-1.08325
-1.08325
-1.08325
-1.08325
-1.08325
-1.08324
-1.08324
-1.08324
-1.08324
-1.08323
-1.08323
-1.08323
-1.08323
-1.08323
-1.08323
-1.08323
-1.08323
-1.08323
-1.18173
-1.18173
-1.18173
-1.18173
-1.18174
-1.18174
-1.18174
-1.18174
-1.18174
-1.18173
-1.18173
-1.18173
-1.18172
-1.18172
-1.18171
-1.18171
-1.1817
-1.1817
-1.1817
-1.1817
-1.1817
-1.1817
-1.18171
-1.18171
-1.18171
-1.18172
-1.18172
-1.18172
-1.18172
-1.18172
-1.18173
-1.18173
-1.18173
-1.18173
-1.18173
-1.18173
-1.18173
-1.18173
-1.18173
-1.18173
-1.18173
-1.18173
-1.18173
-1.18173
-1.18173
-1.18173
-1.18171
-1.18171
-1.18172
-1.18173
-1.18173
-1.18172
-1.18172
-1.18172
-1.18172
-1.18172
-1.18172
-1.18172
-1.18172
-1.18172
-1.18172
-1.18172
-1.18172
-1.18172
-1.18172
-1.18172
-1.18172
-1.18172
-1.18172
-1.18172
-1.18172
-1.18172
-1.18172
-1.18172
-1.18172
-1.18172
-1.18172
-1.18172
-1.18172
-1.18172
-1.18172
-1.18172
-1.18172
-1.18172
-1.18172
-1.18172
-1.18172
-1.18172
-1.18171
-1.18171
-1.18171
-1.18171
-1.18171
-1.18171
-1.18171
-1.18171
-1.1817
-1.1817
-1.1817
-1.1817
-1.28021
-1.28021
-1.28021
-1.28021
-1.28021
-1.28022
-1.28022
-1.28021
-1.28021
-1.28021
-1.28021
-1.2802
-1.2802
-1.28019
-1.28019
-1.28018
-1.28018
-1.28018
-1.28018
-1.28018
-1.28018
-1.28018
-1.28018
-1.28019
-1.28019
-1.28019
-1.2802
-1.2802
-1.2802
-1.2802
-1.2802
-1.2802
-1.2802
-1.28021
-1.28021
-1.28021
-1.28021
-1.28021
-1.28021
-1.28021
-1.28021
-1.28021
-1.28021
-1.2802
-1.2802
-1.2802
-1.28019
-1.2802
-1.28021
-1.28021
-1.28021
-1.28021
-1.2802
-1.2802
-1.2802
-1.2802
-1.28021
-1.2802
-1.2802
-1.2802
-1.2802
-1.2802
-1.2802
-1.2802
-1.2802
-1.2802
-1.2802
-1.2802
-1.28019
-1.28019
-1.28019
-1.28019
-1.28019
-1.28019
-1.28019
-1.28019
-1.28019
-1.28019
-1.28019
-1.28019
-1.28019
-1.28019
-1.28019
-1.28019
-1.28019
-1.28019
-1.28019
-1.28019
-1.28019
-1.28018
-1.28018
-1.28018
-1.28018
-1.28018
-1.28018
-1.28018
-1.28018
-1.28018
-1.28018
-1.28018
-1.37868
-1.37869
-1.37869
-1.37869
-1.37869
-1.37869
-1.37869
-1.37869
-1.37869
-1.37868
-1.37868
-1.37868
-1.37867
-1.37867
-1.37866
-1.37866
-1.37866
-1.37866
-1.37866
-1.37866
-1.37866
-1.37866
-1.37866
-1.37867
-1.37867
-1.37867
-1.37867
-1.37867
-1.37868
-1.37868
-1.37868
-1.37868
-1.37868
-1.37868
-1.37868
-1.37868
-1.37868
-1.37868
-1.37868
-1.37868
-1.37868
-1.37868
-1.37868
-1.37868
-1.37868
-1.37868
-1.37868
-1.37869
-1.37869
-1.37869
-1.37869
-1.37869
-1.37868
-1.37868
-1.37868
-1.37869
-1.37869
-1.37869
-1.37869
-1.37868
-1.37868
-1.37868
-1.37868
-1.37868
-1.37867
-1.37867
-1.37867
-1.37867
-1.37867
-1.37867
-1.37867
-1.37867
-1.37867
-1.37867
-1.37867
-1.37867
-1.37867
-1.37867
-1.37867
-1.37867
-1.37867
-1.37867
-1.37866
-1.37866
-1.37866
-1.37866
-1.37866
-1.37866
-1.37866
-1.37866
-1.37866
-1.37865
-1.37865
-1.37865
-1.37865
-1.37865
-1.37865
-1.37865
-1.37865
-1.37865
-1.47716
-1.47716
-1.47716
-1.47717
-1.47717
-1.47717
-1.47717
-1.47716
-1.47716
-1.47716
-1.47716
-1.47715
-1.47715
-1.47714
-1.47714
-1.47714
-1.47714
-1.47714
-1.47713
-1.47714
-1.47714
-1.47714
-1.47714
-1.47714
-1.47715
-1.47715
-1.47715
-1.47715
-1.47715
-1.47715
-1.47715
-1.47715
-1.47716
-1.47716
-1.47716
-1.47716
-1.47716
-1.47716
-1.47716
-1.47716
-1.47716
-1.47716
-1.47716
-1.47716
-1.47716
-1.47716
-1.47716
-1.47717
-1.47717
-1.47717
-1.47717
-1.47716
-1.47716
-1.47716
-1.47717
-1.47717
-1.47717
-1.47717
-1.47717
-1.47716
-1.47716
-1.47716
-1.47715
-1.47715
-1.47715
-1.47715
-1.47715
-1.47714
-1.47714
-1.47714
-1.47714
-1.47714
-1.47714
-1.47714
-1.47714
-1.47714
-1.47714
-1.47714
-1.47714
-1.47714
-1.47714
-1.47714
-1.47714
-1.47713
-1.47713
-1.47713
-1.47713
-1.47713
-1.47713
-1.47713
-1.47713
-1.47713
-1.47713
-1.47713
-1.47713
-1.47713
-1.47713
-1.47713
-1.47713
-1.47713
-1.57564
-1.57564
-1.57564
-1.57564
-1.57564
-1.57564
-1.57564
-1.57564
-1.57564
-1.57563
-1.57563
-1.57563
-1.57562
-1.57562
-1.57562
-1.57562
-1.57561
-1.57561
-1.57561
-1.57562
-1.57562
-1.57562
-1.57562
-1.57562
-1.57563
-1.57563
-1.57563
-1.57563
-1.57563
-1.57563
-1.57563
-1.57563
-1.57563
-1.57563
-1.57563
-1.57563
-1.57563
-1.57563
-1.57563
-1.57563
-1.57563
-1.57563
-1.57563
-1.57564
-1.57564
-1.57563
-1.57564
-1.57564
-1.57564
-1.57564
-1.57564
-1.57564
-1.57564
-1.57564
-1.57565
-1.57565
-1.57565
-1.57565
-1.57565
-1.57564
-1.57564
-1.57564
-1.57563
-1.57563
-1.57563
-1.57562
-1.57562
-1.57562
-1.57562
-1.57562
-1.57561
-1.57561
-1.57561
-1.57561
-1.57561
-1.57561
-1.57561
-1.57561
-1.57561
-1.57561
-1.57561
-1.57561
-1.57561
-1.57561
-1.5756
-1.5756
-1.5756
-1.5756
-1.5756
-1.5756
-1.5756
-1.5756
-1.5756
-1.5756
-1.5756
-1.5756
-1.5756
-1.5756
-1.5756
-1.5756
-1.67411
-1.67412
-1.67412
-1.67412
-1.67412
-1.67412
-1.67412
-1.67411
-1.67411
-1.67411
-1.67411
-1.6741
-1.6741
-1.6741
-1.67409
-1.67409
-1.67409
-1.67409
-1.67409
-1.6741
-1.6741
-1.6741
-1.6741
-1.6741
-1.67411
-1.67411
-1.67411
-1.67411
-1.67411
-1.67411
-1.67411
-1.67411
-1.67411
-1.67411
-1.67411
-1.67411
-1.67411
-1.67411
-1.67411
-1.67411
-1.67411
-1.67411
-1.67411
-1.67411
-1.67411
-1.6741
-1.67411
-1.67411
-1.67412
-1.67412
-1.67412
-1.67412
-1.67412
-1.67412
-1.67412
-1.67413
-1.67413
-1.67413
-1.67413
-1.67412
-1.67412
-1.67411
-1.67411
-1.67411
-1.6741
-1.6741
-1.6741
-1.67409
-1.67409
-1.67409
-1.67409
-1.67409
-1.67409
-1.67408
-1.67408
-1.67408
-1.67408
-1.67408
-1.67408
-1.67408
-1.67408
-1.67408
-1.67408
-1.67408
-1.67408
-1.67407
-1.67407
-1.67407
-1.67408
-1.67408
-1.67408
-1.67407
-1.67407
-1.67407
-1.67407
-1.67407
-1.67407
-1.67407
-1.67407
-1.67407
-1.77259
-1.77259
-1.77259
-1.77259
-1.77259
-1.77259
-1.77259
-1.77259
-1.77259
-1.77258
-1.77258
-1.77258
-1.77258
-1.77257
-1.77257
-1.77257
-1.77257
-1.77257
-1.77257
-1.77258
-1.77258
-1.77258
-1.77258
-1.77258
-1.77258
-1.77258
-1.77258
-1.77258
-1.77258
-1.77258
-1.77258
-1.77258
-1.77258
-1.77258
-1.77258
-1.77258
-1.77258
-1.77258
-1.77258
-1.77258
-1.77258
-1.77258
-1.77259
-1.77259
-1.77258
-1.77257
-1.77258
-1.77258
-1.77259
-1.77259
-1.77259
-1.77259
-1.77259
-1.77259
-1.7726
-1.77261
-1.77261
-1.77261
-1.77261
-1.7726
-1.77259
-1.77259
-1.77258
-1.77258
-1.77258
-1.77258
-1.77257
-1.77257
-1.77257
-1.77256
-1.77256
-1.77256
-1.77256
-1.77256
-1.77256
-1.77256
-1.77256
-1.77256
-1.77255
-1.77255
-1.77255
-1.77255
-1.77255
-1.77255
-1.77255
-1.77254
-1.77255
-1.77255
-1.77255
-1.77255
-1.77255
-1.77255
-1.77255
-1.77255
-1.77255
-1.77255
-1.77255
-1.77255
-1.77255
-1.77255
-1.87107
-1.87107
-1.87107
-1.87107
-1.87107
-1.87107
-1.87107
-1.87106
-1.87106
-1.87106
-1.87106
-1.87106
-1.87105
-1.87105
-1.87105
-1.87105
-1.87105
-1.87105
-1.87105
-1.87106
-1.87106
-1.87106
-1.87106
-1.87106
-1.87106
-1.87106
-1.87106
-1.87106
-1.87106
-1.87106
-1.87106
-1.87106
-1.87106
-1.87106
-1.87106
-1.87106
-1.87106
-1.87106
-1.87106
-1.87106
-1.87106
-1.87106
-1.87106
-1.87106
-1.87105
-1.87104
-1.87105
-1.87105
-1.87106
-1.87106
-1.87106
-1.87106
-1.87107
-1.87107
-1.87107
-1.87108
-1.87108
-1.87108
-1.87108
-1.87107
-1.87107
-1.87106
-1.87106
-1.87106
-1.87105
-1.87105
-1.87105
-1.87105
-1.87104
-1.87104
-1.87104
-1.87103
-1.87103
-1.87103
-1.87103
-1.87103
-1.87103
-1.87103
-1.87103
-1.87103
-1.87102
-1.87102
-1.87102
-1.87102
-1.87102
-1.87102
-1.87102
-1.87102
-1.87102
-1.87102
-1.87102
-1.87102
-1.87102
-1.87102
-1.87102
-1.87102
-1.87102
-1.87102
-1.87102
-1.87102
-1.96954
-1.96955
-1.96955
-1.96954
-1.96954
-1.96954
-1.96954
-1.96954
-1.96954
-1.96954
-1.96953
-1.96953
-1.96953
-1.96953
-1.96953
-1.96953
-1.96953
-1.96953
-1.96953
-1.96954
-1.96954
-1.96954
-1.96954
-1.96954
-1.96954
-1.96954
-1.96954
-1.96954
-1.96954
-1.96954
-1.96954
-1.96954
-1.96954
-1.96954
-1.96954
-1.96954
-1.96954
-1.96953
-1.96953
-1.96953
-1.96953
-1.96953
-1.96953
-1.96953
-1.96952
-1.96951
-1.96952
-1.96953
-1.96953
-1.96953
-1.96953
-1.96954
-1.96954
-1.96954
-1.96955
-1.96955
-1.96955
-1.96956
-1.96955
-1.96955
-1.96954
-1.96954
-1.96953
-1.96953
-1.96953
-1.96953
-1.96952
-1.96952
-1.96952
-1.96952
-1.96951
-1.96951
-1.96951
-1.96951
-1.9695
-1.9695
-1.9695
-1.9695
-1.9695
-1.9695
-1.9695
-1.96949
-1.96949
-1.96949
-1.96949
-1.96949
-1.96949
-1.96949
-1.9695
-1.9695
-1.9695
-1.9695
-1.9695
-1.9695
-1.9695
-1.9695
-1.9695
-1.9695
-1.9695
-1.9695
-2.06802
-2.06802
-2.06802
-2.06802
-2.06802
-2.06802
-2.06802
-2.06802
-2.06802
-2.06801
-2.06801
-2.06801
-2.06801
-2.06801
-2.06801
-2.06801
-2.06801
-2.06801
-2.06801
-2.06802
-2.06802
-2.06802
-2.06802
-2.06802
-2.06802
-2.06802
-2.06802
-2.06802
-2.06801
-2.06801
-2.06801
-2.06801
-2.06801
-2.06801
-2.06801
-2.06801
-2.06801
-2.06801
-2.06801
-2.06801
-2.068
-2.068
-2.068
-2.068
-2.06799
-2.06799
-2.06799
-2.068
-2.068
-2.068
-2.06801
-2.06801
-2.06801
-2.06801
-2.06802
-2.06802
-2.06802
-2.06803
-2.06802
-2.06802
-2.06802
-2.06801
-2.06801
-2.06801
-2.06801
-2.068
-2.068
-2.068
-2.068
-2.06799
-2.06799
-2.06799
-2.06798
-2.06798
-2.06798
-2.06798
-2.06797
-2.06797
-2.06797
-2.06797
-2.06797
-2.06797
-2.06797
-2.06796
-2.06796
-2.06796
-2.06797
-2.06797
-2.06797
-2.06797
-2.06797
-2.06797
-2.06797
-2.06797
-2.06797
-2.06797
-2.06797
-2.06797
-2.06797
-2.06797
-2.1665
-2.1665
-2.1665
-2.1665
-2.1665
-2.1665
-2.1665
-2.16649
-2.16649
-2.16649
-2.16649
-2.16649
-2.16649
-2.16649
-2.16649
-2.16649
-2.16649
-2.16649
-2.16649
-2.1665
-2.1665
-2.1665
-2.1665
-2.1665
-2.1665
-2.1665
-2.1665
-2.16649
-2.16649
-2.16649
-2.16649
-2.16649
-2.16649
-2.16649
-2.16649
-2.16649
-2.16649
-2.16648
-2.16648
-2.16648
-2.16648
-2.16648
-2.16647
-2.16647
-2.16646
-2.16646
-2.16647
-2.16647
-2.16647
-2.16648
-2.16648
-2.16648
-2.16648
-2.16648
-2.16649
-2.16649
-2.16649
-2.16649
-2.16649
-2.16649
-2.16649
-2.16649
-2.16648
-2.16648
-2.16648
-2.16648
-2.16648
-2.16648
-2.16647
-2.16647
-2.16647
-2.16647
-2.16646
-2.16646
-2.16646
-2.16645
-2.16645
-2.16645
-2.16644
-2.16644
-2.16644
-2.16644
-2.16644
-2.16644
-2.16644
-2.16644
-2.16644
-2.16644
-2.16645
-2.16645
-2.16645
-2.16645
-2.16645
-2.16645
-2.16645
-2.16645
-2.16645
-2.16645
-2.16645
-2.16645
-2.26498
-2.26498
-2.26498
-2.26498
-2.26498
-2.26497
-2.26497
-2.26497
-2.26497
-2.26497
-2.26497
-2.26497
-2.26497
-2.26497
-2.26497
-2.26497
-2.26497
-2.26497
-2.26497
-2.26498
-2.26498
-2.26498
-2.26498
-2.26498
-2.26498
-2.26497
-2.26497
-2.26497
-2.26497
-2.26497
-2.26497
-2.26497
-2.26497
-2.26497
-2.26497
-2.26496
-2.26496
-2.26496
-2.26496
-2.26495
-2.26495
-2.26495
-2.26495
-2.26494
-2.26494
-2.26494
-2.26494
-2.26494
-2.26495
-2.26495
-2.26495
-2.26495
-2.26495
-2.26495
-2.26495
-2.26496
-2.26496
-2.26496
-2.26496
-2.26496
-2.26496
-2.26496
-2.26496
-2.26496
-2.26496
-2.26496
-2.26496
-2.26496
-2.26495
-2.26495
-2.26495
-2.26494
-2.26494
-2.26494
-2.26493
-2.26493
-2.26492
-2.26492
-2.26492
-2.26492
-2.26491
-2.26491
-2.26491
-2.26491
-2.26492
-2.26492
-2.26492
-2.26492
-2.26492
-2.26492
-2.26492
-2.26492
-2.26492
-2.26492
-2.26492
-2.26492
-2.26492
-2.26492
-2.26492
-2.26492
-2.36345
-2.36345
-2.36345
-2.36345
-2.36345
-2.36345
-2.36345
-2.36345
-2.36345
-2.36345
-2.36345
-2.36345
-2.36345
-2.36345
-2.36345
-2.36345
-2.36345
-2.36345
-2.36345
-2.36345
-2.36346
-2.36346
-2.36346
-2.36346
-2.36345
-2.36345
-2.36345
-2.36345
-2.36345
-2.36345
-2.36344
-2.36344
-2.36344
-2.36344
-2.36344
-2.36344
-2.36344
-2.36343
-2.36343
-2.36343
-2.36342
-2.36342
-2.36342
-2.36342
-2.36341
-2.36341
-2.36342
-2.36342
-2.36342
-2.36342
-2.36342
-2.36342
-2.36342
-2.36342
-2.36342
-2.36343
-2.36343
-2.36343
-2.36343
-2.36344
-2.36344
-2.36344
-2.36344
-2.36344
-2.36344
-2.36344
-2.36344
-2.36344
-2.36344
-2.36343
-2.36343
-2.36343
-2.36342
-2.36342
-2.36341
-2.3634
-2.3634
-2.3634
-2.36339
-2.36339
-2.36339
-2.36339
-2.36339
-2.36339
-2.36339
-2.36339
-2.36339
-2.3634
-2.3634
-2.3634
-2.3634
-2.3634
-2.3634
-2.3634
-2.3634
-2.3634
-2.3634
-2.3634
-2.3634
-2.3634
-2.46193
-2.46193
-2.46193
-2.46193
-2.46193
-2.46193
-2.46193
-2.46193
-2.46193
-2.46193
-2.46193
-2.46193
-2.46193
-2.46193
-2.46193
-2.46193
-2.46193
-2.46193
-2.46193
-2.46193
-2.46194
-2.46194
-2.46193
-2.46193
-2.46193
-2.46193
-2.46193
-2.46192
-2.46192
-2.46192
-2.46192
-2.46192
-2.46192
-2.46192
-2.46192
-2.46192
-2.46191
-2.46191
-2.46191
-2.4619
-2.4619
-2.46189
-2.46189
-2.46189
-2.46189
-2.46189
-2.46189
-2.46189
-2.46189
-2.46189
-2.46189
-2.46189
-2.46189
-2.46189
-2.4619
-2.4619
-2.4619
-2.4619
-2.46191
-2.46191
-2.46191
-2.46191
-2.46192
-2.46192
-2.46192
-2.46192
-2.46192
-2.46192
-2.46192
-2.46192
-2.46191
-2.46191
-2.4619
-2.4619
-2.46189
-2.46188
-2.46188
-2.46187
-2.46187
-2.46186
-2.46186
-2.46186
-2.46186
-2.46187
-2.46187
-2.46187
-2.46187
-2.46187
-2.46187
-2.46187
-2.46187
-2.46187
-2.46187
-2.46187
-2.46187
-2.46187
-2.46187
-2.46187
-2.46187
-2.46187
-2.56041
-2.56041
-2.56041
-2.56041
-2.56041
-2.56041
-2.56041
-2.56041
-2.56041
-2.56041
-2.56041
-2.56041
-2.56041
-2.56041
-2.56041
-2.56041
-2.56041
-2.56041
-2.56041
-2.56041
-2.56041
-2.56041
-2.56041
-2.56041
-2.56041
-2.56041
-2.5604
-2.5604
-2.5604
-2.5604
-2.5604
-2.5604
-2.5604
-2.5604
-2.5604
-2.56039
-2.56039
-2.56039
-2.56038
-2.56038
-2.56037
-2.56037
-2.56037
-2.56036
-2.56036
-2.56036
-2.56036
-2.56036
-2.56036
-2.56036
-2.56036
-2.56036
-2.56036
-2.56037
-2.56037
-2.56037
-2.56037
-2.56038
-2.56038
-2.56039
-2.56039
-2.56039
-2.5604
-2.5604
-2.5604
-2.5604
-2.56041
-2.56041
-2.56041
-2.5604
-2.5604
-2.56039
-2.56039
-2.56038
-2.56037
-2.56036
-2.56036
-2.56035
-2.56034
-2.56034
-2.56034
-2.56034
-2.56034
-2.56034
-2.56034
-2.56034
-2.56035
-2.56035
-2.56035
-2.56035
-2.56035
-2.56035
-2.56035
-2.56035
-2.56035
-2.56035
-2.56035
-2.56035
-2.56035
-2.56035
-2.65889
-2.65889
-2.65889
-2.65889
-2.65889
-2.65889
-2.65889
-2.65889
-2.65889
-2.65889
-2.65889
-2.65889
-2.65889
-2.65889
-2.65889
-2.65889
-2.65889
-2.65889
-2.65889
-2.65889
-2.65889
-2.65889
-2.65889
-2.65889
-2.65888
-2.65888
-2.65888
-2.65888
-2.65888
-2.65888
-2.65888
-2.65888
-2.65888
-2.65888
-2.65888
-2.65887
-2.65887
-2.65886
-2.65886
-2.65885
-2.65885
-2.65884
-2.65884
-2.65884
-2.65884
-2.65884
-2.65884
-2.65884
-2.65884
-2.65884
-2.65884
-2.65884
-2.65884
-2.65884
-2.65884
-2.65885
-2.65885
-2.65885
-2.65886
-2.65886
-2.65887
-2.65887
-2.65888
-2.65888
-2.65888
-2.65889
-2.65889
-2.65889
-2.65889
-2.65889
-2.65889
-2.65888
-2.65887
-2.65887
-2.65886
-2.65885
-2.65884
-2.65883
-2.65882
-2.65882
-2.65882
-2.65882
-2.65882
-2.65882
-2.65882
-2.65882
-2.65882
-2.65882
-2.65882
-2.65882
-2.65882
-2.65882
-2.65882
-2.65882
-2.65882
-2.65882
-2.65882
-2.65882
-2.65882
-2.65882
-2.75737
-2.75737
-2.75737
-2.75737
-2.75737
-2.75737
-2.75737
-2.75737
-2.75738
-2.75738
-2.75738
-2.75738
-2.75738
-2.75738
-2.75738
-2.75737
-2.75737
-2.75737
-2.75737
-2.75737
-2.75737
-2.75737
-2.75737
-2.75736
-2.75736
-2.75736
-2.75736
-2.75736
-2.75736
-2.75736
-2.75736
-2.75736
-2.75736
-2.75736
-2.75735
-2.75735
-2.75734
-2.75734
-2.75733
-2.75733
-2.75732
-2.75732
-2.75732
-2.75732
-2.75732
-2.75731
-2.75731
-2.75731
-2.75731
-2.75731
-2.75731
-2.75731
-2.75731
-2.75732
-2.75732
-2.75732
-2.75733
-2.75733
-2.75734
-2.75734
-2.75735
-2.75735
-2.75736
-2.75736
-2.75737
-2.75737
-2.75738
-2.75738
-2.75738
-2.75738
-2.75737
-2.75737
-2.75736
-2.75735
-2.75734
-2.75733
-2.75732
-2.75731
-2.7573
-2.7573
-2.75729
-2.75729
-2.75729
-2.75729
-2.75729
-2.75729
-2.75729
-2.75729
-2.75729
-2.7573
-2.7573
-2.7573
-2.7573
-2.7573
-2.7573
-2.7573
-2.7573
-2.7573
-2.7573
-2.7573
-2.85585
-2.85585
-2.85585
-2.85585
-2.85585
-2.85585
-2.85585
-2.85586
-2.85586
-2.85586
-2.85586
-2.85586
-2.85586
-2.85586
-2.85586
-2.85586
-2.85586
-2.85585
-2.85585
-2.85585
-2.85585
-2.85585
-2.85584
-2.85584
-2.85584
-2.85584
-2.85583
-2.85583
-2.85583
-2.85583
-2.85584
-2.85584
-2.85583
-2.85583
-2.85583
-2.85583
-2.85582
-2.85582
-2.85581
-2.8558
-2.8558
-2.85579
-2.85579
-2.85579
-2.85579
-2.85579
-2.85579
-2.85579
-2.85579
-2.85579
-2.85579
-2.85579
-2.85579
-2.85579
-2.8558
-2.8558
-2.85581
-2.85581
-2.85582
-2.85582
-2.85583
-2.85583
-2.85584
-2.85584
-2.85585
-2.85586
-2.85586
-2.85587
-2.85587
-2.85587
-2.85586
-2.85586
-2.85585
-2.85584
-2.85583
-2.85582
-2.8558
-2.85579
-2.85578
-2.85578
-2.85577
-2.85577
-2.85577
-2.85577
-2.85577
-2.85577
-2.85577
-2.85577
-2.85577
-2.85577
-2.85577
-2.85577
-2.85577
-2.85577
-2.85577
-2.85577
-2.85577
-2.85577
-2.85577
-2.85577
-2.95432
-2.95433
-2.95433
-2.95433
-2.95433
-2.95433
-2.95433
-2.95434
-2.95434
-2.95434
-2.95434
-2.95435
-2.95435
-2.95434
-2.95434
-2.95434
-2.95434
-2.95433
-2.95433
-2.95433
-2.95433
-2.95432
-2.95432
-2.95432
-2.95431
-2.95431
-2.95431
-2.95431
-2.95431
-2.95431
-2.95431
-2.95431
-2.95431
-2.95431
-2.95431
-2.9543
-2.9543
-2.95429
-2.95428
-2.95428
-2.95427
-2.95427
-2.95427
-2.95427
-2.95427
-2.95427
-2.95427
-2.95427
-2.95427
-2.95427
-2.95427
-2.95427
-2.95427
-2.95427
-2.95428
-2.95428
-2.95428
-2.95429
-2.9543
-2.9543
-2.95431
-2.95431
-2.95432
-2.95433
-2.95433
-2.95434
-2.95435
-2.95435
-2.95435
-2.95435
-2.95435
-2.95435
-2.95434
-2.95433
-2.95431
-2.9543
-2.95429
-2.95428
-2.95427
-2.95426
-2.95425
-2.95425
-2.95424
-2.95424
-2.95424
-2.95424
-2.95424
-2.95424
-2.95424
-2.95424
-2.95425
-2.95425
-2.95425
-2.95425
-2.95425
-2.95425
-2.95425
-2.95425
-2.95425
-2.95425
-3.0528
-3.0528
-3.0528
-3.05281
-3.05281
-3.05281
-3.05281