/*--------------------------------*- C++ -*----------------------------------*\
| =========                 |                                                 |
| \\      /  F ield         | OpenFOAM: The Open Source CFD Toolbox           |
|  \\    /   O peration     | Version:  4.1                                   |
|   \\  /    A nd           | Web:      www.OpenFOAM.org                      |
|    \\/     M anipulation  |                                                 |
\*---------------------------------------------------------------------------*/
FoamFile
{
    version     2.0;
    format      ascii;
    class       volScalarField;
    location    "780";
    object      p_rgh;
}
// * * * * * * * * * * * * * * * * * * * * * * * * * * * * * * * * * * * * * //

dimensions      [0 2 -2 0 0 0 0];

internalField   nonuniform List<scalar> 
5000
(
0.0492043
0.0491967
0.0491918
0.0491884
0.0491857
0.0491838
0.0491828
0.0491829
0.0491842
0.0491865
0.0491896
0.049193
0.0491966
0.0491999
0.0492027
0.0492048
0.0492061
0.0492065
0.0492059
0.0492044
0.0492022
0.0491993
0.0491951
0.0491889
0.0491825
0.0491811
0.0491807
0.0491793
0.0491767
0.049173
0.0491685
0.0491633
0.0491575
0.0491508
0.0491432
0.0491344
0.0491256
0.0491178
0.0491123
0.0491111
0.0491168
0.0491239
0.0491225
0.0491193
0.0491319
0.0491391
0.0491329
0.0491278
0.049128
0.0491349
0.0491467
0.0491574
0.0491639
0.0491671
0.049166
0.0491618
0.0491554
0.049149
0.0491468
0.0491414
0.0491429
0.0491442
0.0491422
0.0491391
0.0491369
0.0491357
0.0491352
0.0491354
0.0491358
0.0491361
0.0491363
0.0491363
0.0491364
0.0491368
0.0491376
0.0491387
0.0491389
0.0491359
0.0491262
0.0491189
0.0491205
0.0491263
0.0491353
0.0491467
0.049156
0.0491603
0.0491591
0.0491558
0.0491523
0.049147
0.0491398
0.0491309
0.0491263
0.0491256
0.0491329
0.0491537
0.0491848
0.0492046
0.0492012
0.0491851
0.0492048
0.0492184
0.0492249
0.0492262
0.0492252
0.0492234
0.0492213
0.0492192
0.0492175
0.049217
0.0492179
0.0492198
0.0492223
0.0492249
0.0492274
0.0492296
0.0492312
0.049232
0.0492321
0.0492315
0.0492304
0.049229
0.0492276
0.0492259
0.0492239
0.0492211
0.049218
0.0492154
0.049213
0.0492109
0.049209
0.0492073
0.0492058
0.0492044
0.0492029
0.0492003
0.049194
0.0491859
0.0491811
0.0491846
0.0491908
0.0491924
0.0491846
0.0491458
0.0491281
0.0491365
0.0491489
0.04914
0.0491345
0.0491357
0.049147
0.0491621
0.0491751
0.0491839
0.0491889
0.0491913
0.0491899
0.0491751
0.0491459
0.0491504
0.0491881
0.0492011
0.0491996
0.0491979
0.049196
0.0491948
0.0491939
0.0491927
0.0491915
0.0491905
0.0491898
0.0491892
0.0491888
0.0491887
0.0491886
0.0491884
0.0491876
0.049185
0.0491793
0.0491681
0.0491754
0.0491887
0.0492009
0.049204
0.0492064
0.0492091
0.0492123
0.0492156
0.0492187
0.0492213
0.0492217
0.0492064
0.0491921
0.0491856
0.0491922
0.0492286
0.0492349
0.0492379
0.0492381
0.0491859
0.0491841
0.0492225
0.0492363
0.0492369
0.0492326
0.0492269
0.0492213
0.0492169
0.0492143
0.0492135
0.0492142
0.0492159
0.0492181
0.0492206
0.0492231
0.0492254
0.0492271
0.0492282
0.0492286
0.0492282
0.0492275
0.0492265
0.0492252
0.0492236
0.0492217
0.0492192
0.0492165
0.049214
0.0492117
0.0492097
0.049208
0.0492065
0.0492054
0.0492047
0.0492044
0.0492045
0.0492049
0.0492049
0.049205
0.0492048
0.0492028
0.0492004
0.0491939
0.0491569
0.04912
0.0491158
0.0491282
0.0491285
0.0491145
0.0491122
0.0491253
0.0491467
0.0491655
0.0491783
0.0491864
0.0491916
0.049193
0.0491752
0.0491251
0.0491495
0.0491971
0.0492019
0.0491995
0.0491975
0.0491958
0.0491941
0.0491927
0.0491914
0.0491902
0.0491893
0.0491886
0.049188
0.0491877
0.0491877
0.049188
0.0491886
0.0491896
0.0491912
0.049193
0.0491936
0.0491971
0.0492009
0.0492025
0.0492041
0.0492064
0.0492093
0.0492125
0.049216
0.0492197
0.0492239
0.0492286
0.0492333
0.0492335
0.0492345
0.0492417
0.0492426
0.0492422
0.0492427
0.049241
0.0491715
0.0491539
0.0492173
0.0492372
0.0492372
0.0492311
0.0492237
0.0492171
0.0492121
0.0492092
0.0492082
0.0492086
0.04921
0.049212
0.0492143
0.0492167
0.0492191
0.0492211
0.0492225
0.0492232
0.0492233
0.0492231
0.0492225
0.0492214
0.0492199
0.0492181
0.049216
0.0492137
0.0492115
0.0492094
0.0492075
0.0492058
0.0492043
0.0492032
0.0492024
0.0492021
0.0492021
0.0492026
0.0492033
0.0492035
0.049203
0.0492018
0.0492001
0.0491946
0.0491635
0.0491172
0.0490973
0.0491009
0.0491006
0.0490908
0.0490863
0.0491011
0.0491302
0.0491554
0.0491727
0.0491837
0.0491911
0.0491937
0.0491476
0.0491095
0.0491531
0.0491994
0.0492007
0.049198
0.0491957
0.0491938
0.0491922
0.0491909
0.0491896
0.0491886
0.0491876
0.0491868
0.0491862
0.0491858
0.0491857
0.049186
0.0491869
0.0491884
0.0491905
0.0491934
0.0491961
0.0491981
0.0491995
0.0492008
0.0492027
0.0492052
0.0492083
0.0492117
0.0492151
0.0492186
0.0492225
0.0492274
0.049233
0.0492384
0.0492425
0.0492442
0.0492441
0.0492445
0.0492454
0.049243
0.0491568
0.0491226
0.0492088
0.0492332
0.0492331
0.0492263
0.0492184
0.0492114
0.0492064
0.0492034
0.0492021
0.0492023
0.0492032
0.0492046
0.0492066
0.0492089
0.0492113
0.0492137
0.0492155
0.0492166
0.0492173
0.0492176
0.0492172
0.0492164
0.0492152
0.0492138
0.0492121
0.0492103
0.0492085
0.0492068
0.0492051
0.0492036
0.0492022
0.049201
0.0492001
0.0491996
0.0491995
0.0491997
0.0492002
0.0492005
0.0492006
0.0492002
0.0491994
0.0491949
0.0491682
0.0491193
0.0490872
0.04908
0.0490771
0.049068
0.0490648
0.0490824
0.0491161
0.0491479
0.049169
0.0491822
0.049191
0.0491728
0.0491268
0.0491064
0.0491619
0.0491998
0.0491995
0.0491968
0.0491946
0.0491928
0.0491914
0.0491901
0.049189
0.0491879
0.0491869
0.0491859
0.049185
0.0491843
0.0491839
0.0491838
0.0491844
0.0491858
0.0491881
0.0491909
0.0491934
0.0491954
0.0491969
0.0491984
0.0492003
0.0492031
0.0492067
0.0492108
0.0492147
0.0492183
0.0492218
0.0492259
0.0492307
0.0492355
0.0492396
0.0492423
0.0492444
0.0492462
0.0492481
0.0492452
0.0491433
0.0490924
0.049199
0.0492269
0.0492269
0.0492199
0.049212
0.0492051
0.0492002
0.0491971
0.0491958
0.0491954
0.0491957
0.0491963
0.0491977
0.0491998
0.0492026
0.0492054
0.0492077
0.0492094
0.0492106
0.0492112
0.049211
0.0492105
0.0492096
0.0492086
0.0492074
0.0492062
0.0492049
0.0492037
0.0492024
0.0492012
0.0492
0.0491988
0.0491979
0.0491972
0.0491969
0.049197
0.0491974
0.0491979
0.0491984
0.0491987
0.0491986
0.0491963
0.0491722
0.0491231
0.0490834
0.0490674
0.0490614
0.0490535
0.0490527
0.0490739
0.0491112
0.0491462
0.0491687
0.0491827
0.0491836
0.049152
0.0491144
0.0491131
0.0491721
0.0491996
0.0491985
0.0491962
0.0491944
0.049193
0.0491917
0.0491905
0.0491893
0.0491881
0.0491869
0.0491857
0.0491846
0.0491835
0.0491826
0.0491819
0.0491816
0.049182
0.0491836
0.0491864
0.0491892
0.0491916
0.0491933
0.049195
0.0491969
0.0491999
0.0492041
0.0492091
0.0492139
0.0492181
0.0492216
0.0492252
0.0492293
0.0492337
0.0492378
0.0492415
0.0492449
0.049248
0.0492508
0.0492473
0.0491303
0.0490632
0.0491888
0.0492194
0.0492195
0.0492128
0.0492051
0.0491986
0.0491939
0.049191
0.0491895
0.0491885
0.0491877
0.0491873
0.0491879
0.0491899
0.0491931
0.0491968
0.0491999
0.0492022
0.0492038
0.0492044
0.0492044
0.049204
0.0492034
0.0492027
0.0492021
0.0492014
0.0492008
0.0492002
0.0491995
0.0491987
0.0491978
0.0491968
0.0491959
0.0491952
0.0491948
0.0491948
0.0491951
0.0491958
0.0491968
0.0491977
0.0491984
0.0491977
0.0491758
0.0491265
0.0490818
0.0490596
0.0490509
0.0490454
0.0490506
0.0490781
0.0491181
0.049152
0.0491721
0.0491825
0.0491703
0.0491361
0.0491103
0.0491257
0.0491809
0.0491991
0.049198
0.0491964
0.0491951
0.049194
0.0491928
0.0491915
0.0491902
0.0491888
0.0491874
0.0491859
0.0491845
0.0491831
0.0491818
0.0491807
0.0491796
0.0491788
0.0491784
0.0491797
0.0491828
0.049186
0.0491885
0.0491904
0.0491924
0.0491955
0.0492003
0.0492063
0.0492124
0.0492176
0.0492216
0.049225
0.0492287
0.0492329
0.0492372
0.0492416
0.0492459
0.04925
0.0492536
0.0492496
0.0491178
0.0490351
0.0491785
0.0492114
0.0492118
0.0492054
0.0491982
0.0491921
0.0491878
0.0491852
0.0491834
0.0491816
0.0491793
0.0491775
0.0491774
0.0491795
0.0491836
0.0491885
0.0491927
0.0491958
0.0491975
0.0491981
0.049198
0.0491975
0.049197
0.0491965
0.0491963
0.0491962
0.0491963
0.0491964
0.0491964
0.0491962
0.0491957
0.049195
0.0491942
0.0491935
0.049193
0.0491929
0.0491933
0.0491942
0.0491955
0.0491971
0.0491987
0.0491994
0.049184
0.0491322
0.0490816
0.0490539
0.0490438
0.0490429
0.0490588
0.0490953
0.0491358
0.0491637
0.0491762
0.0491767
0.0491565
0.0491251
0.0491132
0.0491405
0.0491871
0.0491987
0.0491982
0.0491974
0.0491966
0.0491955
0.0491942
0.0491927
0.049191
0.0491892
0.0491873
0.0491855
0.0491838
0.0491821
0.0491806
0.0491793
0.049178
0.0491767
0.0491753
0.0491739
0.0491751
0.049178
0.0491815
0.0491846
0.049187
0.04919
0.0491954
0.0492025
0.04921
0.0492165
0.0492214
0.0492251
0.0492288
0.0492329
0.0492374
0.0492422
0.0492473
0.0492522
0.0492566
0.0492521
0.0491057
0.0490082
0.0491684
0.0492035
0.0492041
0.0491981
0.0491914
0.049186
0.0491822
0.0491798
0.0491777
0.0491746
0.0491704
0.049167
0.0491663
0.049169
0.0491744
0.0491811
0.0491869
0.0491907
0.0491925
0.0491928
0.0491923
0.0491915
0.0491907
0.0491903
0.0491903
0.0491908
0.0491915
0.0491924
0.0491932
0.0491937
0.0491938
0.0491935
0.0491929
0.0491922
0.0491916
0.0491915
0.0491919
0.049193
0.0491947
0.049197
0.0491995
0.0492017
0.0491972
0.049144
0.0490844
0.0490502
0.0490405
0.0490496
0.0490811
0.0491253
0.0491604
0.0491759
0.0491751
0.0491672
0.0491423
0.0491188
0.0491207
0.0491544
0.0491908
0.0491984
0.0491988
0.0491987
0.0491981
0.0491968
0.0491951
0.0491932
0.0491909
0.0491885
0.0491861
0.0491838
0.0491816
0.0491796
0.0491779
0.0491764
0.0491752
0.049174
0.0491727
0.0491705
0.0491695
0.0491707
0.0491734
0.0491764
0.0491794
0.0491838
0.0491894
0.0491976
0.0492066
0.0492147
0.0492209
0.0492252
0.0492291
0.0492333
0.049238
0.0492434
0.0492491
0.0492547
0.0492598
0.0492547
0.049094
0.0489826
0.0491588
0.0491958
0.0491968
0.0491913
0.0491852
0.0491803
0.0491771
0.0491749
0.0491723
0.0491674
0.0491608
0.0491557
0.0491548
0.0491586
0.0491661
0.0491751
0.0491829
0.0491874
0.0491892
0.0491891
0.0491879
0.0491864
0.0491852
0.0491845
0.0491845
0.0491853
0.0491867
0.0491883
0.04919
0.0491914
0.0491922
0.0491924
0.049192
0.0491913
0.0491907
0.0491904
0.0491909
0.0491921
0.0491943
0.0491972
0.0492008
0.0492045
0.0492054
0.0491581
0.0490882
0.0490477
0.0490463
0.0490747
0.0491221
0.0491642
0.0491842
0.0491775
0.0491676
0.0491534
0.0491298
0.0491166
0.0491299
0.0491652
0.0491922
0.0491981
0.0491995
0.0491999
0.0491991
0.0491974
0.0491951
0.0491924
0.0491894
0.0491862
0.0491831
0.0491801
0.0491774
0.0491751
0.0491731
0.0491716
0.0491704
0.0491695
0.0491688
0.0491673
0.0491656
0.0491652
0.0491665
0.049169
0.0491718
0.0491752
0.0491827
0.0491918
0.0492023
0.0492122
0.0492198
0.0492252
0.0492294
0.0492339
0.049239
0.0492448
0.0492511
0.0492574
0.0492632
0.0492575
0.0490826
0.0489581
0.0491498
0.0491887
0.0491901
0.0491851
0.0491795
0.0491753
0.0491726
0.0491706
0.0491671
0.0491597
0.0491503
0.0491439
0.0491433
0.0491489
0.0491591
0.0491708
0.0491809
0.0491863
0.0491881
0.0491874
0.0491854
0.0491829
0.0491807
0.0491794
0.0491792
0.0491801
0.0491819
0.0491843
0.0491869
0.0491892
0.0491909
0.0491917
0.0491917
0.0491911
0.0491903
0.0491899
0.0491902
0.0491916
0.049194
0.0491977
0.0492023
0.0492077
0.0492115
0.0491709
0.0490882
0.0490527
0.0490802
0.0491322
0.0491796
0.0492029
0.0491891
0.0491616
0.0491537
0.0491375
0.0491193
0.0491166
0.0491382
0.0491715
0.0491917
0.0491973
0.0491997
0.0492003
0.049199
0.0491967
0.0491936
0.04919
0.0491861
0.049182
0.0491781
0.0491745
0.0491713
0.0491686
0.0491665
0.0491649
0.0491639
0.0491633
0.0491631
0.049163
0.0491622
0.049161
0.0491613
0.0491629
0.0491655
0.0491685
0.0491744
0.0491851
0.0491972
0.049209
0.0492183
0.0492248
0.0492297
0.0492345
0.04924
0.0492463
0.0492532
0.0492603
0.0492667
0.0492605
0.0490717
0.0489348
0.0491415
0.0491824
0.0491842
0.0491796
0.0491746
0.0491709
0.0491687
0.0491668
0.049162
0.0491513
0.049139
0.0491318
0.0491323
0.0491402
0.0491535
0.0491681
0.0491807
0.0491872
0.0491891
0.0491879
0.0491848
0.0491811
0.0491777
0.0491755
0.0491747
0.0491754
0.0491775
0.0491806
0.049184
0.0491874
0.04919
0.0491916
0.049192
0.0491914
0.0491905
0.0491898
0.0491899
0.0491912
0.0491939
0.0491982
0.0492039
0.0492109
0.049217
0.0491815
0.0490843
0.0491027
0.0491646
0.0492091
0.0492241
0.0492002
0.0491585
0.0491408
0.0491348
0.049121
0.0491102
0.0491169
0.0491434
0.0491732
0.0491893
0.0491956
0.0491989
0.0491995
0.0491977
0.0491945
0.0491904
0.0491858
0.0491808
0.0491759
0.0491713
0.0491672
0.0491637
0.0491609
0.0491587
0.0491572
0.0491564
0.0491562
0.0491566
0.0491575
0.0491581
0.0491574
0.0491571
0.049158
0.0491602
0.0491631
0.0491677
0.0491777
0.0491916
0.0492051
0.0492161
0.0492239
0.0492298
0.0492351
0.0492409
0.0492478
0.0492554
0.0492632
0.0492704
0.0492638
0.0490612
0.0489126
0.049134
0.0491769
0.0491792
0.049175
0.0491705
0.0491673
0.0491655
0.0491634
0.0491565
0.0491417
0.0491268
0.0491196
0.049122
0.0491329
0.0491493
0.0491669
0.049182
0.0491899
0.0491921
0.0491904
0.0491862
0.0491811
0.0491764
0.0491729
0.0491712
0.0491715
0.0491737
0.0491772
0.0491815
0.0491858
0.0491895
0.0491919
0.0491928
0.0491924
0.0491912
0.0491902
0.0491899
0.049191
0.0491937
0.0491985
0.0492052
0.0492137
0.0492216
0.04919
0.049088
0.049209
0.0492438
0.0492395
0.0492032
0.0491547
0.0491243
0.0491186
0.0491147
0.049105
0.0491015
0.0491156
0.0491441
0.0491705
0.0491849
0.0491927
0.0491971
0.0491975
0.0491949
0.0491908
0.0491855
0.0491797
0.0491738
0.0491682
0.0491632
0.0491589
0.0491554
0.0491526
0.0491506
0.0491493
0.0491487
0.049149
0.0491499
0.0491514
0.0491531
0.0491536
0.0491534
0.049154
0.0491557
0.0491586
0.0491631
0.0491715
0.0491858
0.0492009
0.0492135
0.0492227
0.0492294
0.0492353
0.0492417
0.0492492
0.0492576
0.0492662
0.0492741
0.0492673
0.049051
0.0488914
0.0491273
0.0491722
0.049175
0.0491713
0.0491672
0.0491644
0.0491629
0.0491602
0.0491502
0.0491307
0.049114
0.0491079
0.049113
0.0491271
0.0491466
0.0491668
0.0491842
0.0491938
0.0491966
0.0491945
0.0491894
0.0491829
0.0491767
0.0491718
0.049169
0.0491687
0.0491706
0.0491745
0.0491795
0.0491848
0.0491895
0.0491928
0.0491942
0.0491939
0.0491926
0.049191
0.0491902
0.0491909
0.0491935
0.0491985
0.0492058
0.0492152
0.0492238
0.0491941
0.0490811
0.04927
0.0492452
0.049203
0.0491488
0.0491101
0.0490967
0.049097
0.0490951
0.0490896
0.0490923
0.0491112
0.0491399
0.0491638
0.0491785
0.0491886
0.0491943
0.0491944
0.0491909
0.0491855
0.0491791
0.0491722
0.0491656
0.0491596
0.0491546
0.0491505
0.0491473
0.0491448
0.049143
0.049142
0.0491417
0.0491423
0.0491437
0.0491457
0.0491478
0.0491495
0.0491499
0.0491504
0.049152
0.0491548
0.0491594
0.0491679
0.0491814
0.0491969
0.0492107
0.049221
0.0492287
0.0492353
0.0492423
0.0492505
0.0492598
0.0492693
0.049278
0.0492711
0.0490412
0.0488712
0.0491212
0.0491682
0.0491716
0.0491683
0.0491646
0.0491622
0.0491608
0.049157
0.0491422
0.0491181
0.0491009
0.0490971
0.0491055
0.0491228
0.0491451
0.0491675
0.0491868
0.0491985
0.0492021
0.0491999
0.0491939
0.0491862
0.0491785
0.0491722
0.0491682
0.049167
0.0491687
0.0491727
0.0491783
0.0491845
0.0491901
0.0491942
0.0491963
0.0491961
0.0491944
0.0491923
0.0491908
0.0491909
0.0491933
0.0491982
0.0492059
0.0492157
0.049223
0.0491917
0.0490655
0.0492539
0.0492094
0.0491484
0.0491045
0.0490793
0.0490736
0.0490765
0.0490764
0.0490745
0.0490817
0.0491032
0.049131
0.0491537
0.0491705
0.0491839
0.0491911
0.0491905
0.0491858
0.0491791
0.0491714
0.0491637
0.0491567
0.0491509
0.0491463
0.0491429
0.0491403
0.0491383
0.0491368
0.0491359
0.0491358
0.0491367
0.0491385
0.0491407
0.0491431
0.0491452
0.0491464
0.0491472
0.0491488
0.0491517
0.0491566
0.0491658
0.0491796
0.0491945
0.0492082
0.0492192
0.0492277
0.049235
0.0492427
0.0492517
0.0492619
0.0492725
0.0492819
0.0492752
0.0490317
0.0488517
0.0491157
0.0491649
0.0491688
0.0491659
0.0491626
0.0491605
0.0491589
0.049153
0.049132
0.0491041
0.0490881
0.0490876
0.0490995
0.0491198
0.0491444
0.0491686
0.0491895
0.0492034
0.0492082
0.0492061
0.0491995
0.0491907
0.0491816
0.0491739
0.0491688
0.0491667
0.0491679
0.049172
0.049178
0.049185
0.0491915
0.0491965
0.049199
0.0491989
0.0491968
0.049194
0.0491917
0.0491911
0.0491931
0.049198
0.049206
0.049216
0.0492193
0.0491801
0.0490493
0.0492345
0.0491728
0.049116
0.0490767
0.0490562
0.0490532
0.0490572
0.0490585
0.0490593
0.0490693
0.0490915
0.0491179
0.0491409
0.0491616
0.0491795
0.049188
0.0491862
0.04918
0.0491717
0.049163
0.0491548
0.0491481
0.0491429
0.0491394
0.0491369
0.0491351
0.0491335
0.0491322
0.0491313
0.0491312
0.0491323
0.0491343
0.0491369
0.0491393
0.0491414
0.049143
0.0491442
0.049146
0.0491491
0.0491548
0.0491656
0.0491799
0.0491942
0.0492071
0.0492179
0.0492267
0.0492345
0.0492428
0.0492527
0.0492641
0.0492757
0.0492859
0.0492794
0.0490225
0.0488328
0.0491107
0.049162
0.0491665
0.0491639
0.0491609
0.0491589
0.0491569
0.0491474
0.0491188
0.0490892
0.0490761
0.0490796
0.0490949
0.0491178
0.0491442
0.0491699
0.049192
0.0492081
0.0492143
0.0492127
0.0492057
0.0491959
0.0491857
0.0491769
0.0491706
0.0491678
0.0491686
0.0491726
0.0491791
0.0491866
0.0491939
0.0491995
0.0492024
0.0492023
0.0491998
0.0491962
0.0491929
0.0491916
0.0491931
0.0491981
0.0492066
0.0492168
0.0492102
0.0491518
0.0490384
0.0492192
0.0491532
0.0490967
0.049057
0.0490371
0.0490344
0.0490386
0.049041
0.0490437
0.049055
0.0490765
0.0491016
0.0491264
0.049153
0.0491764
0.0491852
0.0491817
0.0491736
0.0491639
0.0491544
0.0491464
0.0491404
0.0491366
0.0491344
0.0491331
0.0491321
0.0491308
0.0491294
0.0491283
0.0491281
0.0491291
0.0491314
0.0491343
0.0491368
0.0491387
0.0491401
0.0491416
0.0491437
0.0491472
0.0491545
0.0491684
0.0491829
0.049196
0.0492076
0.0492175
0.049226
0.049234
0.049243
0.0492538
0.0492663
0.049279
0.0492899
0.0492838
0.0490135
0.0488144
0.0491059
0.0491594
0.0491644
0.0491621
0.0491593
0.0491573
0.049154
0.0491387
0.0491028
0.0490739
0.0490653
0.049073
0.0490913
0.0491163
0.0491441
0.049171
0.0491944
0.049212
0.0492203
0.0492194
0.0492122
0.0492018
0.0491907
0.0491808
0.0491737
0.0491703
0.0491708
0.0491749
0.0491816
0.0491897
0.0491975
0.0492036
0.0492067
0.0492064
0.0492033
0.0491987
0.0491944
0.0491923
0.0491936
0.0491989
0.0492084
0.0492166
0.0491877
0.049116
0.049037
0.0492107
0.0491428
0.0490835
0.0490416
0.0490205
0.0490167
0.0490204
0.0490236
0.0490277
0.0490392
0.0490593
0.0490835
0.0491117
0.0491463
0.0491757
0.049183
0.0491772
0.0491671
0.0491561
0.0491463
0.0491389
0.0491344
0.0491324
0.0491319
0.049132
0.0491316
0.0491305
0.0491288
0.0491271
0.0491264
0.0491272
0.0491297
0.0491329
0.0491357
0.0491375
0.0491385
0.0491397
0.0491421
0.0491462
0.0491592
0.0491756
0.049189
0.0492003
0.0492099
0.0492183
0.0492259
0.0492337
0.0492431
0.0492549
0.0492688
0.0492825
0.049294
0.0492882
0.0490048
0.0487963
0.0491013
0.049157
0.0491624
0.0491602
0.0491575
0.0491552
0.0491494
0.0491259
0.0490847
0.0490593
0.0490559
0.0490675
0.0490883
0.0491148
0.0491436
0.0491717
0.0491963
0.0492153
0.0492257
0.049226
0.049219
0.0492081
0.0491963
0.0491857
0.049178
0.0491742
0.0491746
0.0491788
0.0491859
0.0491944
0.0492026
0.0492088
0.0492119
0.0492112
0.0492074
0.0492017
0.0491963
0.0491933
0.0491945
0.0492006
0.049212
0.0492084
0.0491505
0.0490898
0.0490471
0.0492061
0.0491366
0.0490742
0.0490294
0.0490059
0.049
0.0490028
0.0490065
0.0490115
0.0490227
0.0490412
0.0490652
0.0490987
0.0491433
0.0491776
0.0491815
0.0491728
0.0491607
0.0491487
0.0491391
0.0491331
0.0491307
0.0491308
0.0491323
0.0491336
0.0491339
0.0491327
0.0491304
0.0491279
0.0491262
0.0491264
0.0491288
0.0491326
0.0491361
0.0491381
0.0491388
0.0491395
0.0491419
0.0491468
0.0491719
0.0491871
0.0491981
0.0492067
0.0492138
0.0492201
0.0492264
0.0492337
0.0492435
0.0492564
0.0492716
0.0492863
0.0492982
0.0492926
0.0489961
0.0487783
0.0490967
0.0491545
0.0491602
0.0491581
0.0491553
0.0491522
0.0491421
0.0491088
0.0490657
0.0490459
0.0490479
0.0490625
0.0490851
0.0491126
0.0491423
0.0491715
0.0491976
0.049218
0.0492303
0.0492323
0.0492259
0.0492149
0.0492026
0.0491915
0.0491836
0.0491797
0.0491802
0.0491847
0.0491922
0.0492009
0.0492092
0.0492153
0.049218
0.0492167
0.049212
0.049205
0.0491984
0.0491946
0.0491959
0.0492034
0.0492162
0.0491829
0.0491201
0.0490762
0.0490693
0.0492046
0.0491329
0.0490677
0.04902
0.0489934
0.0489847
0.0489859
0.0489898
0.0489955
0.0490063
0.0490237
0.0490488
0.0490897
0.0491456
0.0491811
0.0491803
0.0491685
0.0491544
0.049142
0.0491334
0.0491294
0.0491295
0.0491321
0.0491355
0.0491381
0.0491388
0.0491375
0.0491345
0.0491309
0.0491279
0.0491269
0.0491288
0.049133
0.0491376
0.0491406
0.0491418
0.0491427
0.0491462
0.0491585
0.0491888
0.0492012
0.0492089
0.0492142
0.0492186
0.0492227
0.0492274
0.0492341
0.0492442
0.0492583
0.0492751
0.0492904
0.0493024
0.0492968
0.0489876
0.0487604
0.049092
0.0491518
0.0491578
0.0491557
0.0491525
0.0491478
0.0491309
0.049088
0.0490471
0.049034
0.0490405
0.0490575
0.0490811
0.0491093
0.0491397
0.04917
0.0491978
0.0492201
0.0492341
0.0492382
0.0492329
0.0492222
0.0492097
0.0491984
0.0491904
0.0491868
0.0491878
0.0491928
0.0492006
0.0492095
0.0492176
0.0492232
0.0492251
0.0492229
0.049217
0.0492086
0.0492006
0.0491962
0.0491977
0.0492071
0.0492122
0.0491565
0.0491005
0.0490763
0.0491032
0.0492033
0.0491308
0.0490641
0.0490138
0.0489837
0.0489717
0.0489708
0.0489743
0.0489803
0.0489911
0.0490083
0.0490366
0.0490875
0.0491543
0.0491851
0.049179
0.0491641
0.0491485
0.0491362
0.0491293
0.0491279
0.0491309
0.0491361
0.0491414
0.0491452
0.0491465
0.049145
0.0491413
0.0491364
0.0491317
0.049129
0.0491295
0.0491335
0.0491394
0.0491445
0.0491475
0.04915
0.0491567
0.0491812
0.0492057
0.0492152
0.0492196
0.0492218
0.0492234
0.0492254
0.0492288
0.0492349
0.0492454
0.0492612
0.0492794
0.049295
0.0493067
0.0493009
0.0489792
0.0487425
0.0490871
0.0491489
0.0491551
0.0491527
0.0491489
0.0491414
0.0491152
0.0490646
0.0490299
0.0490235
0.0490334
0.0490517
0.0490759
0.0491044
0.0491354
0.049167
0.0491967
0.0492213
0.0492374
0.0492434
0.04924
0.0492302
0.0492178
0.0492065
0.0491988
0.0491958
0.0491975
0.0492032
0.0492113
0.0492201
0.0492276
0.0492323
0.0492332
0.0492297
0.0492223
0.0492123
0.049203
0.0491978
0.0491999
0.0492111
0.0492002
0.0491376
0.0490914
0.0490896
0.0491438
0.049202
0.0491305
0.0490637
0.0490113
0.0489779
0.0489622
0.0489586
0.0489612
0.0489674
0.0489787
0.0489976
0.0490318
0.0490948
0.0491675
0.0491887
0.0491771
0.0491593
0.049143
0.0491317
0.0491271
0.0491287
0.0491347
0.0491425
0.0491498
0.0491548
0.0491566
0.0491551
0.0491508
0.0491447
0.0491383
0.0491332
0.0491313
0.0491338
0.0491402
0.0491477
0.0491538
0.0491587
0.0491673
0.0492028
0.0492207
0.0492271
0.0492284
0.0492279
0.0492274
0.0492278
0.0492301
0.0492359
0.0492476
0.0492656
0.049285
0.0493
0.049311
0.0493048
0.0489707
0.0487245
0.0490819
0.0491456
0.0491519
0.0491491
0.0491442
0.0491322
0.0490956
0.0490418
0.0490145
0.0490137
0.0490258
0.0490445
0.0490687
0.0490973
0.049129
0.049162
0.0491941
0.0492214
0.0492401
0.0492482
0.0492469
0.0492388
0.0492272
0.0492162
0.049209
0.0492069
0.0492096
0.049216
0.0492243
0.0492327
0.0492393
0.0492426
0.0492419
0.049237
0.0492278
0.0492161
0.0492053
0.0491994
0.0492021
0.0492127
0.049189
0.0491259
0.0490918
0.049113
0.0491818
0.0492015
0.0491327
0.0490671
0.0490137
0.0489773
0.0489578
0.0489512
0.0489524
0.0489589
0.0489716
0.0489944
0.0490375
0.0491122
0.0491814
0.0491911
0.0491752
0.0491553
0.0491387
0.0491288
0.0491267
0.0491315
0.0491406
0.0491509
0.04916
0.0491662
0.0491687
0.0491675
0.049163
0.049156
0.0491479
0.0491402
0.049135
0.0491342
0.0491391
0.049148
0.0491575
0.0491657
0.0491759
0.0492152
0.049231
0.0492355
0.0492344
0.049232
0.0492301
0.0492294
0.0492312
0.0492376
0.0492514
0.0492719
0.0492916
0.0493053
0.0493153
0.0493085
0.0489622
0.0487064
0.0490765
0.049142
0.0491482
0.0491448
0.0491382
0.0491198
0.0490735
0.0490208
0.0490007
0.0490041
0.0490172
0.0490357
0.0490594
0.0490877
0.0491199
0.0491547
0.0491894
0.04922
0.049242
0.0492529
0.0492537
0.0492477
0.049238
0.0492278
0.0492213
0.0492202
0.0492241
0.0492311
0.0492394
0.049247
0.0492522
0.0492538
0.0492512
0.0492445
0.0492333
0.0492197
0.0492074
0.0492007
0.0492044
0.0492123
0.0491812
0.0491205
0.0490996
0.0491412
0.0492107
0.0492032
0.0491386
0.0490754
0.049022
0.0489833
0.0489604
0.0489508
0.0489506
0.0489576
0.0489731
0.0490021
0.0490555
0.0491369
0.0491931
0.0491924
0.0491729
0.0491518
0.0491357
0.0491277
0.0491283
0.0491359
0.0491479
0.0491606
0.0491714
0.0491789
0.0491823
0.0491817
0.0491773
0.04917
0.0491606
0.0491506
0.0491417
0.0491362
0.0491368
0.0491444
0.0491563
0.0491686
0.0491838
0.0492186
0.0492366
0.0492405
0.0492377
0.049234
0.0492313
0.0492302
0.0492322
0.0492402
0.0492571
0.0492805
0.0492989
0.0493106
0.0493195
0.049312
0.0489536
0.0486882
0.0490709
0.0491379
0.0491439
0.0491398
0.0491304
0.0491044
0.0490505
0.0490017
0.048988
0.0489942
0.0490072
0.0490248
0.0490475
0.0490754
0.0491081
0.0491446
0.0491823
0.0492168
0.0492429
0.0492572
0.0492607
0.0492569
0.0492495
0.0492412
0.0492356
0.0492357
0.0492406
0.0492481
0.049256
0.0492625
0.0492659
0.0492655
0.0492607
0.0492518
0.0492386
0.0492231
0.0492093
0.0492018
0.0492062
0.0492115
0.0491772
0.0491202
0.0491117
0.0491693
0.0492308
0.0492084
0.0491487
0.0490891
0.0490368
0.048997
0.0489716
0.0489596
0.0489583
0.0489666
0.0489861
0.0490225
0.0490847
0.0491632
0.0492013
0.0491924
0.0491703
0.0491485
0.0491333
0.0491274
0.0491309
0.0491413
0.0491559
0.0491707
0.0491833
0.0491921
0.0491966
0.0491969
0.0491931
0.0491859
0.0491759
0.0491642
0.049152
0.0491414
0.0491357
0.0491384
0.0491499
0.049166
0.0491872
0.0492175
0.0492387
0.049243
0.0492388
0.0492345
0.0492317
0.0492307
0.0492336
0.0492451
0.049265
0.0492898
0.0493058
0.0493155
0.0493234
0.0493152
0.048945
0.0486699
0.0490649
0.0491336
0.0491392
0.0491339
0.0491208
0.0490866
0.0490279
0.0489844
0.0489761
0.0489836
0.0489958
0.0490119
0.0490331
0.04906
0.049093
0.0491313
0.0491723
0.0492114
0.0492423
0.049261
0.0492677
0.0492666
0.0492616
0.0492556
0.0492516
0.0492526
0.0492586
0.0492663
0.0492734
0.0492784
0.0492798
0.0492771
0.04927
0.0492588
0.0492434
0.0492261
0.0492108
0.0492025
0.0492073
0.0492112
0.0491767
0.0491235
0.0491252
0.0491938
0.0492457
0.0492175
0.0491634
0.0491084
0.0490585
0.0490189
0.0489923
0.0489788
0.0489774
0.0489877
0.0490119
0.049055
0.0491203
0.0491859
0.0492063
0.0491913
0.0491674
0.0491455
0.0491314
0.0491277
0.0491339
0.049147
0.0491638
0.0491805
0.0491947
0.049205
0.0492109
0.0492123
0.0492095
0.0492028
0.0491927
0.0491801
0.0491656
0.0491507
0.0491382
0.0491332
0.0491405
0.0491591
0.0491844
0.0492133
0.0492385
0.0492442
0.0492389
0.0492347
0.0492325
0.0492321
0.0492396
0.0492529
0.0492728
0.0492965
0.0493115
0.0493199
0.049327
0.0493182
0.0489362
0.0486516
0.0490588
0.0491289
0.0491341
0.0491271
0.0491095
0.0490672
0.0490062
0.0489686
0.0489644
0.0489724
0.0489831
0.0489971
0.0490162
0.0490418
0.0490746
0.0491144
0.049159
0.0492031
0.0492398
0.0492637
0.0492744
0.0492763
0.0492741
0.0492705
0.0492683
0.0492702
0.0492768
0.0492843
0.0492904
0.0492938
0.0492932
0.049288
0.0492785
0.0492649
0.0492474
0.0492285
0.0492118
0.049203
0.049208
0.0492117
0.0491794
0.0491293
0.0491373
0.0492132
0.0492582
0.0492299
0.0491822
0.0491326
0.0490864
0.0490485
0.0490221
0.0490085
0.0490079
0.0490206
0.0490488
0.049095
0.0491555
0.0492027
0.0492087
0.0491897
0.0491647
0.0491429
0.04913
0.0491283
0.049137
0.0491526
0.0491707
0.0491891
0.0492049
0.0492167
0.0492243
0.0492273
0.0492257
0.0492198
0.0492101
0.0491971
0.0491812
0.0491632
0.049145
0.0491316
0.0491313
0.0491504
0.0491765
0.0492064
0.0492363
0.0492449
0.0492391
0.0492358
0.0492356
0.0492389
0.0492469
0.0492611
0.0492808
0.0493015
0.0493158
0.0493235
0.0493303
0.0493209
0.0489274
0.0486332
0.0490526
0.0491241
0.0491286
0.0491197
0.0490968
0.0490471
0.0489859
0.048954
0.048953
0.0489606
0.0489694
0.0489808
0.0489974
0.0490209
0.0490529
0.0490939
0.0491418
0.0491914
0.0492347
0.0492649
0.0492803
0.0492856
0.0492861
0.049285
0.0492847
0.0492874
0.0492938
0.049301
0.0493059
0.0493077
0.049305
0.0492976
0.0492858
0.0492698
0.0492505
0.0492302
0.0492125
0.0492035
0.0492085
0.0492132
0.0491846
0.0491366
0.0491462
0.0492272
0.0492698
0.0492448
0.0492039
0.0491605
0.0491191
0.0490842
0.0490594
0.0490468
0.0490475
0.0490622
0.049092
0.0491364
0.0491854
0.0492141
0.0492099
0.0491882
0.0491627
0.0491411
0.0491289
0.0491285
0.0491389
0.0491563
0.049176
0.0491958
0.0492131
0.0492268
0.0492362
0.0492411
0.0492411
0.0492363
0.0492272
0.0492142
0.0491977
0.0491777
0.0491553
0.0491345
0.0491252
0.049141
0.0491659
0.0491972
0.0492319
0.0492454
0.04924
0.0492387
0.049241
0.0492459
0.0492547
0.049269
0.0492881
0.0493062
0.049319
0.0493266
0.0493333
0.0493235
0.0489185
0.048615
0.0490465
0.0491193
0.049123
0.0491116
0.0490832
0.0490272
0.0489672
0.0489408
0.0489422
0.0489489
0.0489555
0.048964
0.0489773
0.048998
0.0490283
0.0490696
0.0491205
0.0491758
0.0492265
0.049264
0.049285
0.0492939
0.0492971
0.0492983
0.0492997
0.049303
0.0493087
0.0493151
0.0493188
0.0493191
0.0493147
0.0493052
0.0492914
0.0492732
0.0492525
0.0492313
0.049213
0.0492041
0.049209
0.0492153
0.049192
0.0491454
0.0491507
0.0492355
0.0492802
0.049261
0.0492274
0.0491906
0.0491547
0.0491237
0.0491014
0.0490904
0.0490922
0.0491074
0.0491359
0.0491736
0.0492083
0.0492217
0.0492109
0.0491878
0.0491619
0.0491401
0.049128
0.0491281
0.0491394
0.0491579
0.049179
0.0491999
0.0492187
0.0492343
0.0492462
0.0492534
0.0492553
0.0492518
0.0492433
0.0492306
0.0492138
0.0491928
0.0491676
0.049141
0.0491231
0.0491325
0.0491546
0.0491864
0.049225
0.0492452
0.0492417
0.0492423
0.049246
0.0492519
0.0492614
0.0492759
0.049294
0.0493104
0.0493218
0.0493293
0.049336
0.0493259
0.0489095
0.0485971
0.0490405
0.0491146
0.0491174
0.0491034
0.0490693
0.0490083
0.0489503
0.0489289
0.0489323
0.0489382
0.0489427
0.0489479
0.0489573
0.048974
0.0490014
0.0490417
0.0490948
0.0491556
0.0492145
0.0492605
0.0492881
0.0493009
0.0493067
0.0493099
0.0493126
0.0493162
0.049321
0.0493258
0.0493282
0.0493272
0.0493215
0.0493103
0.0492947
0.0492748
0.0492532
0.0492316
0.0492138
0.0492051
0.0492097
0.0492178
0.049201
0.0491562
0.0491507
0.0492373