/*--------------------------------*- C++ -*----------------------------------*\
| =========                 |                                                 |
| \\      /  F ield         | OpenFOAM: The Open Source CFD Toolbox           |
|  \\    /   O peration     | Version:  4.1                                   |
|   \\  /    A nd           | Web:      www.OpenFOAM.org                      |
|    \\/     M anipulation  |                                                 |
\*---------------------------------------------------------------------------*/
FoamFile
{
    version     2.0;
    format      ascii;
    class       surfaceScalarField;
    location    "780";
    object      phi;
}
// * * * * * * * * * * * * * * * * * * * * * * * * * * * * * * * * * * * * * //

dimensions      [0 3 -1 0 0 0 0];

internalField   nonuniform List<scalar> 
9850
(
-4.36043e-06
4.36043e-06
-6.53939e-06
2.17896e-06
-7.72767e-06
1.18828e-06
-8.48072e-06
7.53051e-07
-8.99056e-06
5.09837e-07
-9.32006e-06
3.29501e-07
-9.48397e-06
1.63908e-07
-9.48099e-06
-2.97953e-09
-9.30352e-06
-1.77476e-07
-8.94573e-06
-3.57785e-07
-8.41761e-06
-5.2812e-07
-7.74445e-06
-6.7316e-07
-6.95882e-06
-7.85632e-07
-6.09304e-06
-8.65774e-07
-5.17513e-06
-9.17914e-07
-4.22861e-06
-9.46517e-07
-3.27427e-06
-9.54342e-07
-2.33092e-06
-9.4335e-07
-1.4137e-06
-9.17217e-07
-5.28983e-07
-8.8472e-07
3.35306e-07
-8.64289e-07
1.18215e-06
-8.46847e-07
1.92763e-06
-7.45478e-07
2.3828e-06
-4.55167e-07
2.52895e-06
-1.46151e-07
2.86008e-06
-3.31127e-07
3.35404e-06
-4.93966e-07
3.90196e-06
-5.47916e-07
4.44345e-06
-5.4149e-07
4.94936e-06
-5.0591e-07
5.41039e-06
-4.61036e-07
5.82732e-06
-4.16928e-07
6.20383e-06
-3.76502e-07
6.54169e-06
-3.37867e-07
6.82055e-06
-2.78854e-07
6.96978e-06
-1.49231e-07
6.8686e-06
1.01175e-07
6.43884e-06
4.29766e-07
5.75821e-06
6.8063e-07
5.21031e-06
5.47894e-07
5.29901e-06
-8.87018e-08
5.98757e-06
-6.88561e-07
6.0975e-06
-1.09924e-07
3.37375e-06
2.72375e-06
-8.01842e-07
4.17559e-06
-3.4143e-06
2.61245e-06
-4.4815e-06
1.06721e-06
-5.13023e-06
6.4873e-07
-5.14026e-06
1.00228e-08
-4.35275e-06
-7.87506e-07
-2.5765e-06
-1.77625e-06
-3.27168e-07
-2.24933e-06
1.65811e-06
-1.98528e-06
3.22956e-06
-1.57144e-06
4.42883e-06
-1.19928e-06
5.30273e-06
-8.73892e-07
5.68689e-06
-3.8416e-07
4.80879e-06
8.78101e-07
1.27117e-06
3.53762e-06
-2.46602e-06
3.73719e-06
-3.19475e-06
7.28728e-07
-2.89614e-06
-2.98609e-07
-2.71417e-06
-1.81978e-07
-2.71254e-06
-1.62961e-09
-2.78954e-06
7.70023e-08
-2.85984e-06
7.03065e-08
-2.87711e-06
1.72646e-08
-2.83556e-06
-4.15475e-08
-2.73465e-06
-1.00915e-07
-2.59068e-06
-1.43962e-07
-2.42565e-06
-1.65031e-07
-2.25824e-06
-1.67418e-07
-2.09535e-06
-1.62889e-07
-1.92127e-06
-1.7408e-07
-1.6885e-06
-2.32766e-07
-1.31992e-06
-3.68579e-07
-7.69178e-07
-5.50744e-07
-2.1384e-07
-5.55338e-07
-4.53484e-07
2.39644e-07
-1.74583e-06
1.29234e-06
-2.73368e-06
9.87859e-07
-3.1787e-06
4.45011e-07
-3.08972e-06
-8.89796e-08
-2.61318e-06
-4.76539e-07
-1.78894e-06
-8.24233e-07
-8.37667e-07
-9.51278e-07
-9.82208e-08
-7.39446e-07
4.48927e-07
-5.47148e-07
9.30267e-07
-4.8134e-07
1.36757e-06
-4.37303e-07
1.71836e-06
-3.50792e-07
1.27702e-06
4.41343e-07
1.10201e-07
1.16682e-06
-1.55335e-06
1.66355e-06
-2.99971e-06
1.44637e-06
-2.69779e-06
-3.01924e-07
-8.25388e-07
-1.8724e-06
1.71616e-06
-2.54154e-06
3.30338e-06
-1.58722e-06
3.30338e-06
-3.69528e-06
8.05571e-06
-5.95413e-06
4.43781e-06
-7.33401e-06
2.56816e-06
-8.26005e-06
1.67909e-06
-8.90211e-06
1.1519e-06
-9.3193e-06
7.46693e-07
-9.52662e-06
3.71228e-07
-9.5263e-06
-3.29662e-09
-9.32675e-06
-3.77031e-07
-8.93857e-06
-7.45965e-07
-8.38076e-06
-1.08593e-06
-7.6855e-06
-1.36843e-06
-6.88876e-06
-1.58236e-06
-6.02234e-06
-1.7322e-06
-5.11092e-06
-1.82933e-06
-4.17449e-06
-1.88295e-06
-3.23211e-06
-1.89672e-06
-2.30354e-06
-1.87192e-06
-1.40754e-06
-1.81321e-06
-5.59358e-07
-1.73291e-06
2.29743e-07
-1.65339e-06
9.45281e-07
-1.56238e-06
1.59312e-06
-1.39332e-06
2.29207e-06
-1.15411e-06
3.08103e-06
-9.35115e-07
3.62794e-06
-8.78037e-07
4.03166e-06
-8.97686e-07
4.35245e-06
-8.68711e-07
4.60453e-06
-7.93566e-07
4.79222e-06
-6.936e-07
4.9157e-06
-5.84519e-07
4.97799e-06
-4.7921e-07
4.99079e-06
-3.89311e-07
4.97635e-06
-3.23427e-07
4.96757e-06
-2.70075e-07
4.99185e-06
-1.73506e-07
5.06077e-06
3.22535e-08
5.1809e-06
3.09638e-07
5.4278e-06
4.33731e-07
5.84171e-06
1.33987e-07
6.27388e-06
-5.20879e-07
6.68108e-06
-1.09576e-06
6.91171e-06
-3.4055e-07
6.30079e-06
3.33467e-06
4.03355e-06
6.44283e-06
2.98291e-07
6.34771e-06
-2.47237e-06
3.83787e-06
-3.72256e-06
1.89893e-06
-4.20593e-06
4.93388e-07
-3.92888e-06
-1.06455e-06
-2.7568e-06
-2.94833e-06
-9.74998e-07
-4.03113e-06
8.17881e-07
-3.77816e-06
2.20734e-06
-2.9609e-06
3.13486e-06
-2.1268e-06
3.65316e-06
-1.39219e-06
3.64129e-06
-3.72287e-07
2.08976e-06
2.42963e-06
-1.2537e-06
6.88107e-06
-3.17358e-06
5.65708e-06
-3.70728e-06
1.26242e-06
-3.94219e-06
-6.3695e-08
-4.07184e-06
-5.23316e-08
-4.08575e-06
1.22771e-08
-4.02448e-06
1.57344e-08
-3.90965e-06
-4.45227e-08
-3.75786e-06
-1.34523e-07
-3.57814e-06
-2.21276e-07
-3.38286e-06
-2.96188e-07
-3.17879e-06
-3.48035e-07
-2.97252e-06
-3.71302e-07
-2.77228e-06
-3.67655e-07
-2.58865e-06
-3.4652e-07
-2.43681e-06
-3.25918e-07
-2.33957e-06
-3.30003e-07
-2.33375e-06
-3.74406e-07
-2.47006e-06
-4.14427e-07
-2.76834e-06
-2.57062e-07
-2.88344e-06
3.5474e-07
-2.74374e-06
1.15264e-06
-2.72348e-06
9.67599e-07
-2.61562e-06
3.3715e-07
-2.42298e-06
-2.81616e-07
-2.23305e-06
-6.6647e-07
-2.0478e-06
-1.00948e-06
-1.82861e-06
-1.17046e-06
-1.53686e-06
-1.0312e-06
-1.31991e-06
-7.6409e-07
-1.21192e-06
-5.8933e-07
-1.08525e-06
-5.63972e-07
-8.65116e-07
-5.70931e-07
-6.58555e-07
2.34782e-07
-5.38366e-07
1.04663e-06
-2.86756e-07
1.41194e-06
4.27332e-07
7.32276e-07
1.33942e-06
-1.21401e-06
1.63821e-06
-2.17119e-06
1.88366e-06
-2.78699e-06
2.30458e-06
-2.00814e-06
5.60796e-06
-2.89056e-06
1.09463e-05
-4.79479e-06
6.34204e-06
-6.12454e-06
3.89792e-06
-7.13048e-06
2.68503e-06
-7.89072e-06
1.91214e-06
-8.42136e-06
1.27733e-06
-8.71899e-06
6.68861e-07
-8.77989e-06
5.75972e-08
-8.60792e-06
-5.48998e-07
-8.22514e-06
-1.12875e-06
-7.67054e-06
-1.64052e-06
-6.98834e-06
-2.05063e-06
-6.21943e-06
-2.35128e-06
-5.39315e-06
-2.55847e-06
-4.52708e-06
-2.69541e-06
-3.63423e-06
-2.7758e-06
-2.73083e-06
-2.80012e-06
-1.83867e-06
-2.76407e-06
-9.79123e-07
-2.67277e-06
-1.63555e-07
-2.54847e-06
5.92222e-07
-2.40917e-06
1.27233e-06
-2.24249e-06
1.89981e-06
-2.02079e-06
2.52826e-06
-1.78257e-06
3.16153e-06
-1.56839e-06
3.7072e-06
-1.4237e-06
4.13667e-06
-1.32716e-06
4.48697e-06
-1.21901e-06
4.77414e-06
-1.08073e-06
4.999e-06
-9.18466e-07
5.15688e-06
-7.42392e-07
5.24201e-06
-5.64342e-07
5.25083e-06
-3.98136e-07
5.18408e-06
-2.56674e-07
5.05823e-06
-1.44231e-07
4.93499e-06
-5.02614e-08
4.90783e-06
5.94145e-08
5.07662e-06
1.4085e-07
5.42967e-06
8.06803e-08
5.80761e-06
-2.43951e-07
6.08728e-06
-8.00555e-07
6.33337e-06
-1.34185e-06
6.72345e-06
-7.30629e-07
7.09208e-06
2.96603e-06
6.48106e-06
7.05386e-06
4.49501e-06
8.33376e-06
1.44495e-06
6.88793e-06
-9.48606e-07
4.29248e-06
-2.26802e-06
1.8128e-06
-2.44485e-06
-8.87727e-07
-1.83147e-06
-3.56171e-06
-6.28306e-07
-5.2343e-06
7.60783e-07
-5.16725e-06
1.8925e-06
-4.09262e-06
2.53332e-06
-2.76761e-06
2.61285e-06
-1.47172e-06
2.05451e-06
1.86049e-07
-3.4791e-07
4.83205e-06
-2.55526e-06
9.08843e-06
-3.13152e-06
6.23333e-06
-3.44196e-06
1.57287e-06
-3.93378e-06
4.2813e-07
-4.20745e-06
2.21333e-07
-4.29677e-06
1.01602e-07
-4.25869e-06
-2.23432e-08
-4.14137e-06
-1.61851e-07
-3.97238e-06
-3.03514e-07
-3.76497e-06
-4.28686e-07
-3.53513e-06
-5.26024e-07
-3.29579e-06
-5.87375e-07
-3.05864e-06
-6.08452e-07
-2.83706e-06
-5.89233e-07
-2.64908e-06
-5.34505e-07
-2.52025e-06
-4.54743e-07
-2.48451e-06
-3.65748e-07
-2.579e-06
-2.7991e-07
-2.81944e-06
-1.73995e-07
-3.10373e-06
2.72366e-08
-3.18044e-06
4.31442e-07
-2.84013e-06
8.12335e-07
-2.57197e-06
6.99442e-07
-2.49034e-06
2.55525e-07
-2.52085e-06
-2.51106e-07
-2.44064e-06
-7.46686e-07
-2.23963e-06
-1.21049e-06
-1.92294e-06
-1.48716e-06
-1.52788e-06
-1.42626e-06
-1.21669e-06
-1.07527e-06
-1.12735e-06
-6.78669e-07
-1.23879e-06
-4.52537e-07
-1.49463e-06
-3.15088e-07
-1.30647e-06
4.66247e-08
-6.93545e-07
4.33701e-07
2.60725e-07
4.57666e-07
1.26611e-06
-2.73105e-07
1.43175e-06
-1.37965e-06
1.54722e-06
-2.28666e-06
1.64808e-06
-2.88786e-06
1.55224e-06
-1.9123e-06
7.1602e-06
-2.35588e-06
1.33021e-05
-3.94735e-06
7.93351e-06
-5.18929e-06
5.13986e-06
-6.21956e-06
3.7153e-06
-7.03643e-06
2.72902e-06
-7.61774e-06
1.85863e-06
-7.94665e-06
9.97771e-07
-8.02005e-06
1.31e-07
-7.85061e-06
-7.1844e-07
-7.46976e-06
-1.5096e-06
-6.92437e-06
-2.18591e-06
-6.2675e-06
-2.70751e-06
-5.54267e-06
-3.0761e-06
-4.77223e-06
-3.32892e-06
-3.96154e-06
-3.50609e-06
-3.11384e-06
-3.6235e-06
-2.24312e-06
-3.67083e-06
-1.37639e-06
-3.63081e-06
-5.40821e-07
-3.50834e-06
2.44428e-07
-3.33372e-06
9.58531e-07
-3.12327e-06
1.59027e-06
-2.87424e-06
2.17556e-06
-2.60608e-06
2.73615e-06
-2.34316e-06
3.27399e-06
-2.10622e-06
3.76045e-06
-1.91017e-06
4.17819e-06
-1.74489e-06
4.54017e-06
-1.58098e-06
4.85759e-06
-1.39816e-06
5.13062e-06
-1.19149e-06
5.35253e-06
-9.64306e-07
5.51384e-06
-7.25653e-07
5.60601e-06
-4.90308e-07
5.6257e-06
-2.76359e-07
5.58098e-06
-9.95137e-08
5.50014e-06
3.05847e-08
5.45068e-06
1.08868e-07
5.48901e-06
1.02523e-07
5.61843e-06
-4.87377e-08
5.76548e-06
-3.91009e-07
5.88809e-06
-9.23161e-07
6.06556e-06
-1.51932e-06
6.59819e-06
-1.26325e-06
7.45021e-06
2.11402e-06
7.77441e-06
6.72965e-06
7.0363e-06
9.07187e-06
5.36938e-06
8.55484e-06
3.22828e-06
6.43358e-06
1.31837e-06
3.72272e-06
2.78324e-07
1.52315e-07
9.09046e-08
-3.37429e-06
4.93148e-07
-5.63654e-06
1.29168e-06
-5.96578e-06
2.02545e-06
-4.82639e-06
2.35816e-06
-3.10033e-06
2.09431e-06
-1.20788e-06
4.83599e-08
2.232e-06
-2.63698e-06
7.51739e-06
-3.45595e-06
9.90741e-06
-3.37924e-06
6.15662e-06
-3.65436e-06
1.84798e-06
-4.07292e-06
8.46687e-07
-4.31654e-06
4.64952e-07
-4.39422e-06
1.79287e-07
-4.34449e-06
-7.20728e-08
-4.20481e-06
-3.01529e-07
-4.00598e-06
-5.02344e-07
-3.76894e-06
-6.65732e-07
-3.50999e-06
-7.84968e-07
-3.24176e-06
-8.55604e-07
-2.97529e-06
-8.74921e-07
-2.72302e-06
-8.41504e-07
-2.50209e-06
-7.55434e-07
-2.33729e-06
-6.19546e-07
-2.26122e-06
-4.41819e-07
-2.30558e-06
-2.35547e-07
-2.47092e-06
-8.66082e-09
-2.69255e-06
2.48872e-07
-2.79322e-06
5.32114e-07
-2.69677e-06
7.15883e-07
-2.61412e-06
6.16793e-07
-2.62568e-06
2.67078e-07
-2.64935e-06
-2.27437e-07
-2.5945e-06
-8.01536e-07
-2.42729e-06
-1.3777e-06
-2.12033e-06
-1.79411e-06
-1.6741e-06
-1.87249e-06
-1.19456e-06
-1.55482e-06
-8.86693e-07
-9.86536e-07
-8.19345e-07
-5.19885e-07
-8.8079e-07
-2.53643e-07
-7.76059e-07
-5.8106e-08
-3.5789e-07
1.55314e-08
2.94465e-07
-1.94688e-07
8.12692e-07
-7.91333e-07
1.05553e-06
-1.62249e-06
1.23043e-06
-2.46156e-06
1.37454e-06
-3.03196e-06
1.25916e-06
-1.79692e-06
8.41936e-06
-1.98166e-06
1.52838e-05
-3.35512e-06
9.30698e-06
-4.50439e-06
6.28913e-06
-5.50397e-06
4.71487e-06
-6.31311e-06
3.53816e-06
-6.89131e-06
2.43683e-06
-7.21575e-06
1.32222e-06
-7.28354e-06
1.98791e-07
-7.11017e-06
-8.91814e-07
-6.73121e-06
-1.88856e-06
-6.20198e-06
-2.71514e-06
-5.58466e-06
-3.32482e-06
-4.9217e-06
-3.73906e-06
-4.2217e-06
-4.02893e-06
-3.4726e-06
-4.25519e-06
-2.66612e-06
-4.42999e-06
-1.81582e-06
-4.52113e-06
-9.57142e-07
-4.48948e-06
-1.27653e-07
-4.33783e-06
6.30759e-07
-4.09213e-06
1.3061e-06
-3.79861e-06
1.90589e-06
-3.47402e-06
2.44977e-06
-3.14997e-06
2.95141e-06
-2.84479e-06
3.4164e-06
-2.57121e-06
3.8404e-06
-2.33418e-06
4.2209e-06
-2.12539e-06
4.56528e-06
-1.92536e-06
4.88173e-06
-1.71461e-06
5.17148e-06
-1.48124e-06
5.42864e-06
-1.22146e-06
5.64259e-06
-9.39611e-07
5.80116e-06
-6.48875e-07
5.89503e-06
-3.70228e-07
5.92432e-06
-1.288e-07
5.90319e-06
5.17095e-08
5.86252e-06
1.49536e-07
5.82897e-06
1.36072e-07
5.81123e-06
-3.09953e-08
5.79803e-06
-3.77804e-07
5.78473e-06
-9.09867e-07
5.83733e-06
-1.57192e-06
6.35735e-06
-1.78327e-06
7.43711e-06
1.03425e-06
8.33903e-06
5.82773e-06
8.41402e-06
8.99689e-06
7.62267e-06
9.34619e-06
6.32956e-06
7.72669e-06
4.95965e-06
5.09262e-06
3.54727e-06
1.56469e-06
2.59546e-06
-2.42248e-06
2.24448e-06
-5.28557e-06
2.34024e-06
-6.06154e-06
2.50976e-06
-4.99591e-06
2.37437e-06
-2.96494e-06
8.04634e-07
3.61862e-07
-2.1973e-06
5.23393e-06
-3.95545e-06
9.27554e-06
-4.08293e-06
1.00349e-05
-3.71056e-06
5.78425e-06
-3.9676e-06
2.10502e-06
-4.26869e-06
1.14778e-06
-4.42064e-06
6.16897e-07
-4.43275e-06
1.91401e-07
-4.33317e-06
-1.71659e-07
-4.15556e-06
-4.79138e-07
-3.92734e-06
-7.30558e-07
-3.66803e-06
-9.25047e-07
-3.39092e-06
-1.06207e-06
-3.1049e-06
-1.14162e-06
-2.81672e-06
-1.16311e-06
-2.53363e-06
-1.12459e-06
-2.2665e-06
-1.02257e-06
-2.03332e-06
-8.52732e-07
-1.8629e-06
-6.12237e-07
-1.79298e-06
-3.05471e-07
-1.84809e-06
4.64497e-08
-2.0011e-06
4.01887e-07
-2.16106e-06
6.92074e-07
-2.26104e-06
8.15866e-07
-2.35539e-06
7.11136e-07
-2.46869e-06
3.80377e-07
-2.56333e-06
-1.32794e-07
-2.59976e-06
-7.65105e-07
-2.53276e-06
-1.4447e-06
-2.31592e-06
-2.01096e-06
-1.9217e-06
-2.2667e-06
-1.39198e-06
-2.08454e-06
-8.98748e-07
-1.47977e-06
-6.10509e-07
-8.08124e-07
-4.7667e-07
-3.87482e-07
-3.31009e-07
-2.03767e-07
-7.13779e-08
-2.441e-07
2.69532e-07
-5.35598e-07
5.78028e-07
-1.09983e-06
8.10221e-07
-1.85469e-06
1.005e-06
-2.65634e-06
1.15663e-06
-3.1836e-06
1.04519e-06
-1.68548e-06
9.46455e-06
-1.69743e-06
1.69812e-05
-2.91151e-06
1.05211e-05
-3.9713e-06
7.34892e-06
-4.91192e-06
5.6555e-06
-5.67974e-06
4.30597e-06
-6.22899e-06
2.98608e-06
-6.53364e-06
1.62687e-06
-6.58867e-06
2.53813e-07
-6.40909e-06
-1.07139e-06
-6.0351e-06
-2.26255e-06
-5.53255e-06
-3.21769e-06
-4.97254e-06
-3.88482e-06
-4.38984e-06
-4.32177e-06
-3.77164e-06
-4.64713e-06
-3.08521e-06
-4.94162e-06
-2.31143e-06
-5.20376e-06
-1.46636e-06
-5.3662e-06
-5.98288e-07
-5.35755e-06
2.29094e-07
-5.16521e-06
9.80188e-07
-4.84323e-06
1.64019e-06
-4.45861e-06
2.22096e-06
-4.05479e-06
2.73186e-06
-3.66087e-06
3.1841e-06
-3.29704e-06
3.5879e-06
-2.975e-06
3.95086e-06
-2.69714e-06
4.28068e-06
-2.45521e-06
4.58729e-06
-2.23197e-06
4.8796e-06
-2.00693e-06
5.16073e-06
-1.76237e-06
5.42645e-06
-1.48718e-06
5.66633e-06
-1.17949e-06
5.86631e-06
-8.48856e-07
6.01246e-06
-5.16377e-07
6.09577e-06
-2.12111e-07
6.11743e-06
3.00529e-08
6.0887e-06
1.78267e-07
6.02272e-06
2.02051e-07
5.92515e-06
6.65704e-08
5.80834e-06
-2.60993e-07
5.68652e-06
-7.88044e-07
5.60982e-06
-1.49523e-06
5.95147e-06
-2.12492e-06
7.05691e-06
-7.11817e-08
8.22931e-06
4.65532e-06
8.79471e-06
8.43149e-06
8.59715e-06
9.54375e-06
7.89838e-06
8.42547e-06
7.04096e-06
5.95004e-06
6.05331e-06
2.55234e-06
4.99882e-06
-1.36799e-06
4.15727e-06
-4.44401e-06
3.59351e-06
-5.49777e-06
3.09397e-06
-4.49638e-06
1.74882e-06
-1.61978e-06
-1.28917e-06
3.39985e-06
-3.85883e-06
7.80359e-06
-4.85869e-06
1.02754e-05
-4.51438e-06
9.69058e-06
-4.07128e-06
5.34114e-06
-4.281e-06
2.31475e-06
-4.45652e-06
1.3233e-06
-4.49697e-06
6.5734e-07
-4.42196e-06
1.1639e-07
-4.26063e-06
-3.32987e-07
-4.04472e-06
-6.95048e-07
-3.79503e-06
-9.80243e-07
-3.52546e-06
-1.19462e-06
-3.24396e-06
-1.34357e-06
-2.95432e-06
-1.43126e-06
-2.65816e-06
-1.45927e-06
-2.35684e-06
-1.4259e-06
-2.05336e-06
-1.32605e-06
-1.75451e-06
-1.15159e-06
-1.47446e-06
-8.92279e-07
-1.24166e-06
-5.38278e-07
-1.1052e-06
-9.00101e-08
-1.11724e-06
4.13925e-07
-1.28675e-06
8.6159e-07
-1.51472e-06
1.04383e-06
-1.76288e-06
9.59302e-07
-2.02075e-06
6.3824e-07
-2.24887e-06
9.53331e-08
-2.41728e-06
-5.967e-07
-2.4891e-06
-1.37288e-06
-2.4029e-06
-2.09716e-06
-2.11491e-06
-2.55469e-06
-1.63553e-06
-2.56391e-06
-1.06941e-06
-2.0459e-06
-6.17695e-07
-1.25984e-06
-3.35734e-07
-6.69443e-07
-1.33187e-07
-4.06313e-07
6.47936e-08
-4.42081e-07
2.79501e-07
-7.50306e-07
4.86943e-07
-1.30727e-06
6.77776e-07
-2.04552e-06
8.5513e-07
-2.83369e-06
9.90532e-07
-3.319e-06
8.83368e-07
-1.57831e-06
1.03479e-05
-1.47569e-06
1.84569e-05
-2.55994e-06
1.16053e-05
-3.5301e-06
8.31907e-06
-4.39858e-06
6.52398e-06
-5.11024e-06
5.01764e-06
-5.61941e-06
3.49525e-06
-5.89788e-06
1.90534e-06
-5.93769e-06
2.93622e-07
-5.75367e-06
-1.25541e-06
-5.39148e-06
-2.62474e-06
-4.93016e-06
-3.67901e-06
-4.4475e-06
-4.36748e-06
-3.96061e-06
-4.80865e-06
-3.42893e-06
-5.17881e-06
-2.79979e-06
-5.57076e-06
-2.04706e-06
-5.95649e-06
-1.19286e-06
-6.2204e-06
-3.01846e-07
-6.24857e-06
5.32694e-07
-5.99975e-06
1.2886e-06
-5.59913e-06
1.9537e-06
-5.12371e-06
2.52697e-06
-4.62807e-06
3.01446e-06
-4.14836e-06
3.42719e-06
-3.70977e-06
3.77899e-06
-3.32679e-06
4.08448e-06
-3.00263e-06
4.35859e-06
-2.72932e-06
4.616e-06
-2.48938e-06
4.86874e-06
-2.25966e-06
5.12283e-06
-2.01646e-06
5.37634e-06
-1.74069e-06
5.61964e-06
-1.42279e-06
5.83742e-06
-1.06664e-06
6.01219e-06
-6.91144e-07
6.12854e-06
-3.28463e-07
6.17738e-06
-1.87901e-08
6.15817e-06
1.97484e-07
6.07602e-06
2.84193e-07
5.93613e-06
2.06464e-07
5.7483e-06
-7.31638e-08
5.53748e-06
-5.7722e-07
5.34907e-06
-1.30682e-06
5.39557e-06
-2.17141e-06
6.35578e-06
-1.03139e-06
7.5692e-06
3.4419e-06
8.35528e-06
7.64541e-06
8.5184e-06
9.38064e-06
8.24412e-06
8.69975e-06
7.79221e-06
6.40195e-06
7.23301e-06
3.11154e-06
6.47605e-06
-6.1103e-07
5.54733e-06
-3.51529e-06
4.53894e-06
-4.48938e-06
3.13768e-06
-3.09512e-06
-4.22868e-08
1.56019e-06
-3.25002e-06
6.60758e-06
-5.00967e-06
9.56324e-06
-5.466e-06
1.07317e-05
-4.86185e-06
9.08642e-06
-4.45864e-06
4.93794e-06
-4.57634e-06
2.43244e-06
-4.61761e-06
1.36458e-06
-4.54159e-06
5.81321e-07
-4.37739e-06
-4.78126e-08
-4.16278e-06
-5.47598e-07
-3.91964e-06
-9.38191e-07
-3.66092e-06
-1.23896e-06
-3.39358e-06
-1.46197e-06
-3.11953e-06
-1.61762e-06
-2.83752e-06
-1.71327e-06
-2.54484e-06
-1.75195e-06
-2.23877e-06
-1.73197e-06
-1.91749e-06
-1.64733e-06
-1.58079e-06
-1.48829e-06
-1.23068e-06
-1.24239e-06
-8.73872e-07
-8.95084e-07
-5.34701e-07
-4.29181e-07
-2.91765e-07
1.70989e-07
-3.30472e-07
9.00297e-07
-5.50911e-07
1.26427e-06
-8.87888e-07
1.29628e-06
-1.28982e-06
1.04017e-06
-1.69497e-06
5.00482e-07
-2.03629e-06
-2.55376e-07
-2.26987e-06
-1.1393e-06
-2.33888e-06
-2.02815e-06
-2.18686e-06
-2.70671e-06
-1.80689e-06
-2.94388e-06
-1.26459e-06
-2.5882e-06
-7.33774e-07
-1.79065e-06
-3.51222e-07
-1.052e-06
-8.81805e-08
-6.69355e-07
1.10206e-07
-6.40468e-07
2.8336e-07
-9.23459e-07
4.46028e-07
-1.46994e-06
6.04441e-07
-2.20393e-06
7.55975e-07
-2.98523e-06
8.70351e-07
-3.43337e-06
7.68101e-07
-1.47606e-06
1.1116e-05
-1.29935e-06
1.97563e-05
-2.27038e-06
1.25763e-05
-3.14873e-06
9.19742e-06
-3.93781e-06
7.31306e-06
-4.58646e-06
5.66628e-06
-5.051e-06
3.95979e-06
-5.30168e-06
2.15602e-06
-5.32763e-06
3.19571e-07
-5.14371e-06
-1.43932e-06
-4.80337e-06
-2.96509e-06
-4.40114e-06
-4.08123e-06
-4.0152e-06
-4.75343e-06
-3.63266e-06
-5.19119e-06
-3.18306e-06
-5.62841e-06
-2.59956e-06
-6.15426e-06
-1.85561e-06
-6.70044e-06
-9.83799e-07
-7.09221e-06
-7.09693e-08
-7.1614e-06
7.85833e-07
-6.85655e-06
1.56025e-06
-6.37356e-06
2.23851e-06
-5.80196e-06
2.81293e-06
-5.20249e-06
3.28638e-06
-4.6218e-06
3.66962e-06
-4.09302e-06
3.97866e-06
-3.63583e-06
4.23246e-06
-3.25643e-06
4.45118e-06
-2.94804e-06
4.65434e-06
-2.69253e-06
4.85816e-06
-2.46348e-06
5.07251e-06
-2.23082e-06
5.29858e-06
-1.96676e-06
5.52827e-06
-1.65248e-06
5.74577e-06
-1.28414e-06
5.93086e-06
-8.76229e-07
6.06314e-06
-4.60743e-07
6.12627e-06
-8.19259e-08
6.11111e-06
2.12644e-07
6.01647e-06
3.78837e-07
5.84682e-06
3.76116e-07
5.60586e-06
1.67799e-07
5.31396e-06
-2.85327e-07
4.99884e-06
-9.91696e-07
4.72629e-06
-1.89887e-06
5.40093e-06
-1.70603e-06
6.50662e-06
2.33621e-06
7.30241e-06
6.84962e-06
7.63023e-06
9.05281e-06
7.68575e-06
8.64422e-06
7.65142e-06
6.43628e-06
7.54021e-06
3.22275e-06
7.1014e-06
-1.72212e-07
6.19869e-06
-2.61259e-06
4.80617e-06
-3.09686e-06
1.60267e-06
1.0838e-07
-2.27364e-06
5.4365e-06
-4.60348e-06
8.93742e-06
-5.8269e-06
1.07867e-05
-5.88893e-06
1.07938e-05
-5.19093e-06
8.38842e-06
-4.84975e-06
4.59676e-06
-4.84632e-06
2.42902e-06
-4.75209e-06
1.27034e-06
-4.56699e-06
3.9622e-07
-4.33021e-06
-2.84588e-07
-4.07949e-06
-7.9832e-07
-3.82438e-06
-1.1933e-06
-3.56969e-06
-1.49365e-06
-3.31509e-06
-1.71657e-06
-3.05648e-06
-1.87623e-06
-2.78796e-06
-1.98179e-06
-2.50344e-06
-2.03647e-06
-2.19776e-06
-2.03766e-06
-1.8674e-06
-1.97768e-06
-1.5105e-06
-1.84518e-06
-1.1262e-06
-1.62669e-06
-7.13299e-07
-1.30798e-06
-2.70522e-07
-8.71958e-07
1.62511e-07
-2.62045e-07
3.65605e-07
6.97204e-07
3.28269e-07
1.30161e-06
8.49882e-08
1.53956e-06
-3.36373e-07
1.46153e-06
-8.90738e-07
1.05485e-06
-1.46753e-06
3.21418e-07
-1.87066e-06
-7.36174e-07
-2.11237e-06
-1.78644e-06
-2.11602e-06
-2.70306e-06
-1.86014e-06
-3.19976e-06
-1.39237e-06
-3.05596e-06
-8.55734e-07
-2.32729e-06
-4.19294e-07
-1.48843e-06
-1.13867e-07
-9.74782e-07
1.05395e-07
-8.59729e-07
2.7552e-07
-1.09358e-06
4.22691e-07
-1.61711e-06
5.60098e-07
-2.34134e-06
6.8739e-07
-3.11252e-06
7.81032e-07
-3.52702e-06
6.82664e-07
-1.3777e-06
1.17987e-05
-1.15473e-06
2.0911e-05
-2.02325e-06
1.34449e-05
-2.80842e-06
9.98259e-06
-3.5141e-06
8.01874e-06
-4.09621e-06
6.24839e-06
-4.51428e-06
4.37786e-06
-4.7378e-06
2.37954e-06
-4.75334e-06
3.35116e-07
-4.57638e-06
-1.61628e-06
-4.27061e-06
-3.27087e-06
-3.94753e-06
-4.40431e-06
-3.67311e-06
-5.02784e-06
-3.39318e-06
-5.47113e-06
-3.01199e-06
-6.0096e-06
-2.45855e-06
-6.7077e-06
-1.71364e-06
-7.44535e-06
-8.2193e-07
-7.98393e-06
1.07706e-07
-8.09103e-06
9.89615e-07
-7.73846e-06
1.78921e-06
-7.17315e-06
2.48529e-06
-6.49804e-06
3.06717e-06
-5.78437e-06
3.53512e-06
-5.08976e-06
3.89882e-06
-4.45671e-06
4.17496e-06
-3.91198e-06
4.38496e-06
-3.46643e-06
4.55259e-06
-3.11568e-06
4.70154e-06
-2.84148e-06
4.85238e-06
-2.61432e-06
5.01929e-06
-2.39773e-06
5.20724e-06
-2.1547e-06
5.41057e-06
-1.85582e-06
5.61392e-06
-1.48749e-06
5.79526e-06
-1.05757e-06
5.93042e-06
-5.95903e-07
5.99765e-06
-1.49154e-07
5.98119e-06
2.29097e-07
5.87408e-06
4.8595e-07
5.67825e-06
5.71944e-07
5.40064e-06
4.45415e-07
5.0448e-06
7.05134e-08
4.6368e-06
-5.83699e-07
4.19803e-06
-1.46009e-06
4.42232e-06
-1.93032e-06
5.2489e-06
1.50962e-06
5.80816e-06
6.29037e-06
6.17086e-06
8.69011e-06
6.58152e-06
8.23356e-06
7.0522e-06
5.96561e-06
7.36899e-06
2.90595e-06
7.12826e-06
6.85258e-08
6.10912e-06
-1.59346e-06
3.3319e-06
-3.19635e-07
-9.23032e-07
4.36331e-06
-3.88209e-06
8.39556e-06
-5.64153e-06
1.06969e-05
-6.41744e-06
1.15626e-05
-6.21451e-06
1.05908e-05
-5.52823e-06
7.70213e-06
-5.21933e-06
4.28787e-06
-5.08527e-06
2.29496e-06
-4.86558e-06
1.05066e-06
-4.58943e-06
1.20062e-07
-4.30876e-06
-5.65254e-07
-4.0424e-06
-1.06468e-06
-3.79143e-06
-1.44427e-06
-3.55282e-06
-1.73226e-06
-3.31918e-06
-1.95022e-06
-3.08072e-06
-2.11468e-06
-2.82743e-06
-2.23509e-06
-2.55055e-06
-2.31336e-06
-2.2438e-06
-2.3444e-06
-1.90399e-06
-2.31749e-06
-1.53085e-06
-2.21832e-06
-1.12594e-06
-2.03161e-06
-6.90342e-07
-1.74358e-06
-2.21239e-07
-1.34106e-06
2.8011e-07
-7.63393e-07
6.63391e-07
3.13922e-07
8.31314e-07
1.13369e-06
7.83337e-07
1.58754e-06
5.44835e-07
1.70004e-06
8.95859e-08
1.5101e-06
-5.94322e-07
1.00533e-06
-1.30344e-06
-2.70511e-08
-1.72554e-06
-1.36435e-06
-1.89849e-06
-2.53011e-06
-1.78255e-06
-3.3157e-06
-1.41591e-06
-3.42261e-06
-9.19621e-07
-2.82358e-06
-4.67953e-07
-1.9401e-06
-1.36295e-07
-1.30644e-06
9.87389e-08
-1.09476e-06
2.72825e-07
-1.26767e-06
4.11927e-07
-1.75621e-06
5.32173e-07
-2.46159e-06
6.3697e-07
-3.21732e-06
7.10621e-07
-3.60067e-06
6.15515e-07
-1.28259e-06
1.24142e-05
-1.03223e-06
2.19432e-05
-1.80584e-06
1.42185e-05
-2.49801e-06
1.06748e-05
-3.11867e-06
8.6394e-06
-3.63246e-06
6.76217e-06
-4.00327e-06
4.74867e-06
-4.20108e-06
2.57735e-06
-4.21078e-06
3.44815e-07
-4.04949e-06
-1.77757e-06
-3.79298e-06
-3.52738e-06
-3.56936e-06
-4.62793e-06
-3.41247e-06
-5.18473e-06
-3.22211e-06
-5.66149e-06
-2.88878e-06
-6.34293e-06
-2.34982e-06
-7.24666e-06
-1.60104e-06
-8.19413e-06
-6.98482e-07
-8.88648e-06
2.43961e-07
-9.03348e-06
1.14626e-06
-8.64075e-06
1.9689e-06
-7.9958e-06
2.68399e-06
-7.21312e-06
3.27751e-06
-6.37789e-06
3.74712e-06
-5.55938e-06
4.10067e-06
-4.81026e-06
4.35426e-06
-4.16557e-06
4.53017e-06
-3.64233e-06
4.65432e-06
-3.23984e-06
4.75353e-06
-2.94069e-06
4.8522e-06
-2.71299e-06
4.96877e-06
-2.51431e-06
5.11235e-06
-2.29828e-06
5.28049e-06
-2.02396e-06
5.45932e-06
-1.66632e-06
5.62617e-06
-1.22442e-06
5.75421e-06
-7.23945e-07
5.81753e-06
-2.12473e-07
5.79535e-06
2.51282e-07
5.67569e-06
6.05607e-07
5.45689e-06
7.90745e-07
5.14581e-06
7.56491e-07
4.75157e-06
4.64754e-07
4.28542e-06
-1.17549e-07
3.79241e-06
-9.67082e-07
3.55652e-06
-1.69444e-06
3.9051e-06
1.16105e-06
3.92456e-06
6.27091e-06
4.40424e-06
8.21043e-06
5.36605e-06
7.27175e-06
6.42403e-06
4.90763e-06
7.03941e-06
2.29057e-06
6.75385e-06
3.54086e-07
4.73909e-06
4.21307e-07
7.09769e-07
3.70968e-06
-2.87117e-06
7.94425e-06
-5.07317e-06
1.05976e-05
-6.40553e-06
1.20292e-05
-6.84564e-06
1.20027e-05
-6.49293e-06
1.02381e-05
-5.86884e-06
7.07803e-06
-5.5497e-06
3.96873e-06
-5.29136e-06
2.03662e-06
-4.96793e-06
7.27236e-07
-4.62967e-06
-2.18197e-07
-4.33181e-06
-8.63121e-07
-4.06995e-06
-1.32654e-06
-3.8382e-06
-1.67603e-06
-3.62599e-06
-1.94446e-06
-3.41922e-06
-2.15699e-06
-3.20293e-06
-2.33096e-06
-2.96356e-06
-2.47446e-06
-2.69064e-06
-2.58627e-06
-2.37814e-06
-2.65691e-06
-2.02499e-06
-2.67064e-06
-1.6347e-06
-2.60861e-06
-1.21395e-06
-2.45235e-06
-7.70758e-07
-2.18678e-06
-3.124e-07
-1.79942e-06
1.7665e-07
-1.25244e-06
6.62998e-07
-1.72426e-07
9.82808e-07
8.13876e-07
1.10126e-06
1.46908e-06
1.01722e-06
1.78408e-06
7.49511e-07
1.77781e-06
2.8954e-07
1.4653e-06
-4.77862e-07
7.4035e-07
-1.18613e-06
-6.56082e-07
-1.54245e-06
-2.17379e-06
-1.57506e-06
-3.28309e-06
-1.32353e-06
-3.67414e-06
-8.95115e-07
-3.252e-06
-4.58819e-07
-2.3764e-06
-1.20573e-07
-1.64469e-06
1.20119e-07
-1.33545e-06
2.90552e-07
-1.4381e-06
4.16767e-07
-1.88243e-06
5.17292e-07
-2.56211e-06
5.98976e-07
-3.299e-06
6.52491e-07
-3.65418e-06
5.60792e-07
-1.19089e-06
1.2975e-05
-9.26063e-07
2.28693e-05
-1.61107e-06
1.49035e-05
-2.21211e-06
1.12758e-05
-2.74816e-06
9.17545e-06
-3.19325e-06
7.20726e-06
-3.51667e-06
5.07209e-06
-3.6906e-06
2.75129e-06
-3.69955e-06
3.53768e-07
-3.56322e-06
-1.9139e-06
-3.37208e-06
-3.71852e-06
-3.26549e-06
-4.73452e-06
-3.22038e-06
-5.22983e-06
-3.09689e-06
-5.78499e-06
-2.78803e-06
-6.65178e-06
-2.25157e-06
-7.78312e-06
-1.50347e-06
-8.94223e-06
-6.06872e-07
-9.78309e-06
3.38597e-07
-9.97894e-06
1.25338e-06
-9.55554e-06
2.09268e-06
-8.8351e-06
2.82455e-06
-7.94498e-06
3.43142e-06
-6.98477e-06
3.90801e-06
-6.03596e-06
4.25969e-06
-5.16194e-06
4.50103e-06
-4.4069e-06
4.6538e-06
-3.79511e-06
4.74469e-06
-3.33073e-06
4.80239e-06
-2.99838e-06
4.85421e-06
-2.76481e-06
4.92227e-06
-2.58237e-06
5.01971e-06
-2.39571e-06
5.14776e-06
-2.15201e-06
5.29498e-06
-1.81354e-06
5.43931e-06
-1.36874e-06
5.55261e-06
-8.37254e-07
5.60593e-06
-2.65785e-07
5.57444e-06
2.8277e-07
5.44225e-06
7.37792e-07
5.20456e-06
1.02844e-06
4.86568e-06
1.09537e-06
4.43575e-06
8.94678e-07
3.91793e-06
4.00272e-07
3.32847e-06
-3.7762e-07
2.72909e-06
-1.09505e-06
2.46624e-06
1.4239e-06
1.74584e-06
6.99131e-06
2.80187e-06
7.1544e-06
4.53252e-06
5.54109e-06
6.02731e-06
3.41285e-06
6.57841e-06
1.73946e-06
5.40258e-06
1.52992e-06
2.11028e-06
3.71361e-06
-1.65512e-06
7.47508e-06
-4.21822e-06
1.05073e-05
-5.9553e-06
1.23346e-05
-6.94654e-06
1.30205e-05
-7.15154e-06
1.22077e-05
-6.74025e-06
9.82683e-06
-6.18786e-06
6.52564e-06
-5.82806e-06
3.60893e-06
-5.46325e-06
1.67181e-06
-5.063e-06
3.26984e-07
-4.70043e-06
-5.80765e-07
-4.40701e-06
-1.15654e-06
-4.16766e-06
-1.56589e-06
-3.96829e-06
-1.87539e-06
-3.79059e-06
-2.12216e-06
-3.61411e-06
-2.33347e-06
-3.41928e-06
-2.52579e-06
-3.18992e-06
-2.70383e-06
-2.91518e-06
-2.86101e-06
-2.59097e-06
-2.98112e-06
-2.22012e-06
-3.04149e-06
-1.81138e-06
-3.01735e-06
-1.37745e-06
-2.88628e-06
-9.33011e-07
-2.63122e-06
-4.91913e-07
-2.24052e-06
-4.83668e-08
-1.69599e-06
4.85571e-07
-7.06364e-07
8.86384e-07
4.13063e-07
1.12476e-06
1.2307e-06
1.17598e-06
1.73286e-06
1.04635e-06
1.90744e-06
7.53213e-07
1.75843e-06
2.4839e-07
1.24517e-06
-5.14646e-07
1.06954e-07
-1.06937e-06
-1.61906e-06
-1.24679e-06
-3.10567e-06
-1.11702e-06
-3.8039e-06
-7.76297e-07
-3.59273e-06
-3.78434e-07
-2.77426e-06
-5.26652e-08
-1.97046e-06
1.82718e-07
-1.57084e-06
3.37545e-07
-1.59293e-06
4.41239e-07
-1.98612e-06
5.16042e-07
-2.63691e-06
5.718e-07
-3.35476e-06
6.03623e-07
-3.68601e-06
5.15283e-07
-1.10255e-06
1.34903e-05
-8.33061e-07
2.37024e-05
-1.43584e-06
1.55063e-05
-1.94961e-06
1.17896e-05
-2.40366e-06
9.6295e-06
-2.78138e-06
7.58498e-06
-3.05828e-06
5.34899e-06
-3.21036e-06
2.90337e-06
-3.22337e-06
3.66783e-07
-3.12109e-06
-2.01619e-06
-3.01293e-06
-3.82669e-06
-3.03383e-06
-4.71362e-06
-3.08249e-06
-5.18118e-06
-2.99736e-06
-5.87011e-06
-2.69131e-06
-6.95783e-06
-2.15136e-06
-8.32307e-06
-1.41429e-06
-9.6793e-06
-5.43113e-07
-1.06543e-05
3.88977e-07
-1.0911e-05
1.30506e-06
-1.04716e-05
2.15328e-06
-9.68332e-06
2.89762e-06
-8.68932e-06
3.5172e-06
-7.60434e-06
4.00381e-06
-6.52258e-06
4.36021e-06
-5.51834e-06
4.59871e-06
-4.6454e-06
4.73962e-06
-3.93602e-06
4.8091e-06
-3.40021e-06
4.83643e-06
-3.02571e-06
4.8506e-06
-2.77898e-06
4.87644e-06
-2.60821e-06
4.93048e-06
-2.44976e-06
5.01762e-06
-2.23914e-06
5.12951e-06
-1.92543e-06
5.24591e-06
-1.48514e-06
5.33861e-06
-9.29959e-07
5.37716e-06
-3.04331e-07
5.33374e-06
3.2619e-07
5.18969e-06
8.81844e-07
4.93802e-06
1.28011e-06
4.58086e-06
1.45253e-06
4.12373e-06
1.3518e-06
3.56553e-06
9.58475e-07
2.87571e-06
3.12195e-07
1.9777e-06
-1.97044e-07
1.09452e-06
2.30708e-06
-1.23682e-07
8.20951e-06
1.88103e-06
5.14968e-06
4.23614e-06
3.18599e-06
5.59008e-06
2.05891e-06
5.20604e-06
2.1235e-06
2.81094e-06
3.92503e-06
-5.55209e-07
7.07975e-06
-3.31068e-06
1.02306e-05
-5.22766e-06
1.24243e-05
-6.57856e-06
1.36855e-05
-7.29637e-06
1.37383e-05
-7.35409e-06
1.22654e-05
-6.94685e-06
9.4196e-06
-6.45455e-06
6.03333e-06
-6.04364e-06
3.19802e-06
-5.59792e-06
1.22609e-06
-5.15017e-06
-1.20772e-07
-4.79721e-06
-9.33724e-07
-4.5309e-06
-1.42285e-06
-4.33089e-06
-1.7659e-06
-4.17501e-06
-2.03128e-06
-4.03738e-06
-2.25978e-06
-3.8918e-06
-2.47906e-06
-3.71503e-06
-2.70256e-06
-3.48969e-06
-2.92916e-06
-3.20647e-06
-3.14423e-06
-2.86513e-06