/*--------------------------------*- C++ -*----------------------------------*\
| =========                 |                                                 |
| \\      /  F ield         | OpenFOAM: The Open Source CFD Toolbox           |
|  \\    /   O peration     | Version:  4.1                                   |
|   \\  /    A nd           | Web:      www.OpenFOAM.org                      |
|    \\/     M anipulation  |                                                 |
\*---------------------------------------------------------------------------*/
FoamFile
{
    version     2.0;
    format      ascii;
    class       volScalarField;
    location    "780";
    object      T;
}
// * * * * * * * * * * * * * * * * * * * * * * * * * * * * * * * * * * * * * //

dimensions      [0 0 0 1 0 0 0];

internalField   nonuniform List<scalar> 
5000
(
285.296
284.988
284.786
284.618
284.464
284.319
284.178
284.037
283.893
283.771
283.679
283.612
283.567
283.539
283.525
283.522
283.53
283.546
283.571
283.602
283.638
283.692
283.807
284.037
284.286
284.158
284.004
283.936
283.944
284.008
284.116
284.265
284.454
284.687
284.973
285.312
285.641
285.93
286.163
286.232
285.87
285.383
285.439
285.558
284.413
283.302
283.113
282.968
282.84
282.735
282.683
282.708
282.811
282.943
283.119
283.351
283.677
284.009
284.375
285.102
285.078
284.93
284.977
285.097
285.147
285.146
285.111
285.041
284.966
284.903
284.859
284.831
284.811
284.782
284.728
284.641
284.555
284.596
285.164
285.653
285.699
285.598
285.343
284.885
284.531
284.433
284.653
284.963
285.24
285.584
285.978
286.394
286.626
286.751
286.53
285.772
284.234
283.431
283.778
284.639
284.511
283.594
283.059
282.743
282.534
282.391
282.297
282.246
282.238
282.241
282.245
282.249
282.252
282.254
282.254
282.254
282.253
282.251
282.248
282.244
282.24
282.234
282.229
282.223
282.219
282.214
282.208
282.202
282.195
282.187
282.179
282.17
282.16
282.153
282.155
282.198
282.359
282.588
282.725
282.585
282.338
282.217
282.411
283.568
283.874
283.111
282.242
282.146
282.14
282.178
282.167
282.115
282.057
282.014
281.977
281.96
282.04
282.573
283.772
283.96
282.751
282.284
282.279
282.288
282.307
282.309
282.298
282.3
282.302
282.304
282.304
282.303
282.3
282.296
282.29
282.287
282.298
282.368
282.59
283.037
282.89
282.538
282.217
282.183
282.173
282.162
282.15
282.135
282.12
282.112
282.165
282.718
283.258
283.539
283.353
282.218
282.055
282.002
282.018
283.668
284.135
283.097
282.611
282.395
282.296
282.253
282.24
282.242
282.25
282.258
282.266
282.273
282.279
282.284
282.287
282.287
282.286
282.282
282.278
282.271
282.264
282.255
282.247
282.24
282.233
282.227
282.221
282.215
282.208
282.2
282.19
282.179
282.165
282.149
282.132
282.115
282.104
282.106
282.099
282.076
282.064
282.064
282.155
282.84
283.413
283.17
282.545
282.253
282.331
282.376
282.338
282.246
282.163
282.101
282.043
281.996
282.008
282.406
283.671
283.392
282.437
282.29
282.294
282.3
282.307
282.312
282.316
282.32
282.321
282.322
282.322
282.32
282.316
282.309
282.299
282.287
282.272
282.261
282.271
282.32
282.282
282.214
282.189
282.182
282.174
282.165
282.153
282.139
282.119
282.094
282.072
282.081
282.179
282.225
282.088
282.007
281.989
281.976
281.995
283.366
283.905
282.856
282.444
282.3
282.252
282.243
282.247
282.257
282.268
282.279
282.29
282.301
282.311
282.319
282.324
282.326
282.324
282.32
282.314
282.305
282.294
282.284
282.274
282.264
282.255
282.247
282.239
282.232
282.225
282.218
282.211
282.203
282.192
282.18
282.166
282.15
282.133
282.117
282.102
282.09
282.079
282.072
282.12
282.516
283.061
283.121
282.794
282.551
282.546
282.587
282.514
282.373
282.262
282.184
282.114
282.05
282.031
282.728
283.492
283.021
282.361
282.309
282.316
282.323
282.328
282.331
282.334
282.335
282.337
282.337
282.338
282.337
282.335
282.33
282.322
282.309
282.292
282.272
282.255
282.241
282.225
282.21
282.201
282.194
282.185
282.175
282.164
282.155
282.145
282.129
282.109
282.087
282.069
282.051
282.033
282.017
281.999
281.981
281.999
283.203
283.748
282.717
282.366
282.266
282.243
282.245
282.255
282.268
282.281
282.295
282.31
282.325
282.34
282.352
282.36
282.363
282.361
282.356
282.348
282.337
282.325
282.313
282.3
282.288
282.277
282.266
282.256
282.246
282.238
282.231
282.224
282.216
282.209
282.2
282.189
282.176
282.161
282.145
282.129
282.113
282.098
282.084
282.104
282.356
282.811
283.021
282.92
282.781
282.771
282.784
282.682
282.5
282.349
282.255
282.177
282.103
282.307
282.894
283.278
282.764
282.337
282.318
282.323
282.327
282.329
282.33
282.331
282.332
282.334
282.335
282.338
282.34
282.341
282.341
282.338
282.33
282.315
282.293
282.27
282.249
282.233
282.221
282.212
282.205
282.196
282.184
282.17
282.158
282.15
282.142
282.129
282.111
282.09
282.069
282.049
282.027
282.004
281.982
282.002
283.102
283.634
282.628
282.324
282.251
282.241
282.249
282.261
282.274
282.289
282.305
282.324
282.345
282.365
282.382
282.392
282.396
282.393
282.387
282.377
282.365
282.352
282.339
282.326
282.312
282.298
282.284
282.271
282.26
282.249
282.24
282.232
282.225
282.218
282.211
282.203
282.192
282.18
282.166
282.15
282.133
282.115
282.096
282.088
282.265
282.642
282.914
282.96
282.925
282.932
282.931
282.798
282.584
282.409
282.308
282.23
282.222
282.528
282.938
283.062
282.587
282.327
282.317
282.319
282.319
282.318
282.317
282.317
282.318
282.32
282.323
282.327
282.332
282.336
282.34
282.344
282.344
282.339
282.323
282.298
282.272
282.251
282.237
282.228
282.221
282.212
282.196
282.178
282.162
282.151
282.144
282.135
282.121
282.103
282.081
282.058
282.033
282.007
281.982
282.003
283.033
283.546
282.567
282.299
282.244
282.241
282.25
282.263
282.277
282.292
282.31
282.334
282.361
282.388
282.409
282.421
282.424
282.419
282.409
282.398
282.386
282.375
282.362
282.348
282.333
282.317
282.302
282.286
282.272
282.259
282.247
282.238
282.23
282.223
282.217
282.21
282.202
282.192
282.18
282.165
282.148
282.128
282.107
282.086
282.214
282.536
282.827
282.961
283.002
283.027
282.994
282.824
282.594
282.425
282.337
282.277
282.376
282.652
282.904
282.862
282.469
282.318
282.309
282.306
282.302
282.299
282.298
282.298
282.3
282.304
282.308
282.314
282.32
282.326
282.333
282.339
282.345
282.349
282.349
282.335
282.308
282.28
282.26
282.249
282.242
282.231
282.213
282.19
282.169
282.153
282.144
282.136
282.125
282.108
282.087
282.063
282.036
282.008
281.982
282.005
282.984
283.477
282.524
282.283
282.24
282.24
282.251
282.263
282.276
282.292
282.312
282.34
282.375
282.409
282.434
282.446
282.446
282.436
282.422
282.409
282.399
282.388
282.377
282.364
282.35
282.334
282.317
282.3
282.283
282.267
282.253
282.242
282.232
282.225
282.219
282.214
282.208
282.199
282.189
282.176
282.159
282.139
282.116
282.091
282.158
282.454
282.759
282.945
283.034
283.058
282.97
282.757
282.533
282.401
282.349
282.35
282.487
282.704
282.824
282.691
282.394
282.305
282.294
282.287
282.281
282.278
282.278
282.28
282.284
282.29
282.297
282.304
282.312
282.32
282.327
282.334
282.34
282.346
282.353
282.357
282.344
282.321
282.295
282.276
282.265
282.254
282.234
282.206
282.179
282.158
282.145
282.137
282.126
282.11
282.09
282.065
282.037
282.008
281.982
282.006
282.945
283.421
282.491
282.272
282.237
282.24
282.25
282.262
282.274
282.29
282.313
282.346
282.389
282.429
282.457
282.467
282.46
282.443
282.423
282.409
282.4
282.392
282.384
282.374
282.361
282.346
282.329
282.311
282.292
282.274
282.258
282.244
282.232
282.224
282.218
282.214
282.209
282.203
282.194
282.182
282.167
282.147
282.123
282.096
282.096
282.368
282.696
282.923
283.031
283.015
282.851
282.61
282.429
282.367
282.376
282.422
282.559
282.704
282.723
282.555
282.345
282.29
282.276
282.266
282.26
282.259
282.261
282.266
282.273
282.282
282.292
282.302
282.312
282.321
282.329
282.336
282.341
282.345
282.35
282.36
282.361
282.35
282.332
282.314
282.299
282.279
282.257
282.226
282.194
282.167
282.149
282.137
282.126
282.111
282.091
282.066
282.038
282.008
281.981
282.006
282.915
283.374
282.466
282.264
282.235
282.239
282.249
282.26
282.271
282.287
282.312
282.353
282.404
282.45
282.477
282.481
282.467
282.44
282.414
282.398
282.39
282.385
282.38
282.374
282.365
282.353
282.337
282.319
282.299
282.279
282.26
282.244
282.231
282.221
282.215
282.211
282.208
282.203
282.197
282.186
282.172
282.153
282.129
282.1
282.077
282.296
282.647
282.904
282.977
282.867
282.633
282.417
282.323
282.369
282.421
282.482
282.595
282.67
282.621
282.454
282.311
282.272
282.256
282.246
282.243
282.245
282.25
282.259
282.27
282.283
282.296
282.309
282.321
282.331
282.34
282.346
282.35
282.353
282.354
282.359
282.366
282.365
282.356
282.343
282.329
282.315
282.284
282.249
282.211
282.178
282.155
282.14
282.127
282.112
282.092
282.067
282.038
282.008
281.981
282.007
282.889
283.335
282.447
282.258
282.233
282.238
282.248
282.258
282.268
282.284
282.312
282.361
282.421
282.469
282.493
282.49
282.465
282.429
282.395
282.378
282.37
282.368
282.367
282.366
282.361
282.353
282.34
282.323
282.303
282.282
282.261
282.242
282.227
282.216
282.209
282.206
282.204
282.201
282.196
282.188
282.175
282.157
282.133
282.103
282.077
282.25
282.632
282.867
282.797
282.574
282.346
282.229
282.294
282.425
282.462
282.523
282.601
282.619
282.531
282.384
282.286
282.255
282.238
282.229
282.23
282.235
282.245
282.259
282.274
282.291
282.307
282.323
282.337
282.348
282.357
282.363
282.366
282.366
282.365
282.364
282.367
282.371
282.369
282.362
282.351
282.339
282.316
282.274
282.23
282.192
282.163
282.144
282.13
282.113
282.093
282.067
282.039
282.008
281.981
282.007
282.868
283.303
282.432
282.253
282.231
282.237
282.246
282.255
282.265
282.281
282.314
282.373
282.44
282.487
282.505
282.492
282.457
282.411
282.37
282.349
282.342
282.341
282.345
282.349
282.35
282.346
282.337
282.323
282.304
282.282
282.26
282.24
282.222
282.21
282.202
282.199
282.198
282.197
282.194
282.188
282.177
282.159
282.135
282.105
282.078
282.224
282.64
282.649
282.41
282.214
282.127
282.214
282.391
282.473
282.497
282.546
282.588
282.563
282.459
282.337
282.268
282.24
282.223
282.217
282.222
282.232
282.247
282.265
282.285
282.305
282.324
282.342
282.357
282.368
282.377
282.382
282.383
282.382
282.378
282.373
282.37
282.373
282.375
282.373
282.366
282.356
282.339
282.301
282.252
282.207
282.174
282.151
282.133
282.116
282.095
282.069
282.04
282.009
281.981
282.007
282.85
283.275
282.42
282.25
282.23
282.235
282.245
282.253
282.263
282.279
282.318
282.388
282.459
282.503
282.511
282.488
282.443
282.389
282.341
282.316
282.307
282.309
282.316
282.324
282.331
282.333
282.329
282.318
282.301
282.28
282.257
282.235
282.216
282.201
282.193
282.19
282.19
282.191
282.191
282.187
282.177
282.16
282.136
282.106
282.079
282.206
282.609
282.216
282.065
282.054
282.167
282.347
282.475
282.507
282.523
282.556
282.567
282.514
282.408
282.31
282.256
282.227
282.211
282.209
282.218
282.234
282.254
282.277
282.3
282.323
282.344
282.362
282.377
282.388
282.395
282.399
282.399
282.396
282.391
282.384
282.377
282.376
282.379
282.379
282.375
282.367
282.352
282.322
282.272
282.223
282.186
282.159
282.139
282.12
282.098
282.072
282.041
282.01
281.981
282.006
282.834
283.251
282.41
282.246
282.228
282.234
282.243
282.251
282.26
282.278
282.325
282.406
282.479
282.515
282.513
282.479
282.425
282.364
282.31
282.28
282.27
282.272
282.282
282.295
282.307
282.314
282.315
282.308
282.295
282.275
282.252
282.229
282.208
282.192
282.183
282.18
282.181
282.184
282.186
282.184
282.176
282.16
282.137
282.106
282.08
282.193
282.589
281.963
282.022
282.141
282.318
282.46
282.524
282.533
282.542
282.558
282.544
282.476
282.376
282.296
282.249
282.219
282.202
282.204
282.219
282.24
282.265
282.292
282.318
282.342
282.363
282.38
282.393
282.403
282.409
282.412
282.411
282.407
282.401
282.393
282.386
282.381
282.382
282.383
282.381
282.375
282.361
282.332
282.287
282.238
282.198
282.168
282.146
282.126
282.103
282.075
282.044
282.011
281.982
282.005
282.82
283.23
282.401
282.244
282.226
282.233
282.242
282.25
282.259
282.279
282.338
282.428
282.497
282.523
282.509
282.465
282.404
282.339
282.281
282.245
282.231
282.233
282.245
282.262
282.278
282.291
282.297
282.295
282.284
282.267
282.245
282.221
282.199
282.181
282.171
282.168
282.171
282.176
282.18
282.181
282.174
282.159
282.136
282.105
282.084
282.19
282.591
281.985
282.109
282.29
282.43
282.525
282.558
282.556
282.557
282.558
282.527
282.452
282.362
282.294
282.247
282.212
282.195
282.203
282.223
282.249
282.279
282.308
282.336
282.359
282.379
282.394
282.405
282.413
282.418
282.42
282.419
282.414
282.407
282.399
282.392
282.387
282.386
282.387
282.386
282.38
282.367
282.338
282.293
282.247
282.208
282.178
282.154
282.132
282.108
282.079
282.046
282.013
281.983
282.004
282.807
283.211
282.394
282.241
282.225
282.231
282.24
282.248
282.257
282.283
282.357
282.452
282.512
282.525
282.501
282.449
282.383
282.315
282.254
282.211
282.194
282.195
282.208
282.228
282.248
282.265
282.276
282.278
282.27
282.255
282.234
282.21
282.187
282.169
282.159
282.156
282.16
282.168
282.174
282.176
282.172
282.158
282.134
282.103
282.092
282.212
282.607
282.034
282.208
282.371
282.494
282.566
282.585
282.576
282.57
282.559
282.518
282.444
282.363
282.3
282.249
282.206
282.19
282.203
282.229
282.261
282.293
282.324
282.351
282.372
282.388
282.4
282.409
282.415
282.42
282.422
282.421
282.417
282.41
282.402
282.395
282.391
282.389
282.39
282.389
282.384
282.37
282.338
282.293
282.251
282.214
282.185
282.161
282.138
282.113
282.083
282.049
282.014
281.983
282.003
282.795
283.195
282.388
282.239
282.224
282.23
282.238
282.246
282.257
282.291
282.382
282.476
282.523
282.523
282.489
282.432
282.362
282.292
282.229
282.182
282.16
282.159
282.172
282.193
282.217
282.237
282.252
282.257
282.253
282.24
282.221
282.197
282.174
282.156
282.145
282.143
282.149
282.158
282.167
282.172
282.169
282.155
282.13
282.098
282.113
282.278
282.617
282.082
282.262
282.418
282.533
282.595
282.608
282.596
282.584
282.565
282.52
282.449
282.376
282.314
282.252
282.199
282.186
282.206
282.237
282.273
282.307
282.337
282.361
282.378
282.391
282.399
282.406
282.411
282.416
282.42
282.42
282.416
282.41
282.402
282.396
282.393
282.392
282.393
282.392
282.386
282.369
282.329
282.286
282.247
282.216
282.189
282.167
282.144
282.118
282.087
282.051
282.015
281.984
282.002
282.784
283.18
282.383
282.237
282.222
282.228
282.237
282.245
282.259
282.307
282.411
282.497
282.529
282.517
282.475
282.414
282.343
282.271
282.207
282.156
282.129
282.126
282.138
282.16
282.186
282.209
282.227
282.235
282.234
282.223
282.204
282.181
282.159
282.141
282.131
282.13
282.137
282.149
282.161
282.168
282.166
282.152
282.125
282.098
282.17
282.368
282.605
282.116
282.292
282.446
282.558
282.617
282.628
282.616
282.599
282.576
282.53
282.465
282.398
282.331
282.253
282.189
282.183
282.21
282.246
282.284
282.318
282.346
282.365
282.377
282.385
282.39
282.395
282.401
282.407
282.412
282.415
282.413
282.407
282.399
282.394
282.392
282.393
282.394
282.393
282.386
282.354
282.309
282.27
282.238
282.211
282.189
282.169
282.148
282.122
282.09
282.053
282.015
281.985
282
282.773
283.167
282.379
282.235
282.221
282.227
282.236
282.245
282.264
282.33
282.442
282.514
282.53
282.507
282.46
282.397
282.326
282.254
282.188
282.135
282.103
282.096
282.107
282.13
282.156
282.181
282.201
282.211
282.212
282.202
282.185
282.163
282.141
282.124
282.115
282.116
282.125
282.139
282.154
282.163
282.162
282.148
282.117
282.12
282.264
282.432
282.568
282.14
282.31
282.463
282.574
282.634
282.647
282.635
282.617
282.591
282.548
282.489
282.425
282.348
282.25
282.179
282.182
282.215
282.255
282.294
282.326
282.348
282.362
282.369
282.372
282.374
282.378
282.384
282.392
282.4
282.406
282.407
282.402
282.395
282.388
282.387
282.389
282.392
282.39
282.381
282.319
282.279
282.247
282.222
282.203
282.186
282.17
282.151
282.125
282.092
282.053
282.015
281.985
281.999
282.764
283.154
282.374
282.233
282.219
282.226
282.235
282.246
282.274
282.36
282.47
282.525
282.526
282.496
282.447
282.383
282.312
282.239
282.172
282.117
282.08
282.069
282.079
282.101
282.128
282.155
282.175
282.187
282.188
282.179
282.162
282.142
282.121
282.106
282.099
282.101
282.113
282.13
282.148
282.16
282.159
282.143
282.111
282.186
282.341
282.464
282.505
282.154
282.32
282.47
282.582
282.644
282.662
282.654
282.636
282.61
282.57
282.516
282.452
282.361
282.24
282.168
282.183
282.221
282.263
282.301
282.328
282.345
282.352
282.353
282.351
282.351
282.354
282.361
282.372
282.383
282.393
282.398
282.396
282.389
282.381
282.377
282.378
282.38
282.376
282.35
282.275
282.243
282.22
282.204
282.191
282.18
282.168
282.151
282.127
282.092
282.051
282.013
281.984
281.998
282.754
283.142
282.37
282.232
282.218
282.225
282.234
282.248
282.291
282.394
282.494
282.529
282.52
282.486
282.435
282.371
282.301
282.228
282.159
282.101
282.062
282.047
282.053
282.074
282.102
282.129
282.149
282.161
282.162
282.153
282.137
282.117
282.099
282.086
282.081
282.086
282.1
282.121
282.142
282.156
282.157
282.138
282.125
282.253
282.389
282.46
282.417
282.165
282.324
282.47
282.582
282.648
282.673
282.67
282.654
282.63
282.593
282.542
282.473
282.362
282.22
282.161
282.185
282.227
282.27
282.304
282.326
282.335
282.335
282.33
282.324
282.322
282.324
282.333
282.346
282.361
282.376
282.386
282.388
282.383
282.373
282.365
282.361
282.359
282.346
282.292
282.233
282.208
282.194
282.185
282.178
282.172
282.164
282.15
282.126
282.089
282.047
282.011
281.983
281.996
282.745
283.131
282.366
282.23
282.217
282.224
282.234
282.254
282.315
282.43
282.511
282.529
282.512
282.476
282.425
282.363
282.294
282.221
282.15
282.089
282.047
282.028
282.031
282.05
282.077
282.103
282.123
282.134
282.134
282.125
282.109
282.091
282.075
282.064
282.063
282.071
282.088
282.113
282.137
282.153
282.154
282.134
282.158
282.298
282.408
282.425
282.318
282.173
282.322
282.463
282.574
282.645
282.676
282.68
282.668
282.646
282.611
282.56
282.481
282.346
282.194
282.157
282.189
282.234
282.274
282.303
282.318
282.32
282.312
282.301
282.292
282.287
282.29
282.299
282.314
282.333
282.353
282.369
282.378
282.377
282.366
282.353
282.343
282.334
282.315
282.238
282.197
282.179
282.172
282.169
282.167
282.165
282.16
282.147
282.122
282.083
282.041
282.007
281.982
281.995
282.737
283.12
282.362
282.228
282.215
282.223
282.235
282.263
282.343
282.46
282.52
282.526
282.504
282.468
282.419
282.359
282.291
282.218
282.145
282.081
282.035
282.012
282.012
282.027
282.052
282.078
282.097
282.106
282.104
282.094
282.079
282.062
282.049
282.042
282.044
282.055
282.077
282.105
282.132
282.151
282.152
282.134
282.186
282.324
282.404
282.369
282.23
282.177
282.314
282.447
282.557
282.631
282.67
282.68
282.673
282.653
282.618
282.563
282.468
282.312
282.17
282.155
282.193
282.238
282.275
282.298
282.305
282.299
282.285
282.268
282.255
282.249
282.251
282.261
282.277
282.299
282.323
282.346
282.363
282.37
282.363
282.347
282.329
282.312
282.29
282.206
282.171
282.158
282.156
282.157
282.158
282.159
282.155
282.143
282.116
282.073
282.032
282.002
281.98
281.994
282.729
283.11
282.358
282.226
282.214
282.222
282.238
282.277
282.373
282.482
282.525
282.52
282.497
282.462
282.416
282.359
282.293
282.219
282.144
282.076
282.026
281.999
281.995
282.007
282.028
282.052
282.069
282.076
282.072
282.061
282.046
282.032
282.022
282.019
282.025
282.04
282.066
282.097
282.128
282.149
282.149
282.138
282.205
282.333
282.382
282.305
282.167
282.174
282.299
282.423
282.529
282.605
282.65
282.667
282.664
282.645
282.607
282.542
282.43
282.264
282.152
282.155
282.195
282.239
282.271
282.288
282.287
282.274
282.253
282.233
282.217
282.208
282.209
282.219
282.236
282.26
282.288
282.316
282.342
282.359
282.361
282.348
282.324
282.299
282.268
282.194
282.156
282.145
282.146
282.15
282.153
282.155
282.152
282.138
282.105
282.059
282.021
281.997
281.979
281.993
282.721
283.1
282.355
282.225
282.213
282.222
282.242
282.294
282.4
282.496
282.524
282.514
282.491
282.459
282.417
282.363
282.299
282.225
282.147
282.075
282.02
281.989
281.98
281.988
282.005
282.025
282.041
282.045
282.039
282.027
282.013
282.002
281.995
281.997
282.007
282.026
282.056
282.091
282.124
282.147
282.146
282.142
282.214
282.329
282.351
282.245
282.126
282.164
282.277
282.39
282.49
282.567
282.615
282.637
282.637
282.617
282.573
282.497
282.371
282.215
282.139
282.155
282.197
282.237
282.264
282.274
282.266
282.247
282.22
282.196
282.177
282.167
282.166
282.175
282.193
282.217
282.247
282.28
282.313
282.34
282.356
282.352
282.329
282.297
282.254
282.193
282.149
282.137
282.141
282.146
282.15
282.152
282.148
282.128
282.091
282.044
282.012
281.993
281.977
281.993
282.714
283.09
282.351
282.223
282.212
282.223
282.248
282.313
282.423
282.505
282.521
282.508
282.487
282.459
282.421
282.371
282.309
282.235
282.155
282.079
282.018
281.981
281.968
281.971
281.984
281.999
282.011
282.013
282.006
281.993
281.981
281.972
281.97
281.975
281.99
282.014
282.047
282.085
282.121
282.145
282.144
282.144
282.214
282.318
282.319
282.195
282.098
282.148
282.247
282.349
282.441
282.515
282.564
282.588
282.588
282.566
282.515
282.429
282.301
282.173
282.131
282.155
282.196
282.232
282.255
282.258
282.244
282.218
282.187
282.159
282.138
282.126
282.123
282.131
282.148
282.173
282.204
282.24
282.278
282.314
282.342
282.354
282.339
282.302
282.253
282.197
282.147
282.134
282.14
282.145
282.148
282.149
282.137
282.114
282.078
282.034
282.006
281.99
281.976
281.992
282.707
283.081
282.348
282.222
282.212
282.224
282.256
282.332
282.441
282.509
282.516
282.502
282.484
282.46
282.427
282.382
282.323
282.251
282.169
282.087
282.019
281.975
281.957
281.956
281.964
281.975
281.983
281.983
281.974
281.962
281.951
281.946
281.947
281.957
281.975
282.003
282.039
282.08
282.118
282.142
282.142
282.143
282.208
282.302
282.29
282.157
282.077
282.126
282.211
282.3
282.383
282.452
282.499
282.522
282.521
282.494
282.439
282.349
282.233
282.141
282.124
282.153
282.192
282.225
282.243
282.24
282.22
282.189
282.156
282.124
282.1
282.086
282.082
282.088
282.104
282.128
282.16
282.197
282.238
282.281
282.32
282.347
282.347
282.311
282.262
282.206
282.15
282.132
282.14
282.144
282.144
282.138
282.125
282.1
282.065
282.028
282.002
281.988
281.975
281.992
282.7
283.072
282.344
282.22
282.211
282.226
282.265
282.35
282.455
282.509
282.51
282.496
282.482
282.463
282.435
282.396
282.341
282.271
282.187
282.1
282.025
281.974
281.949
281.943
281.946
281.952
281.957
281.955
281.946
281.935
281.926
281.923
281.927
281.941
281.963
281.994
282.033
282.076
282.115
282.14
282.14
282.14
282.196
282.283
282.268
282.131
282.058
282.101
282.172
282.247
282.32
282.381
282.423
282.444
282.44
282.41
282.353
282.269
282.176
282.118
282.118
282.149
282.186
282.216
282.23
282.223
282.198
282.164
282.127
282.093
282.067
282.05
282.043
282.047
282.061
282.085
282.117
282.155
282.198
282.245
282.292
282.332
282.348
282.319
282.275
282.219
282.157
282.133
282.141
282.142
282.137
282.128
282.113
282.087
282.054
282.022
282
281.987
281.975
281.992
282.694
283.063
282.341
282.219
282.211
282.229
282.275
282.366
282.465
282.506
282.502
282.49
282.478
282.465
282.444
282.411
282.363
282.295
282.211
282.12
282.036
281.976
281.944
281.933
281.932
281.934
281.935
281.932
281.924
281.913
281.907
281.906
281.913
281.929
281.955
281.989
282.03
282.073
282.113
282.137
282.138
282.136
282.182
282.263
282.255
282.115
282.041
282.074
282.13
282.193
282.254
282.306
282.343
282.359
282.353
282.323
282.269
282.199
282.132
282.101
282.111
282.142
282.177
282.205
282.216
282.207
282.179
282.142
282.103
282.067
282.038
282.018
282.008
282.009
282.021
282.044
282.075
282.114
282.159
282.208
282.26
282.311
282.342
282.326
282.288
282.234
282.168
282.134
282.14
282.138
282.131
282.12
282.102
282.077
282.046
282.018
281.999
281.986
281.975
281.992
282.688
283.055
282.338
282.217
282.211
282.232
282.284
282.38
282.47
282.501
282.493
282.481
282.473
282.465
282.452
282.427
282.386
282.323
282.24
282.145
282.053
281.982
281.942
281.926
281.921
281.919
281.918
281.914
281.907
281.899
281.894
281.895
281.904
281.923
281.951
281.987
282.029
282.072
282.111
282.135
282.136
282.131
282.165
282.242
282.249
282.11
282.028
282.048
282.09
282.139
282.189
282.232
282.263
282.276
282.269
282.242
282.196
282.142
282.1
282.087
282.102
282.132
282.165
282.192
282.202
282.192
282.164
282.125
282.084
282.047
282.016
281.993
281.979
281.975
281.984
282.005
282.036
282.076
282.121
282.172
282.228
282.286
282.33
282.329
282.299
282.249
282.183
282.139
282.138
282.136
282.126
282.113
282.095
282.069
282.041
282.015
281.998
281.986
281.975
281.992
282.683
283.048
282.335
282.216
282.211
282.235
282.293
282.39
282.472
282.494
282.481
282.47
282.465
282.462
282.456
282.441
282.409
282.354
282.274
282.176
282.076
281.994
281.944
281.922
281.913
281.909
281.906
281.902
281.897
281.891
281.889
281.892
281.903
281.923
281.952
281.99
282.031
282.073
282.109
282.132
282.134
282.127
282.148
282.217
282.249
282.116
282.02
282.025
282.053
282.09
282.128
282.163
282.189
282.2
282.194
282.171
282.136
282.099
282.075
282.072
282.09
282.119
282.15
282.176
282.188
282.18
282.154
282.115
282.073
282.035
282.002
281.975
281.956
281.947
281.951
281.97
282.001
282.041
282.087
282.138
282.196
282.261
282.315
282.328
282.308
282.264
282.201
282.148
282.137
282.135
282.124
282.11
282.09
282.064
282.037
282.014
281.998
281.986
281.976
281.992
282.678
283.041
282.333
282.215
282.211
282.237
282.3
282.397
282.472
282.485
282.468
282.456
282.451
282.453
282.455
282.45
282.43
282.386
282.312
282.214
282.106
282.011
281.95
281.921
281.909
281.903
281.899
281.896
281.892
281.889
281.89
281.896
281.908
281.93
281.961
281.998
282.036
282.074
282.107
282.128
282.132
282.123
282.133
282.19
282.251
282.135
282.021
282.008
282.022
282.046
282.074
282.102
282.123
282.133
282.129
282.113
282.089
282.065
282.053
282.057
282.074
282.101
282.131
282.158
282.172
282.169
282.148
282.113
282.072
282.033
281.999
281.967
281.941
281.925
281.923
281.938
281.968
282.009
282.056
282.107
282.167
282.235
282.298
282.323
282.312
282.277
282.219
282.161
282.138
282.134
282.124
282.109
282.089
282.063
282.038
282.015
281.998
281.986
281.976
281.993
282.674
283.035
282.331
282.215
282.211
282.239
282.304
282.401
282.469
282.474
282.452
282.437
282.433
282.438
282.447
282.454
282.447
282.416
282.353
282.257
282.142
282.035
281.96
281.923
281.908
281.901
281.896
281.893
281.891
281.892
281.896
281.905
281.92
281.943
281.974
282.007
282.041
282.075
282.105
282.125
282.129
282.12
282.12
282.161
282.246
282.164
282.035
282
281.998
282.009
282.028
282.049
282.066
282.075
282.075
282.065
282.051
282.038
282.033
282.039
282.055
282.08
282.108
282.134
282.153
282.157
282.143
282.115
282.079
282.041
282.006
281.97
281.936
281.911
281.901
281.91
281.939
281.981
282.029
282.081
282.14
282.212
282.282
282.316
282.314
282.287
282.237
282.177
282.142
282.133
282.125
282.11
282.09
282.065
282.04
282.017
281.999
281.986
281.977
281.993
282.67
283.03
282.329
282.214
282.211
282.24
282.305
282.402
282.466
282.464
282.436
282.415
282.41
282.416
282.431
282.448
282.456
282.442
282.393
282.305
282.186
282.065
281.974
281.927
281.909
281.901
281.896
281.894
281.894
281.897
281.904
281.916
281.935
281.959
281.987
282.017
282.047
282.077
282.103
282.121
282.126
282.118
282.111
282.136
282.229
282.195
282.065
282.005
281.984
281.982
281.991
282.004
282.018
282.027
282.03
282.026
282.019
282.012
282.011
282.018
282.032
282.053
282.079
282.105
282.127
282.139
282.136
282.119
282.092
282.058
282.023
281.982
281.939
281.903
281.884
281.888
281.914
281.957
282.006
282.058
282.116
282.19
282.267
282.308
282.314
282.295
282.252
282.195
282.151
282.134
282.126
282.112
282.093
282.068
282.043
282.02
282
281.987
281.977
281.993
282.666
283.025
282.328
282.213
282.21
282.239
282.304
282.399
282.463
282.457
282.422
282.395
282.386
282.39
282.407
282.432
282.455
282.461
282.431
282.355
282.237
282.104
281.995
281.935
281.912
281.903
281.898
281.897
281.899
281.904
281.913
281.928
281.947
281.972
281.998
282.025
282.052
282.078
282.101
282.117
282.122
282.115
282.105
282.117
282.203
282.215
282.107
282.029
281.985
281.966
281.963
281.968
281.977
281.986
281.991
281.992
281.99
281.988
281.989
281.994
282.005
282.022
282.044
282.068
282.092
282.111
282.118
282.113
282.098
282.08
282.043
281.997
281.946
281.902
281.874
281.871
281.894
281.937
281.988
282.04
282.096
282.17
282.253
282.301
282.313
282.3
282.263
282.211
282.163
282.137
282.126
282.114
282.096
282.073
282.048
282.023
282.002
281.988
281.978
281.994
282.662
283.021
282.327
282.213
282.21
282.238
282.3
282.392
282.457
282.455
282.417
282.381
282.368
282.365
282.378
282.407
282.442
282.468
282.462
282.405
282.293
282.151
282.021
281.945
281.917
281.906
281.902
281.901
281.904
281.911
281.921
281.937
281.957
281.981
282.007
282.031
282.055
282.078
282.097
282.112
282.118
282.112
282.101
282.103
282.172
282.221
282.145
282.068
282.005
281.964
281.946
281.941
281.944
281.95
281.956
281.96
281.961
281.962
281.963
281.967
281.975
281.988
282.004
282.024
282.048
282.07
282.085
282.089
282.085
282.074
282.041
281.996
281.947
281.9
281.868
281.859
281.88
281.923
281.975
282.028
282.082
282.155
282.24
282.295
282.314
282.304
282.272
282.224
282.175
282.143
282.127
282.116
282.099
282.077
282.052
282.026
282.004
281.989
281.978
281.994
282.658
283.018
282.327
282.212
282.209
282.236
282.294
282.382
282.447
282.452
282.422
282.391
282.366
282.35
282.352
282.376
282.418
282.462
282.482
282.451
282.354
282.206
282.056
281.959
281.923
281.911
281.906
281.906
281.909
281.917
281.928
281.944
281.964
281.987
282.011
282.034
282.056
282.075
282.093
282.106
282.112
282.107
282.097
282.094
282.143
282.215
282.172
282.106
282.041
281.982
281.943
281.926
281.92
281.92
281.924
281.928
281.931
281.933
281.935
281.938
281.943
281.95
281.961
281.975
281.995
282.017
282.035
282.045
282.046
282.036
282.009
281.971
281.928
281.888
281.86
281.854
281.873
281.915
281.968
282.021
282.072
282.144
282.229
282.292
282.316
282.309
282.279
282.235
282.186
282.149
282.129
282.116
282.101
282.081
282.056