/*--------------------------------*- C++ -*----------------------------------*\
| =========                 |                                                 |
| \\      /  F ield         | OpenFOAM: The Open Source CFD Toolbox           |
|  \\    /   O peration     | Version:  4.1                                   |
|   \\  /    A nd           | Web:      www.OpenFOAM.org                      |
|    \\/     M anipulation  |                                                 |
\*---------------------------------------------------------------------------*/
FoamFile
{
    version     2.0;
    format      ascii;
    class       volScalarField;
    location    "1620";
    object      mag(U);
}
// * * * * * * * * * * * * * * * * * * * * * * * * * * * * * * * * * * * * * //

dimensions      [0 1 -1 0 0 0 0];

internalField   nonuniform List<scalar> 
5000
(
0.00380698
0.00633833
0.00880522
0.00938156
0.00887188
0.00783644
0.00662564
0.00544023
0.0043584
0.00335863
0.00240899
0.00144864
0.000690838
0.000992348
0.00194243
0.00304803
0.0042278
0.00545418
0.00670313
0.00795015
0.00917204
0.010348
0.0114598
0.0124922
0.0134325
0.0142702
0.0149967
0.0156049
0.0160889
0.0164444
0.0166691
0.0167638
0.0167388
0.0165978
0.0163454
0.0159878
0.0155319
0.014988
0.0143724
0.0137132
0.0130573
0.0124663
0.0119692
0.0114522
0.0105426
0.0085568
0.00471072
0.00156983
0.00225177
0.00339888
0.00435268
0.00515003
0.00584487
0.00646036
0.00700287
0.00747129
0.00786186
0.00817003
0.00839069
0.00851825
0.00854783
0.00847466
0.00829317
0.00800102
0.00759859
0.00708901
0.00647842
0.00577602
0.0049938
0.0041466
0.00325184
0.00232829
0.00140991
0.000623458
0.000841691
0.00166383
0.00253068
0.00337425
0.00417941
0.00493875
0.00564585
0.00629271
0.00687045
0.00737782
0.00784155
0.00833754
0.00897451
0.0098086
0.010723
0.0113308
0.0109855
0.0089531
0.00492667
0.000979025
0.000410084
0.000713411
0.00135995
0.00224536
0.00268026
0.00284079
0.00574937
0.0056726
0.00717183
0.00767782
0.00761666
0.00695269
0.00598527
0.00489364
0.00390346
0.00303598
0.00230588
0.00172798
0.00154191
0.0019658
0.0028082
0.00385695
0.00501563
0.00623778
0.00749095
0.00874781
0.00998467
0.0111813
0.0123208
0.0133892
0.0143754
0.0152704
0.016067
0.0167589
0.0173409
0.0178082
0.0181565
0.0183824
0.0184771
0.0184421
0.0182825
0.0180047
0.0176188
0.0171375
0.0165774
0.0159582
0.0152995
0.0146093
0.0138545
0.0129282
0.0117169
0.0102358
0.00818579
0.00486148
0.00264759
0.00296423
0.00380913
0.00465097
0.00541849
0.00610178
0.0066977
0.00720312
0.00761481
0.00792949
0.00814447
0.00825705
0.00826318
0.00816508
0.0079605
0.00764866
0.0072313
0.00671289
0.0061012
0.00540783
0.00464858
0.00384468
0.0030293
0.00225989
0.00165626
0.00149386
0.00186334
0.00252579
0.00327894
0.00404138
0.00478049
0.00548126
0.00613772
0.00675176
0.00733396
0.00790178
0.00847157
0.00904878
0.0096283
0.0101982
0.0107258
0.0111055
0.0111462
0.0106376
0.00908769
0.00623939
0.00265216
0.00146828
0.00152646
0.00163522
0.000391217
0.0035793
0.00754246
0.00627901
0.00628015
0.00553803
0.00602513
0.00598642
0.00542532
0.00452966
0.00374419
0.00311358
0.0026624
0.00242636
0.00250059
0.00292927
0.00366445
0.00460603
0.00567549
0.00681925
0.00799827
0.00918205
0.0103461
0.0114709
0.0125411
0.0135449
0.0144734
0.0153203
0.0160808
0.016751
0.0173272
0.0178051
0.0181793
0.018443
0.0185884
0.0186085
0.0185035
0.0182767
0.0179346
0.0174866
0.0169426
0.0163094
0.0155865
0.0147642
0.0138357
0.0128431
0.0120102
0.011709
0.0112149
0.00858924
0.00480267
0.00314515
0.00313946
0.00367097
0.00434461
0.00501235
0.00562008
0.00614564
0.00657885
0.00691464
0.00715004
0.0072826
0.00730947
0.00723468
0.00705844
0.00678219
0.00640978
0.00594837
0.00540975
0.00481189
0.00418085
0.00355451
0.00299537
0.00259266
0.00244931
0.00260574
0.00301402
0.00357842
0.00421453
0.00487122
0.00551952
0.00614313
0.00673364
0.00728851
0.00780992
0.00830208
0.00876585
0.0091922
0.00955892
0.00982915
0.00995385
0.010006
0.0103635
0.0110757
0.0110898
0.00933286
0.00583082
0.002058
0.000498569
0.000757652
0.00163718
0.00375133
0.00805686
0.00681679
0.00746941
0.00400286
0.00425592
0.00513254
0.00507754
0.00440006
0.003791
0.0033564
0.00312061
0.00311088
0.00336488
0.00388412
0.00463681
0.00555643
0.00658136
0.00766354
0.00876647
0.00986219
0.010929
0.0119503
0.0129137
0.0138103
0.0146344
0.015383
0.0160545
0.0166488
0.0171657
0.0176044
0.0179622
0.0182338
0.018412
0.0184827
0.0184368
0.0182695
0.0179791
0.0175677
0.0170391
0.0163956
0.0156356
0.0147585
0.0137933
0.0128884
0.0125036
0.0131517
0.0136049
0.0114968
0.00757992
0.00469489
0.00364695
0.00352886
0.00380424
0.00424589
0.00472332
0.00517089
0.00555682
0.005866
0.00609046
0.00622508
0.00626553
0.00621736
0.00608157
0.00586142
0.00556415
0.00520196
0.00479387
0.0043675
0.00396004
0.00362074
0.00340588
0.00335477
0.00347343
0.00375189
0.00415986
0.0046522
0.00518915
0.0057413
0.00628846
0.00681734
0.00731968
0.00779076
0.00822784
0.00862763
0.00898253
0.00927669
0.0094838
0.00956661
0.00948511
0.00933162
0.00969616
0.0110008
0.011985
0.0111472
0.00839988
0.00461316
0.00123561
0.00172795
0.00212586
0.00178121
0.00757539
0.00629779
0.00902672
0.00541725
0.00150808
0.00421104
0.00473134
0.00427451
0.00381446
0.00355452
0.00353088
0.00376822
0.00425823
0.00495825
0.00582096
0.00678762
0.00780959
0.00885005
0.00988152
0.0108833
0.0118398
0.012739
0.0135728
0.0143354
0.0150243
0.0156391
0.0161815
0.0166548
0.0170627
0.017409
0.0176958
0.0179225
0.018086
0.0181749
0.018173
0.018066
0.017842
0.017493
0.0170148
0.0164061
0.0156681
0.0148137
0.0139031
0.0131575
0.0131661
0.0144376
0.0154382
0.0137407
0.00999857
0.00671075
0.00494109
0.00419278
0.00394525
0.00395612
0.0041192
0.00435054
0.00459277
0.00481052
0.00498267
0.00509541
0.00514028
0.00512157
0.00504183
0.00490777
0.00473207
0.00453381
0.00433846
0.00417683
0.00407885
0.00407034
0.00415818
0.0043306
0.00458752
0.00492061
0.00531238
0.00574257
0.0061922
0.00664529
0.00708934
0.00751503
0.00791562
0.00828606
0.00862167
0.00891624
0.0091594
0.00933396
0.00941455
0.00936835
0.00916584
0.00889609
0.00918137
0.0107188
0.0123516
0.012373
0.0104974
0.00745847
0.00411361
0.00183517
0.00135691
0.00102911
0.00681208
0.00477384
0.0096196
0.00691899
0.00152818
0.00309956
0.00420476
0.00397543
0.00368759
0.00365211
0.00392013
0.00449653
0.0052873
0.00621537
0.00722185
0.00825902
0.00929285
0.0102995
0.0112623
0.0121692
0.0130117
0.0137838
0.0144815
0.0151025
0.0156466
0.0161155
0.0165129
0.0168442
0.017116
0.0173358
0.0175105
0.0176454
0.0177432
0.0178004
0.0178029
0.0177324
0.0175686
0.0172933
0.0168933
0.0163615
0.0156998
0.0149302
0.014136
0.0135851
0.0139202
0.0155771
0.016884
0.0155278
0.0120591
0.00866079
0.00651292
0.00532863
0.00460817
0.00418142
0.00392737
0.00380749
0.00378241
0.00381093
0.00386126
0.00391093
0.00394426
0.00395958
0.00396498
0.00397156
0.00399599
0.0040567
0.00416882
0.00434104
0.00456841
0.00483227
0.00511646
0.00542521
0.00575691
0.00610761
0.00647168
0.00684195
0.00721062
0.00757008
0.0079135
0.00823507
0.00852988
0.00879347
0.00902091
0.00920553
0.00933722
0.00940053
0.00937375
0.00923026
0.00895061
0.00862049
0.00882333
0.0104053
0.0124579
0.0132168
0.0121734
0.00984583
0.00695399
0.00388034
0.000760064
0.0014804
0.00626503
0.00317908
0.0092497
0.0073984
0.0024366
0.00268824
0.003531
0.00347054
0.00342124
0.00372598
0.00442241
0.00540861
0.00650701
0.00764703
0.00878099
0.00987833
0.0109186
0.0118887
0.012781
0.0135919
0.01432
0.0149654
0.0155288
0.0160115
0.0164153
0.0167431
0.0169995
0.0171905
0.0173238
0.0174088
0.0174556
0.0174742
0.0174734
0.0174573
0.0174209
0.0173502
0.0172231
0.0170149
0.0167035
0.0162745
0.0157263
0.0150845
0.0144465
0.0141067
0.0147121
0.0165987
0.0180696
0.0169925
0.0138213
0.0104491
0.00806942
0.00661618
0.00560391
0.00478679
0.0041604
0.00365925
0.00327015
0.00298607
0.00279991
0.00270425
0.0026912
0.00276222
0.00292234
0.00317472
0.00351542
0.00393078
0.00439767
0.00488725
0.00535347
0.00579564
0.00620935
0.00659662
0.00696064
0.00730457
0.00763049
0.00793888
0.00822878
0.00849812
0.00874422
0.00896407
0.00915447
0.00931194
0.0094321
0.00950891
0.0095338
0.0094946
0.0093748
0.00915501
0.00882448
0.00846621
0.00859833
0.0101145
0.0124035
0.0137467
0.0134265
0.0117296
0.00921822
0.00628987
0.00268181
0.00129262
0.00611366
0.00270223
0.00791522
0.00716801
0.0025636
0.00239814
0.0028241
0.00282938
0.00313712
0.00394245
0.00518117
0.00653394
0.00788276
0.00918387
0.0104129
0.0115515
0.0125871
0.013513
0.014329
0.015039
0.0156495
0.0161673
0.0165985
0.016948
0.0172202
0.0174187
0.0175478
0.0176132
0.017622
0.0175835
0.0175089
0.0174109
0.0173024
0.0171931
0.0170886
0.0169848
0.0168656
0.0167061
0.0164787
0.0161614
0.015746
0.0152563
0.0147959
0.0146708
0.0155011
0.0175176
0.0190656
0.0182157
0.0153303
0.0120514
0.00953072
0.00786873
0.00667075
0.00565686
0.00473625
0.00390377
0.00317787
0.00252608
0.00196342
0.00154902
0.00140313
0.00162073
0.00211602
0.00276838
0.00350644
0.00427605
0.0050165
0.00571026
0.00634053
0.00690005
0.00738877
0.00781279
0.0081802
0.00849926
0.00877725
0.00901975
0.0092305
0.00941145
0.0095631
0.00968473
0.00977472
0.00983057
0.00984884
0.00982476
0.00975168
0.00962085
0.0094211
0.00914013
0.00877485
0.00840508
0.00847743
0.00986286
0.0122416
0.014021
0.0143061
0.0131602
0.011
0.00817985
0.00469441
0.00105065
0.00638987
0.00295687
0.00614046
0.00639951
0.00218688
0.00178908
0.00198359
0.00220812
0.00302841
0.00450312
0.00618862
0.00780787
0.00933007
0.0107475
0.012047
0.0132123
0.0142318
0.0151029
0.0158317
0.0164307
0.016915
0.0172992
0.017596
0.0178149
0.0179625
0.0180435
0.0180616
0.0180209
0.0179265
0.0177863
0.0176104
0.0174119
0.017206
0.0170045
0.0168221
0.0166668
0.0165329
0.0164016
0.0162454
0.0160366
0.0157592
0.0154311
0.0151561
0.0152403
0.0162593
0.018343
0.019915
0.019247
0.0166231
0.0134678
0.010867
0.00903858
0.00768734
0.00653726
0.00546886
0.00446701
0.00352121
0.00261171
0.00171659
0.000821937
0.000144045
0.00105337
0.00202332
0.00301945
0.0040202
0.00499271
0.00590753
0.00673839
0.00746863
0.008094
0.00861774
0.00904853
0.00939769
0.00967716
0.00989806
0.0100698
0.0101997
0.0102929
0.0103524
0.0103796
0.0103743
0.0103351
0.0102594
0.0101437
0.00998361
0.00977358
0.00950724
0.00917812
0.00879018
0.00841765
0.00843994
0.00966316
0.0120205
0.0141068
0.0148948
0.0142417
0.0124275
0.00976781
0.0063711
0.00234591
0.00701273
0.00337624
0.00485437
0.00520306
0.00160692
0.000977871
0.00117546
0.00182239
0.00330125
0.00541072
0.00735278
0.00913211
0.0107758
0.0122858
0.0136426
0.014823
0.0158132
0.0166135
0.0172379
0.0177088
0.0180517
0.0182907
0.018446
0.0185325
0.0185597
0.0185332
0.0184557
0.0183291
0.0181555
0.0179396
0.0176891
0.0174158
0.0171333
0.0168555
0.0166035
0.0163949
0.0162356
0.0161177
0.0160187
0.015909
0.0157654
0.0155984
0.0155075
0.0157908
0.0169704
0.0190833
0.0206468
0.0201212
0.0177283
0.0147077
0.0120685
0.0101061
0.00862251
0.00736596
0.00620757
0.00511659
0.0040863
0.0031132
0.0022048
0.00144475
0.00120152
0.00176968
0.00271759
0.00378974
0.00489653
0.00597926
0.00699091
0.00789853
0.00868279
0.00933773
0.00986726
0.0102818
0.0105953
0.0108225
0.0109779
0.0110738
0.0111206
0.0111261
0.0110956
0.0110321
0.010937
0.01081
0.0106495
0.0104531
0.0102183
0.00994219
0.00962244
0.00925706
0.00885608
0.00848826
0.00847218
0.00952738
0.0117863
0.014072
0.0152786
0.0150815
0.0136337
0.0112126
0.0080067
0.00428266
0.00778767
0.00381757
0.00420331
0.00400117
0.00116654
0.000211454
0.000708118
0.001789
0.0040835
0.00648723
0.00855183
0.0104349
0.0121803
0.0137747
0.0151803
0.0163622
0.0173036
0.0180099
0.0185049
0.0188236
0.0190038
0.0190809
0.0190834
0.0190323
0.0189405
0.0188145
0.0186557
0.018463
0.0182349
0.0179715
0.0176763
0.0173586
0.0170268
0.016698
0.0163966
0.0161462
0.0159638
0.0158535
0.0158016
0.0157804
0.0157623
0.0157499
0.0158368
0.0163077
0.0176263
0.0197457
0.0212801
0.0208622
0.018668
0.0157815
0.0131332
0.0110644
0.00946295
0.00811657
0.00689833
0.00577135
0.00473585
0.00380531
0.00301964
0.00249354
0.00242728
0.00290939
0.00377591
0.00484182
0.00598668
0.00712405
0.00818888
0.00913687
0.00994342
0.0106007
0.0111129
0.0114924
0.0117553
0.0119192
0.0120012
0.0120165
0.011978
0.0118958
0.0117773
0.0116271
0.011448
0.0112407
0.0110047
0.0107388
0.0104418
0.0101131
0.00975262
0.00936349
0.00895782
0.00860294
0.00856313
0.00946369
0.0115786
0.0139776
0.0155321
0.0157635
0.0147066
0.0125979
0.00967551
0.00627264
0.00856573
0.00423148
0.00391067
0.00309748
0.00112058
0.00042584
0.000722282
0.00218671
0.00518468
0.00758996
0.00971155
0.0116841
0.013531
0.0152069
0.0166494
0.0178117
0.0186764
0.019257
0.0195906
0.0197271
0.019719
0.0196138
0.0194496
0.0192536
0.0190423
0.018823
0.018596
0.0183568
0.0180989
0.0178171
0.0175096
0.0171813
0.0168312
0.0164817
0.0161579
0.0158868
0.0156942
0.0155953
0.0155869
0.0156465
0.0157448
0.0158788
0.016135
0.0167823
0.0182233
0.020336
0.021827
0.0214853
0.0194574
0.0166979
0.0140605
0.0119096
0.0102039
0.0087772
0.00751558
0.00638221
0.00538055
0.0045331
0.00388702
0.00353631
0.00359255
0.00409128
0.00494314
0.00601463
0.00718639
0.00835819
0.0094521
0.0104155
0.0112201
0.0118573
0.0123328
0.0126607
0.0128598
0.0129505
0.0129524
0.012883
0.0127575
0.0125881
0.0123838
0.012151
0.0118936
0.0116136
0.0113114
0.0109869
0.0106401
0.0102718
0.00988317
0.00948016
0.00908102
0.00874893
0.00870215
0.00947438
0.0114268
0.013873
0.015714
0.0163475
0.0156963
0.0139511
0.0113763
0.00830256
0.00931609
0.00464448
0.00377532
0.00257842
0.00123211
0.000768915
0.00092734
0.00316045
0.00626198
0.00863663
0.0108007
0.0128724
0.0148276
0.0165783
0.0180375
0.0191498
0.0199014
0.0203178
0.0204528
0.0203743
0.0201509
0.0198427
0.0194974
0.0191484
0.0188158
0.0185078
0.0182236
0.0179553
0.0176913
0.0174194
0.0171324
0.0168205
0.0164894
0.0161556
0.0158426
0.0155794
0.0153976
0.0153224
0.0153609
0.0154981
0.015706
0.0159783
0.0163958
0.0172094
0.0187603
0.0208575
0.0222936
0.0219994
0.0201063
0.0174629
0.0148498
0.0126384
0.0108436
0.00934629
0.00805275
0.00693029
0.00598418
0.00523792
0.00473235
0.00453001
0.00470037
0.00525711
0.00613925
0.00723978
0.00844265
0.00964024
0.0107469
0.0117058
0.0124876
0.013085
0.0135059
0.0137675
0.0138913
0.0139002
0.0138161
0.0136589
0.0134456
0.01319
0.0129029
0.012592
0.0122624
0.0119171
0.0115578
0.0111851
0.0108001
0.010404
0.00999982
0.00959409
0.00921295
0.00891456
0.00887888
0.009556
0.0113492
0.0137948
0.0158683
0.0168745
0.0166312
0.0152756
0.013074
0.0103113
0.0100302
0.00508106
0.00369692
0.00225892
0.00126915
0.000895671
0.00119645
0.00442363
0.00724199
0.0095878
0.0118137
0.0140041
0.016071
0.0178805
0.019326
0.0203498
0.0209461
0.0211565
0.0210554
0.0207308
0.020268
0.01974
0.0192024
0.018694
0.0182376
0.0178429
0.0175083
0.0172238
0.0169731
0.0167369
0.0165014
0.0162422
0.0159666
0.0156849
0.015417
0.0151925
0.0150471
0.0150132
0.0151079
0.0153241
0.0156379
0.0160425
0.0166145
0.0175862
0.019237
0.0213122
0.0226822
0.0224081
0.0206199
0.0180794
0.0154996
0.0132479
0.0113816
0.00982646
0.00851285
0.00741559
0.00654023
0.00590533
0.0055356
0.00547569
0.00575932
0.00639781
0.00733949
0.00848825
0.00972724
0.0109436
0.012048
0.0129834
0.0137226
0.0142615
0.0146118
0.0147937
0.014832
0.0147518
0.0145775
0.0143307
0.0140298
0.0136904
0.0133242
0.0129402
0.0125448
0.0121419
0.0117341
0.0113232
0.0109109
0.010498
0.0100874
0.00969332
0.00934292
0.00908971
0.00908347
0.00970063
0.0113533
0.0137674
0.0160254
0.0173712
0.0175251
0.0165633
0.0147335
0.0122491
0.0106349
0.00552453
0.00361088
0.00199791
0.00122974
0.000885429
0.00189139
0.00550995
0.00809932
0.0104326
0.012756
0.0150844
0.0172565
0.0190976
0.0204911
0.0213833
0.0217809
0.0217459
0.0213764
0.0207826
0.0200664
0.0193111
0.0185782
0.0179088
0.0173273
0.0168443
0.0164594
0.0161623
0.0159346
0.0157517
0.0155934
0.0154204
0.0152357
0.0150418
0.0148539
0.0147005
0.0146192
0.014648
0.0148123
0.0151133
0.0155328
0.0160662
0.0167882
0.0179116
0.0196539
0.0217001
0.0229916
0.0227111
0.020999
0.0185474
0.0160072
0.013734
0.0118169
0.0102211
0.00890239
0.00784485
0.00705287
0.00653534
0.00630041
0.00637745
0.00677907
0.00751624
0.00853797
0.0097476
0.0110232
0.0122482
0.0133334
0.0142255
0.0149022
0.0153647
0.0156291
0.0157196
0.0156638
0.0154894
0.0152223
0.0148856
0.0144992
0.0140793
0.0136389
0.013188
0.0127336
0.0122809
0.0118332
0.0113934
0.0109636
0.0105434
0.0101389
0.00976929
0.00946221
0.00926623
0.00930685
0.00989762
0.0114372
0.0138035
0.0162043
0.0178534
0.0183834
0.0178043
0.0163311
0.0140922
0.0109834
0.00593185
0.0035336
0.00186044
0.00118895
0.00075862
0.0030367
0.00632713
0.00881579
0.0111796
0.0136374
0.0161138
0.0183717
0.0202082
0.0215078
0.0222262
0.0223866
0.0220751
0.0214173
0.0205466
0.0195798
0.0186065
0.0176888
0.0168659
0.016161
0.0155851
0.0151407
0.0148208
0.0146096
0.0144816
0.0144113
0.0143493
0.014285
0.014211
0.0141362
0.0140853
0.0140962
0.0142108
0.014461
0.0148559
0.0153844
0.0160462
0.0169158
0.0181864
0.020012
0.02202
0.0232177
0.0229041
0.021241
0.0188643
0.0163682
0.0140921
0.0121472
0.0105326
0.00922807
0.00822698
0.00753068
0.00713506
0.00703358
0.00724288
0.00777044
0.00862019
0.00973587
0.0110115
0.0123173
0.0135352
0.0145808
0.0154079
0.016002
0.0163709
0.0165359
0.0165252
0.016369
0.0160972
0.0157369
0.0153123
0.0148439
0.0143487
0.0138403
0.0133294
0.0128237
0.0123293
0.0118505
0.0113911
0.0109522
0.0105334
0.0101483
0.00981659
0.00956491
0.00943802
0.00954118
0.0101352
0.0115927
0.0139062
0.0164147
0.0183297
0.019208
0.0189914
0.0178544
0.0158329
0.0108825
0.00618748
0.00358577
0.00207163
0.00146766
0.000523703
0.00409454
0.00696644
0.00939514
0.0118441
0.014466
0.0170854
0.0193987
0.0211899
0.0223554
0.0228646
0.0227598
0.0221559
0.0212094
0.0200766
0.0188851
0.0177243
0.0166495
0.0156923
0.0148703
0.0141946
0.0136718
0.0133034
0.013082
0.0129887
0.012994
0.0130492
0.0131217
0.0131918
0.0132578
0.0133378
0.0134675
0.0136909
0.0140448
0.0145456
0.0151891
0.0159816
0.0169989
0.0184129
0.0203125
0.0222689
0.0233537
0.0229803
0.0213406
0.0190255
0.0165775
0.0143169
0.0123696
0.0107622
0.00949531
0.00856989
0.00798134
0.00771093
0.00774291
0.00808438
0.00874512
0.00971906
0.0109361
0.0122737
0.0135946
0.0147835
0.0157652
0.0165043
0.0169959
0.0172555
0.0173098
0.0171905
0.0169303
0.0165605
0.016109
0.0156006
0.0150559
0.0144923
0.0139235
0.0133606
0.0128121
0.0122847
0.0117835
0.0113135
0.0108723
0.010467
0.0101138
0.00983209
0.00964756
0.00960078
0.00977987
0.0104019
0.0118073
0.0140712
0.0166596
0.0188038
0.0199987
0.02012
0.0192975
0.0174699
0.0103636
0.00624912
0.00376881
0.00253153
0.0017785
0.000900798
0.00477777
0.00743578
0.00986091
0.0124441
0.0152443
0.0179863
0.0203174
0.0220238
0.0230224
0.0232988
0.0229171
0.0220255
0.0208141
0.01946
0.0180946
0.0167972
0.0156081
0.0145446
0.0136159
0.0128315
0.0122043
0.0117482
0.0114716
0.0113698
0.0114217
0.0115817
0.0117906
0.0120133
0.0122356
0.0124656
0.0127349
0.0130869
0.0135617
0.0141809
0.0149475
0.0158754
0.0170421
0.0185959
0.0205566
0.0224423
0.0233903
0.02293
0.0212903
0.0190253
0.0166298
0.0144034
0.0124808
0.0109097
0.00970737
0.00887832
0.00840909
0.0082661
0.00843168
0.00890882
0.00971351
0.0108217
0.0121392
0.0135242
0.0148357
0.0159672
0.0168578
0.0174854
0.0178561
0.017993
0.017928
0.017696
0.0173313
0.0168659
0.016328
0.0157422
0.015129
0.0145054
0.0138852
0.0132796
0.0126976
0.0121464
0.0116327
0.01116
0.0107252
0.0103452
0.0100356
0.00981533
0.00970874
0.00975172
0.0100175
0.0106869
0.0120673
0.0142899
0.0169367
0.0192757
0.0207548
0.0211869
0.020657
0.0190032
0.00955662
0.0062238
0.0041718
0.00309917
0.00175449
0.00172385
0.00522913
0.00776237
0.0102454
0.0129942
0.015967
0.0188
0.0211106
0.0226985
0.0235091
0.0235447
0.0228941
0.0217429
0.0203157
0.0188042
0.0173328
0.0159605
0.0147047
0.0135645
0.0125389
0.0116357
0.0108748
0.010285
0.00989675
0.00972828
0.00977509
0.010006
0.0103347
0.010708
0.0110932
0.0114855
0.0119094
0.0124062
0.0130171
0.0137673
0.0146661
0.0157355
0.0170542
0.0187422
0.0207457
0.0225335
0.023316
0.022742
0.0210819
0.0188581
0.0165207
0.0143479
0.0124783
0.0109748
0.00986518
0.00915281
0.00881194
0.0087977
0.00910029
0.00972372
0.0106867
0.0119347
0.0133401
0.0147453
0.0160135
0.0170546
0.0178254
0.0183193
0.0185533
0.0185578
0.0183689
0.0180239
0.0175577
0.0170024
0.0163856
0.0157312
0.0150591
0.0143856
0.0137243
0.0130862
0.0124805
0.0119153
0.0113987
0.0109279
0.0105129
0.0101702
0.00991566
0.0097675
0.00974848
0.00988917
0.0102495
0.0109806
0.0123583
0.0145505
0.0172402
0.0197432
0.0214743
0.0221898
0.0219306
0.0204325
0.00867461
0.00633378
0.00477006
0.00360866
0.00147935
0.00236477
0.00550986
0.00798271
0.0105769
0.0135008
0.0166238
0.0195108
0.021766
0.0232118
0.0238272
0.0236319
0.0227408
0.0213801
0.019805
0.0182115
0.0167041
0.0153128
0.0140292
0.0128351
0.0117201
0.0106898
0.0097687
0.00899993
0.00843907
0.00813696
0.00811684
0.00837291
0.00879492
0.00930943
0.00985867
0.0104205
0.0110102
0.0116652
0.0124257
0.0133185
0.0143587
0.0155761
0.0170487
0.0188609
0.0208799
0.022533
0.0231167
0.0224041
0.0207078
0.01852
0.0162484
0.0141493
0.0123617
0.0109571
0.00996772
0.00938961
0.00918287
0.0093012
0.00974721
0.0105411
0.0116778
0.0130593
0.0145242
0.0159091
0.0170929
0.018008
0.0186317
0.0189727
0.0190585
0.0189255
0.0186128
0.0181586
0.0175979
0.0169616
0.0162762
0.0155643
0.0148446
0.0141325
0.0134411
0.0127812
0.0121624
0.0115939
0.0110835
0.0106245
0.0102404
0.00994608
0.00975709
0.00969104
0.00976788
0.0100124
0.0104724
0.0112747
0.0126672
0.0148402
0.0175624
0.0202024
0.0221545
0.0231258
0.0231162
0.0217561
0.00802323
0.00669514
0.00545304
0.00387082
0.00102192
0.00278312
0.00566718
0.0081377
0.0108743
0.0139618
0.0172025
0.0201066
0.022279
0.0235703
0.0239983
0.023598
0.0225128
0.021008
0.0193598
0.0177539
0.0162649
0.014892
0.0136049
0.0123727
0.0111781
0.0100218
0.00892654
0.00794169
0.00714528
0.00663123
0.00647206
0.00670352
0.00719385
0.00784365
0.00856035
0.00929973
0.010066
0.0108914
0.0118132
0.012859
0.0140488
0.0154195
0.0170441
0.0189618
0.0209561
0.0224274
0.0227766
0.0219046
0.0201619
0.0180095
0.0158142
0.0138102
0.0121333
0.0108578
0.0100128
0.00958203
0.0095133
0.00977501
0.0103891
0.0113814
0.0126971
0.0141858
0.0156629
0.0169761
0.0180305
0.0187852
0.0192384
0.019413
0.019345
0.019075
0.0186436
0.0180889
0.0174443
0.016739
0.0159976
0.0152409
0.014486
0.0137475
0.0130374
0.0123667
0.0117452
0.0111843
0.0106831
0.0102509
0.00991033
0.0096762
0.00956357
0.00958903
0.00976879
0.0101212
0.0106835
0.0115623
0.012982
0.0151465
0.0178944
0.0206483
0.0227924
0.0239921
0.0242106
0.0229708
0.00779799
0.00724214
0.00600945
0.00387835
0.000645679
0.00307128
0.0057357
0.00825178
0.0111373
0.0143661
0.0176907
0.0205814
0.0226523
0.0237883
0.0240491
0.0234841
0.0222626
0.0206826
0.0190266
0.0174577
0.0160181
0.0146824
0.013407
0.0121542
0.0109012
0.00964042
0.00838325
0.00716975
0.00608165
0.0052504
0.00483863
0.00498263
0.0055284
0.00632809
0.00723147
0.00816502
0.00912187
0.0101293
0.0112218
0.0124276
0.0137717
0.0152964
0.0170625
0.0190524
0.0209656
0.0221987
0.0222789
0.0212339
0.0194421
0.0173301
0.0152245
0.0133378
0.0117993
0.0106797
0.00999773
0.00972215
0.00979781
0.0102272
0.0110505
0.0122655
0.0137429
0.015286
0.0167116
0.0178957
0.018777
0.0193421
0.0196085
0.0196106
0.0193901
0.01899
0.0184507
0.0178083
0.0170939
0.0163342
0.0155511
0.0147632
0.0139862
0.0132331
0.0125157
0.0118449
0.0112317
0.0106888
0.0102055
0.00981326
0.00952785
0.00936495
0.00933959
0.00946548
0.00975398
0.0102166
0.0108806
0.0118374
0.0132924
0.0154575
0.0182274
0.0210755
0.023384
0.0247848
0.0252095
0.0240706
0.00798116
0.00782095
0.00634906
0.0037236
0.000633719
0.00323164
0.00577819
0.0083761
0.011355
0.0146922
0.0180753
0.0209315
0.0228926
0.0238841
0.0240066
0.0233233
0.0220263
0.0204321
0.0188142
0.0173077
0.0159297
0.0146411
0.0133934
0.0121467
0.0108738
0.00955775
0.00819258
0.00679191
0.00540894
0.00415572
0.00326766
0.00316655
0.00377597
0.00479532
0.00593758
0.0070937
0.00825523
0.00945105
0.0107165
0.0120818
0.0135771
0.0152461
0.0171262
0.0191319
0.0208895
0.0218239
0.0216081
0.0203867
0.0185515
0.0164902
0.0144907
0.0127441
0.0113695
0.0104273
0.00992055
0.00980488
0.0100441
0.0106871
0.0117711
0.0132066
0.0147901
0.0163094
0.0176101
0.0186092
0.0192809
0.0196367
0.0197096
0.0195418
0.0191782
0.0186615
0.0180298
0.0173164
0.016549
0.0157507
0.0149408
0.0141354
0.0133484
0.0125921
0.0118778
0.0112168
0.0106231
0.0101002
0.00965108
0.00931126
0.00909519
0.00901711
0.00909084
0.0093259
0.00972761
0.0103003
0.011063
0.0120956
0.01359
0.015763
0.018553
0.0214787
0.0239255
0.0254993
0.0261068
0.0250463
0.00842621
0.0083404
0.00652525
0.00350876
0.000792023
0.00329041
0.00576911
0.00845225
0.0115587
0.0149723
0.0183391
0.021152
0.0230066
0.0238711
0.0238899
0.0231353
0.0218162
0.0202528
0.018699
0.0172653
0.0159542
0.0147235
0.013525
0.0123193
0.0110766
0.00977437
0.0083936
0.00691627
0.00535381
0.00375503
0.00218213
0.00121791
0.00201145
0.00343636
0.00486706
0.00624503
0.00759643
0.00896279
0.0103836
0.011892
0.0135212
0.0153079
0.0172508
0.0191884
0.0206994
0.0212789
0.0207536
0.0193643
0.0174996
0.0155044
0.0136298
0.0120456
0.0108565
0.0101069
0.00978233
0.0098376
0.0102891
0.0112184
0.0125848
0.014186
0.015781
0.0171832
0.0182876
0.019056
0.0194942
0.0196337
0.0195176
0.0191924
0.0187026
0.0180885
0.0173844
0.0166191
0.0158163
0.0149955
0.0141726
0.0133618
0.0125755
0.0118255
0.0111235
0.0104818
0.00991844
0.00941841
0.00902411
0.00875207
0.00861942
0.00864089
0.00882616
0.00917845
0.00969588
0.0103758
0.011231
0.0123341
0.0138687
0.0160553
0.0188652
0.0218539
0.0244128
0.0261295
0.0268936
0.0258839
0.00898345
0.00879477
0.00661612
0.00331459
0.000921353
0.003268
0.00571556
0.00847598
0.0116806
0.0151601
0.0185271
0.0212667
0.0229992
0.0237568
0.0237054
0.0229297
0.0216378
0.0201337
0.0186521
0.0172914
0.0160513
0.0148906
0.0137633
0.0126306
0.0114622
0.0102332
0.00892241
0.00751435
0.00600561
0.00440715
0.00274003
0.00118908
0.00140368
0.00287759
0.0043961
0.0058763
0.00733919
0.00882086
0.0103556
0.0119725
0.0136962
0.015535
0.0174283
0.0191597
0.0203363
0.0205424
0.0197143
0.0181767
0.0163031
0.0143933
0.0126639
0.0112623
0.0102751
0.00972683
0.00959147
0.00985427
0.0106093
0.0118825
0.0134841
0.0151385
0.0166267
0.017821
0.018672
0.0191811
0.0193788
0.0193093
0.0190209
0.0185597
0.0179675
0.0172796
0.0165252
0.0157279
0.0149067
0.0140772
0.0132528
0.0124457
0.0116678
0.0109312
0.0102488
0.0096371
0.00910965
0.00865157
0.00832179
0.00813571
0.00810745
0.00824759
0.00855833
0.00903469
0.0096674
0.0104482
0.0113865
0.0125521
0.0141255
0.0163306
0.0191608
0.0221988
0.0248419
0.0266676
0.0275577
0.0265632
0.00954932
0.00919622
0.00667808
0.00318184
0.00097718
0.00317526
0.00561125
0.00843567
0.0117142
0.0152367
0.0185959
0.021273
0.0229009
0.0235698
0.0234782
0.0227115
0.0214665
0.0200306
0.0186249
0.0173425
0.0161836
0.0151103
0.0140793
0.0130542
0.0120056
0.010909
0.00974282
0.008493
0.00716438
0.00579741
0.00448941
0.00346042
0.00318347
0.00382949
0.00495387
0.00627471
0.00768933
0.009176
0.0107379
0.012382
0.0141063
0.0158765
0.0175813
0.0189866
0.0197608
0.0196059
0.0184948
0.0168411
0.0149848
0.0131827
0.0116186
0.0104164
0.00964145
0.00930163
0.00938117
0.00994634
0.0111061
0.0126936
0.0143946
0.0159532
0.0172198
0.0181358
0.0187001
0.0189437
0.0189123
0.0186559
0.0182225
0.0176547
0.0169883
0.0162524
0.0154698
0.0146586
0.013833
0.0130053
0.0121867
0.0113883
0.0106227
0.00990341
0.00924557
0.00867393
0.0081677
0.00778687
0.00755118
0.0074783
0.0075805
0.00785979
0.0083079
0.00891087
0.00965352
0.0105248
0.0115338
0.0127522
0.0143622
0.0165909
0.0194425
0.0225144
0.0252091
0.0271029
0.0280814
0.0270573
0.0100612
0.00955306
0.00674161
0.00311668
0.000961559
0.00302103
0.00545125
0.00832106
0.0116488
0.0151975
0.0185501
0.0211777
0.0227135
0.0233076
0.0231962
0.022458
0.0212726
0.0199107
0.0185837
0.0173833
0.0163132
0.015339
0.0144207
0.0135245
0.0126239
0.011697
0.0107264
0.00970248
0.00863362
0.00755831
0.00656234
0.00579111
0.00545071
0.00570877
0.00642633
0.0074578
0.00868967
0.0100594
0.011533
0.013084
0.0146746
0.0162322
0.0176186
0.0186153
0.0189623
0.0184682
0.0171219
0.0153817
0.0135731
0.0119024
0.0105213
0.00952996
0.00897464
0.00886308
0.00924133
0.0102638
0.0118247
0.0135639
0.0151767
0.0164956
0.0174556
0.0180558
0.0183294
0.0183245
0.0180932
0.0176847
0.0171423
0.0165017
0.0157911
0.0150321
0.0142411
0.0134306
0.0126108
0.0117909
0.0109807
0.0101916
0.00943791
0.0087366
0.00810981
0.00758935
0.00714216
0.00685276
0.00673922
0.00681349
0.00707528
0.00751148
0.00810212
0.00882668
0.00966744
0.0106142
0.0116799
0.0129417
0.0145879
0.0168476
0.0197203
0.022805
0.0255084
0.0274221
0.0284417
0.0273316
0.0104817
0.00986796
0.00681868
0.00310901
0.000884533
0.00281318
0.00523486
0.0081277
0.0114789
0.015038
0.0183894
0.0209864
0.0224414
0.0229676
0.0228475
0.0221486
0.021029
0.0197432
0.0184959
0.0173799
0.016403
0.0155345
0.0147369
0.0139788
0.0132367
0.012492
0.0117306
0.0109454
0.010143
0.00935273
0.00863613
0.00808186
0.00779541
0.00790769
0.00838055
0.00915324
0.0101531
0.0113171
0.0125923
0.0139263
0.0152539
0.0164797
0.017462
0.0180139
0.0179457
0.0171429
0.0156281
0.0138286
0.0121007
0.010583
0.00939794
0.00862571
0.00831021
0.0085038
0.00936712
0.0108922
0.0126623
0.0143126
0.0156602
0.0166392
0.0172527
0.0175378
0.017546
0.0173313
0.0169439
0.0164271
0.0158159
0.0151372
0.0144107
0.0136507
0.0128673
0.0120683
0.0112603
0.0104506
0.0096483
0.00886561
0.00811947
0.00743156
0.00683937
0.00633929
0.00599204
0.00585147
0.00592122
0.00619177
0.00664161
0.00724304
0.00797008
0.0088018
0.00972249
0.0107268
0.0118359
0.0131343
0.014818
0.0171143
0.0200102
0.0230867
0.0257475
0.0276068
0.0285925
0.0273533
0.0107815
0.0101359
0.00691184
0.00314726
0.000757489
0.00256171
0.00496767
0.0078588
0.0112064
0.0147586
0.0181154
0.0207044
0.0220874
0.022546
0.0224201
0.0217639
0.0207109
0.0195005
0.0183321
0.017301
0.016419
0.0156581
0.0149824
0.0143621
0.0137759
0.0132086
0.0126496
0.0120928
0.011541