/*--------------------------------*- C++ -*----------------------------------*\
| =========                 |                                                 |
| \\      /  F ield         | OpenFOAM: The Open Source CFD Toolbox           |
|  \\    /   O peration     | Version:  4.1                                   |
|   \\  /    A nd           | Web:      www.OpenFOAM.org                      |
|    \\/     M anipulation  |                                                 |
\*---------------------------------------------------------------------------*/
FoamFile
{
    version     2.0;
    format      ascii;
    class       volScalarField;
    location    "1620";
    object      p_rgh;
}
// * * * * * * * * * * * * * * * * * * * * * * * * * * * * * * * * * * * * * //

dimensions      [0 2 -2 0 0 0 0];

internalField   nonuniform List<scalar> 
5000
(
0.0491874
0.0491831
0.0491832
0.049191
0.0492041
0.0492179
0.0492293
0.0492386
0.0492467
0.0492539
0.0492606
0.0492664
0.0492716
0.0492767
0.0492811
0.049284
0.049285
0.0492838
0.0492802
0.0492743
0.0492661
0.049256
0.0492442
0.0492312
0.0492173
0.049203
0.0491888
0.0491748
0.0491615
0.049149
0.0491375
0.0491272
0.0491183
0.0491109
0.0491048
0.0491001
0.0490967
0.0490943
0.049093
0.0490926
0.049093
0.0490939
0.0490947
0.0490951
0.0490947
0.0490943
0.0490924
0.049087
0.0490784
0.0490705
0.049064
0.0490584
0.0490535
0.0490493
0.0490461
0.0490439
0.0490429
0.0490435
0.0490456
0.0490496
0.0490553
0.0490628
0.0490721
0.0490829
0.0490951
0.0491083
0.0491221
0.0491361
0.04915
0.0491632
0.0491755
0.0491866
0.0491963
0.0492047
0.049212
0.049218
0.0492225
0.0492256
0.0492274
0.049228
0.0492275
0.049226
0.0492236
0.0492209
0.0492185
0.0492169
0.0492156
0.0492125
0.0492047
0.0491921
0.0491809
0.0491775
0.0491815
0.0491843
0.0491861
0.0491903
0.0491916
0.0491895
0.0491819
0.0491744
0.0491783
0.0491832
0.0491913
0.0492101
0.0492247
0.0492377
0.0492493
0.0492589
0.0492671
0.0492743
0.0492809
0.0492872
0.0492933
0.0492988
0.0493033
0.0493061
0.0493071
0.0493059
0.0493023
0.0492965
0.0492886
0.0492788
0.0492675
0.0492552
0.0492421
0.0492289
0.0492157
0.0492032
0.0491914
0.0491808
0.0491715
0.0491636
0.0491568
0.0491511
0.0491464
0.0491428
0.0491401
0.0491384
0.0491378
0.0491383
0.04914
0.0491427
0.0491442
0.0491404
0.0491277
0.0491099
0.0490977
0.049104
0.0491126
0.0491111
0.0491083
0.0491047
0.049101
0.0490974
0.0490943
0.049092
0.0490906
0.0490905
0.0490916
0.0490942
0.0490983
0.0491044
0.0491124
0.0491222
0.0491336
0.0491462
0.0491596
0.0491735
0.0491874
0.0492008
0.0492136
0.0492253
0.0492359
0.0492456
0.0492542
0.0492615
0.0492676
0.0492724
0.0492762
0.0492791
0.0492812
0.0492826
0.0492834
0.0492837
0.0492834
0.0492825
0.0492806
0.0492773
0.0492701
0.0492518
0.0492213
0.0491952
0.0491846
0.0491915
0.0492112
0.0492176
0.0492154
0.0492093
0.0492009
0.0491707
0.0491591
0.0491696
0.0491762
0.0492015
0.0492181
0.0492332
0.0492458
0.0492552
0.0492631
0.0492701
0.0492768
0.0492833
0.0492897
0.0492956
0.0493004
0.0493035
0.0493047
0.0493036
0.0493001
0.0492943
0.0492863
0.0492764
0.049265
0.0492525
0.0492394
0.049226
0.0492127
0.0492
0.0491881
0.0491773
0.0491678
0.0491598
0.0491535
0.0491489
0.0491459
0.0491444
0.0491442
0.0491452
0.0491472
0.0491501
0.0491539
0.0491581
0.0491607
0.0491568
0.0491392
0.0491083
0.0490857
0.049097
0.0491212
0.0491277
0.049124
0.0491182
0.0491117
0.0491051
0.0490991
0.0490941
0.0490904
0.0490885
0.0490884
0.0490903
0.0490943
0.0491004
0.0491086
0.0491186
0.0491303
0.0491432
0.049157
0.0491713
0.0491855
0.0491993
0.0492124
0.0492244
0.0492355
0.0492456
0.0492544
0.0492619
0.0492681
0.0492731
0.0492771
0.0492801
0.0492823
0.0492839
0.0492849
0.0492853
0.0492853
0.0492849
0.0492839
0.049282
0.0492774
0.0492647
0.0492369
0.0492026
0.0491818
0.0491849
0.0492025
0.0492164
0.0492162
0.0492058
0.0491915
0.0491744
0.0491491
0.049164
0.0491489
0.0491819
0.0492063
0.0492275
0.0492422
0.0492512
0.0492584
0.0492652
0.049272
0.0492791
0.0492863
0.049293
0.0492985
0.0493023
0.0493039
0.0493031
0.0492997
0.0492939
0.0492858
0.0492757
0.0492641
0.0492514
0.0492381
0.0492245
0.0492111
0.0491981
0.0491859
0.0491747
0.0491647
0.0491562
0.0491493
0.0491441
0.0491408
0.0491393
0.0491395
0.0491412
0.0491442
0.0491484
0.0491535
0.0491589
0.0491627
0.0491592
0.0491385
0.0490985
0.0490672
0.0490789
0.0491114
0.0491273
0.0491252
0.0491175
0.049109
0.0491007
0.0490934
0.0490875
0.0490834
0.0490812
0.0490811
0.0490831
0.0490873
0.0490937
0.0491022
0.0491127
0.0491249
0.0491384
0.0491528
0.0491677
0.0491826
0.049197
0.0492106
0.0492233
0.049235
0.0492455
0.0492546
0.0492623
0.0492687
0.0492739
0.0492779
0.049281
0.0492833
0.0492849
0.0492859
0.0492864
0.0492866
0.0492865
0.0492861
0.0492852
0.0492823
0.0492724
0.0492472
0.04921
0.0491818
0.0491786
0.049194
0.0492112
0.0492157
0.0492091
0.0492037
0.0491981
0.0491547
0.0491753
0.0491282
0.0491487
0.049185
0.049223
0.0492405
0.0492481
0.049254
0.0492604
0.0492677
0.049276
0.0492845
0.0492925
0.049299
0.0493035
0.0493055
0.0493048
0.0493014
0.0492953
0.049287
0.0492767
0.0492648
0.0492519
0.0492385
0.0492248
0.0492112
0.0491982
0.0491858
0.0491744
0.049164
0.0491548
0.0491471
0.0491409
0.0491366
0.0491342
0.0491336
0.0491348
0.0491377
0.0491421
0.0491476
0.0491535
0.0491577
0.0491543
0.0491318
0.0490865
0.049049
0.0490579
0.0490937
0.0491167
0.0491184
0.0491105
0.0491009
0.0490919
0.0490841
0.049078
0.0490738
0.0490716
0.0490716
0.0490739
0.0490783
0.0490851
0.0490941
0.0491052
0.0491181
0.0491324
0.0491477
0.0491635
0.0491793
0.0491945
0.0492091
0.0492226
0.0492349
0.0492458
0.0492554
0.0492634
0.0492701
0.0492755
0.0492797
0.0492829
0.0492853
0.0492869
0.049288
0.0492887
0.049289
0.0492891
0.0492892
0.049289
0.0492873
0.0492793
0.0492566
0.049219
0.049185
0.0491734
0.0491832
0.0491996
0.0492064
0.0492004
0.0491967
0.049199
0.0491702
0.0492017
0.0491194
0.0491294
0.0491696
0.0492211
0.0492416
0.0492461
0.0492501
0.0492563
0.0492649
0.0492751
0.0492853
0.0492944
0.0493016
0.0493063
0.0493082
0.0493073
0.0493034
0.0492969
0.049288
0.0492773
0.0492651
0.049252
0.0492384
0.0492248
0.0492114
0.0491986
0.0491864
0.049175
0.0491646
0.0491552
0.0491468
0.0491398
0.0491343
0.0491305
0.0491286
0.0491286
0.0491305
0.0491342
0.0491393
0.0491449
0.049149
0.0491452
0.0491219
0.049074
0.0490324
0.0490369
0.0490727
0.0491008
0.0491069
0.0491002
0.0490901
0.0490807
0.0490727
0.0490665
0.0490622
0.0490601
0.0490603
0.0490628
0.0490676
0.0490748
0.0490845
0.0490963
0.0491101
0.0491255
0.0491419
0.0491588
0.0491756
0.049192
0.0492076
0.049222
0.0492351
0.0492467
0.0492567
0.0492652
0.0492722
0.0492779
0.0492823
0.0492857
0.0492882
0.0492899
0.0492911
0.0492919
0.0492923
0.0492927
0.049293
0.0492932
0.0492922
0.0492858
0.0492656
0.0492289
0.0491904
0.0491701
0.0491719
0.0491847
0.0491927
0.0491893
0.0491857
0.0491893
0.0491892
0.0492294
0.0491233
0.04913
0.0491883
0.0492303
0.049243
0.0492442
0.0492466
0.0492538
0.0492648
0.0492771
0.0492884
0.0492978
0.0493049
0.0493092
0.0493104
0.0493086
0.0493039
0.0492965
0.0492869
0.0492755
0.0492628
0.0492495
0.0492359
0.0492225
0.0492095
0.0491972
0.0491856
0.0491748
0.0491649
0.0491558
0.0491474
0.0491399
0.0491335
0.0491284
0.0491249
0.0491233
0.0491236
0.0491259
0.0491298
0.0491346
0.0491379
0.0491336
0.0491098
0.0490611
0.0490171
0.0490169
0.0490506
0.0490819
0.0490926
0.0490879
0.0490781
0.0490684
0.0490601
0.0490537
0.0490494
0.0490473
0.0490476
0.0490503
0.0490555
0.0490633
0.0490736
0.0490864
0.0491012
0.0491178
0.0491354
0.0491537
0.0491719
0.0491895
0.0492062
0.0492217
0.0492357
0.049248
0.0492586
0.0492676
0.049275
0.0492809
0.0492856
0.0492892
0.0492918
0.0492937
0.049295
0.0492959
0.0492964
0.0492969
0.0492973
0.0492977
0.0492971
0.049292
0.0492743
0.0492393
0.049198
0.0491698
0.049163
0.0491706
0.0491785
0.0491786
0.0491771
0.0491823
0.0492074
0.0492468
0.0491531
0.0491497
0.0492189
0.0492435
0.0492437
0.0492409
0.0492436
0.0492539
0.049268
0.0492812
0.0492924
0.0493013
0.0493074
0.0493107
0.0493107
0.0493077
0.0493017
0.0492931
0.0492823
0.04927
0.0492568
0.0492431
0.0492295
0.0492164
0.049204
0.0491924
0.0491818
0.0491721
0.0491632
0.0491549
0.0491472
0.04914
0.0491332
0.0491272
0.0491223
0.049119
0.0491174
0.0491179
0.0491201
0.0491234
0.0491256
0.0491204
0.0490964
0.049048
0.0490027
0.048998
0.0490286
0.0490616
0.0490765
0.0490746
0.0490656
0.0490558
0.0490472
0.0490406
0.049036
0.0490339
0.0490342
0.0490371
0.0490427
0.049051
0.0490621
0.0490758
0.0490919
0.0491098
0.0491288
0.0491485
0.0491681
0.0491872
0.0492052
0.0492218
0.0492368
0.0492499
0.0492611
0.0492706
0.0492784
0.0492846
0.0492895
0.0492933
0.0492961
0.0492981
0.0492995
0.0493004
0.0493011
0.0493015
0.0493019
0.0493022
0.0493019
0.0492978
0.0492825
0.0492499
0.0492072
0.0491728
0.0491577
0.0491593
0.0491662
0.0491698
0.0491725
0.0491781
0.0492209
0.0492654
0.0492053
0.0491862
0.0492453
0.0492479
0.0492396
0.0492361
0.0492427
0.0492579
0.0492732
0.049286
0.0492961
0.0493036
0.0493084
0.0493101
0.0493087
0.049304
0.0492964
0.0492862
0.049274
0.0492605
0.0492464
0.0492323
0.0492186
0.0492058
0.049194
0.0491834
0.0491739
0.0491656
0.0491581
0.0491514
0.049145
0.0491387
0.0491323
0.049126
0.0491202
0.0491153
0.0491119
0.0491103
0.0491105
0.049112
0.0491126
0.0491064
0.0490823
0.049035
0.0489892
0.0489806
0.0490074
0.0490409
0.0490593
0.0490607
0.0490532
0.0490437
0.049035
0.0490281
0.0490233
0.0490209
0.0490211
0.049024
0.0490299
0.0490388
0.0490506
0.0490653
0.0490824
0.0491016
0.0491222
0.0491436
0.0491649
0.0491855
0.0492049
0.0492226
0.0492385
0.0492524
0.0492642
0.0492741
0.0492823
0.0492888
0.0492939
0.0492978
0.0493007
0.0493028
0.0493043
0.0493053
0.049306
0.0493064
0.0493067
0.0493069
0.0493065
0.0493031
0.0492901
0.0492603
0.0492176
0.0491783
0.0491557
0.0491511
0.0491561
0.0491621
0.0491686
0.0491767
0.0492287
0.049281
0.0492504
0.0492293
0.0492524
0.0492408
0.0492318
0.0492319
0.0492457
0.0492645
0.0492791
0.0492903
0.0492986
0.0493044
0.0493075
0.0493076
0.0493043
0.0492977
0.049288
0.0492758
0.0492618
0.0492468
0.0492316
0.0492168
0.049203
0.0491904
0.0491793
0.0491697
0.0491616
0.0491549
0.0491492
0.0491443
0.0491397
0.049135
0.0491297
0.0491239
0.0491178
0.0491119
0.0491068
0.0491032
0.0491012
0.0491007
0.0490996
0.0490922
0.049068
0.0490221
0.0489766
0.0489645
0.0489876
0.0490206
0.0490419
0.0490466
0.0490412
0.0490325
0.049024
0.049017
0.0490121
0.0490094
0.0490092
0.0490119
0.0490178
0.0490269
0.0490393
0.0490549
0.0490734
0.0490942
0.0491165
0.0491396
0.0491626
0.0491847
0.0492054
0.0492243
0.049241
0.0492556
0.0492679
0.0492782
0.0492866
0.0492933
0.0492985
0.0493025
0.0493055
0.0493077
0.0493092
0.0493102
0.0493109
0.0493112
0.0493114
0.0493114
0.0493109
0.0493079
0.0492968
0.04927
0.0492283
0.0491855
0.0491563
0.0491452
0.049147
0.0491537
0.0491627
0.0491728
0.0492306
0.0492876
0.0492708
0.0492534
0.0492415
0.0492285
0.0492235
0.0492304
0.0492532
0.0492716
0.0492842
0.0492931
0.0492995
0.0493035
0.049305
0.0493033
0.049298
0.049289
0.0492768
0.0492621
0.0492458
0.049229
0.0492124
0.0491968
0.0491827
0.0491703
0.04916
0.0491515
0.0491449
0.0491399
0.0491363
0.0491335
0.049131
0.0491282
0.0491247
0.04912
0.0491144
0.0491081
0.0491019
0.0490965
0.0490925
0.0490898
0.0490868
0.049078
0.0490538
0.0490094
0.0489646
0.0489499
0.0489693
0.0490012
0.0490247
0.0490327
0.0490298
0.0490223
0.0490144
0.0490076
0.0490025
0.0489994
0.0489989
0.0490012
0.0490069
0.0490162
0.0490292
0.0490458
0.0490656
0.0490881
0.0491122
0.049137
0.0491617
0.0491853
0.0492072
0.049227
0.0492445
0.0492596
0.0492723
0.0492828
0.0492913
0.0492981
0.0493033
0.0493073
0.0493103
0.0493125
0.049314
0.049315
0.0493156
0.0493158
0.0493158
0.0493156
0.0493149
0.049312
0.0493023
0.0492785
0.0492386
0.0491935
0.0491584
0.0491407
0.049138
0.0491436
0.0491531
0.049164
0.0492282
0.0492864
0.0492697
0.0492473
0.0492256
0.0492164
0.0492176
0.0492339
0.0492619
0.0492776
0.0492876
0.0492942
0.0492987
0.0493013
0.0493012
0.0492977
0.04929
0.0492782
0.0492629
0.0492451
0.0492261
0.049207
0.0491889
0.0491723
0.0491579
0.0491458
0.0491362
0.049129
0.049124
0.0491209
0.0491194
0.0491189
0.0491188
0.0491183
0.0491168
0.0491139
0.0491094
0.0491034
0.0490967
0.04909
0.0490842
0.0490795
0.0490745
0.0490643
0.0490399
0.0489971
0.0489533
0.0489367
0.0489527
0.0489832
0.0490081
0.0490192
0.049019
0.0490133
0.0490063
0.0489998
0.0489946
0.0489913
0.0489903
0.0489921
0.0489976
0.049007
0.0490206
0.0490383
0.0490597
0.0490838
0.0491098
0.0491364
0.0491627
0.0491876
0.0492105
0.0492311
0.0492491
0.0492645
0.0492773
0.0492879
0.0492963
0.049303
0.0493081
0.049312
0.0493148
0.0493169
0.0493183
0.0493193
0.0493198
0.0493199
0.0493198
0.0493194
0.0493183
0.0493153
0.0493066
0.0492854
0.0492478
0.0492014
0.0491611
0.0491367
0.0491284
0.0491312
0.0491395
0.0491496
0.0492225
0.0492797
0.0492565
0.0492279
0.0492106
0.0492057
0.0492145
0.0492439
0.0492691
0.0492818
0.049289
0.0492936
0.0492967
0.0492981
0.0492967
0.0492912
0.0492807
0.0492654
0.0492463
0.0492249
0.0492026
0.049181
0.0491611
0.0491436
0.0491289
0.0491173
0.0491086
0.0491027
0.0490994
0.0490983
0.049099
0.049101
0.0491033
0.0491053
0.0491062
0.0491054
0.0491025
0.0490975
0.0490909
0.0490834
0.0490762
0.0490697
0.0490629
0.0490512
0.0490266
0.0489852
0.0489428
0.0489249
0.048938
0.0489668
0.0489927
0.0490064
0.049009
0.0490054
0.0489995
0.0489935
0.0489884
0.0489848
0.0489833
0.0489847
0.0489899
0.0489996
0.049014
0.049033
0.049056
0.0490821
0.04911
0.0491383
0.049166
0.049192
0.0492157
0.0492367
0.0492549
0.0492703
0.049283
0.0492933
0.0493014
0.0493078
0.0493126
0.0493162
0.0493188
0.0493207
0.049322
0.0493228
0.0493232
0.0493233
0.0493231
0.0493223
0.0493208
0.0493176
0.0493097
0.0492907
0.0492554
0.0492086
0.0491638
0.0491327
0.0491181
0.0491165
0.0491222
0.0491302
0.0492134
0.0492691
0.0492383
0.0492091
0.0491971
0.0491974
0.0492158
0.0492555
0.0492748
0.049284
0.0492885
0.0492915
0.0492938
0.0492945
0.0492919
0.0492842
0.0492704
0.0492508
0.0492271
0.0492014
0.0491755
0.0491512
0.0491296
0.0491113
0.0490967
0.0490856
0.049078
0.0490735
0.049072
0.049073
0.049076
0.0490803
0.0490851
0.0490896
0.0490931
0.0490947
0.0490938
0.0490903
0.0490842
0.0490766
0.0490684
0.0490604
0.0490519
0.0490389
0.049014
0.048974
0.048933
0.0489145
0.0489252
0.0489524
0.0489786
0.0489945
0.0489998
0.0489984
0.0489939
0.0489885
0.0489835
0.0489796
0.0489777
0.0489788
0.048984
0.0489941
0.0490096
0.0490303
0.0490553
0.0490835
0.0491133
0.0491432
0.049172
0.0491988
0.0492229
0.049244
0.0492619
0.0492769
0.0492891
0.0492988
0.0493064
0.0493122
0.0493166
0.0493198
0.0493221
0.0493237
0.0493248
0.0493254
0.0493257
0.0493256
0.0493253
0.0493243
0.0493224
0.0493189
0.0493114
0.0492942
0.0492613
0.0492146
0.0491661
0.0491284
0.0491069
0.0490999
0.0491017
0.0491068
0.0492012
0.0492546
0.049219
0.0491936
0.0491851
0.049192
0.0492257
0.049264
0.0492785
0.049284
0.0492862
0.0492883
0.0492905
0.0492911
0.0492873
0.049277
0.0492591
0.0492345
0.0492055
0.0491749
0.0491453
0.0491184
0.0490954
0.0490768
0.0490625
0.0490523
0.049046
0.0490431
0.0490434
0.0490463
0.0490514
0.049058
0.0490652
0.0490722
0.0490782
0.0490822
0.0490835
0.0490817
0.0490767
0.0490694
0.0490607
0.0490516
0.0490416
0.0490273
0.0490021
0.0489634
0.0489242
0.0489055
0.0489144
0.04894
0.0489662
0.0489838
0.0489915
0.0489921
0.048989
0.0489843
0.0489794
0.0489753
0.0489731
0.0489741
0.0489796
0.0489907
0.0490079
0.0490307
0.0490581
0.0490885
0.0491201
0.0491515
0.0491811
0.0492082
0.0492322
0.0492528
0.0492701
0.0492842
0.0492955
0.0493044
0.0493111
0.0493162
0.0493199
0.0493225
0.0493243
0.0493256
0.0493264
0.0493268
0.049327
0.0493269
0.0493263
0.0493251
0.0493228
0.049319
0.0493117
0.0492959
0.0492651
0.049219
0.0491674
0.0491235
0.0490949
0.0490817
0.0490788
0.0490802
0.0491885
0.0492342
0.0492008
0.0491811
0.0491749
0.0491914
0.0492423
0.0492703
0.0492799
0.0492819
0.0492824
0.0492846
0.0492875
0.0492882
0.0492833
0.0492699
0.049247
0.0492165
0.0491815
0.0491459
0.0491127
0.0490838
0.04906
0.0490416
0.0490283
0.0490195
0.0490148
0.0490136
0.0490155
0.04902
0.0490269
0.0490354
0.0490448
0.0490541
0.0490624
0.0490687
0.0490722
0.0490721
0.0490684
0.0490617
0.0490528
0.049043
0.0490319
0.0490165
0.048991
0.0489536
0.0489162
0.048898
0.0489058
0.0489298
0.0489557
0.0489744
0.048984
0.0489864
0.0489846
0.0489805
0.0489757
0.0489715
0.0489692
0.0489705
0.048977
0.0489898
0.0490093
0.0490349
0.049065
0.0490978
0.0491311
0.0491634
0.0491934
0.0492203
0.0492435
0.0492631
0.0492792
0.049292
0.049302
0.0493096
0.0493152
0.0493193
0.0493221
0.0493241
0.0493254
0.0493262
0.0493267
0.0493269
0.0493269
0.0493267
0.049326
0.0493245
0.049322
0.0493179
0.0493106
0.0492958
0.049267
0.0492217
0.0491676
0.049118
0.0490821
0.0490623
0.0490542
0.0490513
0.0491772
0.0492096
0.0491856
0.0491713
0.0491666
0.049201
0.0492566
0.049275
0.0492791
0.0492778
0.0492777
0.0492809
0.049285
0.0492861
0.04928
0.049263
0.0492344
0.0491971
0.0491559
0.0491154
0.0490792
0.049049
0.0490254
0.049008
0.0489962
0.0489893
0.0489865
0.0489871
0.0489905
0.0489965
0.0490046
0.0490145
0.0490254
0.0490365
0.0490467
0.049055
0.0490603
0.0490619
0.0490596
0.0490536
0.0490449
0.0490346
0.0490227
0.0490064
0.0489808
0.0489447
0.0489094
0.0488922
0.0488993
0.0489221
0.0489474
0.0489666
0.0489774
0.0489813
0.0489804
0.0489768
0.0489722
0.048968
0.048966
0.0489681
0.0489764
0.048992
0.0490148
0.0490438
0.0490769
0.0491119
0.0491466
0.0491793
0.049209
0.0492348
0.0492566
0.0492745
0.0492888
0.0492998
0.0493081
0.0493141
0.0493184
0.0493213
0.0493231
0.0493242
0.0493249
0.0493253
0.0493254
0.0493254
0.0493254
0.049325
0.0493241
0.0493224
0.0493197
0.0493153
0.049308
0.049294
0.0492668
0.0492225
0.0491666
0.0491118
0.0490689
0.0490421
0.0490283
0.0490207
0.0491678
0.049187
0.0491709
0.0491577
0.0491727
0.0492236
0.0492657
0.0492768
0.0492757
0.049272
0.0492723
0.0492774
0.0492834
0.0492852
0.0492776
0.0492565
0.0492215
0.049177
0.0491294
0.0490847
0.0490464
0.049016
0.0489934
0.0489778
0.0489681
0.0489634
0.0489627
0.0489652
0.0489702
0.0489773
0.0489862
0.0489969
0.0490088
0.0490209
0.0490324
0.049042
0.0490487
0.0490516
0.0490504
0.0490452
0.0490369
0.0490264
0.0490139
0.048997
0.0489714
0.0489367
0.0489037
0.0488882
0.0488952
0.0489168
0.0489412
0.0489604
0.0489719
0.0489766
0.0489763
0.0489731
0.0489686
0.0489647
0.0489635
0.0489675
0.0489789
0.0489984
0.0490255
0.0490584
0.0490945
0.0491313
0.0491667
0.049199
0.0492274
0.0492514
0.0492711
0.0492866
0.0492984
0.0493072
0.0493134
0.0493175
0.0493202
0.0493217
0.0493225
0.0493228
0.0493228
0.0493227
0.0493225
0.0493223
0.0493221
0.0493216
0.0493206
0.0493188
0.0493159
0.0493114
0.0493041
0.0492906
0.0492648
0.0492215
0.0491642
0.0491048
0.0490551
0.0490214
0.0490016
0.048989
0.049159
0.0491683
0.0491561
0.0491546
0.049186
0.049243
0.0492717
0.0492754
0.0492697
0.0492649
0.0492667
0.0492745
0.0492827
0.0492854
0.0492764
0.0492508
0.0492087
0.0491568
0.0491034
0.0490553
0.0490161
0.0489864
0.0489654
0.0489519
0.0489444
0.0489419
0.0489434
0.0489481
0.0489549
0.0489633
0.0489729
0.0489837
0.0489958
0.0490083
0.0490201
0.0490303
0.0490378
0.0490415
0.0490411
0.0490366
0.0490287
0.0490183
0.0490055
0.0489882
0.0489628
0.0489296
0.0488994
0.0488859
0.0488933
0.048914
0.0489374
0.048956
0.0489676
0.0489725
0.0489725
0.0489694
0.0489652
0.0489621
0.0489626
0.0489698
0.0489856
0.0490104
0.0490426
0.0490795
0.0491183
0.0491562
0.0491913
0.0492222
0.0492483
0.0492695
0.0492861
0.0492985
0.0493075
0.0493135
0.0493173
0.0493194
0.0493203
0.0493204
0.0493201
0.0493195
0.0493189
0.0493183
0.0493179
0.0493176
0.0493172
0.0493165
0.0493155
0.0493137
0.0493107
0.0493061
0.0492988
0.0492857
0.049261
0.0492188
0.0491605
0.049097
0.049041
0.0490005
0.0489746
0.0489567
0.0491492
0.0491517
0.0491452
0.0491606
0.0492036
0.0492561
0.0492737
0.0492705
0.0492615
0.0492567
0.0492609
0.049272
0.0492829
0.0492868
0.0492764
0.049246
0.0491968
0.0491377
0.0490793
0.0490289
0.0489897
0.0489613
0.048942
0.0489301
0.0489243
0.0489236
0.0489272
0.0489342
0.0489433
0.0489536
0.0489641
0.0489751
0.0489868
0.0489988
0.0490103
0.0490203
0.0490278
0.0490318
0.0490318
0.0490277
0.0490203
0.0490102
0.0489974
0.04898
0.048955
0.0489237
0.0488964
0.0488855
0.0488938
0.0489137
0.0489358
0.0489534
0.0489644
0.0489691
0.048969
0.048966
0.0489624
0.0489607
0.0489644
0.0489766
0.0489986
0.0490298
0.0490673
0.049108
0.0491485
0.0491863
0.0492198
0.049248
0.0492707
0.0492881
0.0493009
0.0493096
0.0493151
0.0493181
0.0493193
0.0493192
0.0493183
0.049317
0.0493156
0.0493142
0.049313
0.0493121
0.0493114
0.0493109
0.0493104
0.0493098
0.0493087
0.049307
0.0493041
0.0492995
0.0492922
0.0492794
0.0492557
0.0492144
0.0491554
0.0490884
0.0490265
0.0489795
0.0489475
0.0489242
0.0491365
0.0491361
0.049141
0.0491714
0.0492228
0.0492634
0.0492712
0.0492624
0.0492513
0.0492476
0.049255
0.0492698
0.0492838
0.0492892
0.0492778
0.0492427
0.0491866
0.0491211
0.0490587
0.0490071
0.0489683
0.0489409
0.0489226
0.0489116
0.0489065
0.0489068
0.0489119
0.048921
0.0489329
0.0489459
0.0489583
0.0489698
0.048981
0.0489919
0.0490023
0.0490115
0.0490184
0.0490221
0.0490222
0.0490185
0.0490116
0.0490019
0.0489895
0.0489722
0.0489479
0.0489187
0.0488949
0.0488871
0.0488965
0.0489158
0.0489363
0.0489526
0.0489625
0.0489665
0.0489662
0.0489635
0.048961
0.0489621
0.0489709
0.0489902
0.0490201
0.0490582
0.0491008
0.049144
0.0491848
0.0492209
0.0492511
0.0492752
0.0492933
0.0493061
0.0493143
0.0493188
0.0493206
0.0493203
0.0493188
0.0493165
0.0493138
0.0493112
0.0493088
0.0493067
0.0493051
0.0493039
0.0493031
0.0493025
0.049302
0.0493014
0.0493005
0.0492989
0.0492962
0.0492917
0.0492844
0.049272
0.049249
0.0492086
0.0491491
0.0490791
0.0490119
0.0489586
0.0489207
0.0488919
0.0491218
0.0491237
0.0491415
0.0491832
0.0492375
0.0492652
0.0492645
0.0492516
0.0492398
0.0492377
0.0492486
0.0492676
0.049285
0.0492925
0.0492805
0.0492413
0.0491792
0.0491085
0.0490432
0.0489908
0.0489521
0.0489249
0.0489066
0.0488952
0.0488897
0.0488897
0.0488952
0.0489059
0.0489206
0.0489371
0.0489528
0.0489657
0.0489764
0.048986
0.0489949
0.0490027
0.0490087
0.049012
0.0490121
0.0490088
0.0490025
0.0489936
0.0489816
0.0489649
0.0489415
0.0489148
0.0488949
0.0488905
0.0489012
0.0489199
0.0489388
0.0489533
0.0489618
0.048965
0.0489645
0.0489625
0.0489622
0.0489682
0.0489848
0.0490134
0.0490522
0.0490969
0.0491431
0.049187
0.0492259
0.0492583
0.0492837
0.0493023
0.0493148
0.049322
0.0493252
0.0493252
0.0493231
0.0493196
0.0493153
0.0493109
0.0493067
0.0493028
0.0492996
0.049297
0.0492951
0.0492938
0.0492929
0.0492923
0.0492918
0.0492914
0.0492908
0.0492895
0.049287
0.0492827
0.0492756
0.0492634
0.0492411
0.0492015
0.0491418
0.0490691
0.0489972
0.0489381
0.0488945
0.0488602
0.0491071
0.0491148
0.0491441
0.0491932
0.0492443
0.0492618
0.0492543
0.0492388
0.0492273
0.0492274
0.0492418
0.049265
0.0492864
0.0492965
0.0492847
0.0492425
0.0491759
0.0491014
0.049034
0.0489805
0.0489411
0.048913
0.0488935
0.0488806
0.0488735
0.0488721
0.0488766
0.0488873
0.0489037
0.0489239
0.0489439
0.0489595
0.0489697
0.048978
0.0489856
0.0489924
0.0489977
0.0490007
0.049001
0.0489983
0.0489929
0.048985
0.0489739
0.0489578
0.0489357
0.0489119
0.0488964
0.0488957
0.0489078
0.0489257
0.0489428
0.0489554
0.0489624
0.0489648
0.0489645
0.0489642
0.048968
0.0489822
0.0490097
0.0490492
0.0490965
0.0491461
0.0491935
0.0492354
0.04927
0.0492967
0.0493155
0.0493274
0.0493333
0.0493347
0.0493325
0.049328
0.049322
0.0493153
0.0493086
0.0493022
0.0492965
0.0492917
0.0492878
0.0492849
0.0492829
0.0492816
0.0492807
0.0492802
0.0492801
0.04928
0.0492797
0.0492788
0.0492767
0.0492727
0.0492659
0.0492541
0.0492324
0.0491934
0.0491335
0.0490587
0.0489826
0.0489182
0.0488692
0.0488296
0.0490936
0.0491078
0.0491466
0.0492001
0.0492452
0.0492543
0.0492414
0.049224
0.0492136
0.0492165
0.0492345
0.0492621
0.0492876
0.0493011
0.0492905
0.0492469
0.0491778
0.0491011
0.0490318
0.0489766
0.0489354
0.0489052
0.0488835
0.0488683
0.0488589
0.0488551
0.0488572
0.0488659
0.0488815
0.048903
0.0489266
0.0489461
0.0489562
0.0489645
0.0489722
0.048979
0.0489844
0.0489878
0.0489887
0.048987
0.0489828
0.0489762
0.0489662
0.0489511
0.0489305
0.0489102
0.0488994
0.0489025
0.0489158
0.0489328
0.048948
0.0489587
0.0489644
0.0489664
0.0489671
0.0489702
0.0489821
0.0490086
0.0490493
0.0490996
0.0491532
0.0492045
0.0492497
0.0492866
0.0493143
0.0493332
0.0493442
0.0493485
0.0493475
0.0493428
0.0493354
0.0493264
0.0493168
0.0493073
0.0492982
0.0492902
0.0492832
0.0492776
0.0492734
0.0492704
0.0492686
0.0492673
0.0492667
0.0492665
0.0492668
0.0492672
0.0492675
0.0492671
0.0492655
0.049262
0.0492556
0.0492442
0.049223
0.0491846
0.0491245
0.0490478
0.0489681
0.048899
0.0488451
0.0488006
0.0490812
0.0491016
0.049148
0.0492039
0.0492423
0.0492438
0.0492266
0.0492078
0.0491982
0.049204
0.0492266
0.049259
0.0492887
0.0493062
0.0492984
0.049256
0.0491868
0.0491085
0.0490369
0.0489788
0.0489346
0.0489016
0.0488771
0.0488594
0.0488475
0.0488411
0.0488403
0.0488453
0.0488567
0.0488742
0.0488952
0.048917
0.0489327
0.0489445
0.0489543
0.0489625
0.048969
0.0489733
0.0489753
0.0489748
0.048972
0.0489669
0.0489584
0.0489453
0.0489273
0.0489098
0.048904
0.0489106
0.0489249
0.0489408
0.0489541
0.048963
0.0489678
0.0489704
0.048974
0.048984
0.0490098
0.0490523
0.0491064
0.0491646
0.0492204
0.0492691
0.0493082
0.0493369
0.0493556
0.0493652
0.0493675
0.0493639
0.0493561
0.0493455
0.0493332
0.0493203
0.0493074
0.0492952
0.0492842
0.0492747
0.0492668
0.0492606
0.0492562
0.0492534
0.0492519
0.0492509
0.0492507
0.0492511
0.0492521
0.0492532
0.0492543
0.0492546
0.0492537
0.0492508
0.0492449
0.0492339
0.0492132
0.0491753
0.0491149
0.0490366
0.0489538
0.0488808
0.0488227
0.0487735
0.0490693
0.0490954
0.0491481
0.049205
0.0492366
0.0492316
0.0492106
0.0491903
0.0491813
0.0491897
0.0492168
0.0492547
0.0492897
0.0493127
0.0493099
0.0492711
0.049203
0.0491236
0.0490489
0.0489871
0.0489392
0.0489027
0.0488752
0.0488548
0.0488405
0.0488317
0.0488282
0.04883
0.0488369
0.0488491
0.0488661
0.0488863
0.0489059
0.0489212
0.0489336
0.0489438
0.0489518
0.0489576
0.048961
0.0489622
0.0489612
0.0489578
0.0489513
0.0489405
0.0489257
0.0489121
0.0489098
0.0489197
0.0489345
0.0489492
0.0489608
0.0489685
0.0489735
0.0489786
0.0489884
0.0490131
0.0490582
0.0491171
0.0491808
0.0492414
0.0492938
0.049335
0.0493644
0.0493824
0.0493904
0.0493902
0.0493836
0.0493725
0.0493584
0.0493425
0.0493259
0.0493094
0.0492937
0.0492793
0.0492665
0.0492557
0.049247
0.0492405
0.0492362
0.0492339
0.0492325
0.0492322
0.0492328
0.0492342
0.0492361
0.0492383
0.0492403
0.0492416
0.0492414
0.0492392
0.0492339
0.0492235
0.0492032
0.0491655
0.0491048
0.049025
0.0489397
0.0488637
0.0488021
0.0487491
0.0490579
0.0490888
0.0491467
0.0492037
0.049229
0.0492184
0.0491941
0.0491723
0.0491633
0.0491736
0.0492049
0.0492488
0.04929
0.04932
0.0493248
0.0492919
0.0492267
0.0491465
0.0490687
0.0490025
0.0489501
0.0489096
0.0488787
0.0488556
0.0488389
0.0488281
0.0488227
0.0488223
0.0488268
0.0488359
0.0488492
0.0488658
0.0488841
0.0489002
0.048914
0.0489256
0.048935
0.0489422
0.0489472
0.0489502
0.0489511
0.0489496
0.048945
0.0489366
0.0489255
0.0489164
0.0489172
0.0489292
0.0489442
0.0489578
0.0489682
0.048976
0.0489834
0.0489945
0.0490179
0.0490668
0.049132
0.0492022
0.0492682
0.0493241
0.0493672
0.0493967
0.0494135
0.0494193
0.0494162
0.0494063
0.0493916
0.0493738
0.0493542
0.0493338
0.0493136
0.0492941
0.0492759
0.0492595
0.0492452
0.0492334
0.0492241
0.0492175
0.0492135
0.0492119
0.0492112
0.0492118
0.0492135
0.0492162
0.0492194
0.0492228
0.0492259
0.0492282
0.049229
0.0492276
0.049223
0.0492131
0.0491932
0.0491554
0.0490939
0.0490127
0.0489255
0.0488477
0.0487839
0.0487278
0.0490471
0.0490818
0.0491442
0.0492006
0.0492204
0.0492052
0.0491779
0.0491543
0.0491446
0.0491558
0.0491911
0.0492415
0.0492893
0.0493275
0.049342
0.0493177
0.0492574
0.0491778
0.0490969
0.049026
0.0489684
0.0489233
0.0488884
0.0488621
0.048843
0.0488302
0.0488231
0.0488211
0.0488237
0.0488304
0.0488407
0.0488539
0.0488692
0.048884
0.0488977
0.0489097
0.0489199
0.0489283
0.0489348
0.0489394
0.048942
0.0489422
0.0489396
0.0489339
0.0489266
0.048922
0.0489258
0.0489391
0.048954
0.0489669
0.0489776
0.048988
0.0490017
0.0490263
0.0490785
0.0491518
0.0492297
0.0493013
0.0493604
0.0494045
0.0494334
0.0494482
0.0494512
0.0494448
0.0494314
0.049413
0.0493914
0.0493681
0.049344
0.04932
0.0492967
0.0492746
0.0492543
0.0492362
0.0492206
0.0492079
0.0491983
0.0491918
0.0491884
0.049187
0.0491874
0.0491896
0.0491931
0.0491975
0.0492023
0.0492071
0.0492116
0.049215
0.0492167
0.0492161
0.0492122
0.0492028
0.049183
0.0491445
0.0490815
0.0489986
0.0489107
0.0488329
0.0487685
0.048711
0.0490372
0.0490745
0.0491405
0.0491963
0.0492117
0.049193
0.0491631
0.0491374
0.049126
0.0491369
0.0491755
0.0492326
0.0492872
0.0493343
0.0493604
0.0493473
0.0492947
0.0492175
0.0491344
0.0490585
0.0489952
0.0489446
0.048905
0.0488746
0.0488523
0.0488369
0.0488277
0.0488238
0.0488246
0.0488291
0.0488369
0.0488473
0.0488595
0.0488724
0.048885
0.0488967
0.0489072
0.0489163
0.0489239
0.0489298
0.0489338
0.0489356
0.048935
0.0489322
0.0489289
0.0489286
0.0489352
0.0489493
0.0489646
0.0489784
0.0489923
0.0490099
0.0490381
0.0490923
0.0491773
0.0492642
0.0493414
0.0494029
0.0494469
0.0494739
0.0494858
0.0494852
0.049475
0.0494578
0.0494357
0.0494106
0.0493838
0.0493562
0.0493286
0.0493016
0.0492757
0.0492515
0.0492293
0.0492098
0.0491933
0.0491802
0.0491705
0.0491645
0.0491619
0.049161
0.049163
0.0491672
0.0491727
0.049179
0.0491854
0.0491918
0.0491975
0.049202
0.0492047
0.0492049
0.0492016
0.0491925
0.0491717
0.0491298
0.0490643
0.0489816
0.0488961
0.0488205
0.0487572
0.0486997
0.0490286
0.0490668
0.0491356
0.0491912
0.0492036
0.0491827
0.0491508
0.0491228
0.0491088
0.0491176
0.0491583
0.0492224
0.0492835
0.0493395
0.0493785
0.0493792
0.0493372
0.0492651
0.0491814
0.0491012
0.0490318
0.0489748
0.0489293
0.0488939
0.0488671
0.048848
0.0488357
0.0488292
0.0488276
0.04883
0.0488354
0.0488434
0.0488531
0.048864
0.0488753
0.0488863
0.0488967
0.0489061
0.0489143
0.0489212
0.0489264
0.0489298
0.0489313
0.0489316
0.0489323
0.0489362
0.0489457