/*--------------------------------*- C++ -*----------------------------------*\
| =========                 |                                                 |
| \\      /  F ield         | OpenFOAM: The Open Source CFD Toolbox           |
|  \\    /   O peration     | Version:  4.1                                   |
|   \\  /    A nd           | Web:      www.OpenFOAM.org                      |
|    \\/     M anipulation  |                                                 |
\*---------------------------------------------------------------------------*/
FoamFile
{
    version     2.0;
    format      ascii;
    class       surfaceScalarField;
    location    "1620";
    object      phi;
}
// * * * * * * * * * * * * * * * * * * * * * * * * * * * * * * * * * * * * * //

dimensions      [0 3 -1 0 0 0 0];

internalField   nonuniform List<scalar> 
9850
(
-4.3044e-06
4.3044e-06
-7.30873e-06
3.00433e-06
-9.09039e-06
1.78166e-06
-9.22724e-06
1.36848e-07
-8.43383e-06
-7.93413e-07
-7.21297e-06
-1.22086e-06
-5.96661e-06
-1.24635e-06
-4.83136e-06
-1.13525e-06
-3.78472e-06
-1.04664e-06
-2.77947e-06
-1.00525e-06
-1.76529e-06
-1.01417e-06
-7.68618e-07
-9.96675e-07
2.31696e-07
-1.00031e-06
1.2801e-06
-1.04841e-06
2.39107e-06
-1.11096e-06
3.56513e-06
-1.17407e-06
4.78854e-06
-1.22341e-06
6.041e-06
-1.25245e-06
7.29992e-06
-1.25892e-06
8.54262e-06
-1.24271e-06
9.74779e-06
-1.20516e-06
1.08963e-05
-1.14856e-06
1.19719e-05
-1.07556e-06
1.29607e-05
-9.88814e-07
1.38514e-05
-8.90708e-07
1.46346e-05
-7.83229e-07
1.53026e-05
-6.67991e-07
1.5849e-05
-5.46343e-07
1.62686e-05
-4.19631e-07
1.65583e-05
-2.89651e-07
1.67177e-05
-1.59479e-07
1.67518e-05
-3.40274e-08
1.66674e-05
8.44113e-08
1.64697e-05
1.97684e-07
1.61638e-05
3.05879e-07
1.5756e-05
4.0776e-07
1.52551e-05
5.00976e-07
1.4674e-05
5.81052e-07
1.40348e-05
6.39189e-07
1.33749e-05
6.59922e-07
1.27498e-05
6.25116e-07
1.22094e-05
5.40402e-07
1.17108e-05
4.98555e-07
1.0962e-05
7.48795e-07
9.31323e-06
1.6488e-06
6.06722e-06
3.24601e-06
1.79981e-06
4.26741e-06
-1.16696e-06
2.96677e-06
-2.74205e-06
1.57509e-06
-3.85637e-06
1.11432e-06
-4.73635e-06
8.79978e-07
-5.48339e-06
7.47035e-07
-6.13997e-06
6.56585e-07
-6.72095e-06
5.8098e-07
-7.2287e-06
5.07745e-07
-7.66049e-06
4.31791e-07
-8.01173e-06
3.5124e-07
-8.27784e-06
2.66115e-07
-8.45395e-06
1.76105e-07
-8.53364e-06
7.96922e-08
-8.51478e-06
-1.88578e-08
-8.38935e-06
-1.25434e-07
-8.15368e-06
-2.35669e-07
-7.80692e-06
-3.4676e-07
-7.35064e-06
-4.56276e-07
-6.78909e-06
-5.61553e-07
-6.12931e-06
-6.59782e-07
-5.38126e-06
-7.48046e-07
-4.55751e-06
-8.23748e-07
-3.67171e-06
-8.85803e-07
-2.73958e-06
-9.32132e-07
-1.77847e-06
-9.61109e-07
-7.99044e-07
-9.79426e-07
1.76088e-07
-9.75132e-07
1.12615e-06
-9.50064e-07
2.04244e-06
-9.16285e-07
2.92069e-06
-8.78252e-07
3.75644e-06
-8.35751e-07
4.54563e-06
-7.8919e-07
5.284e-06
-7.38372e-07
5.96554e-06
-6.81532e-07
6.58151e-06
-6.15976e-07
7.12467e-06
-5.43162e-07
7.60439e-06
-4.79719e-07
8.07038e-06
-4.65991e-07
8.62125e-06
-5.50866e-07
9.36001e-06
-7.3876e-07
1.02804e-05
-9.20365e-07
1.11028e-05
-8.22387e-07
1.11783e-05
-7.55584e-08
9.72634e-06
1.45198e-06
6.50333e-06
3.223e-06
2.67249e-06
3.83085e-06
2.93286e-07
2.3792e-06
-1.0138e-08
3.03424e-07
6.19654e-07
-6.29792e-07
1.51836e-06
-8.98702e-07
2.5332e-06
-1.01485e-06
2.7569e-06
-2.23697e-07
2.7569e-06
-2.59574e-06
6.90014e-06
-5.00784e-06
5.41643e-06
-7.10485e-06
3.87868e-06
-7.74346e-06
7.75455e-07
-7.28119e-06
-1.25569e-06
-6.26336e-06
-2.23869e-06
-5.12903e-06
-2.38068e-06
-4.05931e-06
-2.20497e-06
-3.07933e-06
-2.02662e-06
-2.16642e-06
-1.91817e-06
-1.29325e-06
-1.88734e-06
-3.79756e-07
-1.91017e-06
6.12553e-07
-1.99262e-06
1.67965e-06
-2.1155e-06
2.82522e-06
-2.25653e-06
4.03891e-06
-2.38776e-06
5.30403e-06
-2.48853e-06
6.59929e-06
-2.54771e-06
7.90166e-06
-2.56129e-06
9.18866e-06
-2.52971e-06
1.04398e-05
-2.45632e-06
1.16374e-05
-2.34609e-06
1.27664e-05
-2.2046e-06
1.38149e-05
-2.03732e-06
1.47732e-05
-1.84904e-06
1.56337e-05
-1.64365e-06
1.63898e-05
-1.42411e-06
1.70361e-05
-1.19265e-06
1.75676e-05
-9.51193e-07
1.798e-05
-7.01976e-07
1.82689e-05
-4.48421e-07
1.84295e-05
-1.94624e-07
1.84581e-05
5.57763e-08
1.8358e-05
2.97856e-07
1.8135e-05
5.28822e-07
1.77979e-05
7.44887e-07
1.73584e-05
9.40464e-07
1.68321e-05
1.10733e-06
1.62384e-05
1.23294e-06
1.55979e-05
1.30045e-06
1.49239e-05
1.29908e-06
1.42011e-05
1.26323e-06
1.33415e-05
1.35816e-06
1.21229e-05
1.96732e-06
1.01975e-05
3.57428e-06
7.33971e-06
6.10376e-06
3.76934e-06
7.83778e-06
3.7005e-07
6.36606e-06
-1.70508e-06
3.65022e-06
-2.99733e-06
2.40658e-06
-4.03002e-06
1.91267e-06
-4.90833e-06
1.62534e-06
-5.67292e-06
1.42117e-06
-6.33826e-06
1.24633e-06
-6.9079e-06
1.07738e-06
-7.38104e-06
9.04932e-07
-7.75538e-06
7.2558e-07
-8.02838e-06
5.3911e-07
-8.19716e-06
3.44884e-07
-8.26129e-06
1.43819e-07
-8.2173e-06
-6.28452e-08
-8.06395e-06
-2.78782e-07
-7.79966e-06
-4.99958e-07
-7.42442e-06
-7.21996e-07
-6.94036e-06
-9.40339e-07
-6.35215e-06
-1.14976e-06
-5.6673e-06
-1.34464e-06
-4.89607e-06
-1.51928e-06
-4.05114e-06
-1.66868e-06
-3.14771e-06
-1.78924e-06
-2.20119e-06
-1.87865e-06
-1.22436e-06
-1.93794e-06
-2.42164e-07
-1.96162e-06
7.2359e-07
-1.94089e-06
1.66175e-06
-1.88823e-06
2.56642e-06
-1.82095e-06
3.42924e-06
-1.74107e-06
4.24405e-06
-1.65056e-06
5.00663e-06
-1.55177e-06
5.71523e-06
-1.44697e-06
6.37217e-06
-1.33848e-06
6.98613e-06
-1.22994e-06
7.57256e-06
-1.12959e-06
8.14835e-06
-1.05551e-06
8.72134e-06
-1.03899e-06
9.28657e-06
-1.11609e-06
9.84209e-06
-1.29428e-06
1.03995e-05
-1.47779e-06
1.09058e-05
-1.32866e-06
1.10425e-05
-2.12244e-07
1.03589e-05
2.13554e-06
8.73756e-06
4.84436e-06
6.33632e-06
6.2321e-06
3.60785e-06
5.10766e-06
1.74522e-06
2.16606e-06
1.21324e-06
-9.78161e-08
1.18545e-06
-8.7091e-07
9.02683e-07
-7.32083e-07
6.1509e-07
6.38962e-08
3.37199e-06
-1.00339e-06
7.90353e-06
-2.16476e-06
6.5778e-06
-4.501e-06
6.21492e-06
-5.81971e-06
2.09417e-06
-5.81165e-06
-1.26376e-06
-5.0083e-06
-3.04204e-06
-4.04469e-06
-3.34428e-06
-3.15821e-06
-3.09146e-06
-2.37476e-06
-2.81007e-06
-1.65641e-06
-2.63651e-06
-9.42818e-07
-2.60093e-06
-1.53018e-07
-2.69997e-06
7.52205e-07
-2.89784e-06
1.77545e-06
-3.13874e-06
2.90325e-06
-3.38434e-06
4.11337e-06
-3.59788e-06
5.37988e-06
-3.75504e-06
6.6756e-06
-3.84343e-06
7.97412e-06
-3.8598e-06
9.25153e-06
-3.80712e-06
1.04874e-05
-3.69219e-06
1.16651e-05
-3.52377e-06
1.27717e-05
-3.31121e-06
1.37977e-05
-3.06331e-06
1.47363e-05
-2.78763e-06
1.55827e-05
-2.49008e-06
1.63334e-05
-2.17483e-06
1.69853e-05
-1.84452e-06
1.75348e-05
-1.50069e-06
1.79773e-05
-1.14451e-06
1.83065e-05
-7.77647e-07
1.85149e-05
-4.03014e-07
1.85966e-05
-2.58584e-08
1.85484e-05
3.45988e-07
1.83723e-05
7.04937e-07
1.80742e-05
1.04304e-06
1.76633e-05
1.35134e-06
1.71512e-05
1.61939e-06
1.65489e-05
1.83527e-06
1.58616e-05
1.98776e-06
1.50826e-05
2.07809e-06
1.41886e-05
2.15723e-06
1.31359e-05
2.41085e-06
1.18345e-05
3.26871e-06
1.01135e-05
5.29525e-06
7.84953e-06
8.36774e-06
5.20834e-06
1.0479e-05
2.37725e-06
9.19715e-06
9.12171e-08
5.93626e-06
-1.36368e-06
3.86147e-06
-2.48485e-06
3.03384e-06
-3.46955e-06
2.61005e-06
-4.33694e-06
2.28856e-06
-5.09263e-06
2.00202e-06
-5.73779e-06
1.72254e-06
-6.27251e-06
1.43965e-06
-6.69618e-06
1.14925e-06
-7.00896e-06
8.51886e-07
-7.20976e-06
5.45693e-07
-7.29776e-06
2.3182e-07
-7.273e-06
-8.76074e-08
-7.13507e-06
-4.16711e-07
-6.884e-06
-7.51027e-07
-6.52034e-06
-1.08566e-06
-6.04638e-06
-1.4143e-06
-5.46714e-06
-1.72901e-06
-4.79073e-06
-2.02104e-06
-4.02848e-06
-2.28152e-06
-3.194e-06
-2.50315e-06
-2.30486e-06
-2.67838e-06
-1.37603e-06
-2.80748e-06
-4.27722e-07
-2.88625e-06
5.11265e-07
-2.90061e-06
1.4306e-06
-2.86022e-06
2.32903e-06
-2.78666e-06
3.19501e-06
-2.68693e-06
4.02014e-06
-2.56619e-06
4.7986e-06
-2.42903e-06
5.52669e-06
-2.27986e-06
6.20275e-06
-2.12304e-06
6.82761e-06
-1.96333e-06
7.4047e-06
-1.80703e-06
7.93913e-06
-1.66401e-06
8.43384e-06
-1.55021e-06
8.88334e-06
-1.48849e-06
9.27018e-06
-1.50293e-06
9.57234e-06
-1.59643e-06
9.78277e-06
-1.68822e-06
9.92887e-06
-1.47477e-06
1.00224e-05
-3.05769e-07
9.86549e-06
2.29245e-06
9.17546e-06
5.53439e-06
7.82741e-06
7.58014e-06
5.74616e-06
7.18891e-06
3.12882e-06
4.78341e-06
1.09659e-06
1.93441e-06
-9.66971e-08
3.22378e-07
-8.34927e-07
6.14662e-09
-1.07326e-06
3.02225e-07
2.29873e-06
1.61803e-07
7.74173e-06
3.0472e-07
6.43488e-06
-1.66244e-06
8.18207e-06
-3.71117e-06
4.1429e-06
-4.22421e-06
-7.50711e-07
-3.66111e-06
-3.60514e-06
-2.95426e-06
-4.05113e-06
-2.34036e-06
-3.70537e-06
-1.81954e-06
-3.33089e-06
-1.32085e-06
-3.1352e-06
-7.56496e-07
-3.16529e-06
-4.65697e-08
-3.4099e-06
8.31887e-07
-3.7763e-06
1.86472e-06
-4.17158e-06
3.02047e-06
-4.54009e-06
4.26279e-06
-4.8402e-06
5.55602e-06
-5.04827e-06
6.86729e-06
-5.15471e-06
8.1676e-06
-5.16011e-06
9.43241e-06
-5.07193e-06
1.0642e-05
-4.90178e-06
1.17815e-05
-4.66322e-06
1.28403e-05
-4.37005e-06
1.3812e-05
-4.03504e-06
1.46934e-05
-3.66899e-06
1.54836e-05
-3.28025e-06
1.61832e-05
-2.87449e-06
1.67935e-05
-2.45479e-06
1.73149e-05
-2.02207e-06
1.77461e-05
-1.57578e-06
1.80834e-05
-1.11495e-06
1.83198e-05
-6.39389e-07
1.84453e-05
-1.51295e-07
1.84492e-05
3.42004e-07
1.83249e-05
8.2932e-07
1.80702e-05
1.29773e-06
1.76877e-05
1.73377e-06
1.71834e-05
2.12376e-06
1.65632e-05
2.45546e-06
1.58294e-05
2.72155e-06
1.49766e-05
2.93084e-06
1.39925e-05
3.14141e-06
1.28625e-05
3.54077e-06
1.15631e-05
4.56814e-06
1.00256e-05
6.83272e-06
8.19192e-06
1.02015e-05
6.1563e-06
1.25146e-05
3.93973e-06
1.14137e-05
1.76209e-06
8.1139e-06
1.29932e-07
5.49362e-06
-1.09546e-06
4.25923e-06
-2.13906e-06
3.65365e-06
-3.06668e-06
3.21618e-06
-3.8747e-06
2.81005e-06
-4.56232e-06
2.41017e-06
-5.1307e-06
2.00802e-06
-5.58187e-06
1.60043e-06
-5.91746e-06
1.18747e-06
-6.13943e-06
7.67661e-07
-6.24518e-06
3.37572e-07
-6.23803e-06
-9.47581e-08
-6.11634e-06
-5.38406e-07
-5.87983e-06
-9.87533e-07
-5.52878e-06
-1.43671e-06
-5.06529e-06
-1.87778e-06
-4.49486e-06
-2.29944e-06
-3.82656e-06
-2.68935e-06
-3.0733e-06
-3.03478e-06
-2.2521e-06
-3.32435e-06
-1.37956e-06
-3.55092e-06
-4.75104e-07
-3.71194e-06
4.27349e-07
-3.7887e-06
1.31657e-06
-3.78983e-06
2.19262e-06
-3.73627e-06
3.04397e-06
-3.63802e-06
3.86064e-06
-3.5036e-06
4.63515e-06
-3.3407e-06
5.36234e-06
-3.15622e-06
6.03902e-06
-2.95653e-06
6.6636e-06
-2.74762e-06
7.23586e-06
-2.53559e-06
7.75621e-06
-2.32738e-06
8.22419e-06
-2.13199e-06
8.63563e-06
-1.96165e-06
8.97899e-06
-1.83185e-06
9.2337e-06
-1.75765e-06
9.37588e-06
-1.73861e-06
9.39865e-06
-1.711e-06
9.35065e-06
-1.42676e-06
9.34194e-06
-2.97066e-07
9.34762e-06
2.28677e-06
9.1043e-06
5.77771e-06
8.32006e-06
8.36439e-06
6.77223e-06
8.73674e-06
4.39499e-06
7.16064e-06
1.53845e-06
4.79095e-06
-7.25927e-07
2.58675e-06
-1.91579e-06
1.19601e-06
-2.00695e-06
3.93381e-07
2.91787e-07
6.23396e-07
7.11833e-06
1.8588e-06
5.19948e-06
8.87999e-07
9.15287e-06
-9.42085e-07
5.97298e-06
-2.01244e-06
3.19645e-07
-2.08447e-06
-3.53312e-06
-1.81893e-06
-4.31667e-06
-1.58362e-06
-3.94068e-06
-1.36635e-06
-3.54816e-06
-1.0726e-06
-3.42895e-06
-5.97886e-07
-3.64e-06
1.15997e-07
-4.12378e-06
1.04706e-06
-4.70737e-06
2.15003e-06
-5.27454e-06
3.37402e-06
-5.76408e-06
4.67248e-06
-6.13866e-06
6.00492e-06
-6.38071e-06
7.33658e-06
-6.48637e-06
8.63809e-06
-6.46163e-06
9.88548e-06
-6.31932e-06
1.10602e-05
-6.07646e-06
1.21488e-05
-5.75187e-06
1.3143e-05
-5.36428e-06
1.40389e-05
-4.93086e-06
1.4836e-05
-4.46615e-06
1.55372e-05
-3.98144e-06
1.61472e-05
-3.48446e-06
1.66717e-05
-2.97929e-06
1.71163e-05
-2.46667e-06
1.74851e-05
-1.94456e-06
1.77793e-05
-1.40918e-06
1.79963e-05
-8.56361e-07
1.81283e-05
-2.83304e-07
1.81616e-05
3.08672e-07
1.80809e-05
9.09983e-07
1.78742e-05
1.50452e-06
1.75341e-05
2.07384e-06
1.70584e-05
2.59946e-06
1.64479e-05
3.0659e-06
1.57042e-05
3.46531e-06
1.48267e-05
3.80833e-06
1.38141e-05
4.15398e-06
1.26692e-05
4.68567e-06
1.13996e-05
5.83772e-06
1.00004e-05
8.23196e-06
8.47668e-06
1.17252e-05
6.8674e-06
1.41239e-05
5.06934e-06
1.32118e-05
3.14096e-06
1.00423e-05
1.47214e-06
7.16243e-06
1.55662e-07
5.57571e-06
-9.33206e-07
4.74252e-06
-1.86994e-06
4.15291e-06
-2.68655e-06
3.62666e-06
-3.38188e-06
3.1055e-06
-3.95757e-06
2.58371e-06
-4.41713e-06
2.05999e-06
-4.7623e-06
1.53264e-06
-4.99592e-06
1.00128e-06
-5.11371e-06
4.55363e-07
-5.12013e-06
-8.83362e-08
-5.01123e-06
-6.47313e-07
-4.78646e-06
-1.2123e-06
-4.44547e-06
-1.77769e-06
-3.99e-06
-2.33325e-06
-3.42626e-06
-2.86318e-06
-2.76512e-06
-3.35049e-06
-2.02128e-06
-3.77862e-06
-1.2114e-06
-4.13424e-06
-3.59321e-07
-4.403e-06
4.98082e-07
-4.56934e-06
1.35137e-06
-4.64199e-06
2.19868e-06
-4.63713e-06
3.02755e-06
-4.56515e-06
3.8268e-06
-4.43727e-06
4.58744e-06
-4.26424e-06
5.30274e-06
-4.056e-06
5.9681e-06
-3.82159e-06
6.58067e-06
-3.56909e-06
7.13891e-06
-3.30587e-06
7.64207e-06
-3.03875e-06
8.08926e-06
-2.77457e-06
8.47798e-06
-2.52072e-06
8.80202e-06
-2.28569e-06
9.04919e-06
-2.07902e-06
9.20049e-06
-1.90894e-06
9.23454e-06
-1.77266e-06
9.14517e-06
-1.62163e-06
8.98066e-06
-1.26225e-06
8.87388e-06
-1.90288e-07
8.90629e-06
2.25436e-06
8.89126e-06
5.79275e-06
8.47489e-06
8.78075e-06
7.36083e-06
9.8508e-06
5.49032e-06
9.03115e-06
3.10136e-06
7.17992e-06
6.4584e-07
5.04227e-06
-9.76451e-07
2.8183e-06
-1.24146e-06
6.58395e-07
-9.49678e-07
6.46314e-07
6.47202e-06
2.08079e-06
3.765e-06
2.06709e-06
9.16658e-06
1.15421e-06
6.88586e-06
3.09223e-07
1.16463e-06
-3.27234e-07
-2.89666e-06
-7.21045e-07
-3.92285e-06
-9.31561e-07
-3.73016e-06
-1.00132e-06
-3.47841e-06
-8.34619e-07
-3.59565e-06
-3.33305e-07
-4.14132e-06
4.79202e-07
-4.93629e-06
1.51909e-06
-5.74726e-06
2.71685e-06
-6.4723e-06
4.01435e-06
-7.06159e-06
5.36509e-06
-7.4894e-06
6.72992e-06
-7.74554e-06
8.07511e-06
-7.83155e-06
9.37197e-06
-7.75849e-06
1.05972e-05
-7.54451e-06
1.17329e-05
-7.21215e-06
1.27667e-05
-6.78576e-06
1.36917e-05
-6.28923e-06
1.45052e-05
-5.74439e-06
1.52089e-05
-5.16986e-06
1.58078e-05
-4.58033e-06
1.63095e-05
-3.98611e-06
1.67232e-05
-3.39304e-06
1.7059e-05
-2.80249e-06
1.73263e-05
-2.21182e-06
1.75322e-05
-1.61511e-06
1.76804e-05
-1.00452e-06
1.7769e-05
-3.71938e-07
1.77878e-05
2.89926e-07
1.77189e-05
9.78898e-07
1.75427e-05
1.68072e-06
1.72423e-05
2.37418e-06
1.68062e-05
3.03561e-06
1.62283e-05
3.64377e-06
1.55075e-05
4.1861e-06
1.46458e-05
4.66999e-06
1.36485e-05
5.15135e-06
1.25268e-05
5.80737e-06
1.13037e-05
7.06083e-06
1.00154e-05
9.52022e-06
8.71733e-06
1.30233e-05
7.41182e-06
1.54294e-05
5.9193e-06
1.47043e-05
4.22292e-06
1.17387e-05
2.62805e-06
8.7573e-06
1.31066e-06
6.89309e-06
2.005e-07
5.85268e-06
-7.38032e-07
5.09144e-06
-1.53176e-06
4.42039e-06
-2.20806e-06
3.7818e-06
-2.76867e-06
3.14432e-06
-3.21873e-06
2.51005e-06
-3.55861e-06
1.87252e-06
-3.79105e-06
1.23371e-06
-3.91649e-06
5.80807e-07
-3.92762e-06
-7.72065e-08
-3.82506e-06
-7.4987e-07
-3.60683e-06
-1.43053e-06
-3.2718e-06
-2.11273e-06
-2.82052e-06
-2.78453e-06
-2.26052e-06
-3.42318e-06
-1.60537e-06
-4.00564e-06
-8.68607e-07
-4.51538e-06
-8.35101e-08
-4.91933e-06
7.21146e-07
-5.20765e-06
1.53532e-06
-5.38351e-06
2.35108e-06
-5.45775e-06
3.15444e-06
-5.44049e-06
3.93324e-06
-5.34395e-06
4.67714e-06
-5.18116e-06
5.37787e-06
-4.96498e-06
6.02931e-06
-4.70744e-06
6.62722e-06
-4.41949e-06
7.16897e-06
-4.11085e-06
7.6531e-06
-3.78999e-06
8.07869e-06
-3.46434e-06
8.44454e-06
-3.14042e-06
8.74799e-06
-2.82417e-06
8.98336e-06
-2.52106e-06
9.14035e-06
-2.23601e-06
9.2035e-06
-1.97209e-06
9.15542e-06
-1.72459e-06
8.99057e-06
-1.45677e-06
8.74976e-06
-1.02144e-06
8.56205e-06
-2.57419e-09
8.56919e-06
2.24722e-06
8.66806e-06
5.69388e-06
8.50578e-06
8.94303e-06
7.75475e-06
1.06018e-05
6.33525e-06
1.04506e-05
4.44549e-06
9.06967e-06
2.39949e-06
7.08827e-06
5.2996e-07
4.68784e-06
-4.00135e-07
1.58849e-06
-1.34981e-06
3.25368e-07
6.14665e-06
1.27452e-06
2.81585e-06
2.08134e-06
8.35976e-06
1.89813e-06
7.06907e-06
1.65625e-06
1.40651e-06
8.24732e-07
-2.06514e-06
6.81686e-08
-3.16629e-06
-4.79482e-07
-3.18251e-06
-7.20192e-07
-3.2377e-06
-5.24301e-07
-3.79154e-06
1.27769e-07
-4.79339e-06
1.08379e-06
-5.8923e-06
2.23279e-06
-6.89626e-06
3.50646e-06
-7.74597e-06
4.85555e-06
-8.41068e-06
6.23988e-06
-8.87373e-06
7.6232e-06
-9.12886e-06
8.97255e-06
-9.18089e-06
1.02592e-05
-9.04515e-06
1.14598e-05
-8.7451e-06
1.25568e-05
-8.30912e-06
1.35384e-05
-7.76735e-06
1.43982e-05
-7.14904e-06
1.51346e-05
-6.48079e-06
1.57501e-05
-5.78536e-06
1.62507e-05
-5.08099e-06
1.66456e-05
-4.38094e-06
1.69459e-05
-3.69335e-06
1.71644e-05
-3.02108e-06
1.73146e-05
-2.36192e-06
1.74084e-05
-1.70901e-06
1.74558e-05
-1.05186e-06
1.74617e-05
-3.77896e-07
1.74228e-05
3.28835e-07
1.73255e-05
1.07619e-06
1.71488e-05
1.85742e-06
1.68697e-05
2.65331e-06
1.64682e-05
3.4371e-06
1.59308e-05
4.18116e-06
1.52515e-05
4.86544e-06
1.44311e-05
5.4904e-06
1.34766e-05
6.10584e-06
1.24024e-05
6.88153e-06
1.12387e-05
8.2246e-06
1.00468e-05
1.07121e-05
8.91537e-06
1.41547e-05
7.82497e-06
1.65198e-05
6.56405e-06
1.59652e-05
5.07481e-06
1.32279e-05
3.59215e-06
1.024e-05
2.32886e-06
8.15638e-06
1.27427e-06
6.90727e-06
3.53438e-07
6.01227e-06
-4.24168e-07
5.19799e-06
-1.06583e-06
4.42346e-06
-1.58986e-06
3.66835e-06
-2.01252e-06
2.93271e-06
-2.33194e-06
2.19194e-06
-2.55064e-06
1.45242e-06
-2.66756e-06
6.97727e-07
-2.67418e-06
-7.05927e-08
-2.56983e-06
-8.54215e-07
-2.34997e-06
-1.65039e-06
-2.01376e-06
-2.44894e-06
-1.56344e-06
-3.23485e-06
-1.00232e-06
-3.98431e-06
-3.53719e-07
-4.65424e-06
3.51947e-07
-5.22105e-06
1.09386e-06
-5.66125e-06
1.8611e-06
-5.97489e-06
2.63985e-06
-6.16226e-06
3.41409e-06
-6.23198e-06
4.16988e-06
-6.19628e-06
4.89542e-06
-6.06949e-06
5.58103e-06
-5.86677e-06
6.21909e-06
-5.60304e-06
6.80395e-06
-5.29231e-06
7.33173e-06
-4.94727e-06
7.79996e-06
-4.57908e-06
8.20724e-06
-4.19728e-06
8.55272e-06
-3.80981e-06
8.83533e-06
-3.42303e-06
9.05298e-06
-3.04181e-06
9.20142e-06
-2.6695e-06
9.27321e-06
-2.3078e-06
9.25724e-06
-1.95612e-06
9.1407e-06
-1.60806e-06
8.91901e-06
-1.23508e-06
8.62361e-06
-7.2604e-07
8.37061e-06
2.50425e-07
8.32775e-06
2.29008e-06
8.46742e-06
5.55421e-06
8.47265e-06
8.93781e-06
8.00772e-06
1.10668e-05
6.95967e-06
1.14987e-05
5.46104e-06
1.05683e-05
3.77945e-06
8.76987e-06
2.12461e-06
6.34267e-06
6.12465e-07
3.10063e-06
-7.37348e-07
-7.67459e-08
6.2234e-06
1.31491e-07
2.60761e-06
1.53251e-06
6.95875e-06
1.97244e-06
6.62913e-06
2.03605e-06
1.3429e-06
1.27282e-06
-1.30191e-06
3.79776e-07
-2.27324e-06
-2.82226e-07
-2.52051e-06
-4.81937e-07
-3.03799e-06
-6.29487e-08
-4.21052e-06
7.80727e-07
-5.63706e-06
1.85484e-06
-6.96641e-06
3.07424e-06
-8.11567e-06
4.39041e-06
-9.06213e-06
5.76716e-06
-9.78743e-06
7.16915e-06
-1.02757e-05
8.56062e-06
-1.05203e-05
9.90752e-06
-1.05278e-05
1.11802e-05
-1.03178e-05
1.23548e-05
-9.9197e-06
1.34141e-05
-9.36847e-06
1.43472e-05
-8.70043e-06
1.51485e-05
-7.95032e-06
1.58171e-05
-7.14939e-06
1.6356e-05
-6.32428e-06
1.67716e-05
-5.49656e-06
1.70731e-05
-4.68244e-06
1.72723e-05
-3.8926e-06
1.73832e-05
-3.132e-06
1.74211e-05
-2.3998e-06
1.74015e-05
-1.68939e-06
1.73387e-05
-9.89055e-07
1.72435e-05
-2.82705e-07
1.71196e-05
4.5275e-07
1.69613e-05
1.23445e-06
1.67523e-05
2.0664e-06
1.6469e-05
2.93662e-06
1.60866e-05
3.81952e-06
1.55848e-05
4.68297e-06
1.49514e-05
5.4988e-06
1.41834e-05
6.25838e-06
1.3286e-05
7.00328e-06
1.2273e-05
7.89458e-06
1.11765e-05
9.32105e-06
1.00719e-05
1.18166e-05
9.06605e-06
1.51606e-05
8.12997e-06
1.74559e-05
7.04804e-06
1.70472e-05
5.74166e-06
1.45343e-05
4.38813e-06
1.15935e-05
3.19646e-06
9.34805e-06
2.21003e-06
7.8937e-06
1.37752e-06
6.84478e-06
6.53219e-07
5.92229e-06
4.74361e-08
5.02925e-06
-4.40526e-07
4.15631e-06
-8.21618e-07
3.3138e-06
-1.10597e-06
2.47629e-06
-1.29616e-06
1.6426e-06
-1.39053e-06
7.92097e-07
-1.37903e-06
-8.20897e-08
-1.2596e-06
-9.73644e-07
-1.02964e-06
-1.88035e-06
-6.84913e-07
-2.79367e-06
-2.30019e-07
-3.68974e-06
3.15052e-07
-4.52938e-06
9.32725e-07
-5.27191e-06
1.60558e-06
-5.8939e-06
2.31939e-06
-6.37506e-06
3.05458e-06
-6.71009e-06
3.79424e-06
-6.90192e-06
4.52283e-06
-6.96057e-06
5.22695e-06
-6.90041e-06
5.89551e-06
-6.73805e-06
6.51959e-06
-6.49084e-06
7.09229e-06
-6.17573e-06
7.60853e-06
-5.80855e-06
8.06482e-06
-5.40356e-06
8.45892e-06
-4.97318e-06
8.78954e-06
-4.5279e-06
9.0559e-06
-4.07618e-06
9.25731e-06
-3.62443e-06
9.39243e-06
-3.17693e-06
9.45864e-06
-2.73571e-06
9.45126e-06
-2.30043e-06
9.36316e-06
-1.86803e-06
9.18592e-06
-1.43081e-06
8.91617e-06
-9.65335e-07
8.57632e-06
-3.86196e-07
8.2664e-06
5.60354e-07
8.15802e-06
2.39845e-06
8.28531e-06
5.42692e-06
8.38512e-06
8.838e-06
8.12589e-06
1.1326e-05
7.35944e-06
1.22652e-05
6.15509e-06
1.17726e-05
4.70324e-06
1.02217e-05
3.16824e-06
7.87767e-06
1.5182e-06
4.75068e-06
7.80851e-07
-4.52881e-07
6.67628e-06
-8.38147e-07
2.99288e-06
6.84304e-07
5.43629e-06
1.63212e-06
5.68131e-06
1.74643e-06
1.2286e-06
1.09089e-06
-6.4637e-07
2.71884e-07
-1.45424e-06
-2.74082e-07
-1.97454e-06
-1.8157e-07
-3.1305e-06
5.30591e-07
-4.92269e-06
1.52397e-06
-6.63044e-06
2.6661e-06
-8.10854e-06
3.91712e-06
-9.36668e-06
5.25254e-06
-1.03976e-05
6.64365e-06
-1.11785e-05
8.05514e-06
-1.16872e-05
9.4487e-06
-1.19139e-05
1.07879e-05
-1.1867e-05
1.20418e-05
-1.15717e-05
1.31867e-05
-1.10647e-05
1.42067e-05
-1.03885e-05
1.50923e-05
-9.58605e-06
1.58396e-05
-8.69758e-06
1.64487e-05
-7.75847e-06
1.69231e-05
-6.79866e-06
1.7269e-05
-5.84246e-06
1.74951e-05
-4.90859e-06
1.76127e-05
-4.01018e-06
1.76353e-05
-3.15457e-06
1.75784e-05
-2.34297e-06
1.74593e-05
-1.5702e-06
1.7295e-05
-8.24782e-07
1.70991e-05
-8.68553e-08
1.6882e-05
6.69927e-07
1.6646e-05
1.47043e-06
1.63827e-05
2.32972e-06
1.60727e-05
3.24659e-06
1.56909e-05
4.2013e-06
1.52129e-05
5.16096e-06
1.46209e-05
6.09084e-06
1.39064e-05
6.97289e-06
1.30703e-05
7.83936e-06
1.21233e-05
8.84161e-06
1.10965e-05
1.03478e-05
1.00715e-05
1.28416e-05
9.16303e-06
1.60691e-05
8.3411e-06
1.82778e-05
7.40186e-06
1.79864e-05
6.25683e-06
1.56793e-05
5.03732e-06
1.2813e-05
3.93324e-06
1.04521e-05
3.01789e-06
8.80905e-06
2.26251e-06
7.60016e-06
1.62928e-06
6.55553e-06
1.10359e-06
5.55494e-06
6.75465e-07
4.58444e-06
3.47064e-07
3.6422e-06
1.08431e-07
2.71492e-06
-3.83309e-08
1.78937e-06
-9.38546e-08
8.4762e-07
-5.85355e-08
-1.17409e-07
8.02365e-08
-1.11242e-06
3.24791e-07
-2.12491e-06
6.73101e-07
-3.14198e-06
1.11718e-06
-4.13382e-06
1.64586e-06
-5.05806e-06
2.24644e-06
-5.87249e-06
2.8989e-06
-6.54637e-06
3.58446e-06
-7.06061e-06
4.28402e-06
-7.40965e-06
4.98044e-06
-7.59834e-06
5.65882e-06
-7.63894e-06
6.30668e-06
-7.54827e-06
6.91396e-06
-7.34533e-06
7.47278e-06
-7.04966e-06
7.97715e-06
-6.6801e-06
8.42274e-06
-6.25415e-06
8.80659e-06
-5.78741e-06
9.12681e-06
-5.29339e-06
9.38229e-06
-4.78338e-06
9.57243e-06
-4.26632e-06
9.69679e-06
-3.7488e-06
9.75474e-06
-3.23487e-06
9.74501e-06
-2.72598e-06
9.66528e-06
-2.2207e-06
9.51176e-06
-1.71451e-06
9.27961e-06
-1.19865e-06
8.96595e-06
-6.51675e-07
8.58661e-06
-6.85937e-09
8.22389e-06
9.23077e-07
8.03937e-06
2.58297e-06
8.11352e-06
5.35278e-06
8.24516e-06
8.70636e-06
8.11633e-06
1.14548e-05
7.5458e-06
1.28357e-05
6.54282e-06
1.27756e-05
5.22888e-06
1.15357e-05
3.72047e-06
9.38607e-06
2.00352e-06
6.46763e-06
2.78437e-06
-7.07863e-07
7.38414e-06
-1.16754e-06
3.45256e-06
-1.23275e-07
4.39203e-06
1.01865e-06
4.53938e-06
1.0843e-06
1.16295e-06
5.81444e-07
-1.43511e-07
-1.96538e-08
-8.53141e-07
-2.80917e-07
-1.71328e-06
2.55975e-07
-3.66739e-06
1.18929e-06
-5.856e-06
2.25002e-06
-7.69117e-06
3.41287e-06
-9.27139e-06
4.67388e-06
-1.06277e-05
6.01935e-06
-1.1743e-05
7.4201e-06
-1.25793e-05
8.83651e-06
-1.31036e-05
1.0226e-05
-1.33033e-05
1.15494e-05
-1.31905e-05
1.27756e-05
-1.27978e-05
1.38823e-05
-1.21714e-05
1.48562e-05
-1.13624e-05
1.56909e-05
-1.04207e-05
1.63847e-05
-9.39143e-06
1.69397e-05
-8.31343e-06
1.73598e-05
-7.21881e-06
1.7651e-05
-6.1336e-06
1.78206e-05
-5.07827e-06
1.78784e-05
-4.06796e-06
1.78362e-05
-3.11239e-06
1.77086e-05
-2.21531e-06
1.75122e-05
-1.37388e-06
1.72655e-05
-5.78081e-07
1.69831e-05
1.95631e-07
1.668e-05
9.72965e-07
1.63656e-05
1.78481e-06
1.60395e-05
2.65584e-06
1.56894e-05
3.59669e-06
1.52936e-05
4.59714e-06
1.48268e-05
5.62774e-06
1.42673e-05
6.65034e-06
1.36013e-05
7.63884e-06
1.28245e-05
8.61622e-06
1.19425e-05
9.72354e-06
1.09838e-05
1.13065e-05
1.00312e-05
1.37942e-05
9.20088e-06
1.68994e-05
8.46734e-06
1.90113e-05
7.64609e-06
1.88077e-05
6.64511e-06
1.66803e-05
5.55871e-06
1.38994e-05
4.55193e-06
1.14589e-05
3.71383e-06
9.64715e-06
3.03838e-06
8.27561e-06
2.49369e-06
7.10022e-06
2.05439e-06
5.99424e-06
1.71007e-06
4.92876e-06
1.45579e-06
3.89648e-06
1.28354e-06
2.88717e-06
1.18845e-06
1.88446e-06
1.17158e-06
8.64489e-07
1.24217e-06
-1.88002e-07
1.40473e-06
-1.27498e-06
1.66377e-06
-2.38394e-06
2.01955e-06
-3.49776e-06
2.46627e-06
-4.58054e-06
2.99233e-06
-5.58412e-06
3.58167e-06
-6.46182e-06
4.21441e-06
-7.17911e-06
4.87058e-06
-7.71678e-06
5.53138e-06
-8.07046e-06
6.18034e-06
-8.2473e-06
6.80367e-06
-8.26228e-06
7.39029e-06
-8.13489e-06
7.93156e-06
-7.8866e-06
8.42095e-06
-7.53905e-06
8.85368e-06
-7.11284e-06
9.2264e-06
-6.62686e-06
9.53684e-06
-6.09785e-06
9.7836e-06
-5.54015e-06
9.96588e-06
-4.96565e-06
1.00833e-05
-4.38373e-06
1.01356e-05
-3.80115e-06
1.01228e-05
-3.22203e-06
1.00444e-05
-2.6476e-06
9.89982e-06
-2.0761e-06
9.68766e-06
-1.50236e-06
9.40554e-06
-9.1653e-07
9.04933e-06
-2.95465e-07
8.6341e-06
4.08372e-07
8.22211e-06
1.33506e-06
7.95676e-06
2.84832e-06
7.94872e-06
5.36082e-06
8.06067e-06
8.5944e-06
7.99786e-06
1.15176e-05
7.55294e-06
1.32806e-05
6.68377e-06
1.36448e-05
5.45684e-06
1.27626e-05
3.95475e-06
1.08882e-05
2.17487e-06
8.2475e-06
4.95925e-06
-7.72676e-07
8.15682e-06
-1.21526e-06
3.89515e-06
-6.79148e-07
3.85591e-06
3.11693e-07
3.54854e-06
3.45891e-07
1.12875e-06
1.31612e-08
1.89218e-07
-3.1358e-07
-5.264e-07
-1.13341e-07
-1.91352e-06
7.95098e-07
-4.57583e-06
1.80257e-06
-6.86347e-06
2.87372e-06
-8.76232e-06
4.03474e-06
-1.04324e-05
5.29915e-06
-1.18921e-05
6.65278e-06
-1.30967e-05
8.05993e-06
-1.39864e-05
9.4742e-06
-1.45179e-05
1.08484e-05
-1.46776e-05
1.2142e-05
-1.4484e-05
1.33249e-05
-1.39807e-05
1.43786e-05
-1.32251e-05
1.52941e-05
-1.22778e-05
1.60694e-05
-1.1196e-05
1.67067e-05
-1.00288e-05
1.72102e-05
-8.81695e-06
1.75848e-05
-7.59334e-06
1.78354e-05
-6.38422e-06
1.79677e-05
-5.2106e-06
1.79887e-05
-4.08898e-06
1.79076e-05
-3.03124e-06
1.77363e-05
-2.04401e-06
1.74899e-05
-1.12752e-06
1.71854e-05
-2.73595e-07
1.68389e-05
5.42182e-07
1.64679e-05
1.34396e-06
1.60867e-05
2.16603e-06
1.57018e-05
3.04074e-06
1.53086e-05
3.98991e-06
1.4891e-05
5.01467e-06
1.44261e-05
6.09265e-06
1.38905e-05
7.18601e-06
1.32661e-05
8.26322e-06
1.25431e-05
9.33916e-06
1.17221e-05
1.05446e-05
1.08273e-05
1.22013e-05
9.94019e-06
1.46814e-05
9.17508e-06
1.76645e-05
8.51396e-06
1.96724e-05
7.79458e-06
1.9527e-05
6.92488e-06
1.755e-05
5.96933e-06
1.4855e-05
5.06719e-06
1.23611e-05
4.3129e-06
1.04014e-05
3.71924e-06
8.86927e-06
3.26099e-06
7.55847e-06
2.9111e-06
6.34412e-06
2.65403e-06
5.18583e-06
2.47914e-06
4.07137e-06
2.37723e-06
2.98908e-06
2.34314e-06
1.91855e-06
2.37588e-06
8.31756e-07
2.48743e-06
-2.99554e-07
2.68389e-06
-1.47144e-06
2.97033e-06
-2.67039e-06
3.34701e-06
-3.87445e-06
3.80739e-06
-5.04092e-06
4.33807e-06
-6.11479e-06
4.92076e-06
-7.04452e-06
5.5349e-06
-7.79324e-06
6.16036e-06
-8.34224e-06
6.77914e-06
-8.68924e-06
7.37615e-06
-8.84431e-06
7.93934e-06
-8.82547e-06
8.45949e-06
-8.65504e-06
8.92979e-06
-8.35691e-06
9.34541e-06
-7.95467e-06
9.70304e-06
-7.47047e-06
1.00005e-05
-6.92433e-06
1.02365e-05
-6.33381e-06
1.04102e-05
-5.71383e-06
1.05212e-05
-5.07666e-06
1.05693e-05
-4.43191e-06
1.05547e-05
-3.78655e-06
1.04775e-05
-3.14478e-06
1.03378e-05
-2.50795e-06
1.0136e-05
-1.87431e-06
9.87215e-06
-1.23848e-06
9.54414e-06
-5.88515e-07
9.1487e-06
9.99694e-08
8.69911e-06
8.57965e-07
8.24204e-06
1.79213e-06
7.89779e-06
3.19257e-06
7.79108e-06
5.46753e-06
7.84486e-06
8.54061e-06
7.79747e-06
1.1565e-05
7.4253e-06
1.36528e-05
6.64516e-06
1.44249e-05
5.48018e-06
1.39276e-05
3.98515e-06
1.23832e-05
2.16736e-06
1.00653e-05
7.1266e-06
-7.73261e-07
8.93008e-06
-1.2191e-06
4.34098e-06
-9.86218e-07
3.62303e-06
-2.39231e-07
2.80155e-06
-2.39308e-07
1.12883e-06
-4.20282e-07
3.70192e-07
-4.62881e-07
-4.83801e-07
2.67665e-07
-2.64406e-06
1.30849e-06
-5.61666e-06
2.30602e-06
-7.86099e-06
3.35561e-06
-9.81191e-06
4.50751e-06
-1.15843e-05
5.77479e-06
-1.31594e-05
7.13402e-06
-1.44559e-05
8.5395e-06
-1.53919e-05
9.93762e-06
-1.5916e-05
1.12777e-05
-1.60177e-05
1.25196e-05
-1.57259e-05
1.36368e-05
-1.50979e-05
1.46163e-05
-1.42047e-05
1.54559e-05
-1.31174e-05
1.61597e-05
-1.18997e-05
1.67345e-05
-1.06036e-05
1.71874e-05
-9.26985e-06
1.75239e-05
-7.92991e-06
1.77481e-05
-6.60839e-06
1.78629e-05
-5.32534e-06
1.78714e-05
-4.09753e-06
1.77788e-05
-2.93866e-06
1.75934e-05
-1.85861e-06
1.7328e-05
-8.62068e-07
1.69945e-05
5.99316e-08
1.66105e-05
9.26186e-07
1.61954e-05
1.75907e-06
1.57669e-05
2.59452e-06
1.53367e-05
3.47085e-06
1.49071e-05
4.41959e-06
1.44683e-05
5.45349e-06
1.40013e-05
6.55958e-06
1.34835e-05
7.70385e-06
1.28943e-05
8.85245e-06
1.22192e-05
1.00142e-05
1.14537e-05
1.13101e-05
1.06178e-05
1.30372e-05
9.7899e-06
1.55093e-05
9.08144e-06
1.8373e-05
8.48365e-06
2.02702e-05
7.85655e-06
2.01541e-05
7.10982e-06
1.82967e-05
6.28364e-06
1.56811e-05
5.49257e-06
1.31521e-05
4.82917e-06
1.10648e-05
4.3195e-06
9.37894e-06
3.94678e-06
7.93119e-06
3.68473e-06
6.60617e-06
3.5133e-06
5.35726e-06
3.41768e-06
4.16699e-06
3.3871e-06
3.01966e-06
3.41688e-06
1.88877e-06
3.50818e-06
7.40456e-07
3.6704e-06
-4.61775e-07
3.91141e-06
-1.71245e-06
4.23666e-06
-2.99564e-06
4.64545e-06
-4.28324e-06
5.12874e-06
-5.52421e-06
5.67022e-06
-6.65627e-06
6.24942e-06
-7.62372e-06
6.84504e-06
-8.38887e-06
7.43751e-06
-8.93471e-06
8.0103e-06
-9.26203e-06
8.55038e-06
-9.38439e-06
9.04803e-06
-9.32312e-06
9.49637e-06
-9.10338e-06
9.89079e-06
-8.75133e-06
1.02284e-05
-8.2923e-06
1.05076e-05
-7.74967e-06
1.07276e-05
-7.14431e-06
1.08881e-05
-6.49427e-06
1.0989e-05
-5.81477e-06
1.10305e-05
-5.11817e-06
1.10128e-05
-4.41415e-06
1.09359e-05
-3.7097e-06
1.08003e-05
-3.00913e-06
1.06063e-05
-2.31396e-06
1.03547e-05
-1.62267e-06
1.00457e-05
-9.29524e-07
9.67478e-06
-2.17594e-07
9.24446e-06
5.30297e-07
8.76317e-06
1.33925e-06
8.26624e-06
2.28906e-06