/*--------------------------------*- C++ -*----------------------------------*\
| =========                 |                                                 |
| \\      /  F ield         | OpenFOAM: The Open Source CFD Toolbox           |
|  \\    /   O peration     | Version:  4.1                                   |
|   \\  /    A nd           | Web:      www.OpenFOAM.org                      |
|    \\/     M anipulation  |                                                 |
\*---------------------------------------------------------------------------*/
FoamFile
{
    version     2.0;
    format      ascii;
    class       volScalarField;
    location    "1620";
    object      T;
}
// * * * * * * * * * * * * * * * * * * * * * * * * * * * * * * * * * * * * * //

dimensions      [0 0 0 1 0 0 0];

internalField   nonuniform List<scalar> 
5000
(
286.91
286.539
286.231
285.955
285.742
285.652
285.657
285.682
285.697
285.701
285.7
285.728
285.764
285.778
285.782
285.782
285.782
285.785
285.79
285.8
285.814
285.834
285.859
285.89
285.927
285.972
286.025
286.087
286.159
286.242
286.339
286.447
286.554
286.66
286.764
286.868
286.97
287.072
287.172
287.271
287.368
287.463
287.558
287.662
287.792
287.955
288.037
287.891
287.758
287.65
287.552
287.46
287.373
287.289
287.207
287.127
287.048
286.969
286.89
286.809
286.727
286.652
286.587
286.531
286.485
286.448
286.419
286.4
286.39
286.39
286.4
286.421
286.454
286.5
286.553
286.613
286.681
286.76
286.851
286.955
287.076
287.215
287.37
287.519
287.622
287.638
287.58
287.55
287.698
288.008
288.237
288.209
287.702
287.091
286.739
286.445
286.249
286.115
286.298
286.592
286.42
285.938
285.381
284.775
284.577
284.559
284.57
284.586
284.599
284.611
284.621
284.628
284.633
284.636
284.639
284.64
284.64
284.64
284.639
284.639
284.638
284.638
284.638
284.638
284.638
284.639
284.639
284.639
284.639
284.639
284.637
284.637
284.65
284.677
284.718
284.772
284.837
284.909
284.981
285.045
285.092
285.133
285.227
285.499
286.055
286.768
287.12
286.57
285.889
285.577
285.358
285.191
285.055
284.941
284.846
284.766
284.702
284.653
284.616
284.594
284.585
284.578
284.572
284.565
284.557
284.55
284.543
284.536
284.529
284.523
284.517
284.511
284.507
284.503
284.5
284.498
284.496
284.495
284.495
284.494
284.495
284.496
284.497
284.498
284.498
284.499
284.502
284.526
284.642
285.084
285.936
286.699
286.858
286.312
285.483
285.209
285.181
285.198
285.244
286.212
286.131
285.787
285.376
284.79
284.601
284.562
284.574
284.597
284.617
284.633
284.644
284.651
284.653
284.652
284.649
284.644
284.638
284.632
284.626
284.622
284.618
284.616
284.616
284.616
284.618
284.621
284.625
284.629
284.634
284.639
284.644
284.647
284.649
284.65
284.652
284.655
284.661
284.671
284.685
284.699
284.714
284.736
284.803
285.008
285.486
286.193
286.602
286.147
285.39
285.033
284.886
284.794
284.733
284.692
284.663
284.644
284.631
284.621
284.613
284.605
284.597
284.588
284.579
284.568
284.558
284.546
284.535
284.523
284.512
284.502
284.492
284.483
284.476
284.469
284.464
284.46
284.457
284.454
284.452
284.451
284.45
284.449
284.449
284.448
284.447
284.447
284.448
284.46
284.521
284.745
285.289
285.969
286.323
286.117
285.644
285.311
285.242
285.321
285.5
285.907
285.854
285.598
285.556
284.944
284.68
284.582
284.581
284.612
284.637
284.654
284.662
284.662
284.655
284.644
284.63
284.614
284.599
284.586
284.574
284.564
284.557
284.553
284.551
284.551
284.554
284.559
284.567
284.576
284.586
284.598
284.611
284.624
284.636
284.645
284.652
284.656
284.658
284.659
284.659
284.658
284.659
284.666
284.707
284.853
285.233
285.85
286.251
285.928
285.276
284.892
284.77
284.725
284.702
284.688
284.68
284.673
284.666
284.658
284.649
284.639
284.628
284.615
284.601
284.586
284.57
284.554
284.537
284.52
284.504
284.489
284.474
284.462
284.452
284.443
284.436
284.43
284.426
284.423
284.421
284.42
284.419
284.42
284.421
284.422
284.424
284.426
284.428
284.438
284.478
284.622
284.993
285.541
285.939
285.942
285.674
285.393
285.268
285.282
285.325
285.447
285.57
285.317
285.64
285.247
284.881
284.622
284.592
284.627
284.655
284.669
284.669
284.656
284.634
284.608
284.582
284.557
284.534
284.515
284.499
284.486
284.476
284.47
284.467
284.467
284.47
284.475
284.484
284.495
284.509
284.525
284.544
284.564
284.586
284.606
284.624
284.638
284.649
284.656
284.659
284.659
284.658
284.66
284.686
284.795
285.1
285.623
285.994
285.783
285.254
284.884
284.756
284.728
284.722
284.719
284.717
284.713
284.706
284.698
284.687
284.674
284.659
284.643
284.625
284.605
284.584
284.562
284.539
284.517
284.495
284.474
284.456
284.44
284.426
284.414
284.404
284.397
284.391
284.386
284.384
284.383
284.383
284.384
284.387
284.39
284.393
284.398
284.403
284.413
284.443
284.547
284.817
285.257
285.649
285.772
285.65
285.446
285.322
285.323
285.335
285.333
285.309
285.006
285.604
285.405
285.05
284.682
284.608
284.644
284.672
284.677
284.661
284.628
284.591
284.554
284.52
284.489
284.463
284.442
284.424
284.41
284.4
284.393
284.389
284.388
284.39
284.394
284.402
284.413
284.426
284.444
284.464
284.488
284.515
284.544
284.571
284.597
284.619
284.637
284.649
284.656
284.659
284.663
284.683
284.77
285.019
285.461
285.799
285.675
285.255
284.913
284.775
284.749
284.751
284.754
284.754
284.752
284.746
284.737
284.725
284.711
284.693
284.673
284.651
284.627
284.6
284.572
284.543
284.515
284.487
284.461
284.438
284.418
284.4
284.385
284.372
284.362
284.354
284.349
284.346
284.344
284.344
284.346
284.35
284.354
284.36
284.366
284.374
284.385
284.411
284.489
284.694
285.051
285.419
285.611
285.594
285.468
285.365
285.349
285.354
285.339
285.096
284.764
285.49
285.399
284.962
284.675
284.628
284.664
284.686
284.673
284.634
284.584
284.537
284.495
284.459
284.428
284.403
284.381
284.365
284.351
284.341
284.334
284.33
284.328
284.328
284.331
284.336
284.345
284.356
284.371
284.39
284.414
284.442
284.474
284.508
284.542
284.574
284.603
284.626
284.643
284.654
284.662
284.682
284.756
284.966
285.34
285.646
285.586
285.258
284.951
284.804
284.772
284.777
284.785
284.789
284.788
284.784
284.776
284.764
284.748
284.728
284.705
284.679
284.65
284.618
284.584
284.549
284.514
284.481
284.45
284.422
284.397
284.375
284.356
284.341
284.328
284.319
284.312
284.307
284.306
284.306
284.308
284.312
284.317
284.325
284.333
284.344
284.357
284.38
284.441
284.6
284.892
285.229
285.458
285.519
285.462
285.388
285.364
285.362
285.34
284.935
284.642
285.248
285.253
284.8
284.638
284.648
284.686
284.691
284.652
284.59
284.533
284.484
284.443
284.409
284.381
284.357
284.338
284.322
284.311
284.302
284.296
284.291
284.289
284.288
284.289
284.292
284.297
284.305
284.316
284.331
284.351
284.377
284.407
284.443
284.482
284.522
284.559
284.593
284.62
284.64
284.656
284.68
284.746
284.926
285.247
285.524
285.51
285.257
284.987
284.837
284.795
284.798
284.809
284.817
284.82
284.817
284.811
284.799
284.783
284.762
284.737
284.707
284.673
284.636
284.596
284.555
284.515
284.476
284.44
284.406
284.376
284.35
284.328
284.31
284.295
284.283
284.275
284.27
284.268
284.268
284.27
284.274
284.281
284.289
284.3
284.312
284.327
284.35
284.399
284.524
284.764
285.068
285.315
285.431
285.433
285.393
285.369
285.357
285.338
284.824
284.554
284.912
285.011
284.667
284.637
284.679
284.705
284.68
284.61
284.54
284.485
284.44
284.403
284.373
284.347
284.325
284.308
284.295
284.285
284.278
284.273
284.27
284.268
284.266
284.266
284.267
284.269
284.273
284.28
284.29
284.305
284.325
284.352
284.386
284.425
284.468
284.513
284.554
284.591
284.621
284.645
284.673
284.737
284.895
285.173
285.424
285.444
285.251
285.017
284.868
284.817
284.816
284.827
284.837
284.843
284.844
284.84
284.83
284.814
284.792
284.765
284.733
284.695
284.653
284.608
284.562
284.516
284.471
284.429
284.39
284.356
284.326
284.3
284.279
284.262
284.249
284.24
284.234
284.231
284.231
284.233
284.238
284.245
284.255
284.267
284.281
284.298
284.32
284.362
284.461
284.658
284.929
285.181
285.336
285.387
285.38
285.365
285.35
285.331
284.754
284.483
284.651
284.756
284.629
284.672
284.71
284.71
284.647
284.56
284.495
284.446
284.407
284.375
284.347
284.324
284.304
284.288
284.277
284.27
284.266
284.263
284.261
284.26
284.259
284.258
284.257
284.257
284.258
284.26
284.265
284.275
284.289
284.31
284.339
284.376
284.419
284.466
284.514
284.558
284.597
284.629
284.664
284.728
284.87
285.113
285.342
285.385
285.24
285.039
284.897
284.837
284.83
284.839
284.85
284.858
284.861
284.86
284.852
284.838
284.818
284.79
284.756
284.715
284.669
284.619
284.566
284.514
284.464
284.416
284.373
284.334
284.301
284.272
284.249
284.23
284.216
284.206
284.199
284.196
284.196
284.199
284.204
284.211
284.222
284.234
284.25
284.268
284.29
284.328
284.408
284.571
284.811
285.058
285.239
285.329
285.354
285.352
285.34
285.322
284.713
284.449
284.533
284.615
284.66
284.71
284.728
284.696
284.595
284.513
284.458
284.418
284.385
284.356
284.33
284.307
284.289
284.275
284.267
284.263
284.262
284.263
284.264
284.264
284.264
284.263
284.261
284.258
284.256
284.255
284.255
284.259
284.267
284.282
284.305
284.337
284.377
284.424
284.475
284.525
284.571
284.611
284.652
284.717
284.848
285.065
285.274
285.333
285.226
285.055
284.921
284.856
284.841
284.847
284.858
284.866
284.872
284.872
284.868
284.856
284.837
284.81
284.774
284.731
284.68
284.625
284.567
284.509
284.453
284.401
284.353
284.311
284.274
284.244
284.219
284.199
284.184
284.173
284.166
284.163
284.163
284.166
284.171
284.179
284.19
284.204
284.22
284.238
284.261
284.296
284.363
284.498
284.709
284.946
285.143
285.264
285.317
285.333
285.327
285.314
284.689
284.444
284.516
284.614
284.698
284.733
284.726
284.66
284.542
284.476
284.432
284.4
284.372
284.344
284.318
284.295
284.277
284.266
284.262
284.263
284.267
284.271
284.276
284.278
284.279
284.278
284.275
284.27
284.265
284.26
284.256
284.254
284.257
284.266
284.282
284.308
284.344
284.389
284.44
284.493
284.544
284.591
284.639
284.706
284.829
285.024
285.217
285.286
285.21
285.066
284.941
284.873
284.851
284.852
284.861
284.87
284.876
284.879
284.877
284.869
284.851
284.824
284.787
284.741
284.686
284.626
284.563
284.499
284.438
284.382
284.33
284.285
284.247
284.215
284.189
284.168
284.153
284.142
284.135
284.132
284.132
284.135
284.141
284.15
284.161
284.175
284.191
284.21
284.234
284.267
284.325
284.438
284.622
284.847
285.051
285.195
285.274
285.308
285.312
285.306
284.677
284.456
284.546
284.659
284.725
284.743
284.711
284.602
284.502
284.45
284.417
284.39
284.364
284.335
284.307
284.284
284.268
284.261
284.262
284.269
284.279
284.289
284.297
284.302
284.303
284.302
284.297
284.291
284.283
284.274
284.266
284.26
284.257
284.26
284.269
284.289
284.319
284.36
284.409
284.463
284.518
284.571
284.624
284.694
284.812
284.991
285.169
285.245
285.193
285.072
284.958
284.888
284.86
284.856
284.862
284.87
284.878
284.883
284.883
284.876
284.861
284.834
284.795
284.746
284.686
284.621
284.552
284.484
284.419
284.358
284.305
284.258
284.218
284.185
284.159
284.138
284.123
284.113
284.106
284.104
284.104
284.108
284.114
284.123
284.134
284.148
284.164
284.184
284.208
284.24
284.292
284.387
284.548
284.758
284.966
285.127
285.228
285.279
285.296
285.299
284.676
284.477
284.589
284.697
284.743
284.745
284.682
284.542
284.471
284.433
284.409
284.386
284.359
284.327
284.297
284.273
284.26
284.26
284.269
284.283
284.3
284.315
284.327
284.333
284.336
284.333
284.327
284.318
284.307
284.295
284.282
284.272
284.264
284.261
284.265
284.278
284.302
284.338
284.384
284.438
284.495
284.552
284.61
284.683
284.797
284.963
285.129
285.208
285.175
285.075
284.972
284.902
284.87
284.861
284.863
284.87
284.878
284.885
284.887
284.882
284.867
284.839
284.798
284.744
284.68
284.608
284.535
284.462
284.393
284.331
284.275
284.227
284.187
284.155
284.129
284.109
284.095
284.085
284.08
284.078
284.079
284.083
284.09
284.099
284.11
284.124
284.14
284.16
284.185
284.216
284.263
284.346
284.487
284.681
284.887
285.061
285.181
285.25
285.279
285.291
284.686
284.508
284.631
284.721
284.755
284.737
284.63
284.501
284.451
284.426
284.409
284.386
284.355
284.319
284.286
284.263
284.255
284.263
284.281
284.305
284.33
284.35
284.365
284.372
284.373
284.369
284.36
284.348
284.334
284.318
284.302
284.288
284.276
284.268
284.267
284.274
284.292
284.323
284.365
284.417
284.475
284.534
284.597
284.673
284.784
284.94
285.095
285.176
285.157
285.074
284.982
284.915
284.879
284.866
284.866
284.872
284.88
284.887
284.89
284.886
284.87
284.84
284.795
284.736
284.665
284.588
284.51
284.433
284.362
284.298
284.242
284.195
284.155
284.124
284.1
284.081
284.069
284.06
284.056
284.055
284.057
284.062
284.069
284.078
284.089
284.103
284.119
284.139
284.164
284.195
284.238
284.311
284.435
284.614
284.817
284.999
285.135
285.219
285.261
285.284
284.702
284.556
284.667
284.736
284.763
284.717
284.564
284.474
284.44
284.427
284.413
284.387
284.351
284.31
284.274
284.254
284.253
284.271
284.302
284.336
284.368
284.392
284.408
284.415
284.414
284.406
284.393
284.378
284.36
284.341
284.323
284.305
284.289
284.277
284.271
284.274
284.287
284.313
284.352
284.401
284.458
284.52
284.585
284.664
284.774
284.921
285.067
285.148
285.14
285.072
284.99
284.927
284.889
284.873
284.871
284.875
284.883
284.891
284.895
284.89
284.872
284.837
284.786
284.719
284.642
284.56
284.477
284.398
284.325
284.261
284.206
284.16
284.123
284.094
284.072
284.056
284.045
284.039
284.036
284.036
284.039
284.044
284.052
284.061
284.072
284.085
284.102
284.122
284.146
284.176
284.217
284.282
284.393
284.557
284.754
284.942
285.091
285.189
285.244
285.277
284.718
284.62
284.697
284.747
284.769
284.673
284.512
284.456
284.439
284.433
284.419
284.389
284.345
284.299
284.262
284.246
284.255
284.287
284.33
284.374
284.412
284.439
284.454
284.458
284.452
284.44
284.423
284.403
284.381
284.36
284.339
284.319
284.301
284.286
284.277
284.277
284.286
284.308
284.343
284.39
284.446
284.509
284.576
284.657
284.766
284.907
285.045
285.124
285.124
285.068
284.996
284.938
284.901
284.883
284.879
284.883
284.89
284.898
284.9
284.893
284.87
284.828
284.769
284.694
284.609
284.522
284.436
284.355
284.283
284.22
284.168
284.125
284.091
284.065
284.046
284.033
284.024
284.02
284.019
284.021
284.024
284.03
284.038
284.047
284.058
284.072
284.088
284.108
284.131
284.161
284.199
284.259
284.358
284.509
284.699
284.89
285.049
285.16
285.227
285.271
284.734
284.678
284.729
284.772
284.737
284.6
284.482
284.448
284.444
284.444
284.427
284.389
284.339
284.288
284.251
284.241
284.262
284.308
284.364
284.417
284.459
284.486
284.498
284.497
284.487
284.469
284.446
284.421
284.395
284.371
284.349
284.327
284.308
284.293
284.283
284.28
284.287
284.306
284.339
284.384
284.439
284.502
284.571
284.654
284.762
284.898
285.027
285.104
285.109
285.063
285.001
284.948
284.913
284.895
284.89
284.893
284.9
284.907
284.907
284.894
284.863
284.812
284.742
284.658
284.566
284.474
284.386
284.307
284.237
284.178
284.129
284.091
284.061
284.039
284.024
284.013
284.008
284.005
284.006
284.009
284.014
284.02
284.028
284.038
284.049
284.062
284.078
284.097
284.12
284.148
284.185
284.24
284.329
284.469
284.651
284.842
285.01
285.133
285.211
285.264
284.748
284.723
284.76
284.769
284.689
284.542
284.464
284.449
284.456
284.457
284.435
284.389
284.331
284.276
284.24
284.238
284.273
284.334
284.402
284.462
284.505
284.53
284.538
284.532
284.515
284.492
284.463
284.433
284.403
284.375
284.351
284.329
284.311
284.296
284.286
284.283
284.29
284.308
284.339
284.382
284.437
284.499
284.57
284.654
284.762
284.892
285.014
285.087
285.095
285.057
285.004
284.957
284.925
284.908
284.904
284.907
284.913
284.917
284.912
284.891
284.849
284.785
284.703
284.61
284.512
284.418
284.331
284.254
284.188
284.134
284.091
284.058
284.034
284.016
284.005
283.998
283.995
283.995
283.997
284.002
284.007
284.014
284.022
284.032
284.043
284.055
284.071
284.089
284.111
284.139
284.174
284.225
284.307
284.436
284.61
284.801
284.974
285.107
285.196
285.259
284.762
284.757
284.776
284.74
284.635
284.504
284.457
284.458
284.472
284.471
284.442
284.388
284.323
284.264
284.23
284.238
284.288
284.364
284.441
284.505
284.547
284.569
284.572
284.562
284.541
284.513
284.479
284.443
284.407
284.375
284.348
284.326
284.309
284.296
284.288
284.287
284.294
284.313
284.343
284.386
284.439
284.502
284.573
284.658
284.766
284.891
285.006
285.073
285.082
285.052
285.007
284.966
284.938
284.923
284.919
284.922
284.926
284.926
284.913
284.88
284.823
284.744
284.65
284.549
284.448
284.354
284.27
284.198
284.139
284.092
284.056
284.029
284.011
283.998
283.991
283.988
283.988
283.99
283.993
283.999
284.005
284.012
284.02
284.029
284.04
284.052
284.067
284.084
284.106
284.132
284.166
284.213
284.289
284.409
284.575
284.764
284.942
285.084
285.181
285.254
284.777
284.78
284.771
284.701
284.58
284.482
284.459
284.473
284.489
284.485
284.449
284.387
284.316
284.254
284.223
284.24
284.305
284.393
284.478
284.543
284.584
284.602
284.603
284.59
284.568
284.537
284.499
284.457
284.415
284.376
284.344
284.321
284.305
284.295
284.29
284.292
284.302
284.322
284.353
284.395
284.448
284.51
284.582
284.668
284.775
284.895
285.001
285.062
285.071
285.046
285.009
284.975
284.951
284.939
284.936
284.937
284.938
284.931
284.906
284.856
284.781
284.687
284.583
284.476
284.375
284.285
284.207
284.143
284.092
284.054
284.025
284.006
283.993
283.986
283.983
283.983
283.985
283.989
283.994
284
284.007
284.014
284.022
284.031
284.041
284.053
284.067
284.083
284.103
284.128
284.16
284.205
284.275
284.388
284.546
284.733
284.914
285.062
285.169
285.249
284.793
284.79
284.752
284.66
284.538
284.473
284.469
284.491
284.508
284.499
284.456
284.386
284.31
284.246
284.217
284.244
284.32
284.418
284.508
284.574
284.614
284.631
284.631
284.619
284.597
284.566
284.527
284.481
284.432
284.385
284.346
284.32
284.305
284.298
284.297
284.302
284.315
284.336
284.368
284.41
284.463
284.524
284.596
284.683
284.789
284.904
285
285.054
285.062
285.041
285.01
284.982
284.963
284.954
284.951
284.95
284.946
284.927
284.884
284.814
284.721
284.613
284.501
284.394
284.297
284.214
284.145
284.091
284.051
284.022
284.002
283.99
283.983
283.981
283.982
283.984
283.989
283.994
284
284.006
284.012
284.02
284.027
284.036
284.046
284.057
284.069
284.085
284.104
284.127
284.158
284.2
284.266
284.371
284.523
284.707
284.889
285.043
285.157
285.245
284.805
284.79
284.728
284.624
284.514
284.473
284.484
284.511
284.526
284.513
284.463
284.387
284.305
284.239
284.213
284.247
284.333
284.437
284.53
284.597
284.637
284.656
284.658
284.649
284.63
284.601
284.564
284.518
284.465
284.41
284.361
284.329
284.315
284.311
284.313
284.321
284.335
284.358
284.39
284.432
284.484
284.545
284.617
284.704
284.808
284.916
285.002
285.047
285.053
285.036
285.011
284.989
284.974
284.967
284.964
284.959
284.945
284.909
284.843
284.75
284.639
284.522
284.409
284.306
284.218
284.145
284.089
284.047
284.017
283.998
283.987
283.982
283.981
283.983
283.987
283.992
283.998
284.004
284.01
284.016
284.022
284.029
284.037
284.045
284.053
284.063
284.075
284.089
284.107
284.129
284.158
284.198
284.26
284.36
284.505
284.685
284.869
285.027
285.147
285.243
284.813
284.784
284.705
284.595
284.502
284.481
284.502
284.532
284.545
284.527
284.471
284.389
284.304
284.235
284.21
284.249
284.339
284.447
284.543
284.612
284.655
284.677
284.684
284.679
284.664
284.641
284.608
284.566
284.514
284.456
284.4
284.36
284.346
284.341
284.343
284.351
284.366
284.389
284.42
284.461
284.512
284.572
284.644
284.731
284.832
284.932
285.006
285.043
285.046
285.032
285.012
284.995
284.984
284.977
284.971
284.959
284.929
284.867
284.774
284.66
284.538
284.419
284.31
284.218
284.142
284.084
284.042
284.013
283.995
283.985
283.981
283.982
283.986
283.992
283.999
284.005
284.012
284.019
284.025
284.031
284.036
284.043
284.049
284.056
284.064
284.073
284.084
284.097
284.113
284.134
284.161
284.199
284.258
284.352
284.493
284.669
284.853
285.014
285.14
285.241
284.817
284.776
284.685
284.575
284.498
284.492
284.522
284.553
284.564
284.542
284.481
284.394
284.305
284.234
284.208
284.247
284.338
284.448
284.547
284.62
284.668
284.696
284.707
284.707
284.697
284.679
284.652
284.616
284.573
284.523
284.473
284.428
284.402
284.39
284.388
284.393
284.406
284.428
284.459
284.498
284.548
284.607
284.678
284.763
284.858
284.949
285.011
285.039
285.04
285.028
285.013
285
284.99
284.983
284.971
284.945
284.887
284.794
284.676
284.548
284.423
284.309
284.213
284.136
284.077
284.035
284.007
283.991
283.984
283.983
283.986
283.992
284
284.009
284.017
284.025
284.033
284.039
284.045
284.05
284.054
284.06
284.066
284.072
284.078
284.086
284.095
284.106
284.121
284.141
284.166
284.203
284.258
284.349
284.485
284.658
284.841
285.005
285.134
285.24
284.82
284.769
284.669
284.561
284.499
284.506
284.541
284.574
284.585
284.559
284.494
284.402
284.309
284.234
284.204
284.239
284.328
284.439
284.542
284.622
284.677
284.71
284.728
284.733
284.727
284.714
284.692
284.663
284.628
284.588
284.546
284.503
284.47
284.451
284.443
284.445
284.456
284.475
284.504
284.543
284.591
284.649
284.718
284.798
284.885
284.965
285.016
285.035
285.034
285.024
285.012
285.002
284.992
284.98
284.956
284.903
284.809
284.686
284.551
284.42
284.302
284.203
284.125
284.067
284.026
284.001
283.988
283.983
283.985
283.991
284
284.01
284.021
284.032
284.042
284.051
284.059
284.065
284.07
284.073
284.077
284.081
284.086
284.09
284.095
284.101
284.108
284.118
284.131
284.149
284.174
284.208
284.262
284.349
284.481
284.652
284.835
284.999
285.131
285.241
284.821
284.763
284.657
284.552
284.504
284.52
284.56
284.595
284.606
284.579
284.51
284.413
284.317
284.236
284.198
284.225
284.31
284.421
284.529
284.616
284.678
284.719
284.742
284.753
284.753
284.743
284.725
284.701
284.671
284.638
284.602
284.566
284.534
284.514
284.503
284.502
284.511
284.529
284.556
284.593
284.639
284.695
284.761
284.835
284.912
284.978
285.019
285.032
285.029
285.021
285.011
285
284.986
284.963
284.915
284.818
284.688
284.546
284.409
284.288
284.187
284.11
284.053
284.016
283.994
283.984
283.983
283.989
283.998
284.01
284.023
284.037
284.05
284.062
284.073
284.083
284.09
284.095
284.099
284.101
284.104
284.106
284.108
284.111
284.114
284.118
284.124
284.132
284.144
284.16
284.183
284.216
284.268
284.353
284.484
284.653
284.835
284.999
285.132
285.243
284.822
284.759
284.648
284.548
284.511
284.534
284.578
284.615
284.627
284.601
284.53
284.428
284.327
284.24
284.191
284.207
284.284
284.394
284.505
284.6
284.67
284.719
284.75
284.767
284.772
284.767
284.753
284.733
284.708
284.679
284.649
284.619
284.593
284.574
284.564
284.562
284.57
284.587
284.613
284.648
284.691
284.744
284.805
284.871
284.937
284.99
285.02
285.027
285.024
285.015
285.004
284.989
284.964
284.917
284.82
284.681
284.531
284.388
284.265
284.165
284.09
284.038
284.005
283.987
283.982
283.985
283.994
284.006
284.021
284.037
284.054
284.069
284.084
284.098
284.11
284.119
284.126
284.13
284.133
284.134
284.135
284.134
284.134
284.134
284.134
284.136
284.14
284.147
284.157
284.173
284.195
284.226
284.277
284.362
284.493
284.662
284.843
285.004
285.136
285.246
284.823
284.758
284.644
284.547
284.518
284.547
284.594
284.633
284.648
284.625
284.553
284.447
284.342
284.247
284.184
284.185
284.251
284.356
284.471
284.573
284.653
284.711
284.75
284.775
284.786
284.786
284.778
284.762
284.741
284.718
284.693
284.669
284.648
284.632
284.624
284.623
284.631
284.647
284.671
284.704
284.745
284.793
284.847
284.904
284.958
284.999
285.019
285.022
285.016
285.005
284.988
284.961
284.912
284.815
284.663
284.503
284.356
284.233
284.136
284.066
284.019
283.993
283.981
283.98
283.988
284
284.016
284.034
284.053
284.072
284.09
284.108
284.124
284.138
284.15
284.159
284.165
284.168
284.169
284.169
284.167
284.163
284.16
284.157
284.155
284.155
284.158
284.163
284.173
284.187
284.208
284.239
284.291
284.381
284.515
284.683
284.858
285.014
285.142
285.249
284.825
284.759
284.643
284.549
284.526
284.557
284.606
284.648
284.668
284.65
284.579
284.468
284.36
284.257
284.18
284.163
284.213
284.31
284.425
284.533
284.622
284.691
284.74
284.773
284.793
284.801
284.799
284.789
284.774
284.756
284.737
284.718
284.701
284.689
284.683
284.683
284.691
284.706
284.729
284.76
284.797
284.839
284.886
284.933
284.974
285.003
285.015
285.012
285.001
284.982
284.95
284.896
284.797
284.63
284.461
284.312
284.191
284.101
284.039
284
283.981
283.976
283.981
283.992
284.009
284.027
284.048
284.069
284.091
284.112
284.132
284.151
284.168
284.183
284.194
284.202
284.206
284.207
284.205
284.202
284.197
284.191
284.185
284.18
284.177
284.175
284.176
284.181
284.189
284.203
284.224
284.258
284.317
284.414
284.551
284.715
284.881
285.029
285.151
285.252
284.827
284.764
284.648
284.554
284.533
284.564
284.613
284.658
284.683
284.674
284.607
284.492
284.381
284.273
284.181
284.143
284.173
284.257
284.367
284.479
284.577
284.656
284.717
284.761
284.791
284.808
284.815
284.813
284.805
284.793
284.779
284.765
284.753
284.744
284.74
284.742
284.75
284.764
284.785
284.812
284.845
284.881
284.919
284.955
284.984
285.002
285.004
284.991
284.968
284.929
284.866
284.759
284.579
284.4
284.253
284.14
284.06
284.009
283.981
283.97
283.972
283.983
283.999
284.018
284.04
284.063
284.086
284.11
284.133
284.156
284.178
284.198
284.216
284.23
284.24
284.246
284.248
284.244
284.239
284.233
284.226
284.218
284.211
284.205
284.2
284.197
284.197
284.2
284.209
284.223
284.248
284.289
284.357
284.461
284.599
284.756
284.911
285.049
285.162
285.254
284.828
284.771
284.661
284.568
284.539
284.566
284.615
284.662
284.694
284.697
284.637
284.516
284.404
284.292
284.187
284.128
284.134
284.199
284.3
284.411
284.516
284.605
284.677
284.733
284.774
284.803
284.821
284.829
284.829
284.825
284.817
284.808
284.8
284.795
284.793
284.796
284.804
284.817
284.836
284.859
284.885
284.914
284.942
284.967
284.983
284.987
284.975
284.942
284.893
284.817
284.695
284.503
284.319
284.18
284.082
284.017
283.98
283.964
283.963
283.972
283.988
284.008
284.03
284.053
284.078
284.103
284.129
284.154
284.18
284.204
284.227
284.249
284.267
284.282
284.292
284.297
284.295
284.287
284.276
284.267
284.259
284.25
284.241
284.233
284.226
284.221
284.221
284.224
284.234
284.252
284.283
284.335
284.414
284.524
284.659
284.806
284.948
285.073
285.174
285.254
284.828
284.78
284.682
284.594
284.552
284.566
284.611
284.658
284.697
284.716
284.666
284.539
284.428
284.316
284.199
284.12
284.101
284.142
284.227
284.331
284.437
284.534
284.616
284.685
284.739
284.78
284.81
284.83
284.841
284.846
284.845
284.843
284.839
284.837
284.837
284.841
284.849
284.86
284.875
284.893
284.913
284.933
284.949
284.96
284.96
284.943
284.903
284.831
284.735
284.596
284.397
284.218
284.097
284.02
283.976
283.956
283.952
283.96
283.976
283.996
284.018
284.042
284.068
284.093
284.12
284.147
284.174
284.202
284.229
284.256
284.281
284.305
284.326
284.343
284.354
284.359
284.356
284.345
284.331
284.319
284.306
284.293
284.279
284.267
284.257
284.251
284.25
284.255
284.268
284.293
284.336
284.399
284.488
284.6
284.729
284.863
284.989
285.098
285.185
285.249
284.828
284.789
284.709
284.632
284.582
284.572
284.605
284.649
284.693
284.729
284.695
284.561
284.451
284.341
284.218
284.121
284.076
284.09
284.152
284.242
284.343
284.441
284.532
284.61
284.677
284.732
284.776
284.809
284.832
284.847
284.856
284.861
284.862
284.863
284.866
284.87
284.877
284.886
284.896
284.907
284.917
284.924
284.925
284.915
284.889
284.837
284.738
284.608
284.451
284.256
284.102
284.012
283.964
283.943
283.939
283.948
283.964
283.984
284.007
284.031
284.056
284.082
284.108
284.136
284.164
284.192
284.221
284.252
284.282
284.313
284.342
284.37
284.394
284.414
284.428
284.434
284.432
284.422
284.407
284.387
284.366
284.344
284.324
284.307
284.295
284.287
284.287
284.296
284.317
284.352
284.406
284.481
284.575
284.685
284.804
284.923
285.031
285.122
285.191
285.232
284.826
284.799
284.737
284.674
284.626
284.595
284.609
284.642
284.684
284.735
284.722
284.579
284.472
284.367
284.24
284.13
284.064
284.05
284.084
284.152
284.238
284.331
284.422
284.507
284.584
284.651
284.708
284.755
284.791
284.819
284.838
284.85
284.858
284.863
284.867
284.871
284.876
284.88
284.883
284.883
284.878
284.865
284.84
284.797
284.726
284.605
284.426
284.262
284.096
283.991
283.943
283.925
283.925
283.935
283.952
283.973
283.996
284.02
284.045
284.071
284.097
284.123
284.15
284.179
284.209
284.24
284.272
284.306
284.341
284.376
284.411
284.443
284.472
284.495
284.51
284.517
284.514
284.503
284.483
284.455
284.426
284.397
284.372
284.352
284.338
284.332
284.336
284.352
284.382
284.429
284.493
284.574
284.669
284.773
284.879
284.979
285.067
285.136
285.181
285.191
284.82
284.806
284.764
284.716
284.673
284.644
284.631
284.645
284.678
284.733
284.745
284.593
284.489
284.39
284.263
284.146
284.063
284.024
284.029
284.069
284.133
284.21
284.292
284.375
284.455
284.53
284.597
284.657
284.707
284.747
284.777
284.798
284.811
284.82
284.826
284.828
284.827
284.823
284.813
284.795
284.766
284.722
284.658
284.563
284.418
284.216
284.067
283.962
283.917
283.907
283.912
283.925
283.942
283.963
283.986
284.01
284.034
284.059
284.084
284.111
284.137
284.164
284.192
284.222
284.254
284.288
284.325
284.364
284.404
284.445
284.485
284.522
284.553
284.576
284.59
284.594
284.588
284.571
284.546
284.513
284.48
284.449
284.422
284.402
284.39
284.388
284.399
284.424
284.464
284.519
284.589
284.672
284.762
284.855
284.945
285.025
285.089
285.131
285.144
285.106
284.804
284.804
284.782
284.749
284.714
284.686
284.662
284.659
284.679
284.732
284.763
284.603
284.503
284.41
284.286
284.166
284.072
284.014
283.993
284.005
284.041
284.093
284.156
284.224
284.296
284.368
284.439
284.506
284.566
284.617
284.658
284.688
284.707
284.719
284.725
284.724
284.715
284.698
284.67
284.626
284.564
284.477
284.358
284.204
284.032
283.934
283.898
283.895
283.904
283.919
283.937
283.957
283.978
284.001
284.025
284.05
284.074
284.098
284.122
284.148
284.174
284.202
284.232
284.264
284.3
284.339
284.381
284.425
284.471
284.517
284.56
284.597
284.628
284.649
284.66
284.659
284.648
284.627
284.598
284.565
284.532
284.501
284.476
284.459
284.452
284.457
284.475
284.508
284.555
284.615
284.686
284.765
284.846
284.923
284.992
285.047