/*--------------------------------*- C++ -*----------------------------------*\
| =========                 |                                                 |
| \\      /  F ield         | OpenFOAM: The Open Source CFD Toolbox           |
|  \\    /   O peration     | Version:  4.1                                   |
|   \\  /    A nd           | Web:      www.OpenFOAM.org                      |
|    \\/     M anipulation  |                                                 |
\*---------------------------------------------------------------------------*/
FoamFile
{
    version     2.0;
    format      ascii;
    class       volVectorField;
    location    "1620";
    object      U;
}
// * * * * * * * * * * * * * * * * * * * * * * * * * * * * * * * * * * * * * //

dimensions      [0 1 -1 0 0 0 0];

internalField   nonuniform List<vector> 
5000
(
(-0.00288187 0.00248756 0)
(-0.00614262 0.00156292 0)
(-0.0087727 0.000756089 0)
(-0.00938049 -0.00014142 0)
(-0.00885241 -0.000587472 0)
(-0.00779724 -0.000782866 0)
(-0.00657975 -0.000778391 0)
(-0.00539308 -0.000714659 0)
(-0.00430494 -0.000680566 0)
(-0.00328837 -0.000683409 0)
(-0.00230133 -0.000712131 0)
(-0.00127466 -0.000688342 0)
(-0.000242821 -0.000646758 0)
(0.000756836 -0.000641836 0)
(0.00182863 -0.000655092 0)
(0.00297226 -0.00067539 0)
(0.00417081 -0.000691813 0)
(0.0054092 -0.000699024 0)
(0.00666701 -0.000694949 0)
(0.0079211 -0.000679109 0)
(0.00914884 -0.000651969 0)
(0.0103297 -0.000614609 0)
(0.0114457 -0.000568438 0)
(0.0124816 -0.000514944 0)
(0.0134248 -0.000455525 0)
(0.0142649 -0.000391403 0)
(0.0149932 -0.00032362 0)
(0.0156028 -0.000253105 0)
(0.0160878 -0.000180825 0)
(0.016444 -0.000108034 0)
(0.0166691 -3.67461e-05 0)
(0.0167637 2.97974e-05 0)
(0.0167385 9.00114e-05 0)
(0.0165971 0.000145663 0)
(0.0163442 0.000198146 0)
(0.0159858 0.000247515 0)
(0.0155291 0.00029274 0)
(0.0149844 0.000331091 0)
(0.014368 0.000356687 0)
(0.0137085 0.000358826 0)
(0.0130533 0.000324604 0)
(0.0124637 0.000256294 0)
(0.0119673 0.000213577 0)
(0.0114464 0.000364012 0)
(0.0104979 0.000969451 0)
(0.00829608 0.00209618 0)
(0.00388711 0.00266106 0)
(-0.000446336 0.00150504 0)
(-0.00209952 0.000813932 0)
(-0.00335189 0.000563255 0)
(-0.00433053 0.000438621 0)
(-0.00513677 0.000369354 0)
(-0.00583593 0.000323163 0)
(-0.00645406 0.000285212 0)
(-0.00699845 0.0002489 0)
(-0.0074683 0.000211388 0)
(-0.00785999 0.000171569 0)
(-0.008169 0.000129179 0)
(-0.00839027 8.41842e-05 0)
(-0.00851817 3.613e-05 0)
(-0.00854781 -1.67087e-05 0)
(-0.00847434 -7.35375e-05 0)
(-0.0082921 -0.00013296 0)
(-0.00799867 -0.000193657 0)
(-0.00759434 -0.000254234 0)
(-0.00708209 -0.000313163 0)
(-0.00646791 -0.000368828 0)
(-0.00576077 -0.000419549 0)
(-0.00497221 -0.00046394 0)
(-0.0041162 -0.0005012 0)
(-0.00320848 -0.000529266 0)
(-0.00226321 -0.000546619 0)
(-0.00129574 -0.000555808 0)
(-0.000296332 -0.000548532 0)
(0.000654894 -0.000528733 0)
(0.00158512 -0.000505685 0)
(0.00248447 -0.000481423 0)
(0.00334336 -0.000455544 0)
(0.00415744 -0.000427895 0)
(0.00492271 -0.000397744 0)
(0.00563416 -0.000363072 0)
(0.00628452 -0.0003209 0)
(0.00686511 -0.000270791 0)
(0.00737444 -0.00022339 0)
(0.00783877 -0.000208512 0)
(0.00833333 -0.000264809 0)
(0.0089656 -0.00039969 0)
(0.00979406 -0.000533817 0)
(0.0107124 -0.000475925 0)
(0.0113308 -1.28616e-05 0)
(0.010942 0.000976367 0)
(0.00868317 0.0021819 0)
(0.00437366 0.00226786 0)
(0.000702949 0.000681435 0)
(-0.000149668 -0.000381796 0)
(0.00024755 -0.000669084 0)
(0.00105838 -0.000853984 0)
(0.00200559 -0.00100957 0)
(0.00265939 -0.000333836 0)
(0.0025295 0.00129295 0)
(-0.00159334 0.00552417 0)
(-0.00383033 0.00418413 0)
(-0.00669354 0.00257521 0)
(-0.00767254 0.000284713 0)
(-0.00753535 -0.00110996 0)
(-0.00672232 -0.00177494 0)
(-0.00569253 -0.00184892 0)
(-0.00458621 -0.00170714 0)
(-0.00356972 -0.00157927 0)
(-0.0026335 -0.00151058 0)
(-0.00174543 -0.00150685 0)
(-0.00084798 -0.0015056 0)
(0.000124499 -0.00153687 0)
(0.00113663 -0.00160388 0)
(0.00224217 -0.00169076 0)
(0.00342279 -0.0017778 0)
(0.00466331 -0.00184663 0)
(0.00594545 -0.00188719 0)
(0.00724718 -0.00189544 0)
(0.0085454 -0.00187091 0)
(0.00981824 -0.00181547 0)
(0.0110463 -0.00173237 0)
(0.0122131 -0.00162547 0)
(0.0133051 -0.00149867 0)
(0.0143114 -0.00135545 0)
(0.0152233 -0.00119871 0)
(0.0160339 -0.00103073 0)
(0.0167372 -0.000853373 0)
(0.0173281 -0.000668392 0)
(0.0178018 -0.000478013 0)
(0.0181543 -0.000285772 0)
(0.0183822 -9.66156e-05 0)
(0.0184769 8.5746e-05 0)
(0.0184403 0.000260046 0)
(0.0182775 0.000425836 0)
(0.0179954 0.000581245 0)
(0.017604 0.000722538 0)
(0.0171167 0.000843344 0)
(0.0165512 0.000932598 0)
(0.0159285 0.000973007 0)
(0.0152702 0.000947483 0)
(0.0145832 0.000871774 0)
(0.013827 0.000873361 0)
(0.0128648 0.00127925 0)
(0.0114423 0.00252176 0)
(0.00915031 0.00458743 0)
(0.00555293 0.00601432 0)
(0.00162812 0.00458075 0)
(-0.000970802 0.00246318 0)
(-0.00241279 0.00172195 0)
(-0.00355557 0.00136652 0)
(-0.00450362 0.00116143 0)
(-0.00532192 0.00101844 0)
(-0.00603543 0.000897382 0)
(-0.00665208 0.000780334 0)
(-0.00717284 0.000659822 0)
(-0.00759611 0.000533317 0)
(-0.00791937 0.00040042 0)
(-0.00814028 0.00026116 0)
(-0.00825625 0.000115404 0)
(-0.00826309 -3.81875e-05 0)
(-0.00816264 -0.000199594 0)
(-0.00795211 -0.00036526 0)
(-0.00763015 -0.000531831 0)
(-0.00719774 -0.000695922 0)
(-0.00665837 -0.00085378 0)
(-0.00601846 -0.0010014 0)
(-0.00528744 -0.00113471 0)
(-0.00447731 -0.00125021 0)
(-0.00360163 -0.0013453 0)
(-0.00267718 -0.00141751 0)
(-0.0017202 -0.00146562 0)
(-0.000727906 -0.00148774 0)
(0.000252986 -0.00147228 0)
(0.00119462 -0.00143 0)
(0.00211747 -0.00137693 0)
(0.00300314 -0.00131628 0)
(0.0038436 -0.00124878 0)
(0.00463367 -0.00117567 0)
(0.00537018 -0.00109788 0)
(0.0060531 -0.00101563 0)
(0.00668751 -0.000929235 0)
(0.0072853 -0.000843394 0)
(0.00786356 -0.00077629 0)
(0.00843681 -0.000766618 0)
(0.00900776 -0.00086061 0)
(0.00956893 -0.00106754 0)
(0.0101174 -0.00128181 0)
(0.0106609 -0.00117793 0)
(0.011103 -0.000234989 0)
(0.0110124 0.00172169 0)
(0.00985845 0.00399609 0)
(0.00752451 0.00509587 0)
(0.00488501 0.00388158 0)
(0.00246384 0.000981553 0)
(0.00131065 -0.000661855 0)
(0.00114821 -0.00100583 0)
(0.00127793 -0.00102021 0)
(6.92227e-05 -0.000385044 0)
(0.00154381 0.00322925 0)
(-0.000731384 0.00750691 0)
(-0.00109423 0.00618293 0)
(-0.00395592 0.0048776 0)
(-0.00541145 0.0011773 0)
(-0.00584993 -0.00144239 0)
(-0.00530238 -0.00277884 0)
(-0.00453509 -0.00297776 0)
(-0.00359506 -0.0027556 0)
(-0.00277098 -0.00251806 0)
(-0.00202598 -0.00236428 0)
(-0.00131669 -0.00231403 0)
(-0.000564625 -0.00235975 0)
(0.000289788 -0.00248374 0)
(0.00124773 -0.00265024 0)
(0.00232465 -0.0028327 0)
(0.00349595 -0.00299899 0)
(0.00473723 -0.00312568 0)
(0.00602188 -0.00319986 0)
(0.00732287 -0.00321681 0)
(0.00861477 -0.00317738 0)
(0.00987515 -0.00308603 0)
(0.0110853 -0.00294923 0)
(0.0122305 -0.00277414 0)
(0.0132993 -0.00256767 0)
(0.0142837 -0.00233584 0)
(0.015178 -0.00208347 0)
(0.0159781 -0.00181411 0)
(0.0166809 -0.00153029 0)
(0.0172832 -0.00123392 0)
(0.017781 -0.000927039 0)
(0.0181689 -0.000612659 0)
(0.0184406 -0.000294763 0)
(0.0185883 2.19229e-05 0)
(0.0186056 0.000330388 0)
(0.0184929 0.00062543 0)
(0.0182544 0.00090128 0)
(0.0178976 0.00115086 0)
(0.0174332 0.00136492 0)
(0.0168733 0.00153103 0)
(0.0162273 0.00163468 0)
(0.0154967 0.00167063 0)
(0.0146681 0.00168237 0)
(0.0137117 0.0018484 0)
(0.0125814 0.00257917 0)
(0.0111762 0.00439766 0)
(0.00923127 0.00720313 0)
(0.00649731 0.00914109 0)
(0.00360505 0.00779607 0)
(0.00102665 0.00469166 0)
(-0.000763289 0.00305112 0)
(-0.0019662 0.0024475 0)
(-0.00301511 0.00209407 0)
(-0.00393918 0.00183262 0)
(-0.00474904 0.00160324 0)
(-0.00544796 0.00138023 0)
(-0.00603644 0.00115339 0)
(-0.00651427 0.000919531 0)
(-0.00688131 0.000678114 0)
(-0.00713715 0.000429099 0)
(-0.00728055 0.000172561 0)
(-0.00730891 -9.07113e-05 0)
(-0.00722558 -0.000362791 0)
(-0.00702937 -0.000639953 0)
(-0.00671984 -0.000917573 0)
(-0.00629829 -0.00119032 0)
(-0.00576848 -0.00145182 0)
(-0.00513734 -0.00169505 0)
(-0.00441528 -0.001913 0)
(-0.00361545 -0.00209952 0)
(-0.00275262 -0.00224891 0)
(-0.00184426 -0.00236029 0)
(-0.000902698 -0.00243044 0)
(5.63141e-05 -0.00244867 0)
(0.000973771 -0.00241695 0)
(0.00188323 -0.00235325 0)
(0.00276691 -0.0022692 0)
(0.0036139 -0.00216841 0)
(0.00441697 -0.00205404 0)
(0.0051713 -0.00192943 0)
(0.00587413 -0.00179799 0)
(0.00652491 -0.00166355 0)
(0.00712574 -0.00153172 0)
(0.00768112 -0.00141251 0)
(0.00819585 -0.00132388 0)
(0.00866997 -0.00129297 0)
(0.00909272 -0.00134871 0)
(0.0094413 -0.00149494 0)
(0.00969114 -0.00164136 0)
(0.0098466 -0.00145726 0)
(0.0100022 -0.000276324 0)
(0.0101165 0.00224893 0)
(0.00974226 0.00526876 0)
(0.00858523 0.0070198 0)
(0.00687428 0.00631241 0)
(0.00458463 0.00360273 0)
(0.00193749 0.000693901 0)
(0.000283674 -0.00041 0)
(-0.000718252 -0.000241144 0)
(-0.00151491 0.000620808 0)
(0.000148146 0.0037484 0)
(-0.000419744 0.00804592 0)
(0.000995522 0.00674371 0)
(-0.000946613 0.00740918 0)
(-0.00292525 0.00273236 0)
(-0.0040364 -0.00134922 0)
(-0.00374183 -0.00351307 0)
(-0.00332858 -0.00383431 0)
(-0.00265593 -0.00350807 0)
(-0.00209379 -0.00316034 0)
(-0.00159101 -0.00295535 0)
(-0.00107141 -0.00293092 0)
(-0.000432953 -0.0030806 0)
(0.000369347 -0.00334454 0)
(0.0013259 -0.0036508 0)
(0.00242475 -0.00395229 0)
(0.00362864 -0.00420795 0)
(0.00490134 -0.00439217 0)
(0.00620845 -0.00449277 0)
(0.00751882 -0.00450759 0)
(0.00880553 -0.00444132 0)
(0.0100463 -0.00430282 0)
(0.0112239 -0.00410303 0)
(0.0123254 -0.00385334 0)
(0.0133424 -0.00356435 0)
(0.0142701 -0.00324511 0)
(0.0151066 -0.00290261 0)
(0.015852 -0.00254167 0)
(0.0165074 -0.00216505 0)
(0.0170738 -0.00177397 0)
(0.0175511 -0.00136881 0)
(0.017937 -0.000950078 0)
(0.0182264 -0.000519404 0)
(0.0184118 -8.09672e-05 0)
(0.0184792 0.000355586 0)
(0.0184203 0.000780463 0)
(0.0182312 0.00118308 0)
(0.0179119 0.00155262 0)
(0.0174671 0.00187743 0)
(0.0169035 0.0021459 0)
(0.0162265 0.00234929 0)
(0.0154355 0.00249355 0)
(0.0145214 0.00263469 0)
(0.0134716 0.00296157 0)
(0.0122801 0.00391299 0)
(0.0109243 0.00608272 0)
(0.00925728 0.00934181 0)
(0.00714589 0.0115771 0)
(0.00495686 0.0103734 0)
(0.00277915 0.00705206 0)
(0.000833743 0.00462027 0)
(-0.000567626 0.0036025 0)
(-0.00165879 0.00311469 0)
(-0.00264274 0.00273645 0)
(-0.0035084 0.00239139 0)
(-0.00425381 0.00205302 0)
(-0.00487949 0.00171132 0)
(-0.00538699 0.00136328 0)
(-0.00577872 0.00100812 0)
(-0.00605614 0.00064569 0)
(-0.006219 0.000274981 0)
(-0.00626467 -0.000103464 0)
(-0.00619802 -0.00049005 0)
(-0.00601732 -0.000881665 0)
(-0.00572145 -0.00127329 0)
(-0.00531144 -0.00165782 0)
(-0.00479128 -0.00202583 0)
(-0.00416876 -0.00236699 0)
(-0.00345576 -0.00267072 0)
(-0.00266678 -0.00292749 0)
(-0.0018194 -0.00313042 0)
(-0.000928656 -0.00327683 0)
(-1.08221e-05 -0.00335476 0)
(0.000875878 -0.00336119 0)
(0.00175847 -0.00331429 0)
(0.00262331 -0.00322842 0)
(0.00345854 -0.0031115 0)
(0.00425528 -0.00296982 0)
(0.00500713 -0.00280913 0)
(0.00570986 -0.0026348 0)
(0.00636109 -0.00245207 0)
(0.00695995 -0.00226644 0)
(0.00750666 -0.00208474 0)
(0.00800151 -0.00191658 0)
(0.00844283 -0.00177612 0)
(0.00882359 -0.00168229 0)
(0.009128 -0.00165426 0)
(0.00933143 -0.00169314 0)
(0.00940955 -0.0017264 0)
(0.00936978 -0.0014746 0)
(0.00932663 -0.000305119 0)
(0.00941022 0.00233736 0)
(0.00937521 0.0057553 0)
(0.00884755 0.00808466 0)
(0.0077031 0.00805747 0)
(0.00581141 0.0060651 0)
(0.00310038 0.00341597 0)
(-0.000110481 0.00123066 0)
(-0.00168794 0.000369665 0)
(-0.00211835 0.000178625 0)
(-0.00122083 0.00129703 0)
(-0.000218032 0.00757225 0)
(0.00182734 0.00602686 0)
(0.00134783 0.00892553 0)
(-0.000247771 0.00541158 0)
(-0.00145162 -0.000408791 0)
(-0.00191253 -0.00375168 0)
(-0.00198407 -0.00429523 0)
(-0.00173321 -0.00390735 0)
(-0.00150763 -0.00350387 0)
(-0.00126171 -0.00332305 0)
(-0.000891694 -0.00341643 0)
(-0.000287696 -0.00375722 0)
(0.000549451 -0.00422264 0)
(0.00157392 -0.00470181 0)
(0.00274505 -0.00513305 0)
(0.00401295 -0.00547431 0)
(0.00533439 -0.00570387 0)
(0.00667188 -0.00581458 0)
(0.0079933 -0.0058096 0)
(0.00927191 -0.00569898 0)
(0.0104863 -0.00549694 0)
(0.0116206 -0.00521959 0)
(0.0126639 -0.00488311 0)
(0.01361 -0.00450235 0)
(0.0144569 -0.00408988 0)
(0.0152059 -0.00365536 0)
(0.0158609 -0.00320534 0)
(0.0164273 -0.00274323 0)
(0.0169111 -0.00226967 0)
(0.0173174 -0.00178326 0)
(0.0176493 -0.00128157 0)
(0.0179063 -0.000762499 0)
(0.0180846 -0.000225954 0)
(0.018172 0.000323006 0)
(0.018152 0.000872687 0)
(0.0180111 0.00140748 0)
(0.0177393 0.00191118 0)
(0.017332 0.00236785 0)
(0.0167888 0.00276421 0)
(0.0161118 0.00309353 0)
(0.0153022 0.00336662 0)
(0.0143587 0.00364323 0)
(0.0132816 0.00411036 0)
(0.0120826 0.00520869 0)
(0.0107782 0.0075616 0)
(0.00931497 0.0110307 0)
(0.0076498 0.0134096 0)
(0.00593815 0.0123914 0)
(0.00408617 0.0091255 0)
(0.00224036 0.00632574 0)
(0.000738172 0.00488564 0)
(-0.000459123 0.00416756 0)
(-0.00144394 0.00367151 0)
(-0.00231774 0.00320608 0)
(-0.00307053 0.00274585 0)
(-0.00370305 0.00228356 0)
(-0.0042178 0.00181762 0)
(-0.00461808 0.001347 0)
(-0.00490594 0.000871086 0)
(-0.00508065 0.000387513 0)
(-0.00513918 -0.000106196 0)
(-0.00508542 -0.000607491 0)
(-0.00491719 -0.0011141 0)
(-0.00463242 -0.00162076 0)
(-0.0042314 -0.00211843 0)
(-0.00371862 -0.00259371 0)
(-0.00310297 -0.00303213 0)
(-0.00239852 -0.0034195 0)
(-0.00162019 -0.00374326 0)
(-0.000789069 -0.00399312 0)
(7.91512e-05 -0.00415742 0)
(0.000928301 -0.00422994 0)
(0.00177939 -0.00422837 0)
(0.00261853 -0.00416602 0)
(0.00343373 -0.0040535 0)
(0.00421478 -0.00390036 0)
(0.00495373 -0.00371536 0)
(0.00564487 -0.00350647 0)
(0.00628445 -0.00328092 0)
(0.00687032 -0.00304538 0)
(0.00740146 -0.00280633 0)
(0.00787721 -0.00257068 0)
(0.00829617 -0.00234665 0)
(0.00865449 -0.00214455 0)
(0.00894356 -0.00197671 0)
(0.00914789 -0.00185445 0)
(0.00924551 -0.00177603 0)
(0.00921546 -0.00168559 0)
(0.00906407 -0.00136214 0)
(0.00889246 -0.000254113 0)
(0.00889176 0.00228786 0)
(0.0089878 0.00584048 0)
(0.00882157 0.00864533 0)
(0.00809226 0.00935982 0)
(0.00661951 0.00814729 0)
(0.0044111 0.00601422 0)
(0.00168739 0.0037516 0)
(-0.000583868 0.00173981 0)
(-0.00127739 0.000457705 0)
(-0.000669921 -0.000781199 0)
(-4.88473e-05 0.0068119 0)
(0.0015476 0.00451602 0)
(0.00231468 0.00933697 0)
(0.00131201 0.00679346 0)
(0.000921302 0.00121924 0)
(8.03506e-05 -0.00309851 0)
(-0.0006085 -0.00416049 0)
(-0.000885466 -0.00387557 0)
(-0.00102746 -0.00354156 0)
(-0.000991247 -0.00351502 0)
(-0.000665116 -0.00386329 0)
(2.16951e-05 -0.00449648 0)
(0.000966839 -0.00519815 0)
(0.00209681 -0.005851 0)
(0.00335267 -0.00639647 0)
(0.00468359 -0.00680259 0)
(0.00604748 -0.00705586 0)
(0.00740802 -0.00715552 0)
(0.00873395 -0.00711035 0)
(0.00999911 -0.00693593 0)
(0.0111828 -0.00665201 0)
(0.0122701 -0.00628012 0)
(0.013251 -0.00584152 0)
(0.014121 -0.00535565 0)
(0.0148795 -0.00483902 0)
(0.01553 -0.00430455 0)
(0.0160789 -0.00376111 0)
(0.0165348 -0.0032135 0)
(0.0169076 -0.00266254 0)
(0.0172074 -0.00210568 0)
(0.0174428 -0.0015378 0)
(0.0176196 -0.000952736 0)
(0.0177399 -0.00034496 0)
(0.0177981 0.000288262 0)
(0.0177781 0.000940096 0)
(0.0176606 0.00159403 0)
(0.0174266 0.00222925 0)
(0.0170611 0.0028244 0)
(0.0165555 0.00336144 0)
(0.0159067 0.00383091 0)
(0.0151156 0.00424282 0)
(0.0141857 0.00465563 0)
(0.0131247 0.00525066 0)
(0.0119515 0.00645884 0)
(0.0107025 0.00890103 0)
(0.009395 0.012425 0)
(0.00804727 0.0148428 0)
(0.00667153 0.0140215 0)
(0.00508054 0.0109366 0)
(0.00337999 0.00797402 0)
(0.00190715 0.00622744 0)
(0.000704109 0.00528191 0)
(-0.000328471 0.00459645 0)
(-0.001175 0.00401294 0)
(-0.00190604 0.00343384 0)
(-0.00252102 0.00285333 0)
(-0.00302308 0.00227323 0)
(-0.0034153 0.00169082 0)
(-0.0037001 0.00110388 0)
(-0.00387769 0.00050885 0)
(-0.00394303 -9.83475e-05 0)
(-0.00389467 -0.000714061 0)
(-0.00373305 -0.0013362 0)
(-0.0034548 -0.00195899 0)
(-0.00305878 -0.00257134 0)
(-0.00255021 -0.00315487 0)
(-0.00194009 -0.00368987 0)
(-0.00124333 -0.00415918 0)
(-0.000473529 -0.0045438 0)
(0.000325218 -0.00482132 0)
(0.00113169 -0.00498973 0)
(0.00194769 -0.00506354 0)
(0.00275843 -0.00505302 0)
(0.00355072 -0.00496944 0)
(0.00431321 -0.00482482 0)
(0.00503656 -0.00463091 0)
(0.00571353 -0.00439871 0)
(0.00633888 -0.00413819 0)
(0.00690922 -0.00385826 0)
(0.00742253 -0.00356685 0)
(0.00787775 -0.00327107 0)
(0.00827402 -0.00297754 0)
(0.00860962 -0.00269283 0)
(0.00888072 -0.00242375 0)
(0.0090798 -0.00217733 0)
(0.00919416 -0.00195895 0)
(0.00920613 -0.00176472 0)
(0.00909877 -0.00155244 0)
(0.00887605 -0.00115291 0)
(0.00861985 -0.000105493 0)
(0.00853102 0.00225231 0)
(0.00865898 0.00576987 0)
(0.00870534 0.00891164 0)
(0.00829542 0.0102893 0)
(0.0072115 0.00980745 0)
(0.00547874 0.0081807 0)
(0.00333238 0.00610354 0)
(0.00124464 0.00367531 0)
(-0.000344379 0.00067757 0)
(-0.00010212 -0.00147687 0)
(4.54456e-05 0.00626486 0)
(0.000534157 0.00313388 0)
(0.00208052 0.00901268 0)
(0.0018111 0.0071733 0)
(0.0019006 0.00152471 0)
(0.00138816 -0.0023021 0)
(0.000472825 -0.0034992 0)
(-0.000272824 -0.0034598 0)
(-0.000702129 -0.00334842 0)
(-0.000733439 -0.00365308 0)
(-0.000285009 -0.00441321 0)
(0.000564385 -0.00537908 0)
(0.00163297 -0.00629878 0)
(0.00285383 -0.00709456 0)
(0.00417202 -0.00772658 0)
(0.00554495 -0.00817526 0)
(0.00693483 -0.00843354 0)
(0.00830685 -0.00850518 0)
(0.00962991 -0.00840356 0)
(0.0108778 -0.00814946 0)
(0.0120298 -0.00776825 0)
(0.0130714 -0.00728706 0)
(0.0139935 -0.00673244 0)
(0.0147921 -0.00612858 0)
(0.0154678 -0.00549619 0)
(0.0160248 -0.0048517 0)
(0.0164708 -0.00420689 0)
(0.016816 -0.00356861 0)
(0.0170727 -0.00293884 0)
(0.0172542 -0.00231489 0)
(0.0173736 -0.00169009 0)
(0.0174424 -0.001055 0)
(0.0174688 -0.000399032 0)
(0.0174549 0.000289551 0)
(0.0173914 0.00101375 0)
(0.0172605 0.00176198 0)
(0.0170388 0.00251267 0)
(0.0167036 0.00323971 0)
(0.0162374 0.00391841 0)
(0.0156305 0.00453281 0)
(0.0148807 0.00508751 0)
(0.013992 0.00563614 0)
(0.0129747 0.00635297 0)
(0.0118494 0.0076545 0)
(0.0106622 0.0101372 0)
(0.0094793 0.0136257 0)
(0.00835725 0.0160208 0)
(0.00721964 0.0153825 0)
(0.00584379 0.0125251 0)
(0.00430364 0.0095217 0)
(0.00290072 0.00753003 0)
(0.00174735 0.00638127 0)
(0.000773042 0.00555033 0)
(-8.69776e-05 0.004786 0)
(-0.000781986 0.00408625 0)
(-0.00135926 0.00339743 0)
(-0.00182904 0.00271082 0)
(-0.00219654 0.00202284 0)
(-0.00246418 0.00132941 0)
(-0.00263056 0.000626996 0)
(-0.00268974 -8.86704e-05 0)
(-0.00263894 -0.000816005 0)
(-0.00247562 -0.00155286 0)
(-0.00219708 -0.00229166 0)
(-0.00180149 -0.00301874 0)
(-0.00129318 -0.00371197 0)
(-0.000687319 -0.00434363 0)
(1.58649e-06 -0.00488725 0)
(0.000724223 -0.00530426 0)
(0.00148018 -0.00560344 0)
(0.00225462 -0.00578556 0)
(0.00303254 -0.00585825 0)
(0.00379893 -0.00583255 0)
(0.00454086 -0.00572165 0)
(0.00524757 -0.00553962 0)
(0.00591037 -0.00530032 0)
(0.00652262 -0.00501679 0)
(0.00707955 -0.00470086 0)
(0.00757798 -0.00436298 0)
(0.00801605 -0.00401215 0)
(0.00839272 -0.00365605 0)
(0.00870718 -0.00330108 0)
(0.00895807 -0.00295252 0)
(0.0091424 -0.00261456 0)
(0.00925463 -0.00229024 0)
(0.00928572 -0.00198064 0)
(0.00922302 -0.00168015 0)
(0.00905393 -0.00135667 0)
(0.00878019 -0.000883003 0)
(0.00846543 0.000114836 0)
(0.00829525 0.00226275 0)
(0.00839919 0.00563524 0)
(0.00855997 0.00897635 0)
(0.00838604 0.0108924 0)
(0.00762984 0.0110479 0)
(0.00629622 0.00989649 0)
(0.00457805 0.00800107 0)
(0.00286199 0.00560103 0)
(0.00119561 0.00240055 0)
(0.000384633 -0.00123407 0)
(-6.68895e-05 0.00611329 0)
(-0.000445396 0.00266527 0)
(0.00103134 0.00784774 0)
(0.00176135 0.00694824 0)
(0.00209933 0.00147135 0)
(0.0017571 -0.00163208 0)
(0.000868099 -0.00268737 0)
(-2.02821e-05 -0.00282931 0)
(-0.000534449 -0.00309126 0)
(-0.000408103 -0.00392127 0)
(0.000296265 -0.0051727 0)
(0.00128918 -0.0064055 0)
(0.00244654 -0.00749348 0)
(0.00371988 -0.00839678 0)
(0.00507183 -0.00909419 0)
(0.00646731 -0.00957142 0)
(0.00787042 -0.009823 0)
(0.00924569 -0.00985489 0)
(0.0105608 -0.00968448 0)
(0.0117887 -0.009338 0)
(0.0129089 -0.0088469 0)
(0.0139073 -0.00824428 0)
(0.0147758 -0.00756212 0)
(0.0155111 -0.00682939 0)
(0.0161145 -0.00607088 0)
(0.0165906 -0.00530658 0)
(0.0169473 -0.00455129 0)
(0.0171952 -0.0038144 0)
(0.0173472 -0.00309975 0)
(0.0174181 -0.00240559 0)
(0.0174238 -0.00172495 0)
(0.0173794 -0.00104639 0)
(0.0172988 -0.000355299 0)
(0.0171892 0.000367968 0)
(0.0170507 0.00113666 0)
(0.0168726 0.00194907 0)
(0.0166335 0.00278852 0)
(0.0163074 0.00362769 0)
(0.0158704 0.00443596 0)
(0.0153057 0.00518909 0)
(0.0146057 0.00588325 0)
(0.0137717 0.00656461 0)
(0.012813 0.00739918 0)
(0.0117489 0.0087861 0)
(0.0106287 0.0112834 0)
(0.00954951 0.0146858 0)
(0.00858808 0.0170218 0)
(0.00762268 0.0165441 0)
(0.00642573 0.0139186 0)
(0.00504631 0.010944 0)
(0.00374001 0.00876624 0)
(0.00264958 0.00740922 0)
(0.0017483 0.00643757 0)
(0.000972703 0.0055726 0)
(0.000311535 0.00472599 0)
(-0.000235158 0.00389668 0)
(-0.000660549 0.00310847 0)
(-0.00098856 0.00232462 0)
(-0.00122345 0.00153564 0)
(-0.00136256 0.000736813 0)
(-0.00140067 -8.30919e-05 0)
(-0.00133547 -0.000918304 0)
(-0.00116049 -0.0017694 0)
(-0.000872016 -0.00262745 0)
(-0.000471169 -0.00347464 0)
(3.70243e-05 -0.00427589 0)
(0.00062078 -0.00497794 0)
(0.00126839 -0.00556761 0)
(0.00196383 -0.00602874 0)
(0.0026903 -0.00635397 0)
(0.00342954 -0.00654463 0)
(0.00416528 -0.00660986 0)
(0.00488306 -0.00656289 0)
(0.00557064 -0.00641915 0)
(0.00621802 -0.00619486 0)
(0.00681729 -0.00590598 0)
(0.00736246 -0.00556744 0)
(0.00784925 -0.00519276 0)
(0.00827482 -0.00479376 0)
(0.00863745 -0.00438047 0)
(0.00893617 -0.00396106 0)
(0.00917034 -0.00354189 0)
(0.00933909 -0.00312747 0)
(0.00944064 -0.00272034 0)
(0.00947147 -0.00232089 0)
(0.00942588 -0.00192707 0)
(0.00929574 -0.00153178 0)
(0.00907251 -0.00110974 0)
(0.00875664 -0.00056507 0)
(0.00839575 0.000395891 0)
(0.00814993 0.00233353 0)
(0.0081937 0.00548993 0)
(0.00839505 0.0089095 0)
(0.0083796 0.0112414 0)
(0.00787448 0.0119439 0)
(0.00684591 0.0112394 0)
(0.00543374 0.00956425 0)
(0.00390639 0.0071868 0)
(0.00238139 0.00404555 0)
(0.00105042 -2.21694e-05 0)
(-0.000360256 0.0063797 0)
(-0.000967217 0.00279421 0)
(-0.000155552 0.00613849 0)
(0.00137819 0.00624934 0)
(0.00177117 0.00128272 0)
(0.00148688 -0.000994992 0)
(0.000713748 -0.00185073 0)
(-9.96141e-05 -0.00220587 0)
(-0.000418497 -0.00299935 0)
(8.23898e-05 -0.00450236 0)
(0.000998047 -0.00610761 0)
(0.00207703 -0.00752654 0)
(0.00327645 -0.00873585 0)
(0.00457296 -0.00972612 0)
(0.00594159 -0.0104799 0)
(0.00734964 -0.0109794 0)
(0.00875929 -0.0112169 0)
(0.0101323 -0.0111997 0)
(0.0114344 -0.0109498 0)
(0.0126381 -0.0104999 0)
(0.0137235 -0.00988841 0)
(0.0146782 -0.00915491 0)
(0.0154957 -0.00833685 0)
(0.0161741 -0.00746771 0)
(0.0167155 -0.00657595 0)
(0.0171246 -0.00568471 0)
(0.017409 -0.0048116 0)
(0.0175785 -0.00396862 0)
(0.0176455 -0.00316189 0)
(0.0176248 -0.00239149 0)
(0.0175328 -0.00165132 0)
(0.0173871 -0.000929489 0)
(0.0172047 -0.000208453 0)
(0.0169959 0.000538458 0)
(0.0167693 0.00133206 0)
(0.0165234 0.00218197 0)
(0.0162432 0.00308119 0)
(0.0159048 0.00400608 0)
(0.0154815 0.00492315 0)
(0.0149508 0.00580038 0)
(0.0142993 0.00662433 0)
(0.0135234 0.0074321 0)
(0.0126285 0.00838033 0)
(0.0116308 0.00984837 0)
(0.0105795 0.0123466 0)
(0.00958864 0.0156373 0)
(0.00874378 0.0178929 0)
(0.00790691 0.0175479 0)
(0.00686189 0.0151407 0)
(0.00563616 0.0122317 0)
(0.00443984 0.00991863 0)
(0.00342474 0.00836463 0)
(0.00259588 0.00723579 0)
(0.00190623 0.00625316 0)
(0.00132912 0.00530489 0)
(0.000856742 0.00438409 0)
(0.000482679 0.00348797 0)
(0.000204505 0.00260369 0)
(1.27228e-05 0.00171655 0)
(-9.03192e-05 0.000816959 0)
(-9.56416e-05 -0.000107711 0)
(-3.89439e-06 -0.00105336 0)
(0.000188941 -0.00201448 0)
(0.000487038 -0.00297991 0)
(0.000885684 -0.00392143 0)
(0.00137501 -0.00479964 0)
(0.0019427 -0.00557897 0)
(0.00257214 -0.00622816 0)
(0.0032438 -0.00672742 0)
(0.00393866 -0.00707105 0)
(0.00463861 -0.00726283 0)
(0.00532765 -0.00731382 0)
(0.00599212 -0.00723955 0)
(0.0066208 -0.00705779 0)
(0.00720476 -0.00678698 0)
(0.00773709 -0.00644506 0)
(0.00821265 -0.0060487 0)
(0.0086278 -0.0056129 0)
(0.00898013 -0.00515067 0)
(0.00926821 -0.00467293 0)
(0.00949123 -0.00418841 0)
(0.00964869 -0.00370355 0)
(0.00974012 -0.00322248 0)
(0.00976471 -0.00274686 0)
(0.0097208 -0.00227564 0)
(0.00960548 -0.00180485 0)
(0.00941429 -0.0013262 0)
(0.0091416 -0.000818007 0)
(0.00878781 -0.000204197 0)
(0.00838574 0.000732233 0)
(0.00806841 0.00247653 0)
(0.00802749 0.00537923 0)
(0.00821089 0.00877915 0)
(0.00828329 0.0114187 0)
(0.00795271 0.0125941 0)
(0.00714018 0.0123225 0)
(0.00592924 0.0109218 0)
(0.00450192 0.0086685 0)
(0.00293387 0.00565538 0)
(0.00150572 0.00179892 0)
(-0.000569891 0.00698954 0)
(-0.00111132 0.00318809 0)
(-0.000874434 0.00477496 0)
(0.000696132 0.00515628 0)
(0.00116909 0.00110247 0)
(0.000877803 -0.000430921 0)
(0.000283518 -0.00114075 0)
(-0.000309892 -0.00179585 0)
(-0.000180845 -0.00329629 0)
(0.000697158 -0.00536562 0)
(0.00170535 -0.00715228 0)
(0.00281609 -0.00868706 0)
(0.00402733 -0.00999496 0)
(0.00533375 -0.0110676 0)
(0.00671322 -0.0118765 0)
(0.00812975 -0.0123947 0)
(0.0095407 -0.0126107 0)
(0.0109042 -0.0125342 0)
(0.0121846 -0.0121936 0)
(0.0133549 -0.0116296 0)
(0.0143977 -0.010889 0)
(0.0153033 -0.0100179 0)
(0.0160681 -0.00905933 0)
(0.0166926 -0.00805045 0)
(0.0171798 -0.00702266 0)
(0.0175346 -0.0060014 0)
(0.0177637 -0.00500653 0)
(0.0178755 -0.00405234 0)
(0.0178806 -0.00314741 0)
(0.0177923 -0.00229416 0)
(0.0176263 -0.00148842 0)
(0.017401 -0.000719195 0)
(0.0171333 3.53463e-05 0)
(0.0168365 0.00080186 0)
(0.0165254 0.00160878 0)
(0.0162068 0.00247638 0)
(0.0158736 0.00340947 0)
(0.0155077 0.00439245 0)
(0.0150836 0.00539318 0)
(0.0145761 0.0063744 0)
(0.0139664 0.00731358 0)
(0.0132454 0.00823823 0)
(0.0124133 0.00929478 0)
(0.0114816 0.0108408 0)
(0.0104978 0.0133338 0)
(0.0095835 0.0165023 0)
(0.00882629 0.0186651 0)
(0.00808992 0.0184233 0)
(0.00717684 0.0162107 0)
(0.00609606 0.0133848 0)
(0.00501623 0.0109767 0)
(0.0040847 0.00924379 0)
(0.00333233 0.00795256 0)
(0.00272761 0.00684233 0)
(0.00224014 0.00578928 0)
(0.00185196 0.00476967 0)
(0.00155527 0.00377875 0)
(0.00134625 0.00280707 0)
(0.00121505 0.00183978 0)
(0.00116126 0.000859532 0)
(0.0011919 -0.000151765 0)
(0.00130739 -0.00119268 0)
(0.00151867 -0.00225365 0)
(0.00182812 -0.00331966 0)
(0.00223256 -0.00435795 0)
(0.00272268 -0.00532339 0)
(0.00328415 -0.00617148 0)
(0.00389864 -0.0068693 0)
(0.00454606 -0.00739758 0)
(0.00520697 -0.00775117 0)
(0.00586377 -0.00793594 0)
(0.00650141 -0.0079654 0)
(0.00710754 -0.00785768 0)
(0.00767236 -0.00763299 0)
(0.00818836 -0.00731193 0)
(0.00864995 -0.00691431 0)
(0.00905308 -0.00645835 0)
(0.00939496 -0.00596028 0)
(0.00967378 -0.00543409 0)
(0.00988847 -0.00489139 0)
(0.0100385 -0.00434141 0)
(0.0101235 -0.00379084 0)
(0.0101435 -0.0032437 0)
(0.0100981 -0.00270128 0)
(0.00998695 -0.00216189 0)
(0.00980923 -0.00162059 0)
(0.00956296 -0.00106821 0)
(0.00924441 -0.000483766 0)
(0.00885397 0.000192968 0)
(0.0084141 0.00111957 0)
(0.00803053 0.00269969 0)
(0.00789087 0.00533903 0)
(0.0080115 0.00864484 0)
(0.00811132 0.0114991 0)
(0.00788864 0.0130845 0)
(0.00722169 0.01324 0)
(0.00614224 0.0121717 0)
(0.00477101 0.010147 0)
(0.00313742 0.0073664 0)
(0.00164438 0.00395439 0)
(-0.000643449 0.00776104 0)
(-0.00108432 0.00366034 0)
(-0.00117169 0.0040367 0)
(2.34618e-05 0.0040011 0)
(0.000482173 0.00106223 0)
(0.000211409 4.35822e-06 0)
(-0.000191228 -0.000681808 0)
(-0.000418759 -0.0017393 0)
(0.000265919 -0.00407483 0)
(0.00129946 -0.00635575 0)
(0.00232856 -0.00822871 0)
(0.00343651 -0.00985281 0)
(0.00464816 -0.0112586 0)
(0.00596194 -0.0124177 0)
(0.00735048 -0.013282 0)
(0.00877051 -0.013813 0)
(0.0101736 -0.0139968 0)
(0.0115146 -0.013848 0)
(0.012758 -0.013404 0)
(0.0138794 -0.0127158 0)
(0.0148655 -0.0118391 0)
(0.0157113 -0.0108274 0)
(0.0164176 -0.00972819 0)
(0.0169878 -0.00858151 0)
(0.0174265 -0.00742029 0)
(0.0177386 -0.00627109 0)
(0.0179293 -0.00515498 0)
(0.0180048 -0.00408803 0)
(0.0179727 -0.00308115 0)
(0.0178437 -0.0021395 0)
(0.0176312 -0.0012616 0)
(0.0173531 -0.000438118 0)
(0.0170231 0.000355419 0)
(0.0166588 0.00114378 0)
(0.016279 0.00196024 0)
(0.0158955 0.00283402 0)
(0.0155094 0.00378165 0)
(0.0151099 0.00479839 0)
(0.0146758 0.00585762 0)
(0.014182 0.00692048 0)
(0.0136062 0.00795746 0)
(0.0129341 0.00898716 0)
(0.0121603 0.0101455 0)
(0.011291 0.0117667 0)
(0.0103714 0.014252 0)
(0.00952417 0.0172969 0)
(0.0088362 0.0193589 0)
(0.00818307 0.0191904 0)
(0.0073879 0.0171438 0)
(0.00644425 0.0144058 0)
(0.00548469 0.0119332 0)
(0.00464464 0.0100423 0)
(0.00397281 0.00858861 0)
(0.00345276 0.00734555 0)
(0.00305424 0.00618535 0)
(0.00275439 0.00507166 0)
(0.00254139 0.0039962 0)
(0.00240617 0.002948 0)
(0.00233915 0.00190961 0)
(0.00234173 0.000856746 0)
(0.00241568 -0.000237047 0)
(0.00256822 -0.00136705 0)
(0.00281044 -0.00252169 0)
(0.00314462 -0.00368165 0)
(0.00356709 -0.00480793 0)
(0.00406713 -0.00584898 0)
(0.00462819 -0.00675556 0)
(0.00523041 -0.00749167 0)
(0.00585328 -0.00803808 0)
(0.00647774 -0.00839123 0)
(0.00708735 -0.00855959 0)
(0.00766865 -0.00855958 0)
(0.00821113 -0.0084121 0)
(0.0087069 -0.00813982 0)
(0.00915023 -0.0077654 0)
(0.00953711 -0.00731029 0)
(0.00986484 -0.00679401 0)
(0.0101317 -0.00623379 0)
(0.0103366 -0.00564432 0)
(0.0104791 -0.00503773 0)
(0.0105588 -0.00442357 0)
(0.0105757 -0.00380875 0)
(0.0105299 -0.00319742 0)
(0.0104215 -0.00259086 0)
(0.0102509 -0.00198725 0)
(0.0100183 -0.00138131 0)
(0.00972274 -0.000762829 0)
(0.00936289 -0.000105922 0)
(0.00893596 0.000625433 0)
(0.00846138 0.00155424 0)
(0.00801876 0.00300444 0)
(0.00777697 0.0053926 0)
(0.00780452 0.00855293 0)
(0.00788386 0.0115421 0)
(0.00771599 0.0134799 0)
(0.00714338 0.014052 0)
(0.00615363 0.0133572 0)