/*--------------------------------*- C++ -*----------------------------------*\
| =========                 |                                                 |
| \\      /  F ield         | OpenFOAM: The Open Source CFD Toolbox           |
|  \\    /   O peration     | Version:  4.1                                   |
|   \\  /    A nd           | Web:      www.OpenFOAM.org                      |
|    \\/     M anipulation  |                                                 |
\*---------------------------------------------------------------------------*/
FoamFile
{
    version     2.0;
    format      ascii;
    class       volScalarField;
    location    "180";
    object      mag(U);
}
// * * * * * * * * * * * * * * * * * * * * * * * * * * * * * * * * * * * * * //

dimensions      [0 1 -1 0 0 0 0];

internalField   nonuniform List<scalar> 
5000
(
0.00343887
0.00425363
0.00570422
0.00698851
0.00821052
0.00937829
0.0104867
0.0115287
0.0124977
0.0133892
0.0142006
0.0149318
0.0155852
0.0161653
0.0166784
0.0171318
0.0175334
0.0178904
0.0182087
0.0184926
0.018744
0.0189623
0.0191446
0.0192846
0.0193735
0.0194028
0.0193589
0.0192271
0.0189931
0.0186416
0.0181568
0.0175221
0.0167202
0.0157325
0.014539
0.0131162
0.0114364
0.00947562
0.0072414
0.00483548
0.00249639
0.00297094
0.00550586
0.00815786
0.0104621
0.0123648
0.0139537
0.0153129
0.0164958
0.0175312
0.0184332
0.0192058
0.0198459
0.0203451
0.0206924
0.0208761
0.020887
0.0207204
0.0203747
0.0198491
0.0191462
0.0182726
0.0172385
0.0160554
0.0147316
0.0132655
0.0116326
0.00975958
0.00755828
0.00560872
0.00447155
0.00533798
0.00712655
0.0086977
0.010151
0.0114863
0.0126847
0.0137187
0.0145562
0.0151628
0.015502
0.0155358
0.0152275
0.0145418
0.0134515
0.0119418
0.0100212
0.00774781
0.00534217
0.00335701
0.00314301
0.00494103
0.00700552
0.00863114
0.00960934
0.00998632
0.00968911
0.00867866
0.00676124
0.00539452
0.00557047
0.00551096
0.00711285
0.00860007
0.00996561
0.0112256
0.0123943
0.0134767
0.0144735
0.0153839
0.016208
0.0169474
0.0176058
0.0181889
0.0187038
0.0191587
0.0195613
0.0199187
0.0202362
0.0205165
0.0207602
0.0209649
0.0211255
0.0212352
0.021285
0.0212624
0.0211561
0.0209543
0.0206437
0.0202106
0.0196413
0.0189218
0.018038
0.016976
0.0157226
0.0142666
0.0126026
0.0107445
0.00875966
0.00686884
0.00555225
0.00527328
0.00629869
0.00802147
0.00992188
0.0116536
0.0131804
0.0145356
0.0157464
0.0168288
0.0177909
0.0186349
0.0193588
0.0199573
0.0204235
0.0207499
0.0209265
0.0209288
0.0207504
0.0203862
0.0198327
0.0190913
0.0181678
0.0170701
0.0158055
0.0143762
0.0127783
0.0110223
0.00929186
0.00888221
0.006794
0.00509051
0.00658053
0.0083563
0.00997493
0.0114192
0.0126826
0.0137483
0.0145925
0.0151886
0.0155103
0.015529
0.0152306
0.0146079
0.0136498
0.012363
0.010783
0.00900856
0.00725662
0.00586594
0.00486299
0.00444378
0.00505947
0.00611535
0.00693511
0.00738588
0.00733094
0.00682168
0.0060478
0.00715679
0.00838231
0.00679195
0.00766964
0.00891547
0.0101766
0.0113685
0.0124816
0.0135167
0.0144752
0.0153585
0.0161688
0.0169095
0.0175852
0.0182018
0.0187652
0.0192814
0.0197552
0.0201898
0.0205864
0.0209439
0.0212592
0.0215267
0.021739
0.0218868
0.0219598
0.0219467
0.0218358
0.0216161
0.0212775
0.0208102
0.0202057
0.0194559
0.0185543
0.0174963
0.016281
0.0149149
0.0134191
0.0118464
0.0103143
0.00906299
0.00843995
0.00849808
0.0085883
0.00878778
0.0097831
0.0110406
0.0123148
0.0135295
0.014657
0.0156845
0.0166053
0.0174142
0.0181057
0.0186742
0.0191141
0.0194195
0.0195911
0.0196197
0.0194997
0.0192247
0.0187887
0.0181872
0.0174206
0.0164941
0.015419
0.0142159
0.0129285
0.0116789
0.0108294
0.0116089
0.0113432
0.00766463
0.00657114
0.00760786
0.00897954
0.0103167
0.0115318
0.0125824
0.0134374
0.0140701
0.0144583
0.014582
0.0144329
0.0140345
0.0133935
0.0125379
0.011517
0.0104145
0.00934556
0.00840033
0.00752892
0.00644877
0.00518124
0.00447553
0.00443884
0.00461306
0.004877
0.00535778
0.00651495
0.0096029
0.0112219
0.00846632
0.00840242
0.00915916
0.0101693
0.0112192
0.0122465
0.0132295
0.0141602
0.0150362
0.0158576
0.0166264
0.017346
0.01802
0.0186519
0.0192443
0.0197986
0.020314
0.0207881
0.0212164
0.0215923
0.021908
0.022154
0.0223203
0.0223957
0.0223701
0.0222346
0.0219819
0.0216062
0.0211033
0.0204709
0.0197084
0.0188181
0.0178062
0.0166853
0.01548
0.014235
0.0130288
0.0119913
0.0113085
0.0111605
0.0115206
0.0112906
0.0101039
0.0101034
0.010769
0.0117145
0.0127474
0.0137717
0.0147368
0.0156149
0.0163895
0.0170495
0.0175871
0.0179966
0.0182745
0.018421
0.0184376
0.0183241
0.0180811
0.0177068
0.0171988
0.0165578
0.0157909
0.0149165
0.0139733
0.0130404
0.0122944
0.0121249
0.0135895
0.0146821
0.0121177
0.00815193
0.00776904
0.00840408
0.0093352
0.0103149
0.0112249
0.0120007
0.0126034
0.0130109
0.0132139
0.0132058
0.0130577
0.0127868
0.0124246
0.0120008
0.0115355
0.0110218
0.0104051
0.00957692
0.0084061
0.00672664
0.00441989
0.00303471
0.00247405
0.00312678
0.00469692
0.00730811
0.011534
0.0138049
0.0102381
0.00939998
0.00963701
0.0103266
0.0111772
0.0120784
0.0129815
0.0138644
0.0147171
0.0155357
0.0163197
0.0170696
0.0177866
0.0184712
0.0191226
0.0197383
0.020314
0.0208438
0.0213198
0.0217332
0.0220739
0.0223314
0.0224958
0.0225563
0.0225046
0.0223365
0.0220485
0.0216403
0.0211137
0.0204734
0.0197269
0.0188856
0.0179668
0.0169967
0.0160152
0.0150823
0.0142839
0.0137301
0.0135318
0.0137476
0.0142842
0.0139675
0.0116752
0.0108239
0.0108894
0.0114476
0.0122389
0.0131127
0.0139813
0.0147938
0.0155198
0.0161408
0.0166454
0.0170267
0.0172812
0.0174105
0.0174177
0.0173079
0.0170891
0.0167665
0.0163435
0.0158244
0.0152189
0.0145495
0.0138624
0.0132471
0.0128828
0.0131269
0.0149174
0.0169443
0.0157947
0.0115256
0.00895049
0.00858864
0.00883278
0.0093128
0.0098568
0.0103707
0.0108052
0.0111397
0.0113737
0.0114919
0.0116142
0.0117528
0.011921
0.0121046
0.0122442
0.0122299
0.0119253
0.0112016
0.00997159
0.00817257
0.00575742
0.00342827
0.0016673
0.00194132
0.00435277
0.00786982
0.0128461
0.0161066
0.0119506
0.0105499
0.0103503
0.0107189
0.0113384
0.012074
0.0128583
0.0136575
0.0144544
0.0152409
0.0160128
0.0167678
0.0175034
0.0182166
0.0189026
0.0195552
0.0201666
0.0207275
0.0212276
0.0216558
0.0220009
0.0222518
0.0223991
0.0224334
0.0223488
0.0221462
0.0218267
0.0213956
0.0208613
0.0202357
0.0195346
0.0187787
0.0179959
0.0172235
0.0165117
0.0159257
0.0155426
0.0154379
0.0156553
0.0161648
0.0167754
0.0164498
0.0133664
0.0118831
0.0114248
0.0115728
0.0120611
0.012718
0.0134321
0.0141324
0.0147748
0.0153325
0.0157891
0.0161355
0.0163675
0.0164871
0.0164962
0.0164021
0.0162177
0.0159551
0.0156242
0.0152339
0.0147955
0.0143301
0.0138804
0.0135271
0.0134279
0.0138954
0.0157805
0.0183807
0.0185139
0.0151946
0.0112675
0.00949752
0.00896797
0.00876852
0.00872119
0.00874557
0.00881067
0.00891426
0.00907756
0.00930451
0.00969292
0.0102567
0.0109619
0.0117425
0.0124627
0.0129287
0.0129518
0.0123967
0.0112178
0.00939754
0.00700125
0.0045539
0.00270974
0.00103223
0.00404298
0.00818818
0.0137461
0.018171
0.0135626
0.0117578
0.0112237
0.0113083
0.0116927
0.012238
0.0128704
0.0135508
0.0142579
0.0149798
0.0157091
0.0164398
0.0171658
0.0178796
0.018573
0.0192358
0.019857
0.0204246
0.0209259
0.0213483
0.0216797
0.0219092
0.022028
0.0220281
0.0219075
0.0216721
0.0213279
0.0208863
0.0203625
0.0197758
0.01915
0.0185143
0.017905
0.0173667
0.0169535
0.0167259
0.0167433
0.0170453
0.0176236
0.0183784
0.01902
0.0186846
0.0151307
0.0131918
0.0123215
0.0120822
0.0122324
0.0126127
0.0131082
0.0136383
0.0141489
0.0146054
0.0149867
0.0152811
0.015483
0.0155939
0.0156141
0.0155501
0.0154171
0.0152308
0.0150057
0.0147536
0.0144855
0.0142168
0.0139791
0.0138356
0.0139153
0.0144856
0.0163152
0.0191976
0.0203637
0.0182359
0.0143706
0.0111921
0.00966861
0.00880829
0.00807554
0.00741127
0.00684893
0.00647394
0.00640632
0.00674801
0.00740041
0.00838153
0.00959317
0.0109327
0.0122061
0.0131449
0.0135187
0.0131824
0.0121293
0.0103965
0.00806908
0.00550047
0.00384099
0.000264092
0.0037431
0.00836185
0.0144065
0.0200394
0.0150701
0.0129686
0.0121842
0.0120319
0.0121958
0.0125434
0.0130041
0.0135394
0.0141276
0.0147553
0.0154124
0.0160896
0.0167769
0.0174631
0.018136
0.0187824
0.019388
0.0199386
0.0204194
0.0208166
0.0211177
0.0213119
0.0213916
0.0213506
0.0211919
0.0209264
0.0205657
0.0201277
0.0196344
0.0191123
0.0185921
0.0181093
0.0177052
0.0174266
0.0173242
0.017448
0.0178367
0.0185008
0.0193944
0.0203642
0.0210446
0.0206588
0.0169416
0.0146393
0.0134666
0.0128944
0.0127087
0.0127794
0.0130064
0.0133121
0.0136399
0.0139515
0.0142229
0.0144403
0.0145975
0.0146952
0.0147316
0.0147105
0.014646
0.0145543
0.0144501
0.0143453
0.0142471
0.0141627
0.0141096
0.0141314
0.0143292
0.0149278
0.0166094
0.0195467
0.0214825
0.0205183
0.0173012
0.0136553
0.0110239
0.00933681
0.00802603
0.00670966
0.00541338
0.00429346
0.00370433
0.00407849
0.00502768
0.00635825
0.00797777
0.00978396
0.0115578
0.0129498
0.0136893
0.0136074
0.0127283
0.0111367
0.00892912
0.00632959
0.00439497
0.00138564
0.0034262
0.00844959
0.0149192
0.0217432
0.0164771
0.0141504
0.0131772
0.0128312
0.0127978
0.012954
0.0132362
0.0136112
0.0140597
0.0145687
0.015127
0.015723
0.0163434
0.0169738
0.0175988
0.018202
0.0187668
0.0192767
0.0197156
0.0200684
0.0203224
0.0204677
0.0204978
0.0204089
0.020211
0.0199199
0.0195535
0.0191365
0.0186974
0.0182684
0.0178851
0.0175859
0.0174122
0.0174072
0.0176131
0.0180664
0.0187883
0.0197696
0.0209407
0.0221118
0.0228597
0.0223819
0.0187651
0.0161347
0.0147488
0.0139038
0.0134102
0.0131689
0.013102
0.0131446
0.013246
0.01337
0.0134937
0.0136042
0.0136959
0.0137699
0.013823
0.0138541
0.0138739
0.0138943
0.0139257
0.0139752
0.0140436
0.0141282
0.0142327
0.014383
0.014656
0.0152389
0.0167238
0.0195474
0.0220014
0.0220642
0.0197219
0.0162257
0.0129569
0.0104769
0.00852905
0.00665883
0.00480916
0.00303463
0.00160716
0.00174694
0.00317107
0.0046265
0.00642806
0.00850152
0.0106672
0.0124548
0.0135483
0.013734
0.0130526
0.0116272
0.00957881
0.00703843
0.00485468
0.00259041
0.00312089
0.00848004
0.0153304
0.0233062
0.0177897
0.0152849
0.0141651
0.0136597
0.0134538
0.0134326
0.0135403
0.0137499
0.0140465
0.014419
0.0148568
0.0153469
0.0158743
0.016422
0.0169721
0.0175057
0.0180043
0.0184495
0.018824
0.0191122
0.0193013
0.019383
0.0193526
0.0192094
0.0189731
0.0186644
0.0183085
0.0179361
0.0175809
0.0172783
0.0170644
0.0169762
0.01705
0.0173205
0.0178185
0.0185679
0.0195784
0.020832
0.0222488
0.0236183
0.0244688
0.0239067
0.0205234
0.0176194
0.0160842
0.015016
0.0142519
0.0137183
0.0133575
0.0131199
0.0129655
0.0128665
0.0128061
0.0127767
0.012777
0.0128111
0.0128763
0.0129653
0.0130823
0.01323
0.0134095
0.0136181
0.013847
0.0140838
0.0143206
0.0145692
0.0148873
0.0154302
0.0167012
0.0192951
0.0220405
0.0229503
0.0215279
0.0185328
0.0151081
0.0120352
0.00949553
0.00719646
0.0049659
0.00275942
0.000636022
0.00111147
0.00247187
0.00372083
0.00534445
0.00736494
0.00973627
0.0118076
0.0132021
0.0136365
0.0131497
0.0118903
0.0100157
0.00761758
0.00524284
0.00334546
0.00264475
0.00846592
0.015668
0.0247473
0.019014
0.0163614
0.0151223
0.0144833
0.0141273
0.0139457
0.0138893
0.0139367
0.0140771
0.0143026
0.0146037
0.0149679
0.0153793
0.0158195
0.0162688
0.0167069
0.0171134
0.0174688
0.0177551
0.0179564
0.0180611
0.018063
0.0179609
0.0177585
0.0174903
0.0171806
0.0168618
0.0165686
0.0163359
0.0161974
0.0161851
0.0163287
0.0166556
0.0171894
0.0179502
0.0189526
0.0202023
0.0216821
0.0233149
0.0248825
0.0258716
0.025302
0.0221185
0.0190578
0.017411
0.0161564
0.0151602
0.0143671
0.0137327
0.0132188
0.0127973
0.0124514
0.0121755
0.0119729
0.0118519
0.0118241
0.0118912
0.0120397
0.0122636
0.0125513
0.0128883
0.0132574
0.0136387
0.0140102
0.0143557
0.0146775
0.0150193
0.01551
0.0165704
0.0188665
0.0217105
0.0232742
0.0227189
0.0203944
0.0171691
0.0138336
0.0108154
0.00810514
0.00559916
0.00326745
0.00134546
0.00127086
0.00251175
0.0036621
0.0049166
0.00662186
0.00897375
0.0111739
0.0127709
0.0133997
0.0130779
0.0119605
0.0102402
0.00802504
0.00555776
0.00371064
0.00208807
0.00842682
0.015953
0.0260816
0.020156
0.017374
0.0160326
0.0152778
0.0147901
0.014465
0.0142579
0.0141516
0.0141384
0.0142129
0.0143677
0.0145913
0.0148679
0.0151787
0.0155033
0.0158201
0.0161081
0.016347
0.0165188
0.0166087
0.0166074
0.0165131
0.0163308
0.0160719
0.0157905
0.0155122
0.015274
0.0151091
0.0150467
0.0151118
0.0153263
0.0157095
0.0162783
0.0170473
0.0180289
0.0192336
0.0206691
0.0223274
0.0241444
0.0259069
0.0270668
0.0265616
0.0235388
0.0204239
0.0186814
0.017269
0.0160786
0.0150656
0.0141907
0.0134216
0.0127381
0.0121348
0.0116202
0.0112135
0.0109392
0.0108235
0.0108771
0.0110829
0.0114206
0.011858
0.0123581
0.0128857
0.0134084
0.0138966
0.0143291
0.014703
0.0150524
0.0154858
0.016351
0.0183203
0.02111
0.0231398
0.0233488
0.0217448
0.0189362
0.0156279
0.012347
0.00930807
0.00655837
0.00414296
0.00229264
0.00172765
0.00261579
0.003732
0.00492296
0.00646094
0.00851114
0.0106863
0.0123696
0.0131124
0.0129017
0.011884
0.01027
0.00821006
0.00575348
0.00384037
0.00153529
0.00836687
0.0162024
0.0273209
0.0212208
0.0183196
0.0168852
0.0160263
0.0154208
0.0149671
0.0146234
0.0143748
0.0142153
0.0141411
0.0141464
0.0142206
0.0143488
0.0145126
0.0146911
0.0148624
0.0150052
0.0150994
0.0151282
0.0150798
0.0149506
0.0147465
0.0144828
0.0141836
0.0139283
0.0137371
0.0136444
0.0136713
0.0138308
0.0141318
0.0145824
0.015192
0.0159714
0.0169314
0.0180819
0.0194337
0.0209997
0.0227868
0.0247524
0.0267
0.0280556
0.0276718
0.0247837
0.0216922
0.0198599
0.0183151
0.0169673
0.0157766
0.0147016
0.0137083
0.0127796
0.0119196
0.0111519
0.0105152
0.0100566
0.00982511
0.00984759
0.0101068
0.0105641
0.0111581
0.0118233
0.0125032
0.0131533
0.0137392
0.0142381
0.0146456
0.0149903
0.0153649
0.0160558
0.0176993
0.0203241
0.0226496
0.0234973
0.0225937
0.0203072
0.0172256
0.0138906
0.0106501
0.00769395
0.00515433
0.00323607
0.00235943
0.00286756
0.0038875
0.00502782
0.00649856
0.00845142
0.0105055
0.0120905
0.0128426
0.0126816
0.0117156
0.0101504
0.00817844
0.00578922
0.00379753
0.00109545
0.00829258
0.0164345
0.0284745
0.0222124
0.0191966
0.0176734
0.0167172
0.016004
0.0154338
0.0149665
0.0145879
0.0142924
0.0140764
0.0139346
0.0138572
0.01383
0.0138346
0.0138502
0.0138549
0.0138274
0.0137487
0.0136047
0.0133896
0.0131107
0.0127869
0.0124503
0.0121497
0.0119865
0.0119661
0.0121036
0.0123915
0.0128156
0.0133649
0.0140365
0.0148364
0.0157768
0.016872
0.018135
0.0195789
0.0212221
0.0230878
0.0251617
0.0272758
0.0288397
0.0286179
0.0258577
0.0228393
0.0209219
0.0192696
0.0178008
0.0164747
0.0152408
0.0140574
0.0129055
0.0117959
0.0107673
0.00988019
0.00920957
0.00883687
0.0088123
0.00912445
0.00970934
0.0104663
0.0112946
0.0121159
0.0128761
0.0135394
0.0140847
0.0145092
0.0148391
0.0151554
0.0156944
0.0170333
0.0194229
0.0218993
0.0232556
0.0229925
0.0212608
0.0185193
0.0152826
0.0119674
0.00886777
0.00619654
0.00416148
0.00306481
0.00322928
0.00411228
0.00521698
0.00667747
0.0085883
0.0105507
0.0120254
0.0126886
0.0124766
0.0114901
0.00992208
0.00799027
0.00570783
0.003596
0.000808723
0.0082189
0.0166713
0.0295495
0.0231341
0.0200041
0.0183926
0.017343
0.0165286
0.0158512
0.0152714
0.0147747
0.0143546
0.0140069
0.0137255
0.0135006
0.0133177
0.0131584
0.0130013
0.0128241
0.0126053
0.0123269
0.0119785
0.0115629
0.0111049
0.0106469
0.0102493
0.0100441
0.0100691
0.0103301
0.0107891
0.0113924
0.0120963
0.0128768
0.0137298
0.0146671
0.0157101
0.0168827
0.0182043
0.0196913
0.021365
0.0232628
0.0254021
0.0276541
0.0294232
0.0293883
0.0267658
0.0238463
0.0218512
0.0201169
0.0185628
0.0171416
0.0157872
0.0144448
0.0130901
0.0117388
0.0104444
0.00929036
0.00838382
0.00784977
0.00777061
0.00814606
0.00887441
0.0098014
0.010787
0.0117337
0.0125829
0.0133017
0.0138738
0.0143001
0.0146067
0.0148659
0.0152746
0.0163419
0.0184617
0.0209744
0.0227168
0.0230156
0.0218255
0.019475
0.0164305
0.0131389
0.00996448
0.00718522
0.00502676
0.00376601
0.00364502
0.00437152
0.00544969
0.00695859
0.00889267
0.0107867
0.0121332
0.0126666
0.0123499
0.0112867
0.00965996
0.00768441
0.00545775
0.00318978
0.000704995
0.00818698
0.0169361
0.0305517
0.0239882
0.0207414
0.01904
0.0178983
0.0169872
0.0162094
0.0155259
0.0149216
0.0143886
0.0139209
0.0135112
0.0131483
0.012817
0.0124976
0.0121677
0.0118031
0.011381
0.0108833
0.0103024
0.00965287
0.00898564
0.00839018
0.00797905
0.00795005
0.00830534
0.00896947
0.00981625
0.0107456
0.0117023
0.0126676
0.0136475
0.014666
0.0157568
0.0169558
0.0182913
0.0197829
0.0214517
0.023344
0.0255073
0.0278598
0.0298146
0.0299756
0.0275126
0.0246982
0.0226377
0.0208472
0.0192423
0.0177622
0.0163195
0.0148426
0.0133002
0.0117122
0.0101467
0.00871008
0.00754502
0.00683445
0.00670747
0.0071783
0.00807994
0.00918577
0.0103177
0.0113681
0.0122814
0.0130322
0.0136116
0.0140256
0.0143017
0.0145058
0.0148038
0.0156377
0.0174816
0.0199481
0.0219693
0.0227462
0.0220583
0.0201065
0.0173003
0.0140954
0.0109027
0.00804984
0.00578513
0.00437072
0.00404599
0.00462619
0.00569808
0.00731718
0.00932731
0.0111726
0.012384
0.0127606
0.0123025
0.0111237
0.0094026
0.00734903
0.00510631
0.0027397
0.000918699
0.0082296
0.0172454
0.0314848
0.0247755
0.021407
0.0196129
0.0183795
0.0173747
0.0165016
0.0157216
0.0150187
0.0143836
0.0138083
0.0132835
0.0127967
0.0123309
0.0118647
0.0113733
0.0108298
0.0102078
0.00948543
0.00865364
0.00773347
0.0068075
0.00604581
0.00567949
0.00600478
0.00687256
0.0080256
0.00925381
0.0104562
0.011599
0.0126844
0.0137342
0.0147842
0.0158797
0.0170675
0.0183839
0.019853
0.0214938
0.0233543
0.0255079
0.0279225
0.03003
0.0303781
0.0281015
0.0253844
0.0232747
0.0214541
0.0198302
0.0183213
0.0168139
0.0152185
0.0134975
0.0116753
0.00983317
0.0080973
0.00664754
0.00574566
0.00559862
0.00623249
0.00735423
0.0086456
0.00990479
0.0110301
0.0119787
0.0127367
0.0133044
0.0136936
0.0139332
0.0140843
0.0142891
0.0149286
0.0165119
0.0188804
0.0210939
0.0222688
0.0220297
0.0204557
0.0178975
0.0148103
0.0116378
0.00874509
0.00640161
0.00486754
0.00438646
0.00483877
0.00594439
0.0077421
0.0098655
0.0116687
0.0127371
0.0129407
0.0123205
0.0110047
0.00917187
0.00702934
0.0047456
0.00237523
0.00144225
0.00837011
0.0176073
0.0323514
0.0254959
0.0219988
0.0201084
0.0187834
0.0176876
0.0167236
0.0158532
0.0150597
0.0143323
0.0136615
0.0130362
0.0124421
0.0118607
0.011269
0.0106399
0.00994282
0.00914586
0.0082203
0.00714613
0.00593195
0.00467201
0.00366974
0.003486
0.00449533
0.00601637
0.00761081
0.00911207
0.0104796
0.0117199
0.0128572
0.0139254
0.0149686
0.0160394
0.0171913
0.018467
0.0198962
0.0214957
0.0233111
0.0254322
0.0278704
0.0300855
0.0305989
0.0285353
0.025898
0.0237578
0.0219321
0.0203167
0.0188009
0.0172432
0.0155379
0.0136436
0.0115911
0.00947146
0.00742199
0.00565235
0.00453143
0.00442592
0.00534516
0.00674208
0.00821137
0.00956459
0.0107276
0.0116792
0.0124197
0.0129581
0.0133113
0.0135098
0.0136108
0.0137376
0.0142197
0.0155723
0.0178192
0.0201612
0.0216633
0.0218137
0.0205775
0.0182504
0.015286
0.0121549
0.00924951
0.0068548
0.00523252
0.00463247
0.00497977
0.0061841
0.00823022
0.0104822
0.0122339
0.0131468
0.013166
0.0123738
0.0109138
0.00896884
0.00675155
0.00445847
0.00226043
0.00220245
0.00863049
0.0180275
0.0331522
0.0261477
0.022513
0.0205224
0.0191064
0.0179228
0.0168728
0.0159182
0.0150417
0.0142317
0.0134773
0.012766
0.0120825
0.0114075
0.0107173
0.00998344
0.00917314
0.00824994
0.00718077
0.00593315
0.0044861
0.00286675
0.0013865
0.00191713
0.00394439
0.00592942
0.00773739
0.00933824
0.0107469
0.0119982
0.0131262
0.01417
0.015177
0.0162009
0.0172992
0.0185222
0.0199015
0.0214541
0.0232216
0.0252985
0.0277254
0.0299992
0.0306514
0.0288089
0.0262354
0.0240839
0.0222763
0.0206905
0.0191808
0.0175782
0.0157663
0.0137055
0.0114367
0.00905694
0.00669801
0.00456515
0.00314347
0.00322033
0.00461597
0.00631089
0.00791381
0.00930742
0.0104629
0.0113839
0.0120833
0.0125771
0.0128855
0.0130398
0.0130938
0.0131565
0.0135151
0.014676
0.0168018
0.0192322
0.0210034
0.0214824
0.0205299
0.0183967
0.015541
0.0124584
0.00956116
0.0071411
0.00545995
0.00476521
0.00503301
0.00642988
0.0087805
0.0111487
0.0128244
0.0135646
0.0133903
0.0124231
0.0108212
0.00877587
0.00651729
0.00428905
0.0025413
0.00315712
0.00903583
0.0185115
0.0338868
0.0267278
0.0229444
0.0208493
0.0193436
0.0180768
0.016947
0.0159158
0.0149653
0.0140832
0.0132577
0.0124757
0.0117213
0.0109754
0.0102155
0.00941494
0.00854333
0.00756531
0.00644976
0.00517113
0.0037021
0.00202307
0.000809336
0.00255585
0.00459205
0.00651657
0.00825176
0.00979483
0.0111574
0.0123613
0.0134373
0.0144251
0.0153725
0.0163347
0.0173705
0.0185328
0.0198564
0.0213583
0.0230767
0.0251091
0.0275128
0.029806
0.0305621
0.0289087
0.0263951
0.0242509
0.0224818
0.0209395
0.0194396
0.0177917
0.0158766
0.0136638
0.0112123
0.00862679
0.00602311
0.00353338
0.00154357
0.00222515
0.00423884
0.00613823
0.00777646
0.00913703
0.0102344
0.0110908
0.0117277
0.0121645
0.012422
0.0125307
0.0125416
0.0125527
0.0128188
0.0138324
0.0158582
0.0183595
0.020355
0.0211009
0.0203665
0.0183735
0.0155984
0.0125634
0.00969157
0.00727179
0.00556002
0.00478123
0.00500528
0.00671056
0.00938632
0.0118309
0.0133953
0.0139427
0.0135671
0.0124263
0.01069
0.00856229
0.00630704
0.00424921
0.00312753
0.00422795
0.00959821
0.0190631
0.0345534
0.0272321
0.0232867
0.021082
0.0194887
0.018145
0.016944
0.0158465
0.0148335
0.0138925
0.0130111
0.0121762
0.0113725
0.0105818
0.00978395
0.00895647
0.00807079
0.00707482
0.00600204
0.00483711
0.00365167
0.00270756
0.00279821
0.00410961
0.00576949
0.0074485
0.00901924
0.0104341
0.0116865
0.0127908
0.0137746
0.0146756
0.0155412
0.0164264
0.0173902
0.0184868
0.0197518
0.0212013
0.0228703
0.0248581
0.0272337
0.0295257
0.0303455
0.0288366
0.0263781
0.0242583
0.0225448
0.0210526
0.0195593
0.0178624
0.0158469
0.0135068
0.0109306
0.00824268
0.00556066
0.00295895
0.000549436
0.00231648
0.00444123
0.00625903
0.00778149
0.00902703
0.0100213
0.0107927
0.011354
0.0117242
0.0119264
0.0119895
0.0119617
0.0119329
0.0121356
0.01305
0.0150139
0.0175898
0.0197761
0.0207247
0.0201293
0.0182095
0.0154791
0.0124885
0.00966013
0.00726891
0.00555328
0.00468592
0.00493378
0.00705842
0.0100284
0.0124901
0.0139037
0.0142374
0.0136549
0.0123448
0.0104833
0.00829118
0.00608815
0.00433255
0.00392391
0.00537135
0.0103037
0.0196794
0.0351493
0.0276558
0.0235327
0.0212125
0.0195342
0.0181218
0.0168613
0.0157122
0.0146537
0.0136721
0.0127542
0.0118874
0.0110519
0.0102363
0.00942879
0.008607
0.00775361
0.0068468
0.00592205
0.00502621
0.0043069
0.00401922
0.00457536
0.0057059
0.00710178
0.00854128
0.00990896
0.0111534
0.0122592
0.0132339
0.0141003
0.0148946
0.0156632
0.0164611
0.0173474
0.018376
0.0195819
0.0209791
0.0226
0.0245453
0.0268915
0.0291664
0.0300112
0.0285988
0.0261872
0.0241078
0.0224623
0.0210193
0.0195239
0.0177728
0.0156655
0.0132327
0.0106054
0.00794853
0.00541555
0.0032141
0.00231789
0.00334747
0.00500306
0.00654777
0.00786875
0.00895241
0.00981378
0.0104734
0.0109469
0.0112531
0.0114027
0.0114226
0.0113611
0.0113044
0.0114725
0.0123403
0.0142957
0.016967
0.0193169
0.0203945
0.0198426
0.017918
0.0151961
0.0122515
0.00949045
0.00716379
0.005478
0.0045046
0.00488014
0.00748619
0.0106735
0.0130876
0.0143122
0.0144128
0.0136205
0.0121492
0.0101712
0.00792581
0.00581547
0.00448004
0.00478504
0.00652774
0.011119
0.0203503
0.0356708
0.0279945
0.0236756
0.0212328
0.0194728
0.0180035
0.0166974
0.015512
0.0144219
0.0134219
0.0124925
0.0116201
0.0107895
0.00999138
0.0092139
0.00844563
0.00768174
0.00692781
0.00623029
0.00566839
0.00537737
0.00549512
0.00620798
0.00723776
0.00843076
0.00965412
0.0108208
0.0118849
0.0128293
0.0136578
0.0143915
0.0150655
0.0157266
0.0164303
0.0172356
0.0181957
0.0193434
0.0206897
0.0222642
0.0241702
0.026488
0.0287328
0.0295662
0.0282031
0.0258277
0.023803
0.0222323
0.020831
0.0193232
0.0175169
0.0153544
0.012907
0.0103496
0.0078951
0.00575351
0.00423602
0.00383772
0.00448548
0.00568882
0.00690997
0.00799184
0.00888945
0.00960227
0.0101413
0.0105194
0.0107513
0.0108493
0.0108328
0.0107457
0.0106749
0.0108409
0.0117229
0.0137366
0.0165354
0.0190158
0.0201295
0.0195061
0.0174943
0.0147539
0.0118683
0.00920826
0.00699256
0.00536752
0.00428072
0.00491875
0.00797452
0.01128
0.0135884
0.014591
0.0144424
0.0134432
0.0118247
0.00973854
0.00744383
0.00546795
0.00466315
0.00563676
0.00764913
0.0119976
0.0210582
0.0361118
0.0282443
0.0237101
0.0211381
0.0192957
0.0177695
0.0164352
0.0152396
0.0141549
0.0131679
0.0122602
0.0114194
0.0106336
0.00989502
0.00919634
0.00853547
0.00791908
0.00736875
0.00693356
0.00668516
0.00670178
0.00706609
0.0077863
0.00870169
0.00971604
0.0107423
0.0117159
0.0125977
0.0133721
0.0140434
0.0146332
0.0151773
0.0157238
0.0163289
0.0170518
0.0179441
0.0190353
0.0203323
0.0218627
0.0237332
0.0260245
0.028227
0.0290153
0.0276576
0.0253072
0.0233491
0.0218653
0.0205018
0.0189844
0.0171506
0.0149768
0.0125768
0.0101681
0.00800108
0.00630163
0.00527665
0.00505097
0.0054894
0.00634442
0.00726596
0.00810889
0.00881617
0.00937584
0.00979144
0.0100715
0.0102268
0.01027
0.0102221
0.0101189
0.0100539
0.0102605
0.0112319
0.0133838
0.0163388
0.0188899
0.0199157
0.0190901
0.0169168
0.0141514
0.0113543
0.00884199
0.00679706
0.0052544
0.00407548
0.00507996
0.00847501
0.0118067
0.0139646
0.0147189
0.0143102
0.0131161
0.0113743
0.00918865
0.00683398
0.00500585
0.00485147
0.00643978
0.00869387
0.0128861
0.0217781
0.036461
0.0284035
0.0236341
0.0209098
0.0189808
0.0174261
0.016087
0.014908
0.0138597
0.0129229
0.0120802
0.0113187
0.0106277
0.0100006
0.00943396
0.00893095
0.00850354
0.00817522
0.00798371
0.00797485
0.00817763
0.00866503
0.00932852
0.0101163
0.0109624
0.0118022
0.012585
0.0132795
0.0138749
0.0143788
0.0148153
0.0152224
0.0156496
0.016154
0.0167948
0.0176213
0.0186583
0.0199078
0.0213963
0.0232354
0.0255024
0.0276505
0.028362
0.0269703
0.0246359
0.0227712
0.0213722
0.0200404
0.018527
0.0166969
0.0145601
0.0122624
0.0100474
0.00817572
0.00683859
0.00611959
0.00598174
0.00629183
0.00689418
0.00756532
0.00819118
0.00871776
0.00912827
0.00942163
0.00960314
0.00968199
0.00967053
0.00959257
0.00948515
0.00945399
0.00976308
0.0109199
0.013302
0.0164155
0.0189173
0.0197019
0.0185382
0.0161556
0.0133888
0.0107275
0.00842338
0.00661826
0.00516434
0.00394566
0.0053353
0.00893275
0.0122192
0.014195
0.014682
0.0140102
0.0126467
0.0108208
0.00854788
0.00610101
0.00440987
0.0050036
0.00714429
0.00961833
0.013729
0.0224801
0.0366988
0.0284649
0.023427
0.0205485
0.0185451
0.0169705
0.0156501
0.0145214
0.0135494
0.0127107
0.0119853
0.0113578
0.0108162
0.0103523
0.00996263
0.00964953
0.00942233
0.00929705
0.00929543
0.00944022
0.00973729
0.0102307
0.0108286
0.0114951
0.0121809
0.0128358
0.0134225
0.0139204
0.0143262
0.0146531
0.0149289
0.0151942
0.0155
0.0159043
0.0164652
0.0172288
0.0182142
0.0194182
0.0208671
0.0226793
0.0249237
0.0270042
0.0276091
0.0261488
0.0238276
0.0220929
0.0207601
0.0194681
0.0179814
0.0161929
0.0141385
0.0119813
0.00997104
0.00835737
0.00728664
0.00675927
0.00667034
0.00689324
0.00731356
0.00778496
0.00822408
0.0085869
0.00885716
0.00903241
0.00911692
0.00911979
0.00905537
0.00895162
0.00885739
0.00890751
0.00943267
0.0109606
0.0136577
0.0167383
0.0189417
0.0193613
0.0178087
0.0151853
0.0124732
0.0100112
0.0079855
0.00647842
0.00510471
0.00390841
0.00562759
0.00930461
0.0124925
0.0142652
0.0144739
0.0135454
0.0120541
0.0102009
0.00786481
0.00526411
0.00372499
0.00511335
0.00772599
0.0103879
0.0144767
0.0231327
0.036754
0.0284168
0.0231253
0.0200717
0.0179906
0.0164082
0.0151375
0.0141021
0.013259
0.0125764
0.012028
0.0115917
0.01125
0.0109896
0.0108026
0.0106864
0.0106443
0.0106837
0.0108146
0.0110458
0.0113773
0.0118369
0.0123472
0.0128757
0.0133852
0.0138394
0.014215
0.0145028
0.0147087
0.0148516
0.0149631
0.0150859
0.015272
0.0155793
0.0160645
0.0167693
0.0177061
0.0188662
0.0202778
0.0220679
0.0242912
0.0262896
0.0267595
0.0252019
0.0229167
0.0213122
0.0200472
0.0188085
0.0173767
0.0156691
0.013737
0.0117454
0.00993315
0.00852847
0.0076429
0.00723277
0.007167
0.00732413
0.00760994
0.00792409
0.00820693
0.00842549
0.00856699
0.00863016
0.0086207
0.00855058
0.00844055
0.00833163
0.00830854
0.00858037
0.00953188
0.0115087
0.0143215
0.0171177
0.0188353
0.0187855
0.0168784
0.013996
0.0114243
0.00923826
0.00756118
0.00637346
0.00506177
0.00395046
0.00590731
0.00956294
0.0126107
0.0141678
0.0140961
0.0129268
0.0113631
0.00954903
0.00718526
0.00436914
0.00292366
0.00516494
0.00816395
0.010971
0.0150871
0.0237074
0.0365361
0.0282314
0.02274
0.0194973
0.0173388
0.0157744
0.0145983
0.0137153
0.013068
0.0126106
0.0123032
0.0121121
0.01201
0.0119761
0.0119966
0.0120644
0.0121776
0.0123387
0.0125518
0.0128174
0.0131529
0.013525
0.013901
0.0142532
0.0145537
0.0147822
0.014929
0.0149962
0.0149971
0.0149555
0.0149054
0.0148906
0.014963
0.0151801
0.0155958
0.0162467
0.0171378
0.0182554
0.0196322
0.0214055
0.0236081
0.0255081
0.0258166
0.0241388
0.0219246
0.0204422
0.019251
0.0180834
0.0167375
0.0151489
0.0133743
0.0115674
0.00994326
0.00870362
0.00793892
0.00759187
0.00752801
0.00762952
0.00781165
0.00800128
0.00815505
0.00824957
0.00827688
0.00823939
0.00814795
0.00802373
0.00790577
0.00787031
0.00806567
0.00874981
0.0101974
0.0124415
0.0150831
0.0173759
0.018495
0.0179298
0.0156835
0.0126137
0.010281
0.00845556
0.00718346
0.00628953
0.00502725
0.00405455
0.00614242
0.0096949
0.0125681
0.0139032
0.0135579
0.0121717
0.0105971
0.00887789
0.00652414
0.00344078
0.00207272
0.0051948
0.00844152
0.0113378
0.0155282
0.0241825
0.0359403
0.0278387
0.0222595
0.0188615
0.0166566
0.0151602
0.0141495
0.0135034
0.0131385
0.0129841
0.0129792
0.0130739
0.0132304
0.0134218
0.0136309
0.0138482
0.0140705
0.014298
0.0145321
0.0147708
0.0150224
0.0152509
0.0154369
0.0155648
0.0156225
0.0156046
0.0155134
0.0153594
0.0151609
0.0149441
0.0147436
0.0146027
0.0145727
0.0147095
0.0150639
0.0156663
0.0165142
0.0175904
0.0189352
0.0206973
0.0228781
0.0246612
0.0247833
0.0229711
0.0208728
0.0194944
0.018387
0.0173109
0.0160821
0.0146485
0.0130638
0.011461
0.0100224
0.00891892
0.00822907
0.00790358
0.0078218
0.00787126
0.00797021
0.00806161
0.00811284
0.0081086
0.00804755
0.00794001
0.00780931
0.00769761