/*--------------------------------*- C++ -*----------------------------------*\
| =========                 |                                                 |
| \\      /  F ield         | OpenFOAM: The Open Source CFD Toolbox           |
|  \\    /   O peration     | Version:  4.1                                   |
|   \\  /    A nd           | Web:      www.OpenFOAM.org                      |
|    \\/     M anipulation  |                                                 |
\*---------------------------------------------------------------------------*/
FoamFile
{
    version     2.0;
    format      ascii;
    class       volScalarField;
    location    "180";
    object      p;
}
// * * * * * * * * * * * * * * * * * * * * * * * * * * * * * * * * * * * * * //

dimensions      [0 2 -2 0 0 0 0];

internalField   nonuniform List<scalar> 
5000
(
0
-6.99031e-06
-1.44645e-05
-2.32991e-05
-3.34939e-05
-4.49579e-05
-5.75462e-05
-7.10709e-05
-8.53091e-05
-0.000100015
-0.000114932
-0.000129802
-0.000144377
-0.000158416
-0.000171694
-0.000183993
-0.000195101
-0.000204809
-0.000212908
-0.000219187
-0.000223436
-0.000225443
-0.000225005
-0.000221909
-0.000215946
-0.000207087
-0.000195134
-0.000179997
-0.000161641
-0.000140083
-0.000115412
-8.78014e-05
-5.75321e-05
-2.50282e-05
9.11448e-06
4.40975e-05
7.88359e-05
0.000111684
0.000140076
0.000160651
0.000170827
0.000173174
0.000165763
0.000145698
0.000118625
8.96572e-05
6.10534e-05
3.35053e-05
7.26956e-06
-1.74466e-05
-4.04239e-05
-6.14208e-05
-8.01696e-05
-9.63884e-05
-0.000109808
-0.000120213
-0.000127497
-0.000131691
-0.000132951
-0.000131498
-0.000127624
-0.000121715
-0.000114218
-0.000105601
-9.62862e-05
-8.65833e-05
-7.66297e-05
-6.63294e-05
-5.53234e-05
-4.31942e-05
-4.32354e-05
-5.86401e-05
-7.42291e-05
-9.11065e-05
-0.000108851
-0.000126806
-0.000144132
-0.000159856
-0.000172937
-0.00018234
-0.000187082
-0.000186355
-0.000179684
-0.000167019
-0.000149092
-0.000127421
-0.000104466
-8.38064e-05
-6.99382e-05
-6.62987e-05
-6.96565e-05
-7.81624e-05
-9.30398e-05
-0.000108824
-0.000120168
-0.000125072
-0.00012407
-0.000117107
-0.000104626
-8.63231e-05
-0.0984621
-0.0984741
-0.0984857
-0.0984983
-0.0985118
-0.0985263
-0.0985417
-0.0985577
-0.0985743
-0.0985911
-0.0986079
-0.0986244
-0.0986405
-0.0986559
-0.0986704
-0.0986838
-0.0986958
-0.0987064
-0.0987153
-0.0987223
-0.0987273
-0.09873
-0.0987302
-0.0987277
-0.0987225
-0.0987143
-0.098703
-0.0986885
-0.0986708
-0.09865
-0.0986261
-0.0985993
-0.0985699
-0.0985384
-0.0985053
-0.0984716
-0.0984382
-0.0984067
-0.0983795
-0.0983595
-0.0983496
-0.0983481
-0.0983553
-0.098374
-0.0983992
-0.0984262
-0.098453
-0.098479
-0.0985039
-0.0985275
-0.0985494
-0.0985695
-0.0985875
-0.0986028
-0.0986154
-0.0986248
-0.0986309
-0.0986337
-0.0986334
-0.0986301
-0.0986242
-0.0986159
-0.0986057
-0.0985941
-0.0985816
-0.0985686
-0.0985551
-0.0985415
-0.0985279
-0.098516
-0.0985246
-0.0985437
-0.0985635
-0.098584
-0.0986048
-0.0986255
-0.0986453
-0.0986633
-0.0986784
-0.0986896
-0.0986961
-0.0986972
-0.0986922
-0.0986813
-0.0986652
-0.0986456
-0.0986247
-0.0986059
-0.0985929
-0.0985881
-0.0985908
-0.0985987
-0.0986106
-0.0986232
-0.0986317
-0.0986346
-0.0986315
-0.098623
-0.0986093
-0.0985887
-0.196954
-0.196969
-0.196983
-0.196999
-0.197015
-0.197032
-0.19705
-0.197068
-0.197086
-0.197104
-0.197122
-0.19714
-0.197157
-0.197173
-0.197188
-0.197202
-0.197215
-0.197226
-0.197235
-0.197242
-0.197248
-0.197251
-0.197251
-0.197249
-0.197244
-0.197236
-0.197225
-0.197211
-0.197194
-0.197173
-0.19715
-0.197124
-0.197095
-0.197064
-0.197032
-0.196999
-0.196967
-0.196937
-0.196911
-0.196892
-0.196882
-0.196882
-0.196889
-0.196906
-0.196929
-0.196954
-0.196979
-0.197003
-0.197027
-0.197049
-0.197071
-0.19709
-0.197108
-0.197123
-0.197136
-0.197145
-0.197151
-0.197154
-0.197153
-0.197149
-0.197142
-0.197132
-0.197121
-0.197107
-0.197093
-0.197078
-0.197062
-0.197048
-0.197034
-0.197025
-0.197031
-0.197052
-0.197072
-0.197095
-0.197118
-0.19714
-0.197162
-0.197181
-0.197197
-0.19721
-0.197217
-0.197219
-0.197215
-0.197205
-0.19719
-0.197172
-0.197153
-0.197135
-0.197122
-0.197117
-0.197118
-0.197124
-0.197133
-0.197143
-0.197149
-0.197151
-0.197149
-0.197141
-0.19713
-0.197113
-0.295466
-0.295481
-0.295496
-0.295512
-0.295529
-0.295547
-0.295566
-0.295585
-0.295604
-0.295623
-0.295642
-0.29566
-0.295677
-0.295693
-0.295709
-0.295723
-0.295736
-0.295747
-0.295757
-0.295765
-0.295771
-0.295774
-0.295775
-0.295774
-0.295769
-0.295762
-0.295751
-0.295737
-0.295721
-0.295701
-0.295678
-0.295652
-0.295624
-0.295595
-0.295564
-0.295532
-0.295501
-0.295472
-0.295448
-0.295429
-0.29542
-0.29542
-0.295427
-0.295443
-0.295463
-0.295485
-0.295508
-0.29553
-0.295552
-0.295574
-0.295594
-0.295613
-0.295631
-0.295646
-0.295658
-0.295667
-0.295673
-0.295676
-0.295675
-0.295671
-0.295664
-0.295654
-0.295642
-0.295628
-0.295614
-0.295598
-0.295583
-0.295569
-0.295557
-0.29555
-0.295554
-0.295572
-0.295593
-0.295616
-0.295639
-0.295662
-0.295684
-0.295704
-0.295721
-0.295734
-0.295742
-0.295745
-0.295742
-0.295733
-0.295719
-0.295703
-0.295684
-0.295667
-0.295653
-0.295646
-0.295644
-0.295647
-0.295653
-0.295659
-0.295664
-0.295666
-0.295665
-0.29566
-0.295652
-0.295639
-0.393989
-0.394003
-0.394017
-0.394033
-0.39405
-0.394068
-0.394087
-0.394107
-0.394126
-0.394145
-0.394163
-0.394181
-0.394199
-0.394215
-0.394231
-0.394245
-0.394259
-0.39427
-0.394281
-0.394289
-0.394295
-0.394299
-0.394301
-0.3943
-0.394296
-0.394289
-0.394279
-0.394266
-0.39425
-0.394231
-0.394209
-0.394184
-0.394157
-0.394129
-0.394099
-0.394069
-0.39404
-0.394012
-0.393989
-0.393971
-0.393961
-0.393962
-0.393969
-0.393983
-0.394
-0.394018
-0.394038
-0.394059
-0.394079
-0.3941
-0.39412
-0.394138
-0.394155
-0.394169
-0.394181
-0.39419
-0.394196
-0.394199
-0.394198
-0.394194
-0.394188
-0.394178
-0.394167
-0.394153
-0.394139
-0.394124
-0.39411
-0.394097
-0.394087
-0.394081
-0.394085
-0.3941
-0.394122
-0.394143
-0.394165
-0.394187
-0.394209
-0.394228
-0.394246
-0.394259
-0.394268
-0.394271
-0.394269
-0.394261
-0.394249
-0.394233
-0.394216
-0.394198
-0.394184
-0.394174
-0.394169
-0.394168
-0.394171
-0.394173
-0.394175
-0.394177
-0.394177
-0.394174
-0.394169
-0.394161
-0.492518
-0.49253
-0.492543
-0.492558
-0.492575
-0.492593
-0.492611
-0.49263
-0.492649
-0.492668
-0.492687
-0.492705
-0.492722
-0.492739
-0.492754
-0.492769
-0.492783
-0.492795
-0.492806
-0.492815
-0.492822
-0.492827
-0.492829
-0.492829
-0.492826
-0.492819
-0.49281
-0.492797
-0.492782
-0.492763
-0.492742
-0.492719
-0.492693
-0.492666
-0.492638
-0.492609
-0.492581
-0.492555
-0.492533
-0.492515
-0.492505
-0.492505
-0.492511
-0.492523
-0.492537
-0.492553
-0.49257
-0.492589
-0.492608
-0.492627
-0.492646
-0.492664
-0.49268
-0.492695
-0.492706
-0.492715
-0.492721
-0.492724
-0.492723
-0.492719
-0.492713
-0.492704
-0.492693
-0.49268
-0.492666
-0.492652
-0.492639
-0.492628
-0.492619
-0.492615
-0.492618
-0.492632
-0.492652
-0.492673
-0.492693
-0.492714
-0.492735
-0.492754
-0.492771
-0.492784
-0.492793
-0.492796
-0.492794
-0.492788
-0.492777
-0.492762
-0.492746
-0.492728
-0.492712
-0.4927
-0.492691
-0.492687
-0.492686
-0.492685
-0.492686
-0.492686
-0.492687
-0.492685
-0.492682
-0.492676
-0.59105
-0.591061
-0.591072
-0.591087
-0.591103
-0.59112
-0.591138
-0.591156
-0.591175
-0.591193
-0.591211
-0.591229
-0.591247
-0.591263
-0.591279
-0.591294
-0.591308
-0.591321
-0.591333
-0.591342
-0.59135
-0.591356
-0.591359
-0.591359
-0.591357
-0.591351
-0.591342
-0.59133
-0.591316
-0.591298
-0.591278
-0.591255
-0.591231
-0.591206
-0.591179
-0.591152
-0.591126
-0.591101
-0.591079
-0.591062
-0.591051
-0.591049
-0.591055
-0.591064
-0.591075
-0.591088
-0.591103
-0.59112
-0.591138
-0.591156
-0.591174
-0.591191
-0.591207
-0.591221
-0.591233
-0.591241
-0.591247
-0.591249
-0.591249
-0.591245
-0.591239
-0.59123
-0.591219
-0.591207
-0.591195
-0.591182
-0.59117
-0.59116
-0.591152
-0.591148
-0.591151
-0.591163
-0.591182
-0.591203
-0.591222
-0.591241
-0.59126
-0.591279
-0.591294
-0.591307
-0.591315
-0.591318
-0.591316
-0.591309
-0.5913
-0.591287
-0.591271
-0.591254
-0.591237
-0.591223
-0.591211
-0.591204
-0.591199
-0.591196
-0.591195
-0.591195
-0.591194
-0.591194
-0.591193
-0.591188
-0.689584
-0.689594
-0.689604
-0.689617
-0.689632
-0.689648
-0.689666
-0.689683
-0.689701
-0.68972
-0.689737
-0.689755
-0.689772
-0.689789
-0.689805
-0.689821
-0.689835
-0.689849
-0.689861
-0.689871
-0.68988
-0.689886
-0.68989
-0.689891
-0.689889
-0.689884
-0.689876
-0.689865
-0.68985
-0.689834
-0.689814
-0.689793
-0.68977
-0.689746
-0.689721
-0.689696
-0.689671
-0.689648
-0.689627
-0.689609
-0.689598
-0.689594
-0.689597
-0.689603
-0.689612
-0.689623
-0.689636
-0.689652
-0.689668
-0.689686
-0.689703
-0.689719
-0.689735
-0.689749
-0.68976
-0.689768
-0.689774
-0.689776
-0.689775
-0.689772
-0.689766
-0.689757
-0.689747
-0.689735
-0.689723
-0.689711
-0.6897
-0.689691
-0.689684
-0.689681
-0.689682
-0.689693
-0.68971
-0.68973
-0.68975
-0.689767
-0.689784
-0.6898
-0.689814
-0.689825
-0.689832
-0.689833
-0.689831
-0.689825
-0.689816
-0.689805
-0.689792
-0.689776
-0.689759
-0.689742
-0.689729
-0.689718
-0.689711
-0.689706
-0.689704
-0.689703
-0.689701
-0.689702
-0.689701
-0.689698
-0.788119
-0.788128
-0.788137
-0.788149
-0.788163
-0.788178
-0.788195
-0.788212
-0.788229
-0.788247
-0.788265
-0.788282
-0.788299
-0.788316
-0.788332
-0.788348
-0.788363
-0.788377
-0.78839
-0.788401
-0.78841
-0.788418
-0.788422
-0.788424
-0.788423
-0.788418
-0.78841
-0.7884
-0.788386
-0.78837
-0.788352
-0.788332
-0.78831
-0.788287
-0.788264
-0.78824
-0.788217
-0.788195
-0.788174
-0.788157
-0.788144
-0.788138
-0.788139
-0.788142
-0.788149
-0.788158
-0.78817
-0.788184
-0.788199
-0.788216
-0.788232
-0.788248
-0.788263
-0.788277
-0.788288
-0.788296
-0.788301
-0.788303
-0.788303
-0.788299
-0.788293
-0.788284
-0.788274
-0.788263
-0.788252
-0.78824
-0.78823
-0.788221
-0.788215
-0.788211
-0.788212
-0.78822
-0.788235
-0.788254
-0.788273
-0.78829
-0.788305
-0.788319
-0.78833
-0.788339
-0.788343
-0.788343
-0.788339
-0.788334
-0.788327
-0.788318
-0.788307
-0.788292
-0.788276
-0.788259
-0.788244
-0.788231
-0.788222
-0.788216
-0.788212
-0.78821
-0.788209
-0.788209
-0.788209
-0.788206
-0.886654
-0.886662
-0.88667
-0.886682
-0.886695
-0.886709
-0.886725
-0.886741
-0.886758
-0.886775
-0.886792
-0.88681
-0.886827
-0.886844
-0.88686
-0.886876
-0.886892
-0.886906
-0.88692
-0.886932
-0.886942
-0.88695
-0.886955
-0.886957
-0.886957
-0.886952
-0.886945
-0.886934
-0.886921
-0.886906
-0.886888
-0.886869
-0.886849
-0.886828
-0.886806
-0.886784
-0.886762
-0.886741
-0.886721
-0.886703
-0.88669
-0.886682
-0.88668
-0.886681
-0.886686
-0.886693
-0.886703
-0.886716
-0.886731
-0.886746
-0.886762
-0.886777
-0.886792
-0.886805
-0.886816
-0.886824
-0.886829
-0.886831
-0.88683
-0.886826
-0.88682
-0.886811
-0.886801
-0.886791
-0.886779
-0.886768
-0.886758
-0.88675
-0.886744
-0.88674
-0.88674
-0.886745
-0.886758
-0.886775
-0.886792
-0.886808
-0.886822
-0.886834
-0.886843
-0.886848
-0.886851
-0.886849
-0.886845
-0.886839
-0.886833
-0.886826
-0.886817
-0.886805
-0.88679
-0.886773
-0.886756
-0.886743
-0.886732
-0.886724
-0.88672
-0.886717
-0.886716
-0.886715
-0.886715
-0.886713
-0.985189
-0.985196
-0.985204
-0.985214
-0.985227
-0.98524
-0.985255
-0.985271
-0.985287
-0.985304
-0.985321
-0.985338
-0.985355
-0.985371
-0.985388
-0.985404
-0.98542
-0.985435
-0.985449
-0.985462
-0.985473
-0.985482
-0.985488
-0.985491
-0.98549
-0.985486
-0.985479
-0.985468
-0.985455
-0.98544
-0.985423
-0.985405
-0.985386
-0.985366
-0.985346
-0.985325
-0.985305
-0.985284
-0.985265
-0.985248
-0.985233
-0.985223
-0.985219
-0.985218
-0.985222
-0.985227
-0.985237
-0.985248
-0.985262
-0.985277
-0.985292
-0.985306
-0.98532
-0.985333
-0.985343
-0.985351
-0.985356
-0.985358
-0.985357
-0.985353
-0.985347
-0.985338
-0.985328
-0.985317
-0.985306
-0.985295
-0.985285
-0.985277
-0.98527
-0.985266
-0.985265
-0.985268
-0.985278
-0.985292
-0.985307
-0.985322
-0.985335
-0.985344
-0.985351
-0.985355
-0.985356
-0.985354
-0.98535
-0.985344
-0.985338
-0.985331
-0.985324
-0.985314
-0.9853
-0.985284
-0.985267
-0.985252
-0.985241
-0.985232
-0.985227
-0.985223
-0.985222
-0.985221
-0.985221
-0.985219
-1.08372
-1.08373
-1.08374
-1.08375
-1.08376
-1.08377
-1.08379
-1.0838
-1.08382
-1.08383
-1.08385
-1.08387
-1.08388
-1.0839
-1.08392
-1.08393
-1.08395
-1.08396
-1.08398
-1.08399
-1.084
-1.08401
-1.08402
-1.08402
-1.08402
-1.08402
-1.08401
-1.084
-1.08399
-1.08397
-1.08396
-1.08394
-1.08392
-1.0839
-1.08388
-1.08386
-1.08384
-1.08383
-1.08381
-1.08379
-1.08377
-1.08376
-1.08376
-1.08375
-1.08376
-1.08376
-1.08377
-1.08378
-1.08379
-1.08381
-1.08382
-1.08384
-1.08385
-1.08386
-1.08387
-1.08388
-1.08388
-1.08389
-1.08388
-1.08388
-1.08387
-1.08386
-1.08385
-1.08384
-1.08383
-1.08382
-1.08381
-1.0838
-1.08379
-1.08379
-1.08379
-1.08379
-1.0838
-1.08381
-1.08382
-1.08383
-1.08384
-1.08385
-1.08386
-1.08386
-1.08386
-1.08386
-1.08385
-1.08385
-1.08384
-1.08384
-1.08383
-1.08382
-1.08381
-1.08379
-1.08378
-1.08376
-1.08375
-1.08374
-1.08373
-1.08373
-1.08373
-1.08373
-1.08373
-1.08372
-1.18226
-1.18226
-1.18227
-1.18228
-1.18229
-1.1823
-1.18232
-1.18233
-1.18235
-1.18236
-1.18238
-1.18239
-1.18241
-1.18243
-1.18244
-1.18246
-1.18248
-1.18249
-1.18251
-1.18252
-1.18253
-1.18254
-1.18255
-1.18255
-1.18255
-1.18255
-1.18254
-1.18253
-1.18252
-1.1825
-1.18249
-1.18247
-1.18245
-1.18243
-1.18242
-1.1824
-1.18238
-1.18236
-1.18234
-1.18233
-1.18231
-1.1823
-1.18229
-1.18229
-1.18229
-1.18229
-1.1823
-1.18231
-1.18232
-1.18234
-1.18235
-1.18236
-1.18238
-1.18239
-1.1824
-1.18241
-1.18241
-1.18241
-1.18241
-1.1824
-1.1824
-1.18239
-1.18238
-1.18237
-1.18235
-1.18234
-1.18233
-1.18232
-1.18232
-1.18231
-1.18231
-1.18231
-1.18231
-1.18232
-1.18233
-1.18234
-1.18235
-1.18236
-1.18236
-1.18236
-1.18236
-1.18236
-1.18236
-1.18235
-1.18235
-1.18234
-1.18233
-1.18232
-1.18231
-1.1823
-1.18228
-1.18227
-1.18226
-1.18225
-1.18224
-1.18223
-1.18223
-1.18223
-1.18223
-1.18223
-1.28079
-1.28079
-1.2808
-1.28081
-1.28082
-1.28083
-1.28084
-1.28086
-1.28087
-1.28089
-1.2809
-1.28092
-1.28094
-1.28095
-1.28097
-1.28099
-1.281
-1.28102
-1.28104
-1.28105
-1.28106
-1.28107
-1.28108
-1.28108
-1.28108
-1.28108
-1.28107
-1.28106
-1.28104
-1.28103
-1.28101
-1.281
-1.28098
-1.28096
-1.28095
-1.28093
-1.28091
-1.2809
-1.28088
-1.28086
-1.28085
-1.28083
-1.28082
-1.28082
-1.28082
-1.28082
-1.28083
-1.28084
-1.28085
-1.28086
-1.28088
-1.28089
-1.2809
-1.28091
-1.28092
-1.28093
-1.28094
-1.28094
-1.28093
-1.28093
-1.28092
-1.28091
-1.2809
-1.28089
-1.28088
-1.28086
-1.28085
-1.28084
-1.28084
-1.28083
-1.28083
-1.28082
-1.28083
-1.28083
-1.28084
-1.28084
-1.28085
-1.28086
-1.28086
-1.28086
-1.28086
-1.28086
-1.28086
-1.28085
-1.28085
-1.28084
-1.28084
-1.28083
-1.28082
-1.28081
-1.28079
-1.28078
-1.28076
-1.28075
-1.28074
-1.28074
-1.28074
-1.28073
-1.28074
-1.28073
-1.37932
-1.37933
-1.37933
-1.37934
-1.37935
-1.37936
-1.37937
-1.37939
-1.3794
-1.37942
-1.37943
-1.37945
-1.37946
-1.37948
-1.37949
-1.37951
-1.37953
-1.37955
-1.37956
-1.37958
-1.37959
-1.3796
-1.37961
-1.37961
-1.37961
-1.3796
-1.37959
-1.37958
-1.37957
-1.37955
-1.37954
-1.37952
-1.3795
-1.37949
-1.37947
-1.37946
-1.37944
-1.37942
-1.37941
-1.37939
-1.37938
-1.37936
-1.37935
-1.37935
-1.37935
-1.37935
-1.37936
-1.37937
-1.37938
-1.37939
-1.3794
-1.37942
-1.37943
-1.37944
-1.37945
-1.37946
-1.37946
-1.37946
-1.37946
-1.37945
-1.37944
-1.37943
-1.37942
-1.37941
-1.3794
-1.37938
-1.37937
-1.37936
-1.37935
-1.37935
-1.37934
-1.37934
-1.37934
-1.37934
-1.37934
-1.37935
-1.37935
-1.37936
-1.37936
-1.37936
-1.37936
-1.37936
-1.37936
-1.37935
-1.37935
-1.37934
-1.37934
-1.37933
-1.37932
-1.37931
-1.3793
-1.37928
-1.37927
-1.37926
-1.37925
-1.37925
-1.37924
-1.37924
-1.37924
-1.37924
-1.47785
-1.47786
-1.47786
-1.47787
-1.47788
-1.47789
-1.4779
-1.47791
-1.47793
-1.47794
-1.47796
-1.47797
-1.47799
-1.478
-1.47802
-1.47803
-1.47805
-1.47807
-1.47808
-1.4781
-1.47811
-1.47812
-1.47813
-1.47813
-1.47813
-1.47813
-1.47812
-1.4781
-1.47809
-1.47807
-1.47806
-1.47804
-1.47802
-1.47801
-1.47799
-1.47798
-1.47796
-1.47795
-1.47793
-1.47792
-1.4779
-1.47789
-1.47788
-1.47788
-1.47788
-1.47788
-1.47788
-1.47789
-1.4779
-1.47792
-1.47793
-1.47794
-1.47795
-1.47797
-1.47797
-1.47798
-1.47798
-1.47798
-1.47798
-1.47797
-1.47796
-1.47795
-1.47794
-1.47793
-1.47791
-1.4779
-1.47789
-1.47788
-1.47787
-1.47786
-1.47786
-1.47785
-1.47785
-1.47785
-1.47785
-1.47785
-1.47785
-1.47786
-1.47786
-1.47786
-1.47786
-1.47786
-1.47786
-1.47785
-1.47785
-1.47785
-1.47784
-1.47784
-1.47783
-1.47782
-1.4778
-1.47779
-1.47778
-1.47777
-1.47776
-1.47775
-1.47775
-1.47775
-1.47775
-1.47775
-1.57638
-1.57638
-1.57639
-1.5764
-1.5764
-1.57641
-1.57643
-1.57644
-1.57645
-1.57646
-1.57648
-1.57649
-1.57651
-1.57652
-1.57654
-1.57656
-1.57657
-1.57659
-1.5766
-1.57662
-1.57663
-1.57664
-1.57665
-1.57665
-1.57665
-1.57664
-1.57663
-1.57662
-1.5766
-1.57659
-1.57657
-1.57656
-1.57654
-1.57652
-1.57651
-1.57649
-1.57648
-1.57647
-1.57645
-1.57644
-1.57643
-1.57641
-1.57641
-1.5764
-1.5764
-1.5764
-1.57641
-1.57642
-1.57643
-1.57644
-1.57645
-1.57647
-1.57648
-1.57649
-1.5765
-1.5765
-1.57651
-1.5765
-1.5765
-1.57649
-1.57648
-1.57647
-1.57646
-1.57644
-1.57643
-1.57641
-1.5764
-1.57639
-1.57638
-1.57638
-1.57637
-1.57636
-1.57636
-1.57636
-1.57636
-1.57636
-1.57636
-1.57636
-1.57636
-1.57636
-1.57636
-1.57636
-1.57636
-1.57635
-1.57635
-1.57635
-1.57634
-1.57634
-1.57633
-1.57632
-1.57631
-1.5763
-1.57629
-1.57628
-1.57627
-1.57626
-1.57626
-1.57626
-1.57626
-1.57626
-1.6749
-1.67491
-1.67491
-1.67492
-1.67493
-1.67494
-1.67495
-1.67496
-1.67497
-1.67499
-1.675
-1.67501
-1.67503
-1.67504
-1.67506
-1.67507
-1.67509
-1.67511
-1.67512
-1.67514
-1.67515
-1.67516
-1.67517
-1.67517
-1.67516
-1.67516
-1.67515
-1.67513
-1.67512
-1.6751
-1.67508
-1.67507
-1.67505
-1.67504
-1.67502
-1.67501
-1.67499
-1.67498
-1.67497
-1.67496
-1.67495
-1.67493
-1.67493
-1.67492
-1.67492
-1.67492
-1.67493
-1.67494
-1.67495
-1.67496
-1.67497
-1.67499
-1.675
-1.67501
-1.67502
-1.67502
-1.67503
-1.67502
-1.67502
-1.67501
-1.675
-1.67498
-1.67497
-1.67495
-1.67494
-1.67493
-1.67491
-1.6749
-1.67489
-1.67489
-1.67488
-1.67488
-1.67487
-1.67487
-1.67486
-1.67486
-1.67486
-1.67485
-1.67485
-1.67485
-1.67485
-1.67485
-1.67485
-1.67485
-1.67485
-1.67485
-1.67485
-1.67484
-1.67483
-1.67483
-1.67482
-1.67481
-1.6748
-1.67479
-1.67478
-1.67477
-1.67477
-1.67477
-1.67476
-1.67476
-1.77343
-1.77343
-1.77344
-1.77344
-1.77345
-1.77346
-1.77347
-1.77348
-1.77349
-1.77351
-1.77352
-1.77353
-1.77355
-1.77356
-1.77358
-1.77359
-1.77361
-1.77362
-1.77364
-1.77365
-1.77366
-1.77367
-1.77368
-1.77368
-1.77367
-1.77367
-1.77366
-1.77364
-1.77363
-1.77361
-1.77359
-1.77358
-1.77356
-1.77355
-1.77353
-1.77352
-1.77351
-1.77349
-1.77348
-1.77347
-1.77346
-1.77345
-1.77344
-1.77344
-1.77344
-1.77344
-1.77345
-1.77346
-1.77347
-1.77348
-1.77349
-1.77351
-1.77352
-1.77353
-1.77354
-1.77354
-1.77354
-1.77354
-1.77353
-1.77352
-1.77351
-1.77349
-1.77348
-1.77347
-1.77345
-1.77344
-1.77343
-1.77341
-1.77341
-1.7734
-1.77339
-1.77339
-1.77338
-1.77338
-1.77337
-1.77337
-1.77336
-1.77335
-1.77335
-1.77335
-1.77335
-1.77335
-1.77335
-1.77335
-1.77335
-1.77335
-1.77335
-1.77334
-1.77334
-1.77333
-1.77333
-1.77332
-1.77331
-1.7733
-1.77329
-1.77328
-1.77328
-1.77328
-1.77328
-1.77328
-1.87195
-1.87196
-1.87196
-1.87197
-1.87197
-1.87198
-1.87199
-1.872
-1.87201
-1.87202
-1.87204
-1.87205
-1.87206
-1.87208
-1.87209
-1.8721
-1.87212
-1.87213
-1.87215
-1.87216
-1.87217
-1.87218
-1.87218
-1.87218
-1.87218
-1.87217
-1.87216
-1.87215
-1.87213
-1.87212
-1.8721
-1.87208
-1.87207
-1.87205
-1.87204
-1.87203
-1.87201
-1.872
-1.87199
-1.87198
-1.87197
-1.87196
-1.87195
-1.87195
-1.87195
-1.87196
-1.87196
-1.87197
-1.87198
-1.872
-1.87201
-1.87202
-1.87204
-1.87205
-1.87205
-1.87206
-1.87206
-1.87205
-1.87204
-1.87203
-1.87202
-1.872
-1.87199
-1.87197
-1.87196
-1.87195
-1.87193
-1.87192
-1.87191
-1.87191
-1.8719
-1.8719
-1.87189
-1.87189
-1.87188
-1.87187
-1.87186
-1.87185
-1.87185
-1.87185
-1.87185
-1.87185
-1.87185
-1.87185
-1.87185
-1.87185
-1.87185
-1.87185
-1.87185
-1.87184
-1.87183
-1.87183
-1.87182
-1.87181
-1.87181
-1.8718
-1.87179
-1.87179
-1.87179
-1.87179
-1.97047
-1.97048
-1.97048
-1.97048
-1.97049
-1.9705
-1.97051
-1.97052
-1.97053
-1.97054
-1.97055
-1.97056
-1.97058
-1.97059
-1.9706
-1.97062
-1.97063
-1.97064
-1.97065
-1.97066
-1.97067
-1.97068
-1.97069
-1.97069
-1.97068
-1.97067
-1.97066
-1.97065
-1.97063
-1.97062
-1.9706
-1.97059
-1.97057
-1.97056
-1.97054
-1.97053
-1.97052
-1.97051
-1.9705
-1.97049
-1.97048
-1.97047
-1.97046
-1.97046
-1.97046
-1.97047
-1.97048
-1.97048
-1.9705
-1.97051
-1.97052
-1.97054
-1.97055
-1.97056
-1.97057
-1.97057
-1.97057
-1.97056
-1.97055
-1.97054
-1.97052
-1.97051
-1.97049
-1.97048
-1.97047
-1.97045
-1.97044
-1.97043
-1.97042
-1.97042
-1.97041
-1.97041
-1.9704
-1.97039
-1.97039
-1.97038
-1.97037
-1.97036
-1.97035
-1.97035
-1.97035
-1.97035
-1.97035
-1.97035
-1.97035
-1.97035
-1.97035
-1.97035
-1.97035
-1.97035
-1.97035
-1.97034
-1.97034
-1.97033
-1.97032
-1.97032
-1.97031
-1.97031
-1.9703
-1.9703
-2.06899
-2.06899
-2.069
-2.069
-2.06901
-2.06902
-2.06902
-2.06903
-2.06904
-2.06905
-2.06907
-2.06908
-2.06909
-2.0691
-2.06911
-2.06913
-2.06914
-2.06915
-2.06916
-2.06917
-2.06918
-2.06918
-2.06919
-2.06919
-2.06918
-2.06917
-2.06916
-2.06915
-2.06913
-2.06912
-2.0691
-2.06909
-2.06907
-2.06906
-2.06904
-2.06903
-2.06902
-2.06901
-2.069
-2.06899
-2.06898
-2.06898
-2.06897
-2.06897
-2.06897
-2.06898
-2.06898
-2.06899
-2.06901
-2.06902
-2.06903
-2.06905
-2.06906
-2.06906
-2.06907
-2.06907
-2.06907
-2.06906
-2.06905
-2.06904
-2.06903
-2.06901
-2.069
-2.06898
-2.06897
-2.06896
-2.06895
-2.06894
-2.06893
-2.06892
-2.06892
-2.06891
-2.06891
-2.0689
-2.06889
-2.06888
-2.06887
-2.06886
-2.06885
-2.06885
-2.06885
-2.06885
-2.06885
-2.06885
-2.06886
-2.06886
-2.06886
-2.06886
-2.06886
-2.06886
-2.06886
-2.06885
-2.06885
-2.06885
-2.06884
-2.06883
-2.06883
-2.06882
-2.06882
-2.06882
-2.1675
-2.16751
-2.16751
-2.16752
-2.16752
-2.16753
-2.16754
-2.16755
-2.16756
-2.16757
-2.16758
-2.16759
-2.1676
-2.16761
-2.16762
-2.16763
-2.16764
-2.16765
-2.16766
-2.16767
-2.16768
-2.16768
-2.16769
-2.16768
-2.16768
-2.16767
-2.16766
-2.16764
-2.16763
-2.16761
-2.1676
-2.16758
-2.16757
-2.16755
-2.16754
-2.16753
-2.16752
-2.16751
-2.1675
-2.16749
-2.16748
-2.16748
-2.16747
-2.16747
-2.16748
-2.16748
-2.16749
-2.1675
-2.16751
-2.16752
-2.16754
-2.16755
-2.16756
-2.16756
-2.16757
-2.16757
-2.16757
-2.16756
-2.16755
-2.16754
-2.16753
-2.16751
-2.1675
-2.16749
-2.16747
-2.16746
-2.16745
-2.16744
-2.16744
-2.16743
-2.16743
-2.16742
-2.16742
-2.16741
-2.1674
-2.16739
-2.16737
-2.16736
-2.16735
-2.16735
-2.16735
-2.16735
-2.16736
-2.16736
-2.16736
-2.16736
-2.16736
-2.16736
-2.16737
-2.16737
-2.16737
-2.16737
-2.16737
-2.16736
-2.16736
-2.16735
-2.16735
-2.16734
-2.16734
-2.16734
-2.26602
-2.26602
-2.26602
-2.26603
-2.26603
-2.26604
-2.26605
-2.26606
-2.26607
-2.26608
-2.26609
-2.2661
-2.26611
-2.26612
-2.26613
-2.26614
-2.26615
-2.26616
-2.26617
-2.26617
-2.26618
-2.26618
-2.26618
-2.26618
-2.26617
-2.26616
-2.26615
-2.26614
-2.26612
-2.26611
-2.26609
-2.26608
-2.26606
-2.26605
-2.26604
-2.26603
-2.26602
-2.26601
-2.266
-2.26599
-2.26598
-2.26598
-2.26597
-2.26597
-2.26598
-2.26598
-2.26599
-2.266
-2.26601
-2.26602
-2.26604
-2.26605
-2.26606
-2.26606
-2.26606
-2.26606
-2.26606
-2.26605
-2.26605
-2.26604
-2.26602
-2.26601
-2.266
-2.26599
-2.26598
-2.26597
-2.26596
-2.26595
-2.26594
-2.26594
-2.26594
-2.26593
-2.26593
-2.26592
-2.26591
-2.26589
-2.26588
-2.26586
-2.26586
-2.26586
-2.26586
-2.26586
-2.26586
-2.26586
-2.26586
-2.26587
-2.26587
-2.26587
-2.26588
-2.26588
-2.26588
-2.26588
-2.26588
-2.26588
-2.26588
-2.26587
-2.26587
-2.26586
-2.26586
-2.26586
-2.36453
-2.36453
-2.36453
-2.36454
-2.36454
-2.36455
-2.36456
-2.36457
-2.36457
-2.36458
-2.36459
-2.36461
-2.36462
-2.36463
-2.36464
-2.36465
-2.36465
-2.36466
-2.36467
-2.36467
-2.36468
-2.36468
-2.36468
-2.36467
-2.36467
-2.36466
-2.36464
-2.36463
-2.36462
-2.3646
-2.36459
-2.36457
-2.36456
-2.36454
-2.36453
-2.36452
-2.36451
-2.3645
-2.36449
-2.36449
-2.36448
-2.36448
-2.36447
-2.36447
-2.36448
-2.36448
-2.36449
-2.3645
-2.36451
-2.36452
-2.36453
-2.36454
-2.36455
-2.36455
-2.36456
-2.36456
-2.36455
-2.36455
-2.36454
-2.36453
-2.36452
-2.36451
-2.3645
-2.36449
-2.36448
-2.36447
-2.36446
-2.36446
-2.36445
-2.36445
-2.36444
-2.36444
-2.36444
-2.36443
-2.36441
-2.36439
-2.36438
-2.36437
-2.36436
-2.36436
-2.36436
-2.36436
-2.36437
-2.36437
-2.36437
-2.36437
-2.36438
-2.36438
-2.36438
-2.36439
-2.36439
-2.3644
-2.3644
-2.3644
-2.3644
-2.36439
-2.36439
-2.36438
-2.36438
-2.36438
-2.46303
-2.46303
-2.46304
-2.46304
-2.46305
-2.46305
-2.46306
-2.46307
-2.46308
-2.46309
-2.4631
-2.46311
-2.46312
-2.46313
-2.46314
-2.46315
-2.46316
-2.46316
-2.46317
-2.46317
-2.46318
-2.46318
-2.46317
-2.46317
-2.46316
-2.46315
-2.46313
-2.46312
-2.46311
-2.46309
-2.46308
-2.46306
-2.46305
-2.46304
-2.46302
-2.46301
-2.463
-2.46299
-2.46299
-2.46298
-2.46297
-2.46297
-2.46297
-2.46297
-2.46297
-2.46298
-2.46299
-2.463
-2.46301
-2.46302
-2.46303
-2.46304
-2.46304
-2.46305
-2.46305
-2.46305
-2.46305
-2.46304
-2.46304
-2.46303
-2.46302
-2.46301
-2.463
-2.46299
-2.46298
-2.46297
-2.46297
-2.46296
-2.46296
-2.46295
-2.46295
-2.46295
-2.46294
-2.46293
-2.46291
-2.46289
-2.46288
-2.46287
-2.46286
-2.46286
-2.46287
-2.46287
-2.46287
-2.46287
-2.46288
-2.46288
-2.46288
-2.46289
-2.46289
-2.4629
-2.4629
-2.46291
-2.46291
-2.46292
-2.46292
-2.46291
-2.46291
-2.4629
-2.4629
-2.46289
-2.56153
-2.56154
-2.56154
-2.56155
-2.56155
-2.56156
-2.56157
-2.56157
-2.56158
-2.56159
-2.5616
-2.56161
-2.56162
-2.56163
-2.56164
-2.56165
-2.56166
-2.56166
-2.56167
-2.56167
-2.56167
-2.56167
-2.56166
-2.56166
-2.56165
-2.56164
-2.56162
-2.56161
-2.56159
-2.56158
-2.56157
-2.56155
-2.56154
-2.56153
-2.56152
-2.56151
-2.5615
-2.56149
-2.56148
-2.56147
-2.56147
-2.56147
-2.56146
-2.56147
-2.56147
-2.56148
-2.56148
-2.56149
-2.5615
-2.56151
-2.56152
-2.56153
-2.56154
-2.56154
-2.56154
-2.56154
-2.56154
-2.56154
-2.56153
-2.56152
-2.56151
-2.56151
-2.5615
-2.56149
-2.56148
-2.56148
-2.56147
-2.56147
-2.56146
-2.56146
-2.56146
-2.56145
-2.56145
-2.56143
-2.56141
-2.56139
-2.56138
-2.56137
-2.56137
-2.56137
-2.56137
-2.56137
-2.56138
-2.56138
-2.56138
-2.56139
-2.56139
-2.56139
-2.5614
-2.56141
-2.56141
-2.56142
-2.56143
-2.56143
-2.56143
-2.56143
-2.56142
-2.56142
-2.56141
-2.56141
-2.66003
-2.66003
-2.66004
-2.66005
-2.66005
-2.66006
-2.66007
-2.66008
-2.66009
-2.6601
-2.66011
-2.66012
-2.66012
-2.66013
-2.66014
-2.66015
-2.66016
-2.66016
-2.66016
-2.66016
-2.66016
-2.66016
-2.66015
-2.66015
-2.66013
-2.66012
-2.66011
-2.6601
-2.66008
-2.66007
-2.66005
-2.66004
-2.66003
-2.66002
-2.66001
-2.66
-2.65999
-2.65998
-2.65997
-2.65997
-2.65996
-2.65996
-2.65996
-2.65996
-2.65996
-2.65997
-2.65998
-2.65999
-2.66
-2.66001
-2.66002
-2.66003
-2.66003
-2.66003
-2.66004
-2.66004
-2.66003
-2.66003
-2.66003
-2.66002
-2.66001
-2.66001
-2.66
-2.65999
-2.65999
-2.65998
-2.65998
-2.65997
-2.65997
-2.65997
-2.65996
-2.65996
-2.65995
-2.65993
-2.65991
-2.65989
-2.65988
-2.65988
-2.65987
-2.65987
-2.65988
-2.65988
-2.65988
-2.65989
-2.65989
-2.65989
-2.65989
-2.6599
-2.6599
-2.65991
-2.65992
-2.65993
-2.65993
-2.65994
-2.65994
-2.65994
-2.65993
-2.65993
-2.65992
-2.65992
-2.75851
-2.75852
-2.75853
-2.75854
-2.75855
-2.75856
-2.75856
-2.75857
-2.75858
-2.75859
-2.7586
-2.75861
-2.75862
-2.75863
-2.75864
-2.75865
-2.75865
-2.75866
-2.75866
-2.75866
-2.75865
-2.75865
-2.75864
-2.75863
-2.75862
-2.75861
-2.75859
-2.75858
-2.75857
-2.75855
-2.75854
-2.75853
-2.75852
-2.75851
-2.7585
-2.75849
-2.75848
-2.75847
-2.75846
-2.75846
-2.75845
-2.75845
-2.75845
-2.75845
-2.75846
-2.75846
-2.75847
-2.75848
-2.75849
-2.7585
-2.75851
-2.75852
-2.75852
-2.75853
-2.75853
-2.75853
-2.75853
-2.75853
-2.75852
-2.75852
-2.75851
-2.75851
-2.7585
-2.75849
-2.75849
-2.75848
-2.75848
-2.75848
-2.75847
-2.75847
-2.75847
-2.75846
-2.75844
-2.75842
-2.75841
-2.75839
-2.75838
-2.75838
-2.75838
-2.75838
-2.75838
-2.75839
-2.75839
-2.75839
-2.7584
-2.7584
-2.7584
-2.7584
-2.75841
-2.75841
-2.75842
-2.75843
-2.75844
-2.75844
-2.75845
-2.75845
-2.75844
-2.75844
-2.75843
-2.75843
-2.85699
-2.857
-2.85702
-2.85703
-2.85704
-2.85705
-2.85706
-2.85707
-2.85708
-2.85709
-2.8571
-2.85711
-2.85712
-2.85713
-2.85714
-2.85714
-2.85715
-2.85715
-2.85715
-2.85715
-2.85714
-2.85713
-2.85713
-2.85712
-2.8571
-2.85709
-2.85708
-2.85707
-2.85705
-2.85704
-2.85703
-2.85702
-2.857
-2.85699
-2.85699
-2.85698
-2.85697
-2.85696
-2.85695
-2.85695
-2.85695
-2.85694
-2.85694
-2.85694
-2.85695
-2.85696
-2.85696
-2.85697
-2.85698
-2.85699
-2.857
-2.85701
-2.85702
-2.85702
-2.85703
-2.85703
-2.85703
-2.85702
-2.85702
-2.85702
-2.85701
-2.85701
-2.857
-2.857
-2.85699
-2.85699
-2.85698
-2.85698
-2.85698
-2.85697
-2.85696
-2.85695
-2.85694
-2.85692
-2.8569
-2.85689
-2.85688
-2.85688
-2.85688
-2.85688
-2.85689
-2.85689
-2.8569
-2.8569
-2.8569
-2.8569
-2.8569
-2.85691
-2.85691
-2.85692
-2.85692
-2.85693
-2.85694
-2.85695
-2.85695
-2.85695
-2.85694
-2.85694
-2.85694
-2.85694
-2.95546
-2.95547
-2.95549
-2.95551
-2.95552
-2.95554
-2.95555
-2.95556
-2.95557
-2.95559
-2.9556
-2.95561
-2.95562
-2.95562
-2.95563
-2.95563
-2.95564
-2.95564
-2.95563
-2.95563
-2.95562
-2.95562
-2.95561
-2.9556
-2.95559
-2.95557
-2.95556
-2.95555
-2.95554
-2.95553
-2.95551
-2.9555
-2.95549
-2.95548
-2.95547
-2.95547
-2.95546
-2.95545
-2.95545
-2.95544
-2.95544
-2.95544
-2.95543
-2.95544
-2.95544
-2.95545
-2.95546
-2.95547
-2.95548
-2.95549
-2.9555
-2.95551
-2.95551
-2.95552
-2.95552
-2.95552
-2.95552
-2.95552
-2.95552
-2.95552
-2.95551
-2.95551
-2.9555
-2.9555
-2.95549
-2.95549
-2.95549
-2.95548
-2.95548
-2.95547
-2.95546
-2.95544
-2.95543
-2.95541
-2.9554
-2.95539
-2.95539
-2.95539
-2.95539
-2.95539
-2.95539
-2.9554
-2.9554
-2.9554
-2.95541
-2.95541
-2.95541
-2.95541
-2.95541
-2.95542
-2.95542
-2.95543
-2.95544
-2.95544
-2.95545
-2.95545
-2.95545
-2.95544
-2.95544
-2.95544
-3.05391
-3.05393
-3.05395
-3.05398
-3.054
-3.05402
-3.05403
-3.05405