/*--------------------------------*- C++ -*----------------------------------*\
| =========                 |                                                 |
| \\      /  F ield         | OpenFOAM: The Open Source CFD Toolbox           |
|  \\    /   O peration     | Version:  4.1                                   |
|   \\  /    A nd           | Web:      www.OpenFOAM.org                      |
|    \\/     M anipulation  |                                                 |
\*---------------------------------------------------------------------------*/
FoamFile
{
    version     2.0;
    format      ascii;
    class       surfaceScalarField;
    location    "180";
    object      phi;
}
// * * * * * * * * * * * * * * * * * * * * * * * * * * * * * * * * * * * * * //

dimensions      [0 3 -1 0 0 0 0];

internalField   nonuniform List<scalar> 
760
(
-9.41759e-08
9.41759e-08
-3.5543e-08
-5.86329e-08
4.14208e-09
-3.9685e-08
1.08154e-09
3.06054e-09
-5.98907e-10
1.68044e-09
-6.97809e-10
9.89019e-11
2.46291e-10
-9.44103e-10
1.5227e-09
-1.27641e-09
-1.02145e-09
2.54416e-09
-2.9025e-09
1.88104e-09
-1.52577e-09
-1.37672e-09
-4.76485e-10
-1.04929e-09
-1.66816e-10
-3.09669e-10
9.57e-11
-2.62517e-10
1.45106e-10
-4.94078e-11
-3.82498e-10
5.27603e-10
8.87136e-11
-4.71213e-10
2.67352e-10
-1.78641e-10
-9.30724e-10
1.19807e-09
-9.30728e-10
-1.84262e-09
9.60185e-08
-1.23221e-08
-4.81534e-08
-1.74943e-08
-3.45129e-08
-9.47455e-09
-4.95916e-09
-4.69091e-09
-3.1032e-09
-2.48502e-09
-2.107e-09
-1.37728e-09
-2.05184e-09
-8.56553e-10
-1.79715e-09
-7.44366e-10
2.43197e-09
-5.70256e-10
1.70693e-09
-5.85335e-10
-1.36165e-09
-5.94866e-10
-1.03976e-09
-4.17242e-10
-4.87297e-10
-3.00702e-10
-3.79062e-10
-1.3545e-10
-2.14664e-10
-6.39451e-11
4.56096e-10
-7.53869e-11
-4.59773e-10
6.59502e-11
-3.19976e-10
1.70487e-10
1.09354e-09
-7.6025e-10
4.95304e-08
4.64881e-08
1.92992e-08
-1.79221e-08
-1.48955e-09
-1.37242e-08
-1.16457e-09
-5.28415e-09
-8.22024e-10
-3.44575e-09
-8.07242e-10
-2.12179e-09
-1.27359e-09
-1.58549e-09
-1.83674e-09
-1.234e-09
-2.35893e-10
8.31116e-10
8.99639e-10
5.714e-10
2.75087e-10
-7.37099e-10
-1.57257e-10
-6.07419e-10
-2.36841e-10
-4.07717e-10
-3.12089e-10
-3.03818e-10
-3.12896e-10
-2.13862e-10
6.64551e-12
1.36549e-10
-2.10014e-10
-2.43119e-10
-3.36916e-10
-1.9308e-10
3.77878e-10
3.78755e-10
-3.82373e-10
2.49814e-08
2.15067e-08
1.20089e-08
-4.94958e-09
2.80869e-09
-4.524e-09
8.45075e-10
-3.32053e-09
-1.44198e-10
-2.45647e-09
-4.60898e-10
-1.80508e-09
-7.42149e-10
-1.30424e-09
-1.00368e-09
-9.72465e-10
-1.76871e-10
4.31208e-12
4.0082e-10
-6.28765e-12
1.3471e-10
-4.70985e-10
-6.46533e-11
-4.08053e-10
-1.41854e-10
-3.30514e-10
-1.98527e-10
-2.47142e-10
-2.21508e-10
-1.90877e-10
-5.46787e-11
-3.0278e-11
-1.26495e-10
-1.71303e-10
-1.806e-10
-1.38978e-10
1.53485e-10
4.46725e-11
-2.28886e-10
1.06585e-08
1.08482e-08
6.43819e-09
-7.29236e-10
3.15156e-09
-1.23737e-09
1.60802e-09
-1.77699e-09
6.80146e-10
-1.5286e-09
1.56653e-10
-1.28158e-09
-1.43026e-10
-1.00456e-09
-3.33259e-10
-7.8223e-10
-5.57133e-11
-2.73233e-10
1.6827e-10
-2.3027e-10
7.05825e-11
-3.73295e-10
-1.61833e-11
-3.21286e-10
-8.22868e-11
-2.64409e-10
-1.28971e-10
-2.00457e-10
-1.54234e-10
-1.65612e-10
-9.34091e-11
-9.11003e-11
-9.37424e-11
-1.70968e-10
-7.76417e-11
-1.5508e-10
6.51143e-11
-9.80809e-11
-1.6377e-10
5.21206e-09
5.63609e-09
3.77432e-09
7.08507e-10
2.50818e-09
2.87664e-11
1.49528e-09
-7.64097e-10
8.33389e-10
-8.66708e-10
4.02276e-10
-8.50477e-10
1.37097e-10
-7.39378e-10
-3.29262e-11
-6.12207e-10
4.27031e-11
-3.48863e-10
1.18487e-10
-3.06055e-10
5.73464e-11
-3.12156e-10
2.74583e-12
-2.66686e-10
-4.46313e-11
-2.17034e-10
-7.47381e-11
-1.70352e-10
-9.00857e-11
-1.50267e-10
-6.76914e-11
-1.13497e-10
-5.17291e-11
-1.86929e-10
-2.42499e-11
-1.82558e-10
4.05671e-11
-1.62895e-10
-1.23202e-10
2.46681e-09
3.16927e-09
2.20597e-09
9.69349e-10
1.8184e-09
4.16337e-10
1.26633e-09
-2.12028e-10
8.13456e-10
-4.13834e-10
5.18614e-10
-5.55633e-10
2.83011e-10
-5.03776e-10
1.22248e-10
-4.51445e-10
1.17055e-10
-3.4367e-10
1.14239e-10
-3.0324e-10
6.47283e-11
-2.62646e-10
2.17004e-11
-2.23658e-10
-1.13123e-11
-1.84021e-10
-3.47494e-11
-1.46914e-10
-3.52001e-11
-1.49817e-10
-1.51438e-11
-1.33555e-10
3.90005e-13
-2.02462e-10
1.37705e-11
-1.95937e-10
2.86618e-11
-1.77782e-10
-9.45386e-11
1.2889e-09
1.88036e-09
1.34818e-09
9.10083e-10
1.25279e-09
5.11729e-10
9.79099e-10
6.16628e-11
7.26272e-10
-1.6101e-10
4.94603e-10
-3.23959e-10
3.22933e-10
-3.32108e-10
2.06897e-10
-3.3541e-10
1.64338e-10
-3.0111e-10
1.26134e-10
-2.65035e-10
8.46282e-11
-2.21141e-10
4.73595e-11
-1.8639e-10
2.82623e-11
-1.64925e-10
6.59383e-12
-1.25247e-10
3.0112e-12
-1.46233e-10
2.04143e-11
-1.50958e-10
3.31731e-11
-2.15218e-10
3.28828e-11
-1.95644e-10
1.88103e-11
-1.63707e-10
-7.57281e-11
6.98291e-10
1.18207e-09
8.34944e-10
7.7343e-10
8.44219e-10
5.02451e-10
7.28434e-10
1.77448e-10
6.16989e-10
-4.95634e-11
4.39896e-10
-1.46867e-10
3.32648e-10
-2.2486e-10
2.5553e-10
-2.58291e-10
1.92085e-10
-2.37664e-10
1.39115e-10
-2.12063e-10
1.01204e-10
-1.83227e-10
7.05494e-11
-1.55733e-10
5.03544e-11
-1.44727e-10
3.76265e-11
-1.1252e-10
3.33368e-11
-1.41943e-10
4.46397e-11
-1.6226e-10
4.48929e-11
-2.15468e-10
3.03948e-11
-1.81144e-10
6.52071e-12
-1.39832e-10
-6.92078e-11
3.90022e-10
7.92052e-10
5.19049e-10
6.44403e-10
5.88739e-10
4.32761e-10
5.61957e-10
2.04228e-10
4.8731e-10
2.50881e-11
3.93942e-10
-5.35019e-11
3.28942e-10
-1.59857e-10
2.64327e-10
-1.93674e-10
2.0394e-10
-1.77277e-10
1.58447e-10
-1.6657e-10
1.2184e-10
-1.46619e-10
9.07815e-11
-1.24673e-10
6.17604e-11
-1.15704e-10
5.31391e-11
-1.03898e-10
5.40926e-11
-1.42895e-10
5.5526e-11
-1.63692e-10
3.99517e-11
-1.99891e-10
2.02976e-11
-1.61489e-10
1.54669e-12
-1.21081e-10
-6.76615e-11
2.27341e-10
5.64708e-10
3.43124e-10
5.28615e-10
4.17767e-10
3.58116e-10
4.41464e-10
1.80531e-10
3.85515e-10
8.10352e-11
3.66197e-10
-3.41847e-11
3.13075e-10
-1.06733e-10
2.46144e-10
-1.26741e-10
1.95802e-10
-1.26934e-10
1.58184e-10
-1.2895e-10
1.38006e-10
-1.26441e-10
1.06052e-10
-9.27193e-11
7.94444e-11
-8.90957e-11
6.67802e-11
-9.12339e-11
6.2783e-11
-1.38897e-10
5.58849e-11
-1.56793e-10
3.56231e-11
-1.79627e-10
1.90885e-11
-1.44954e-10
4.32385e-12
-1.06317e-10
-6.33378e-11
1.39308e-10
4.254e-10
2.56407e-10
4.11514e-10
3.21824e-10
2.92697e-10
3.32159e-10
1.70199e-10
3.25934e-10
8.72591e-11
3.23246e-10
-3.14932e-11
2.69578e-10
-5.30656e-11
2.19611e-10
-7.67755e-11
1.94042e-10
-1.01367e-10
1.56013e-10
-9.09204e-11
1.38183e-10
-1.08609e-10
1.14458e-10
-6.89957e-11
9.24898e-11
-6.71294e-11
7.97425e-11
-7.84885e-11
7.32149e-11
-1.32369e-10
6.34427e-11
-1.47021e-10
4.20083e-11
-1.58192e-10
2.47114e-11
-1.27656e-10
8.2426e-12
-8.98488e-11
-5.50953e-11
9.21799e-11
3.33217e-10
1.82487e-10
3.21206e-10
2.49726e-10
2.25457e-10
2.56517e-10
1.63405e-10
2.86817e-10
5.69585e-11
2.63181e-10
-7.85693e-12
2.21792e-10
-1.16787e-11
1.93754e-10
-4.87379e-11
1.84462e-10
-9.20731e-11
1.59723e-10
-6.61834e-11
1.28798e-10
-7.76846e-11
1.15889e-10
-5.60892e-11
1.05684e-10
-5.69277e-11
9.90824e-11
-7.1889e-11
8.91147e-11
-1.22402e-10
7.48441e-11
-1.32751e-10
5.07877e-11
-1.34136e-10
2.99732e-11
-1.06842e-10
1.04323e-11
-7.03079e-11
-4.46629e-11
7.49685e-11
2.58246e-10
1.43537e-10
2.52635e-10
1.91596e-10
1.77399e-10
2.31144e-10
1.23854e-10
2.44538e-10
4.35673e-11
2.08062e-10
2.86197e-11
1.94515e-10
1.86676e-12
1.83681e-10
-3.79049e-11
1.56995e-10
-6.5385e-11
1.45728e-10
-5.49175e-11
1.22448e-10
-5.44049e-11
1.21172e-10
-5.48152e-11
1.21564e-10
-5.73213e-11
1.16604e-10
-6.69309e-11
1.00124e-10
-1.05923e-10
8.06708e-11
-1.13297e-10
5.5879e-11
-1.09344e-10
3.28815e-11
-8.38439e-11
1.10035e-11
-4.84297e-11
-3.36594e-11
5.74708e-11
2.00776e-10
1.25801e-10
1.84305e-10
1.6152e-10
1.41679e-10
2.04096e-10
8.12803e-11
1.86893e-10
6.07692e-11
1.64183e-10
5.13286e-11
1.70673e-10
-4.62225e-12
1.72096e-10
-3.93263e-11
1.37194e-10
-3.04821e-11
1.29593e-10
-4.73159e-11
1.2194e-10
-4.67526e-11
1.28512e-10
-6.13872e-11
1.29648e-10
-5.84587e-11
1.21552e-10
-5.88371e-11
1.02266e-10
-8.66369e-11
8.18423e-11
-9.28743e-11
5.73435e-11
-8.48447e-11
3.19321e-11
-5.84317e-11
8.78972e-12
-2.5287e-11
-2.48699e-11
5.17808e-11
1.48994e-10
9.80424e-11
1.38044e-10
1.40714e-10
9.90057e-11
1.54896e-10
6.71004e-11
1.4615e-10
6.9512e-11
1.57376e-10
4.01015e-11
1.5936e-10
-6.60325e-12
1.51133e-10
-3.10977e-11
1.25292e-10
-4.64161e-12
1.21089e-10
-4.31123e-11
1.22139e-10
-4.78025e-11
1.30506e-10
-6.97532e-11
1.2949e-10
-5.74441e-11
1.17821e-10
-4.71705e-11
9.77501e-11
-6.65662e-11
7.737e-11
-7.24937e-11
5.24608e-11
-5.99347e-11
2.55762e-11
-3.15464e-11
3.80996e-12
-3.52103e-12
-2.10608e-11
5.12443e-11
9.77496e-11
7.70651e-11
1.12222e-10
1.11116e-10
6.49563e-11
1.12462e-10
6.57525e-11
1.35223e-10
4.67498e-11
1.62972e-10
1.23534e-11
1.5038e-10
5.98935e-12
1.2475e-10
-5.46717e-12
1.15833e-10
4.27469e-12
1.22442e-10
-4.97204e-11
1.25636e-10
-5.09963e-11
1.24049e-10
-6.81654e-11
1.1969e-10
-5.30852e-11
1.06956e-10
-3.44373e-11
8.54145e-11
-4.50252e-11
6.31648e-11
-5.02432e-11
3.89382e-11
-3.57074e-11
1.53638e-11
-7.97222e-12
-1.03745e-12
1.28789e-11
-2.20996e-11
3.71929e-11
6.05578e-11
7.20598e-11
7.73531e-11
8.73822e-11
4.96345e-11
1.0401e-10
4.91235e-11
1.35379e-10
1.53823e-11
1.48913e-10
-1.1797e-12
1.36875e-10
1.80248e-11
1.1651e-10
1.48969e-11
1.19277e-10
1.50728e-12
1.2749e-10
-5.79303e-11
1.26722e-10
-5.02271e-11
1.09441e-10
-5.08841e-11
9.45983e-11
-3.82416e-11
8.19604e-11
-2.18e-11
6.25109e-11
-2.55758e-11
4.06181e-11
-2.835e-11
2.09065e-11
-1.59957e-11
5.25497e-12
7.67818e-12
-2.47297e-12
2.06047e-11
-2.45741e-11
3.14907e-11
2.90662e-11
7.13992e-11
3.7444e-11
8.85631e-11
3.24688e-11
1.16461e-10
2.12253e-11
1.31122e-10
7.22316e-13
1.27847e-10
2.09544e-12
1.30908e-10
1.49617e-11
1.34335e-10
1.14693e-11
1.38246e-10
-2.4034e-12
1.22397e-10
-4.20763e-11
1.05905e-10
-3.3733e-11
7.90726e-11
-2.40515e-11
5.78389e-11
-1.70079e-11
4.5954e-11
-9.91534e-12
3.1617e-11
-1.12388e-11
1.47342e-11
-1.14672e-11
2.78007e-12
-4.04228e-12
-8.98744e-14
1.05462e-11
3.98357e-12
1.65284e-11
-2.05923e-11
2.90678e-11
6.65119e-11
9.8981e-11
1.20207e-10
1.20929e-10
1.23023e-10
1.37984e-10
1.49455e-10
1.47053e-10
1.04979e-10
7.12464e-11
4.71944e-11
3.0186e-11
2.02705e-11
9.03177e-12
-2.43574e-12
-6.47903e-12
4.06559e-12
2.05923e-11
)
;

boundaryField
{
    floor
    {
        type            calculated;
        value           uniform 0;
    }
    ceiling
    {
        type            calculated;
        value           uniform 0;
    }
    fixedWalls
    {
        type            calculated;
        value           uniform 0;
    }
    frontAndBack
    {
        type            empty;
        value           nonuniform 0();
    }
}


// ************************************************************************* //
