/*--------------------------------*- C++ -*----------------------------------*\
| =========                 |                                                 |
| \\      /  F ield         | OpenFOAM: The Open Source CFD Toolbox           |
|  \\    /   O peration     | Version:  4.1                                   |
|   \\  /    A nd           | Web:      www.OpenFOAM.org                      |
|    \\/     M anipulation  |                                                 |
\*---------------------------------------------------------------------------*/
FoamFile
{
    version     2.0;
    format      ascii;
    class       volScalarField;
    location    "180";
    object      T;
}
// * * * * * * * * * * * * * * * * * * * * * * * * * * * * * * * * * * * * * //

dimensions      [0 0 0 1 0 0 0];

internalField   nonuniform List<scalar> 
5000
(
283.548
283.247
283.051
282.887
282.742
282.61
282.491
282.382
282.284
282.193
282.111
282.035
281.965
281.901
281.841
281.785
281.733
281.684
281.639
281.595
281.554
281.514
281.475
281.436
281.396
281.354
281.313
281.271
281.229
281.188
281.148
281.108
281.071
281.035
281.001
280.97
280.94
280.912
280.885
280.862
280.852
280.852
280.872
280.909
280.951
280.994
281.038
281.081
281.124
281.167
281.212
281.26
281.313
281.374
281.444
281.526
281.614
281.705
281.799
281.897
282.002
282.113
282.234
282.366
282.513
282.678
282.867
283.086
283.358
283.647
282.497
282.186
281.996
281.85
281.728
281.623
281.529
281.442
281.361
281.283
281.207
281.132
281.062
281.003
280.954
280.913
280.877
280.847
280.821
280.801
280.817
280.853
280.906
280.98
281.077
281.206
281.332
281.465
281.625
281.878
282.67
281.963
281.627
281.41
281.235
281.082
280.944
280.819
280.707
280.608
280.521
280.448
280.386
280.336
280.296
280.265
280.243
280.226
280.215
280.207
280.201
280.198
280.195
280.195
280.195
280.197
280.199
280.201
280.204
280.206
280.209
280.211
280.214
280.216
280.219
280.221
280.223
280.225
280.227
280.229
280.23
280.231
280.236
280.24
280.244
280.247
280.249
280.251
280.253
280.254
280.256
280.256
280.257
280.256
280.255
280.254
280.262
280.286
280.328
280.388
280.469
280.569
280.69
280.833
280.998
281.191
281.423
281.72
282.164
282.851
282.434
281.405
281.092
280.901
280.762
280.654
280.569
280.504
280.456
280.424
280.409
280.409
280.417
280.423
280.427
280.429
280.429
280.427
280.424
280.42
280.414
280.405
280.399
280.393
280.384
280.381
280.463
280.643
280.956
281.475
282.239
281.414
281.047
280.833
280.681
280.562
280.467
280.39
280.329
280.282
280.248
280.224
280.209
280.199
280.194
280.192
280.192
280.193
280.194
280.196
280.198
280.2
280.202
280.205
280.208
280.211
280.215
280.219
280.222
280.226
280.231
280.235
280.238
280.242
280.245
280.248
280.251
280.252
280.253
280.253
280.252
280.252
280.258
280.268
280.274
280.278
280.281
280.283
280.285
280.287
280.288
280.288
280.289
280.288
280.288
280.286
280.284
280.281
280.281
280.287
280.302
280.33
280.377
280.447
280.544
280.675
280.854
281.107
281.519
282.244
282.359
281.382
280.825
280.638
280.532
280.47
280.438
280.425
280.425
280.432
280.442
280.452
280.46
280.465
280.466
280.465
280.462
280.456
280.45
280.443
280.434
280.425
280.42
280.421
280.414
280.399
280.404
280.49
280.748
281.301
281.969
281.107
280.746
280.556
280.436
280.353
280.295
280.254
280.227
280.211
280.201
280.198
280.197
280.198
280.201
280.203
280.206
280.209
280.212
280.215
280.219
280.222
280.226
280.23
280.235
280.24
280.246
280.251
280.257
280.263
280.268
280.273
280.278
280.282
280.285
280.287
280.288
280.287
280.285
280.282
280.277
280.274
280.282
280.299
280.309
280.314
280.317
280.319
280.32
280.32
280.321
280.32
280.32
280.319
280.317
280.315
280.313
280.309
280.305
280.301
280.299
280.301
280.313
280.339
280.386
280.464
280.584
280.776
281.112
281.769
282.161
281.588
280.734
280.545
280.463
280.432
280.428
280.438
280.453
280.469
280.483
280.494
280.502
280.504
280.503
280.498
280.49
280.481
280.471
280.461
280.451
280.44
280.433
280.439
280.435
280.421
280.406
280.448
280.66
281.205
281.782
280.912
280.571
280.408
280.317
280.262
280.23
280.212
280.203
280.2
280.202
280.205
280.209
280.214
280.219
280.224
280.228
280.233
280.238
280.243
280.248
280.254
280.26
280.266
280.273
280.281
280.289
280.296
280.303
280.31
280.316
280.322
280.326
280.329
280.331
280.331
280.329
280.325
280.319
280.31
280.301
280.294
280.301
280.33
280.342
280.348
280.351
280.352
280.352
280.352
280.351
280.349
280.348
280.346
280.343
280.341
280.337
280.334
280.329
280.323
280.317
280.311
280.308
280.313
280.331
280.372
280.447
280.582
280.841
281.396
281.913
281.675
280.902
280.51
280.44
280.427
280.439
280.461
280.485
280.506
280.524
280.537
280.545
280.546
280.54
280.529
280.516
280.502
280.489
280.477
280.465
280.452
280.442
280.44
280.435
280.423
280.408
280.432
280.614
281.145
281.645
280.78
280.462
280.324
280.256
280.222
280.207
280.201
280.202
280.207
280.213
280.22
280.228
280.235
280.242
280.249
280.256
280.263
280.27
280.277
280.285
280.293
280.302
280.311
280.321
280.33
280.339
280.348
280.356
280.363
280.369
280.374
280.377
280.379
280.378
280.376
280.371
280.363
280.352
280.338
280.323
280.311
280.317
280.356
280.371
280.377
280.379
280.38
280.379
280.378
280.376
280.374
280.372
280.37
280.367
280.364
280.36
280.355
280.35
280.344
280.337
280.328
280.32
280.314
280.316
280.332
280.375
280.465
280.657
281.105
281.653
281.664
281.1
280.579
280.431
280.428
280.451
280.482
280.514
280.543
280.567
280.584
280.592
280.59
280.579
280.562
280.543
280.523
280.507
280.493
280.48
280.465
280.449
280.437
280.427
280.407
280.406
280.425
280.589
281.106
281.54
280.685
280.39
280.274
280.225
280.205
280.2
280.203
280.21
280.219
280.228
280.238
280.248
280.258
280.267
280.277
280.287
280.296
280.306
280.317
280.327
280.338
280.349
280.36
280.371
280.382
280.392
280.401
280.409
280.416
280.421
280.425
280.427
280.427
280.425
280.42
280.411
280.4
280.383
280.364
280.342
280.326
280.329
280.377
280.392
280.398
280.4
280.4
280.399
280.398
280.396
280.394
280.392
280.39
280.387
280.384
280.38
280.375
280.37
280.363
280.355
280.346
280.335
280.324
280.316
280.317
280.337
280.394
280.53
280.879
281.403
281.584
281.233
280.736
280.459
280.427
280.456
280.495
280.537
280.576
280.61
280.635
280.644
280.639
280.621
280.596
280.569
280.543
280.523
280.507
280.495
280.48
280.46
280.441
280.424
280.396
280.403
280.422
280.573
281.078
281.457
280.615
280.341
280.243
280.208
280.199
280.202
280.21
280.22
280.232
280.245
280.257
280.27
280.282
280.294
280.307
280.319
280.332
280.345
280.358
280.371
280.384
280.397
280.41
280.422
280.433
280.443
280.451
280.459
280.465
280.469
280.472
280.472
280.471
280.467
280.46
280.45
280.435
280.414
280.389
280.36
280.338
280.339
280.391
280.408
280.414
280.415
280.415
280.413
280.412
280.41
280.409
280.407
280.406
280.404
280.402
280.398
280.394
280.388
280.381
280.373
280.363
280.351
280.337
280.324
280.315
280.319
280.35
280.443
280.706
281.174
281.459
281.295
280.89
280.557
280.438
280.454
280.498
280.547
280.597
280.645
280.683
280.696
280.684
280.661
280.63
280.595
280.563
280.537
280.52
280.509
280.496
280.475
280.451
280.428
280.397
280.395
280.42
280.563
281.057
281.39
280.562
280.306
280.224
280.2
280.199
280.206
280.218
280.232
280.246
280.261
280.276
280.291
280.306
280.321
280.337
280.352
280.367
280.383
280.398
280.413
280.428
280.442
280.455
280.467
280.478
280.487
280.494
280.501
280.506
280.509
280.511
280.511
280.509
280.504
280.497
280.485
280.468
280.444
280.413
280.378
280.349
280.348
280.399
280.419
280.425
280.425
280.424
280.423
280.421
280.42
280.419
280.418
280.418
280.418
280.417
280.415
280.411
280.406
280.399
280.39
280.38
280.366
280.351
280.334
280.32
280.313
280.325
280.384
280.576
280.974
281.31
281.296
281.007
280.682
280.493
280.455
280.488
280.541
280.596
280.653
280.709
280.73
280.712
280.691
280.657
280.619
280.58
280.55
280.531
280.521
280.511
280.493
280.465
280.437
280.404
280.382
280.421
280.557
281.042
281.334
280.52
280.282
280.212
280.197
280.201
280.212
280.227
280.243
280.26
280.277
280.294
280.312
280.329
280.347
280.365
280.383
280.401
280.418
280.435
280.451
280.466
280.48
280.493
280.505
280.514
280.522
280.528
280.533
280.537
280.54
280.541
280.541
280.539
280.535
280.528
280.516
280.498
280.472
280.437
280.395
280.359
280.355
280.404
280.427
280.432
280.432
280.431
280.428
280.426
280.425
280.424
280.425
280.426
280.428
280.429
280.429
280.427
280.422
280.416
280.407
280.396
280.382
280.365
280.346
280.327
280.313
280.312
280.346
280.481
280.805
281.152
281.248
281.077
280.801
280.581
280.485
280.483
280.524
280.577
280.633
280.683
280.7
280.702
280.696
280.671
280.635
280.594
280.56
280.539
280.53
280.524
280.51
280.483
280.449
280.416
280.374
280.422
280.554
281.03
281.288
280.488
280.264
280.205
280.196
280.205
280.219
280.236
280.254
280.272
280.291
280.311
280.331
280.351
280.371
280.391
280.411
280.43
280.449
280.466
280.483
280.498
280.512
280.523
280.533
280.54
280.546
280.551
280.555
280.558
280.56
280.562
280.562
280.561
280.558
280.552
280.542
280.525
280.499
280.461
280.412
280.368
280.361
280.407
280.433
280.437
280.436
280.434
280.43
280.428
280.426
280.426
280.428
280.431
280.435
280.438
280.441
280.441
280.438
280.432
280.423
280.412
280.397
280.379
280.359
280.337
280.317
280.306
280.321
280.412
280.666
280.997
281.167
281.101
280.893
280.679
280.544
280.499
280.514
280.555
280.602
280.642
280.664
280.673
280.673
280.664
280.64
280.602
280.567
280.545
280.536
280.534
280.526
280.503
280.465
280.43
280.379
280.423
280.552
281.02
281.249
280.462
280.251
280.201
280.198
280.209
280.226
280.244
280.264
280.284
280.305
280.326
280.348
280.37
280.392
280.413
280.434
280.455
280.474
280.492
280.508
280.522
280.534
280.544
280.551
280.556
280.56
280.563
280.566
280.569
280.572
280.574
280.576
280.576
280.575
280.571
280.563
280.548
280.523
280.484
280.43
280.378
280.365
280.409
280.437
280.441
280.439
280.435
280.43
280.426
280.424
280.424
280.427
280.432
280.438
280.444
280.45
280.453
280.452
280.448
280.439
280.427
280.412
280.393
280.371
280.347
280.323
280.305
280.306
280.363
280.556
280.854
281.067
281.086
280.951
280.766
280.617
280.538
280.522
280.542
280.577
280.61
280.633
280.645
280.649
280.645
280.629
280.601
280.57
280.548
280.541
280.541
280.539
280.522
280.484
280.445
280.392
280.422
280.551
281.011
281.215
280.441
280.242
280.199
280.2
280.214
280.232
280.252
280.273
280.294
280.316
280.339
280.362
280.386
280.409
280.432
280.454
280.475
280.494
280.511
280.526
280.539
280.548
280.555
280.559
280.561
280.563
280.565
280.568
280.571
280.575
280.578
280.582
280.584
280.585
280.583
280.578
280.566
280.544
280.505
280.447
280.387
280.369
280.411
280.44
280.443
280.44
280.434
280.427
280.422
280.419
280.419
280.423
280.429
280.437
280.447
280.457
280.463
280.465
280.462
280.454
280.442
280.426
280.406
280.383
280.357
280.33
280.307
280.297
280.33
280.471
280.728
280.958
281.041
280.975
280.833
280.689
280.591
280.547
280.544
280.564
280.589
280.61
280.622
280.627
280.626
280.615
280.593
280.567
280.55
280.544
280.546
280.548
280.538
280.505
280.46
280.409
280.419
280.55
281.004
281.187
280.424
280.235
280.198
280.202
280.219
280.238
280.259
280.281
280.303
280.326
280.35
280.374
280.398
280.423
280.446
280.469
280.49
280.509
280.525
280.538
280.548
280.555
280.558
280.559
280.558
280.558
280.559
280.561
280.566
280.571
280.577
280.583
280.587
280.59
280.591
280.589
280.581
280.562
280.525
280.465
280.397
280.372
280.413
280.442
280.444
280.44
280.432
280.423
280.416
280.412
280.413
280.417
280.424
280.434
280.447
280.46
280.471
280.476
280.475
280.468
280.456
280.439
280.419
280.394
280.367
280.338
280.311
280.293
280.307
280.407
280.62
280.849
280.976
280.971
280.874
280.75
280.646
280.584
280.561
280.565
280.58
280.595
280.605
280.609
280.608
280.6
280.581
280.561
280.548
280.546
280.55
280.554
280.55
280.526
280.479
280.427
280.413
280.548
280.996
281.162
280.41
280.23
280.198
280.205
280.223
280.244
280.265
280.287
280.31
280.334
280.358
280.383
280.408
280.433
280.456
280.479
280.5
280.518
280.533
280.544
280.551
280.555
280.554
280.551
280.548
280.545
280.546
280.549
280.555
280.563
280.571
280.58
280.587
280.592
280.595
280.595
280.591
280.576
280.543
280.481
280.406
280.376
280.414
280.443
280.445
280.439
280.428
280.417
280.409
280.404
280.405
280.41
280.419
280.431
280.445
280.462
280.476
280.485
280.487
280.481
280.469
280.452
280.43
280.404
280.375
280.345
280.315
280.292
280.292
280.359
280.53
280.747
280.901
280.944
280.891
280.793
280.695
280.624
280.586
280.575
280.58
280.587
280.592
280.594
280.594
280.586
280.57
280.554
280.546
280.547
280.554
280.56
280.56
280.542
280.5
280.444
280.411
280.544
280.988
281.142
280.399
280.227
280.199
280.208
280.227
280.248
280.27
280.293
280.316
280.34
280.364
280.389
280.414
280.439
280.463
280.485
280.505
280.523
280.536
280.546
280.55
280.55
280.546
280.54
280.533
280.529
280.53
280.535
280.542
280.552
280.564
280.575
280.585
280.592
280.598
280.6
280.598
280.587
280.557
280.496
280.416
280.38
280.416
280.444
280.446
280.437
280.424
280.411
280.4
280.396
280.397
280.404
280.414
280.428
280.444
280.462
280.481
280.493
280.498
280.493
280.481
280.463
280.44
280.413
280.383
280.351
280.319
280.292
280.282
280.324
280.458
280.654
280.822
280.901
280.889
280.819
280.733
280.66
280.613
280.591
280.585
280.585
280.585
280.583
280.581
280.573
280.558
280.547
280.544
280.55
280.559
280.567
280.568
280.556
280.52
280.463
280.414
280.538
280.979
281.124
280.391
280.225
280.201
280.211
280.231
280.252
280.275
280.297
280.32
280.344
280.368
280.393
280.417
280.442
280.465
280.487
280.507
280.523
280.536
280.544
280.547
280.545
280.537
280.527
280.517
280.512
280.514
280.52
280.53
280.542
280.556
280.569
280.582
280.592
280.599
280.602
280.602
280.595
280.569
280.509
280.425
280.385
280.417
280.444
280.446
280.435
280.419
280.403
280.392
280.388
280.391
280.401
280.414
280.428
280.445
280.464
280.485
280.501
280.508
280.504
280.492
280.472
280.448
280.42
280.389
280.356
280.322
280.292
280.275
280.298
280.4
280.573
280.745
280.851
280.872
280.83
280.759
280.689
280.638
280.607
280.592
280.585
280.579
280.575
280.571
280.561
280.548
280.542
280.545
280.554
280.565
280.574
280.577
280.568
280.538
280.483
280.424
280.531
280.969
281.109
280.384
280.224
280.202
280.214
280.234
280.256
280.278
280.3
280.323
280.346
280.369
280.393
280.417
280.441
280.464
280.485
280.504
280.52
280.533
280.541
280.543
280.539
280.529
280.514
280.502
280.497
280.499
280.507
280.519
280.534
280.549
280.565
280.579
280.591
280.599
280.604
280.605
280.6
280.577
280.519
280.434
280.39
280.419
280.445
280.445
280.432
280.413
280.396
280.384
280.382
280.388
280.402
280.418
280.434
280.45
280.469
280.492
280.51
280.518
280.514
280.501
280.48
280.455
280.426
280.393
280.359
280.324
280.292
280.27
280.28
280.355
280.505
280.673
280.797
280.846
280.828
280.773
280.71
280.657
280.62
280.599
280.585
280.574
280.568
280.562
280.55
280.54
280.539
280.548
280.561
280.574
280.583
280.587
280.579
280.553
280.502
280.438
280.523
280.959
281.097
280.38
280.224
280.204
280.217
280.237
280.259
280.28
280.302
280.324
280.346
280.369
280.392
280.414
280.437
280.458
280.479
280.497
280.513
280.525
280.533
280.537
280.534
280.521
280.501
280.488
280.484
280.489
280.499
280.512
280.528
280.545
280.562
280.578
280.591
280.6
280.606
280.608
280.604
280.583
280.527
280.442
280.395
280.42
280.446
280.445
280.429
280.408
280.389
280.378
280.378
280.389
280.408
280.429
280.447
280.462
280.48
280.502
280.521
280.528
280.523
280.508
280.486
280.459
280.429
280.395
280.36
280.325
280.291
280.266
280.265
280.32
280.448
280.61
280.745
280.815
280.819
280.778
280.722
280.669
280.63
280.603
280.583
280.569
280.562
280.553
280.54
280.534
280.54
280.554
280.571
280.584
280.594
280.597
280.59
280.567
280.521
280.453
280.516
280.947
281.088
280.377
280.225
280.206
280.219
280.239
280.26
280.282
280.303
280.324
280.345
280.366
280.387
280.409
280.429
280.449
280.468
280.485
280.5
280.512
280.52
280.524
280.523
280.503
280.485
280.476
280.475
280.482
280.493
280.508
280.526
280.544
280.562
280.579
280.592
280.602
280.608
280.61
280.607
280.587
280.533
280.448
280.399
280.422
280.447
280.444
280.425
280.402
280.382
280.372
280.376
280.392
280.419
280.447
280.469
280.482
280.496
280.518
280.535
280.539
280.531
280.513
280.489
280.461
280.429
280.395
280.359
280.323
280.289
280.262
280.254
280.293
280.402
280.556
280.697
280.784
280.804
280.777
280.727
280.676
280.634
280.603
280.579
280.563
280.556
280.544
280.533
280.533
280.546
280.565
280.583
280.597
280.605
280.607
280.601
280.58
280.536
280.467
280.51
280.935
281.081
280.377
280.226
280.207
280.22
280.24
280.261
280.282
280.302
280.323
280.342
280.362
280.382
280.401
280.419
280.437
280.454
280.47
280.482
280.492
280.498
280.498
280.489
280.476
280.467
280.465
280.469
280.478
280.492
280.508
280.527
280.546
280.565
280.581
280.595
280.605
280.611
280.613
280.609
280.59
280.536
280.452
280.403
280.424
280.448
280.443
280.421
280.396
280.377
280.369
280.376
280.399
280.434
280.47
280.496
280.51
280.522
280.54
280.549
280.548
280.535
280.515
280.49
280.46
280.427
280.392
280.356
280.32
280.285
280.256
280.244
280.271
280.365
280.512
280.658
280.756
280.789
280.771
280.726
280.676
280.633
280.599
280.573
280.558
280.55
280.536
280.529
280.536
280.556
280.578
280.597
280.609
280.616
280.617
280.611
280.592
280.55
280.48
280.505
280.923
281.078
280.378
280.228
280.209
280.221
280.241
280.261
280.281
280.301
280.32
280.338
280.357
280.374
280.392
280.409
280.424
280.439
280.452
280.462
280.469
280.472
280.47
280.461
280.455
280.454
280.458
280.466
280.478
280.493
280.511
280.531
280.551
280.57
280.587
280.6
280.61
280.615
280.616
280.612
280.593
280.538
280.454
280.406
280.426
280.449
280.441
280.417
280.391
280.372
280.366
280.378
280.409
280.451
280.493
280.525
280.543
280.554
280.558
280.559
280.551
280.536
280.513
280.486
280.456
280.423
280.388
280.351
280.314
280.28
280.25
280.234
280.254
280.338
280.478
280.628
280.735
280.776
280.762
280.72
280.671
280.627
280.591
280.564
280.553
280.544
280.53
280.529
280.544
280.569
280.594
280.612
280.621
280.624
280.624
280.619
280.601
280.561
280.492
280.502
280.91
281.076
280.38
280.231
280.211
280.222
280.241
280.26
280.28
280.298
280.316
280.333
280.35
280.366
280.382
280.397
280.41
280.422
280.433
280.441
280.446
280.448
280.447
280.445
280.445
280.448
280.455
280.466
280.481
280.498
280.518
280.539
280.559
280.578
280.594
280.607
280.615
280.619
280.619
280.615
280.594
280.538
280.454
280.408
280.429
280.45
280.439
280.413
280.387
280.368
280.365
280.382
280.417
280.464
280.511
280.546
280.565
280.571
280.567
280.562
280.55
280.531
280.507
280.48
280.449
280.416
280.38
280.344
280.306
280.272
280.242
280.225
280.241
280.318
280.457
280.611
280.721
280.764
280.751
280.709
280.661
280.616
280.58
280.557
280.55
280.538
280.528
280.534
280.556
280.585
280.611
280.625
280.628
280.629
280.628
280.624
280.608
280.569
280.501
280.5
280.899
281.078
280.385
280.235
280.213
280.223
280.241
280.259
280.277
280.295
280.311
280.327
280.343
280.357
280.371
280.384
280.396
280.406
280.415
280.422
280.427
280.43
280.431
280.433
280.438
280.445
280.455
280.47
280.487
280.507
280.528
280.549
280.57
280.588
280.603
280.615
280.621
280.624
280.623
280.617
280.596
280.537
280.453
280.41
280.432
280.45
280.437
280.41
280.383
280.366
280.365
280.383
280.421
280.47
280.518
280.553
280.571
280.574
280.567
280.557
280.542
280.522
280.497
280.469
280.439
280.406
280.371
280.334
280.298
280.263
280.233
280.216
280.23
280.308
280.45
280.607
280.717
280.756
280.739
280.695
280.646
280.602
280.567
280.552
280.547
280.535
280.53
280.542
280.569
280.602
280.626
280.634
280.63
280.627
280.627
280.625
280.611
280.574
280.508
280.499
280.888
281.083
280.392
280.24
280.216
280.225
280.241
280.258
280.275
280.291
280.306
280.321
280.335
280.348
280.36
280.372
280.382
280.392
280.4
280.407
280.412
280.416
280.42
280.425
280.434
280.445
280.459
280.477
280.498
280.52
280.542
280.564
280.584
280.601
280.614
280.624
280.629
280.629
280.627
280.62
280.596
280.535
280.45
280.411
280.435
280.451
280.434
280.406
280.38
280.364
280.363
280.382
280.42
280.468
280.514
280.548
280.564
280.566
280.559
280.547
280.53
280.509
280.484
280.455
280.425
280.392
280.358
280.322
280.287
280.252
280.223
280.207
280.226
280.31
280.459
280.616
280.72
280.748
280.723
280.677
280.628
280.584
280.554
280.548
280.543
280.534
280.536
280.553
280.584
280.618
280.639
280.638
280.625
280.617
280.619
280.621
280.61
280.575
280.511
280.498
280.88
281.094
280.404
280.248
280.222
280.227
280.241
280.257
280.272
280.287
280.301
280.314
280.327
280.339
280.35
280.361
280.371
280.379
280.387
280.394
280.401
280.407
280.414
280.423
280.435
280.451
280.47
280.491
280.514
280.538
280.561
280.582
280.6
280.615
280.627
280.634
280.636
280.635
280.631
280.623
280.596
280.532
280.447
280.412
280.438
280.451
280.432
280.404
280.378
280.362
280.361
280.378
280.413
280.458
280.501
280.532
280.548
280.55
280.542
280.53
280.512
280.49
280.466
280.438
280.408
280.376
280.342
280.308
280.274
280.24
280.213
280.204
280.237
280.337
280.487
280.633
280.722
280.737
280.702
280.654
280.606
280.566
280.545
280.547
280.543
280.539
280.546
280.565
280.598
280.634
280.648
280.635
280.613
280.601
280.607
280.613
280.606
280.574
280.512
280.497
280.873
281.106
280.425
280.263
280.231
280.233
280.245
280.258
280.272
280.285
280.298
280.31
280.322
280.333
280.343
280.353
280.363
280.372
280.38
280.388
280.396
280.405
280.416
280.43
280.447
280.467
280.489
280.513
280.538
280.561
280.583
280.603
280.619
280.631
280.64
280.644
280.644
280.641
280.635
280.625
280.596
280.527
280.442
280.413
280.442
280.451
280.431
280.402
280.376
280.36
280.358
280.372
280.401
280.441
280.48
280.509
280.524
280.527
280.52
280.507
280.489
280.468
280.443
280.416
280.387
280.356
280.324
280.291
280.258
280.229
280.21
280.218
280.272
280.381
280.523
280.651
280.722
280.722
280.677
280.627
280.582
280.549
280.541
280.548
280.548
280.548
280.557
280.577
280.611
280.647
280.654
280.626
280.594
280.58
280.59
280.603
280.599
280.569
280.509
280.496
280.869
281.119
280.46
280.289
280.249
280.246
280.254
280.265
280.277
280.289
280.301
280.312
280.323
280.334
280.344
280.354
280.364
280.373
280.383
280.393
280.404
280.416
280.431
280.45
280.471
280.495
280.519
280.544
280.568
280.59
280.61
280.626
280.639
280.648
280.653
280.654
280.651
280.646
280.639
280.627
280.594
280.521
280.437
280.414
280.445
280.451
280.43
280.401
280.375
280.359
280.355
280.364
280.387
280.419
280.453
280.48
280.495
280.498
280.492
280.479
280.462
280.441
280.417
280.391
280.362
280.333
280.302
280.272
280.245
280.226
280.224
280.255
280.326
280.435
280.561
280.665
280.715
280.701
280.645
280.597
280.558
280.536
280.54
280.551
280.555
280.56
280.568
280.588
280.623
280.658
280.655
280.613
280.572
280.559
280.573
280.591
280.589
280.56
280.503
280.494
280.867
281.133
280.513
280.333
280.282
280.272
280.276
280.284
280.295
280.305
280.317
280.327
280.338
280.349
280.359
280.37
280.381
280.392
280.404
280.416
280.43
280.447
280.466
280.487
280.511
280.535
280.56
280.583
280.604
280.623
280.639
280.651
280.66
280.665
280.666
280.664
280.659
280.651
280.643
280.629
280.591
280.513
280.431
280.416
280.448
280.451
280.429
280.4
280.376
280.359
280.352
280.356
280.371
280.396
280.423
280.446
280.46
280.464
280.458
280.447
280.43
280.41
280.387
280.362
280.335
280.308
280.281
280.258
280.242
280.241
280.261
280.309
280.387
280.488
280.594
280.674
280.702
280.672
280.61
280.567
280.537
280.527
280.542
280.558
280.567
280.572
280.58
280.598
280.633
280.667
280.654
280.597
280.552
280.54
280.555
280.578
280.575
280.548
280.493
280.492
280.867
281.148
280.585
280.4
280.338
280.321
280.32
280.327
280.336
280.346
280.357
280.368
280.379
280.389
280.401
280.412
280.424
280.436
280.45
280.465
280.481
280.5
280.52
280.542
280.564
280.587
280.608
280.627
280.643
280.657
280.668
280.675
280.68
280.681
280.678
280.673
280.665
280.656
280.646
280.63
280.587
280.504
280.425
280.418
280.452
280.451
280.428
280.401
280.376
280.359
280.35
280.349
280.357
280.373
280.392
280.41
280.422
280.425
280.421
280.41
280.395
280.376
280.354
280.332
280.309
280.287
280.27
280.259
280.26
280.277
280.314
280.371
280.447
280.534
280.617
280.673
280.68
280.634
280.573
280.539
280.521
280.524
280.547
280.569
280.581
280.586
280.592
280.608
280.641
280.673
280.65
280.581
280.535
280.526
280.537
280.556
280.557
280.533
280.483
280.49
280.87
281.166
280.678
280.497
280.429
280.405
280.401
280.406
280.414
280.424
280.434
280.445
280.456
280.466
280.477
280.488
280.499
280.512
280.525
280.54
280.556
280.573
280.591
280.609
280.627
280.644
280.659
280.672
280.682
280.69
280.696
280.698
280.698
280.695
280.689
280.681
280.671
280.66
280.649
280.63
280.582
280.493
280.419
280.422
280.455
280.451
280.428
280.402
280.378
280.361
280.35
280.344
280.346
280.353
280.364
280.375
280.383
280.385
280.381
280.372
280.358
280.342
280.325
280.308
280.293
280.282
280.277
280.282
280.299
280.329
280.373
280.43
280.498
280.569
280.629
280.661
280.651
280.589
280.54
280.517
280.512
280.528
280.558
280.584
280.596
280.599
280.603
280.617
280.648
280.679
280.648
280.568
280.523
280.513
280.519
280.532
280.534
280.515
280.473
280.488
280.874
281.187
280.789
280.626
280.559
280.533
280.527
280.531
280.538
280.546
280.555
280.564
280.571
280.579
280.586
280.594
280.602
280.61
280.62
280.631
280.643
280.656
280.667
280.679
280.69
280.699
280.707
280.713
280.717
280.719
280.72
280.718
280.713
280.707
280.698
280.688
280.675
280.664
280.651
280.629
280.575
280.482
280.413
280.426
280.457
280.451
280.429
280.404
280.381
280.365
280.352
280.344
280.339
280.339
280.342
280.347
280.35
280.35
280.347
280.34
280.33
280.319
280.308
280.3
280.296
280.297
280.306
280.323
280.349
280.385
280.429
280.481
280.537
280.589
280.628
280.64
280.614
280.544
280.513
280.505
280.513
280.54
280.575
280.602
280.612
280.613
280.614
280.625
280.654
280.683
280.647
280.559
280.515
280.5
280.501
280.509
280.511
280.497
280.465
280.487
280.879
281.21
280.912
280.778
280.719
280.694
280.687
280.687
280.69
280.693
280.697
280.699
280.701
280.702
280.703
280.705
280.706
280.709
280.712
280.717
280.722
280.728
280.734
280.738
280.742
280.745
280.746
280.747
280.745
280.743
280.739
280.733
280.726
280.717
280.706
280.693
280.68
280.667
280.653
280.628
280.566
280.468
280.409
280.43
280.459
280.452
280.431
280.406
280.386
280.37
280.357
280.347
280.339
280.335
280.332
280.331
280.33
280.329
280.327
280.323
280.318
280.314
280.312
280.314
280.32
280.331
280.349
280.372
280.401
280.436
280.476
280.518
280.559
280.594
280.614
280.608
280.569
280.513
280.501
280.506
280.527
280.561
280.598
280.62
280.628
280.627
280.626
280.633
280.659
280.686
280.648
280.556
280.509
280.489
280.484
280.487
280.489
280.479
280.458
280.485
280.886
281.22
281.017
280.915
280.862
280.835
280.82
280.811
280.805
280.801
280.797
280.793
280.79
280.787
280.784
280.782
280.78
280.778
280.778
280.777
280.778
280.779
280.78
280.78
280.779
280.777
280.774
280.77
280.766
280.76
280.753
280.745
280.735
280.724
280.711
280.697
280.683
280.67
280.655
280.625
280.555
280.454
280.405
280.436
280.461
280.453
280.433
280.41
280.391
280.376
280.364
280.354
280.346
280.339
280.334
280.331
280.328
280.327
280.327
280.327
280.327
280.33
280.335
280.344
280.357
280.374
280.394
280.419
280.446
280.476
280.508
280.538
280.565
280.584
280.588
280.571
280.526
280.502
280.506
280.525
280.553
280.59
280.623
280.639
280.645
280.642
280.636
280.641
280.663
280.688
280.653
280.558
280.506
280.48
280.47
280.469
280.469
280.463
280.452
280.483
280.893
281.152
281.02
280.939
280.887
280.851
280.826
280.809
280.798
280.793
280.791
280.793
280.796
280.799
280.802
280.804
280.806
280.807
280.808
280.808
280.807
280.807
280.805
280.803
280.8
280.796
280.792
280.786
280.779
280.772
280.763
280.754
280.743
280.73
280.716
280.7
280.686
280.672
280.656
280.621
280.542
280.44
280.403
280.442
280.462
280.454
280.435
280.414
280.397
280.384
280.374
280.365
280.357
280.351
280.346
280.343
280.342
280.342
280.343
280.347
280.352
280.359
280.369
280.381
280.396
280.414
280.434
280.455
280.478
280.5
280.522
280.541
280.556
280.562
280.555
280.532
280.509
280.513
280.532
280.559
280.591
280.625
280.65
280.661
280.663
280.655
280.645
280.647
280.667
280.69
280.66
280.563
280.505
280.474
280.458
280.453
280.452
280.449
280.445
280.48
280.9
280.885
280.814
280.759
280.717
280.688
280.673
280.669
280.676
280.69
280.707
280.727
280.747
280.765
280.78
280.793
280.803
280.81
280.815
280.818
280.82
280.82
280.818
280.816
280.812
280.808
280.802
280.796
280.789
280.78
280.771
280.76
280.748
280.734
280.719
280.703
280.688
280.675
280.656
280.614
280.526
280.425
280.404
280.448
280.464
280.456
280.438
280.418
280.403
280.392
280.384
280.378
280.372
280.368
280.365
280.363
280.363
280.365
280.369
280.374
280.381
280.391
280.402
280.415
280.43
280.445
280.461
280.477
280.493
280.508
280.521
280.53
280.535
280.534
280.525
280.517
280.527
280.549
280.576
280.605
280.634
280.661
280.678
280.686
280.681
280.666
280.652
280.653
280.671
280.692
280.666
280.572
280.508
280.472
280.45
280.44
280.436
280.435
280.437
280.477
280.906
280.467
280.482
280.484
280.486
280.497
280.519
280.547
280.58
280.615
280.648
280.681
280.711
280.738
280.761
280.78
280.796
280.808
280.817
280.822
280.825
280.826
280.826
280.823
280.82
280.815
280.81
280.803
280.795
280.787
280.776
280.765
280.752
280.737
280.721
280.705
280.691
280.677
280.655
280.605
280.507
280.411
280.406
280.454
280.465
280.458
280.441
280.423
280.409
280.401
280.395
280.39
280.387
280.385
280.384
280.385
280.387
280.39
280.394
280.401
280.409
280.418
280.429
280.44
280.452
280.464
280.475
280.486
280.496
280.504
280.511
280.516
280.518
280.519
280.523
280.547
280.576
280.604
280.63
280.655
280.678
280.696
280.706
280.707
280.692
280.67
280.656
280.658
280.675
280.694
280.672
280.583
280.515
280.474
280.447
280.431