/*--------------------------------*- C++ -*----------------------------------*\
| =========                 |                                                 |
| \\      /  F ield         | OpenFOAM: The Open Source CFD Toolbox           |
|  \\    /   O peration     | Version:  4.1                                   |
|   \\  /    A nd           | Web:      www.OpenFOAM.org                      |
|    \\/     M anipulation  |                                                 |
\*---------------------------------------------------------------------------*/
FoamFile
{
    version     2.0;
    format      ascii;
    class       volVectorField;
    location    "180";
    object      U;
}
// * * * * * * * * * * * * * * * * * * * * * * * * * * * * * * * * * * * * * //

dimensions      [0 1 -1 0 0 0 0];

internalField   nonuniform List<vector> 
400
(
(-1.67096e-05 1.22367e-05 0)
(-1.6763e-05 -8.32035e-06 0)
(7.54223e-07 -5.52648e-06 0)
(6.7675e-07 1.09089e-06 0)
(-1.50729e-07 6.25973e-07 0)
(-1.0503e-07 2.07287e-07 0)
(-1.71941e-07 -5.50613e-08 0)
(2.99635e-07 -1.32403e-07 0)
(2.10304e-07 3.34047e-07 0)
(-5.72748e-07 2.53437e-07 0)
(-5.01162e-07 -1.80105e-07 0)
(-1.52062e-07 -1.40174e-07 0)
(-5.00127e-08 -3.40668e-08 0)
(-1.94223e-08 -2.93949e-08 0)
(6.40738e-08 4.20279e-09 0)
(-2.07159e-08 7.33331e-08 0)
(-1.08182e-07 -6.22253e-08 0)
(1.50053e-07 -1.43823e-08 0)
(-7.34392e-08 1.61961e-07 0)
(-2.40368e-07 -1.354e-07 0)
(2.11084e-07 2.28154e-05 0)
(-1.09774e-06 -1.3195e-05 0)
(-3.61071e-06 -9.08919e-06 0)
(-2.91394e-06 -1.24831e-07 0)
(-1.1421e-06 -9.77409e-08 0)
(-6.93682e-07 -1.90274e-07 0)
(-3.49155e-07 -3.46311e-07 0)
(-2.06713e-07 -3.56057e-07 0)
(-1.51817e-07 6.1209e-07 0)
(-1.33393e-07 4.42464e-07 0)
(-1.08001e-07 -3.27523e-07 0)
(-1.23281e-07 -2.48737e-07 0)
(-1.03743e-07 -9.02035e-08 0)
(-7.07747e-08 -7.26348e-08 0)
(-4.43126e-08 -2.75954e-08 0)
(-1.28238e-08 1.21281e-07 0)
(-1.60778e-08 -1.11782e-07 0)
(-9.59382e-09 -6.0253e-08 0)
(3.37001e-08 2.81834e-07 0)
(2.88858e-08 -2.06609e-07 0)
(8.74983e-06 1.40919e-05 0)
(8.86952e-06 -6.03074e-06 0)
(-1.92244e-07 -4.48382e-06 0)
(-3.32003e-07 -1.55257e-06 0)
(-1.76304e-07 -9.60853e-07 0)
(-1.61305e-07 -5.50124e-07 0)
(-1.63998e-07 -4.10449e-07 0)
(-3.81919e-07 -3.21041e-07 0)
(-2.81067e-07 3.2013e-07 0)
(1.7201e-07 2.18532e-07 0)
(1.4871e-07 -2.04887e-07 0)
(-2.23832e-08 -1.60082e-07 0)
(-4.18723e-08 -9.46835e-08 0)
(-4.94154e-08 -7.15701e-08 0)
(-8.36652e-08 -5.06139e-08 0)
(-2.59889e-08 5.58082e-08 0)
(2.6235e-08 -6.74655e-08 0)
(-1.17496e-07 -5.74903e-08 0)
(7.62276e-09 1.38814e-07 0)
(1.16441e-07 -1.04819e-07 0)
(4.29395e-06 5.65513e-06 0)
(4.63647e-06 -1.65023e-06 0)
(6.81261e-07 -1.38237e-06 0)
(3.74208e-07 -7.22297e-07 0)
(-9.00627e-11 -5.16074e-07 0)
(-6.41114e-08 -3.5926e-07 0)
(-1.08206e-07 -2.6241e-07 0)
(-2.09329e-07 -1.99928e-07 0)
(-1.54612e-07 3.96405e-08 0)
(7.45404e-08 2.82069e-08 0)
(6.82968e-08 -1.05656e-07 0)
(-6.76608e-09 -9.32722e-08 0)
(-2.09602e-08 -7.22197e-08 0)
(-3.28381e-08 -5.36663e-08 0)
(-5.12656e-08 -3.85973e-08 0)
(-2.85165e-08 3.38391e-09 0)
(2.23472e-09 -3.53771e-08 0)
(-5.766e-08 -2.5569e-08 0)
(-1.89925e-09 2.52644e-08 0)
(5.14687e-08 -5.55152e-08 0)
(1.74596e-06 3.05887e-06 0)
(2.09087e-06 -4.20359e-07 0)
(7.07294e-07 -4.85917e-07 0)
(4.90279e-07 -5.3185e-07 0)
(1.91254e-07 -4.16331e-07 0)
(7.21376e-08 -3.26838e-07 0)
(-2.54421e-09 -2.39865e-07 0)
(-6.10189e-08 -1.79142e-07 0)
(-5.73234e-08 -3.70402e-08 0)
(3.14271e-08 -3.01135e-08 0)
(2.92952e-08 -8.38627e-08 0)
(2.13794e-09 -7.2095e-08 0)
(-9.38589e-09 -5.92942e-08 0)
(-2.19561e-08 -4.44253e-08 0)
(-3.12976e-08 -3.60145e-08 0)
(-2.63583e-08 -1.45251e-08 0)
(-1.38206e-08 -3.38287e-08 0)
(-2.64211e-08 -2.9129e-08 0)
(4.78386e-10 -7.42772e-09 0)
(2.07423e-08 -3.83517e-08 0)
(8.14001e-07 1.47837e-06 0)
(1.07474e-06 8.93892e-08 0)
(5.42656e-07 -5.16207e-08 0)
(4.14192e-07 -2.18508e-07 0)
(2.11445e-07 -2.21551e-07 0)
(1.17271e-07 -2.03224e-07 0)
(5.11909e-08 -1.71574e-07 0)
(2.58391e-10 -1.38704e-07 0)
(-9.92925e-09 -6.71788e-08 0)
(2.48321e-08 -5.79123e-08 0)
(1.94341e-08 -6.79641e-08 0)
(5.18657e-09 -5.82283e-08 0)
(-4.29822e-09 -4.75253e-08 0)
(-1.26953e-08 -3.64927e-08 0)
(-1.74556e-08 -3.08875e-08 0)
(-1.69023e-08 -2.06169e-08 0)
(-1.09692e-08 -3.55691e-08 0)
(-1.11532e-08 -3.39504e-08 0)
(3.33685e-09 -2.92354e-08 0)
(1.03339e-08 -2.8384e-08 0)
(3.5843e-07 8.33785e-07 0)
(5.45152e-07 1.81832e-07 0)
(3.81874e-07 6.04813e-08 0)
(3.19538e-07 -8.7431e-08 0)
(1.9969e-07 -1.23033e-07 0)
(1.30244e-07 -1.38918e-07 0)
(8.03026e-08 -1.23526e-07 0)
(3.38203e-08 -1.05818e-07 0)
(1.9153e-08 -7.02113e-08 0)
(2.58157e-08 -6.22064e-08 0)
(1.84917e-08 -5.74778e-08 0)
(8.16659e-09 -4.88965e-08 0)
(6.48782e-10 -3.95316e-08 0)
(-5.17083e-09 -3.15716e-08 0)
(-8.17039e-09 -2.97681e-08 0)
(-5.31544e-09 -2.45745e-08 0)
(-9.26239e-10 -3.91381e-08 0)
(9.51533e-10 -3.84197e-08 0)
(5.4446e-09 -3.50049e-08 0)
(4.74494e-09 -2.15112e-08 0)
(1.75971e-07 4.75876e-07 0)
(3.0113e-07 1.93565e-07 0)
(2.56614e-07 9.84322e-08 0)
(2.29396e-07 -4.12079e-09 0)
(1.68293e-07 -4.9276e-08 0)
(1.20987e-07 -8.72233e-08 0)
(8.04465e-08 -8.14543e-08 0)
(5.01578e-08 -7.72871e-08 0)
(3.56484e-08 -6.52317e-08 0)
(2.94919e-08 -5.75213e-08 0)
(2.12494e-08 -4.83011e-08 0)
(1.23163e-08 -4.0749e-08 0)
(7.30734e-09 -3.46596e-08 0)
(3.52129e-09 -2.69022e-08 0)
(-6.09193e-10 -2.97537e-08 0)
(1.99689e-09 -2.86057e-08 0)
(5.91331e-09 -4.20213e-08 0)
(7.41669e-09 -3.95659e-08 0)
(5.63717e-09 -3.47428e-08 0)
(1.64578e-09 -1.65808e-08 0)
(9.02593e-08 2.94143e-07 0)
(1.71095e-07 1.68509e-07 0)
(1.69341e-07 1.03324e-07 0)
(1.59255e-07 2.72328e-08 0)
(1.35954e-07 -1.80258e-08 0)
(1.06236e-07 -4.49426e-08 0)
(7.37388e-08 -5.39906e-08 0)
(5.89518e-08 -5.87161e-08 0)
(4.46847e-08 -5.42745e-08 0)
(3.29632e-08 -4.77854e-08 0)
(2.3432e-08 -4.04029e-08 0)
(1.69403e-08 -3.40393e-08 0)
(1.17096e-08 -3.12634e-08 0)
(8.61787e-09 -2.36262e-08 0)
(6.48424e-09 -2.87185e-08 0)
(7.49236e-09 -3.15078e-08 0)
(9.82173e-09 -4.34877e-08 0)
(8.42719e-09 -3.79811e-08 0)
(3.29524e-09 -3.02778e-08 0)
(-4.45503e-10 -1.40973e-08 0)
(4.86517e-08 1.90323e-07 0)
(9.8496e-08 1.41772e-07 0)
(1.11854e-07 9.48269e-08 0)
(1.17772e-07 4.10608e-08 0)
(1.05718e-07 -2.62284e-09 0)
(8.78001e-08 -1.60936e-08 0)
(7.12494e-08 -3.7713e-08 0)
(6.00606e-08 -4.54368e-08 0)
(4.65175e-08 -4.15724e-08 0)
(3.60039e-08 -3.76341e-08 0)
(2.76414e-08 -3.25627e-08 0)
(2.12891e-08 -2.8102e-08 0)
(1.47645e-08 -2.61448e-08 0)
(1.06669e-08 -2.16939e-08 0)
(1.06093e-08 -2.84944e-08 0)
(1.14943e-08 -3.2893e-08 0)
(1.01103e-08 -4.18558e-08 0)
(6.29957e-09 -3.42374e-08 0)
(1.54092e-09 -2.59199e-08 0)
(-8.0871e-10 -1.36593e-08 0)
(2.62702e-08 1.32582e-07 0)
(6.04172e-08 1.17501e-07 0)
(7.58179e-08 7.89688e-08 0)
(8.93835e-08 3.88662e-08 0)
(8.31662e-08 1.20483e-08 0)
(7.38347e-08 -6.60637e-09 0)
(7.00319e-08 -2.68246e-08 0)
(5.59073e-08 -3.20399e-08 0)
(4.36988e-08 -2.99056e-08 0)
(3.46374e-08 -2.95286e-08 0)
(2.95389e-08 -2.68387e-08 0)
(2.48224e-08 -2.16123e-08 0)
(1.80783e-08 -2.03869e-08 0)
(1.42387e-08 -1.96078e-08 0)
(1.28707e-08 -2.83166e-08 0)
(1.2492e-08 -3.22096e-08 0)
(9.30014e-09 -3.79709e-08 0)
(5.42422e-09 -3.06088e-08 0)
(2.01783e-09 -2.2751e-08 0)
(-1.5986e-10 -1.32273e-08 0)
(1.3495e-08 9.73493e-08 0)
(4.08076e-08 9.39265e-08 0)
(5.96266e-08 6.50201e-08 0)
(6.66506e-08 3.40871e-08 0)
(6.51745e-08 1.91344e-08 0)
(6.57866e-08 -7.24635e-09 0)
(6.12358e-08 -1.6254e-08 0)
(4.76301e-08 -1.9676e-08 0)
(4.14692e-08 -2.17822e-08 0)
(3.4814e-08 -2.17214e-08 0)
(2.88609e-08 -2.39586e-08 0)
(2.56273e-08 -1.58801e-08 0)
(2.0475e-08 -1.53834e-08 0)
(1.69647e-08 -1.684e-08 0)
(1.53069e-08 -2.71245e-08 0)
(1.42045e-08 -3.04272e-08 0)
(1.06266e-08 -3.38426e-08 0)
(6.66538e-09 -2.73744e-08 0)
(3.07785e-09 -1.97245e-08 0)
(3.14014e-10 -1.19131e-08 0)
(8.85914e-09 7.52436e-08 0)
(2.71285e-08 7.26119e-08 0)
(4.61272e-08 5.1617e-08 0)
(5.07988e-08 3.42086e-08 0)
(5.39733e-08 1.49038e-08 0)
(5.78968e-08 -5.03618e-09 0)
(4.8276e-08 -5.57323e-09 0)
(4.06717e-08 -1.17975e-08 0)
(3.77629e-08 -1.95723e-08 0)
(3.49736e-08 -1.5172e-08 0)
(2.85299e-08 -1.88981e-08 0)
(2.38284e-08 -1.20969e-08 0)
(2.21878e-08 -1.18761e-08 0)
(2.04311e-08 -1.48442e-08 0)
(1.90369e-08 -2.55938e-08 0)
(1.68625e-08 -2.81246e-08 0)
(1.2624e-08 -2.93717e-08 0)
(8.1406e-09 -2.35772e-08 0)
(3.73966e-09 -1.60695e-08 0)
(4.68473e-10 -9.96836e-09 0)
(7.35294e-09 5.88947e-08 0)
(2.20687e-08 5.72439e-08 0)
(3.42889e-08 3.9749e-08 0)
(4.20171e-08 2.99329e-08 0)
(4.9459e-08 8.35885e-09 0)
(4.63075e-08 1.84163e-09 0)
(3.84506e-08 5.00626e-10 0)
(3.86039e-08 -7.98721e-09 0)
(3.37761e-08 -1.65064e-08 0)
(3.02191e-08 -1.18803e-08 0)
(2.68127e-08 -1.26091e-08 0)
(2.33026e-08 -1.06673e-08 0)
(2.45805e-08 -1.11956e-08 0)
(2.41217e-08 -1.39489e-08 0)
(2.20576e-08 -2.30657e-08 0)
(1.83792e-08 -2.47886e-08 0)
(1.36541e-08 -2.4459e-08 0)
(9.00624e-09 -1.91106e-08 0)
(3.98951e-09 -1.18806e-08 0)
(4.69963e-10 -7.76989e-09 0)
(4.13395e-09 4.5775e-08 0)
(1.95137e-08 4.35109e-08 0)
(2.90759e-08 3.18811e-08 0)
(3.71536e-08 1.96684e-08 0)
(4.19441e-08 9.54061e-09 0)
(3.38828e-08 9.2554e-09 0)
(3.2397e-08 1.45167e-10 0)
(3.61166e-08 -7.61121e-09 0)
(3.09439e-08 -9.57849e-09 0)
(2.55256e-08 -1.01895e-08 0)
(2.51694e-08 -9.61591e-09 0)
(2.45343e-08 -1.14806e-08 0)
(2.62222e-08 -1.16946e-08 0)
(2.55276e-08 -1.27754e-08 0)
(2.2688e-08 -1.94177e-08 0)
(1.86303e-08 -2.07209e-08 0)
(1.39109e-08 -1.94384e-08 0)
(9.06711e-09 -1.42476e-08 0)
(3.51752e-09 -7.32592e-09 0)
(1.25516e-10 -5.69678e-09 0)
(4.93393e-09 3.50381e-08 0)
(1.53418e-08 3.12481e-08 0)
(2.42306e-08 2.42684e-08 0)
(3.09213e-08 1.36431e-08 0)
(3.01399e-08 1.42682e-08 0)
(2.92716e-08 1.06049e-08 0)
(3.24533e-08 -1.83796e-09 0)
(3.18753e-08 -7.87373e-09 0)
(2.74373e-08 -2.83021e-09 0)
(2.37305e-08 -8.75102e-09 0)
(2.40557e-08 -9.29327e-09 0)
(2.53329e-08 -1.32747e-08 0)
(2.64057e-08 -1.17532e-08 0)
(2.51146e-08 -1.08e-08 0)
(2.17366e-08 -1.54382e-08 0)
(1.77079e-08 -1.65822e-08 0)
(1.29565e-08 -1.44347e-08 0)
(7.88302e-09 -8.92887e-09 0)
(2.18606e-09 -2.70161e-09 0)
(-5.40898e-10 -4.33254e-09 0)
(6.89493e-09 2.43493e-08 0)
(1.26326e-08 2.48762e-08 0)
(1.93456e-08 1.57844e-08 0)
(2.34411e-08 1.34815e-08 0)
(2.28554e-08 1.27821e-08 0)
(3.0607e-08 5.24074e-09 0)
(3.30707e-08 -6.0295e-10 0)
(2.72572e-08 -4.19865e-09 0)
(2.3217e-08 7.96074e-10 0)
(2.36044e-08 -8.87122e-09 0)
(2.48139e-08 -9.9514e-09 0)
(2.51969e-08 -1.4341e-08 0)
(2.46748e-08 -1.1386e-08 0)
(2.30098e-08 -8.26312e-09 0)
(1.93893e-08 -1.12101e-08 0)
(1.49411e-08 -1.22571e-08 0)
(1.01042e-08 -9.40829e-09 0)
(5.38789e-09 -3.64182e-09 0)
(6.3912e-10 1.25975e-09 0)
(-9.52171e-10 -4.19061e-09 0)
(3.64118e-09 1.54605e-08 0)
(1.13833e-08 1.94273e-08 0)
(1.67117e-08 1.08184e-08 0)
(1.85281e-08 1.2308e-08 0)
(2.36493e-08 5.85755e-09 0)
(2.9482e-08 -1.71103e-10 0)
(2.94084e-08 2.85375e-09 0)
(2.47464e-08 1.93777e-09 0)
(2.26305e-08 8.66312e-10 0)
(2.47811e-08 -1.11957e-08 0)
(2.59792e-08 -1.05344e-08 0)
(2.3958e-08 -1.25515e-08 0)
(2.03255e-08 -9.5862e-09 0)
(1.78216e-08 -5.66445e-09 0)
(1.45731e-08 -6.91992e-09 0)
(1.02573e-08 -7.68435e-09 0)
(5.94613e-09 -4.87059e-09 0)
(2.38007e-09 4.1395e-10 0)
(-2.44441e-10 3.73729e-09 0)
(-6.27778e-10 -4.71472e-09 0)
(2.1455e-09 8.9633e-09 0)
(1.09908e-08 1.14794e-08 0)
(1.64995e-08 8.83575e-09 0)
(1.98788e-08 7.07598e-09 0)
(2.56969e-08 6.16362e-10 0)
(2.61971e-08 -1.76617e-10 0)
(2.55205e-08 4.03851e-09 0)
(2.62891e-08 3.62346e-09 0)
(2.77462e-08 -3.01814e-10 0)
(2.65264e-08 -1.13839e-08 0)
(2.3144e-08 -9.28553e-09 0)
(1.86597e-08 -7.6807e-09 0)
(1.32585e-08 -5.55207e-09 0)
(1.02039e-08 -3.0695e-09 0)
(7.93055e-09 -3.418e-09 0)
(4.48937e-09 -3.65067e-09 0)
(1.49323e-09 -1.51472e-09 0)
(-3.99611e-10 2.53818e-09 0)
(4.22084e-10 4.32766e-09 0)
(1.05983e-09 -5.21529e-09 0)
(2.60063e-09 2.86283e-09 0)
(9.38993e-09 3.68402e-09 0)
(1.67542e-08 3.81523e-09 0)
(2.26395e-08 1.68794e-09 0)
(2.45894e-08 -3.14057e-10 0)
(2.41431e-08 8.90336e-10 0)
(2.56218e-08 1.78268e-09 0)
(2.88042e-08 1.12744e-09 0)
(3.13434e-08 -5.9395e-10 0)
(2.59445e-08 -4.97942e-09 0)
(1.70347e-08 -3.87221e-09 0)
(1.15822e-08 -2.22684e-09 0)
(7.29823e-09 -1.45776e-09 0)
(4.88418e-09 -8.35488e-10 0)
(3.1341e-09 -9.92882e-10 0)
(3.61959e-10 -9.82547e-10 0)
(-1.16947e-09 -1.3711e-10 0)
(-1.54392e-09 1.48024e-09 0)
(3.35508e-09 2.00757e-09 0)
(4.34398e-09 -2.74163e-09 0)
)
;

boundaryField
{
    floor
    {
        type            noSlip;
    }
    ceiling
    {
        type            noSlip;
    }
    fixedWalls
    {
        type            noSlip;
    }
    frontAndBack
    {
        type            empty;
    }
}


// ************************************************************************* //
