/*--------------------------------*- C++ -*----------------------------------*\
| =========                 |                                                 |
| \\      /  F ield         | OpenFOAM: The Open Source CFD Toolbox           |
|  \\    /   O peration     | Version:  4.1                                   |
|   \\  /    A nd           | Web:      www.OpenFOAM.org                      |
|    \\/     M anipulation  |                                                 |
\*---------------------------------------------------------------------------*/
FoamFile
{
    version     2.0;
    format      ascii;
    class       volScalarField;
    location    "1960";
    object      mag(U);
}
// * * * * * * * * * * * * * * * * * * * * * * * * * * * * * * * * * * * * * //

dimensions      [0 1 -1 0 0 0 0];

internalField   nonuniform List<scalar> 
5000
(
0.00542351
0.00671042
0.00822628
0.00821432
0.00688227
0.00494869
0.00301145
0.00282246
0.0047403
0.00711976
0.00949779
0.0117257
0.0137728
0.0156374
0.0173219
0.0188257
0.0201468
0.0212833
0.0222343
0.0229999
0.0235808
0.0239792
0.0241984
0.0242474
0.0241402
0.0238834
0.0234845
0.0229518
0.0222935
0.0215186
0.0206374
0.0196609
0.0186006
0.0174682
0.0162753
0.015033
0.0137506
0.0124151
0.0109252
0.00884159
0.00461952
0.00158458
0.00253362
0.00323258
0.00334694
0.00297542
0.00228458
0.00204839
0.00343708
0.00469487
0.00599616
0.005955
0.00468541
0.0029531
0.00293548
0.0026441
0.000672677
0.00316125
0.00567822
0.00681999
0.00754418
0.00762452
0.00711515
0.00653208
0.00575253
0.00476314
0.00359298
0.00238966
0.00176007
0.00280207
0.00441358
0.00583533
0.00626904
0.00521286
0.00387699
0.00302676
0.00315633
0.00402391
0.00511854
0.00605564
0.0069727
0.00789825
0.00882669
0.00973684
0.0105979
0.0113728
0.0120206
0.0124986
0.0127612
0.012759
0.0124401
0.0117436
0.0105971
0.00893994
0.0068058
0.00452615
0.00312778
0.00381749
0.00456678
0.0045717
0.00672248
0.00496006
0.00506495
0.00437065
0.00373111
0.00399698
0.0051809
0.00657577
0.00832551
0.0102998
0.0123235
0.0142896
0.0161493
0.0178812
0.0194734
0.0209175
0.0222069
0.0233376
0.0243071
0.0251146
0.0257603
0.026245
0.0265704
0.0267354
0.0267398
0.0265884
0.0262867
0.02584
0.0252547
0.0245384
0.0236995
0.022747
0.0216898
0.0205352
0.0192871
0.0179428
0.0164859
0.0148821
0.0131408
0.011455
0.00943683
0.00620324
0.00211478
0.00146194
0.00189331
0.00211437
0.00228699
0.00288414
0.00357717
0.0032237
0.00248567
0.00310457
0.00489295
0.00536815
0.0040121
0.00433569
0.00353139
0.00370712
0.00283011
0.00197781
0.00182556
0.00152148
0.0021983
0.00190055
0.00178531
0.00178539
0.00207022
0.00260412
0.00326436
0.00398406
0.00456223
0.00487548
0.00524993
0.00513187
0.00430464
0.00514666
0.00451731
0.00378987
0.0047515
0.00580526
0.00684049
0.0078533
0.00883546
0.00976752
0.0106211
0.0113614
0.0119504
0.0123501
0.0125252
0.012436
0.0120754
0.0114175
0.0104343
0.00913224
0.00763975
0.00633577
0.00565933
0.00440668
0.00270069
0.00556402
0.00847002
0.00469039
0.00260196
0.00241427
0.0056201
0.00739394
0.00887729
0.0102626
0.0117071
0.0132418
0.0148255
0.0164049
0.0179383
0.0193959
0.0207565
0.0220043
0.0231284
0.0241212
0.0249785
0.0256978
0.0262778
0.0267176
0.0270162
0.0271752
0.0271891
0.0270601
0.0267915
0.0263863
0.0258485
0.0251836
0.0243979
0.0234981
0.0224904
0.0213799
0.0201694
0.0188576
0.0174435
0.0159511
0.0145378
0.013598
0.0128092
0.0105592
0.00611415
0.00216734
0.00118639
0.00177879
0.00268513
0.00378884
0.00465513
0.00444263
0.00242454
0.00313665
0.0068489
0.0065362
0.00311894
0.00387399
0.00386189
0.00270603
0.00118835
0.00179885
0.00273855
0.00354958
0.00408899
0.00425354
0.00437363
0.00454977
0.00476485
0.00500225
0.00523403
0.00540706
0.00534707
0.00484646
0.00476255
0.00529776
0.00516796
0.00716148
0.00689515
0.00423983
0.00418706
0.00497331
0.00591067
0.00686408
0.00779249
0.00866617
0.00945529
0.0101282
0.010653
0.0110008
0.0111496
0.0110827
0.0108369
0.0104244
0.00986727
0.00923281
0.00866926
0.00834726
0.0081205
0.0067487
0.00192075
0.00708665
0.00934889
0.00462162
0.000999599
0.00600301
0.00878441
0.0107085
0.0121451
0.0133358
0.0144565
0.0155988
0.0167834
0.0179931
0.0191975
0.0203659
0.0214723
0.0224969
0.0234264
0.0242524
0.0249702
0.0255772
0.0260714
0.026451
0.0267134
0.0268582
0.0268749
0.0267629
0.0265229
0.0261557
0.0256631
0.0250492
0.0243193
0.0234791
0.0225353
0.0214945
0.0203639
0.0191534
0.0178851
0.0166287
0.0156105
0.0152633
0.0152289
0.0136533
0.00972713
0.00526205
0.00219799
0.00129006
0.00244505
0.00399404
0.00528703
0.00561679
0.00443726
0.00377232
0.00725249
0.00638883
0.00233113
0.000767972
0.00227817
0.00216401
0.00312316
0.00428327
0.00530677
0.00616712
0.00680338
0.00722674
0.00747575
0.00756198
0.00750155
0.00732843
0.0070718
0.00673101
0.00623267
0.00546096
0.00502943
0.00567732
0.00617435
0.00870325
0.00938745
0.00593664
0.00441825
0.00458477
0.00518356
0.00590614
0.00664703
0.00734979
0.0079755
0.00849363
0.00887977
0.00911765
0.00920788
0.00916698
0.00908095
0.00900183
0.00898346
0.00910377
0.00943079
0.00989175
0.0100121
0.00833723
0.000267144
0.0081585
0.00896128
0.00386586
0.00528277
0.00914855
0.0118339
0.0135764
0.0147551
0.0156469
0.0164381
0.0172371
0.0180856
0.0189791
0.0198904
0.0207867
0.0216401
0.0224309
0.0231482
0.0237863
0.0243433
0.0248182
0.0252099
0.0255162
0.0257335
0.0258602
0.0258829
0.0257969
0.0256006
0.025292
0.0248703
0.0243374
0.0236969
0.022954
0.0221156
0.0211908
0.0201921
0.0191392
0.0180702
0.0170787
0.0164177
0.0165133
0.0169959
0.0159955
0.0126149
0.00827476
0.00471957
0.00198018
0.00140812
0.00313141
0.00483614
0.00584413
0.00551196
0.00415145
0.00623219
0.00454788
0.00315584
0.00456456
0.00546265
0.00588943
0.00640064
0.00698872
0.00756861
0.00810612
0.00855503
0.0088799
0.00906264
0.00909035
0.0089575
0.00867182
0.00824863
0.00769871
0.00701214
0.0061855
0.00565859
0.00620915
0.00710936
0.00982249
0.0113126
0.00864152
0.00554715
0.00489792
0.00502474
0.00536036
0.00575785
0.00613835
0.00645406
0.00667963
0.00680689
0.00684214
0.00681822
0.00680535
0.00693274
0.00726317
0.00785367
0.00874038
0.00986721
0.0109902
0.0114839
0.00978137
0.00179732
0.0088571
0.00734486
0.00378565
0.00848953
0.0120585
0.0142782
0.0156256
0.0164666
0.0170598
0.0175783
0.0181224
0.0187283
0.0193849
0.0200576
0.0207101
0.0213171
0.0218663
0.0223555
0.0227874
0.0231658
0.0234935
0.0237708
0.0239957
0.0241638
0.0242719
0.0243048
0.0242545
0.0241172
0.0238884
0.0235643
0.0231442
0.0226297
0.0220248
0.0213361
0.0205741
0.0197545
0.0189026
0.0180651
0.0173472
0.0170134
0.0174717
0.0183377
0.0177983
0.0149127
0.0108141
0.00706498
0.00413557
0.00166062
0.0011774
0.00290418
0.00410275
0.00429676
0.00315918
0.00257693
0.00304105
0.00555433
0.00708767
0.00785355
0.0082629
0.00862703
0.00902139
0.00941357
0.00976762
0.0100495
0.0102293
0.0102866
0.0102086
0.00998816
0.00962545
0.00912636
0.00849956
0.00775635
0.00694983
0.00642419
0.00683831
0.00792433
0.0106343
0.0127387
0.0111538
0.00781792
0.00586995
0.00545852
0.00540126
0.00540032
0.00536867
0.00526037
0.00506177
0.00479255
0.0044962
0.00425668
0.00424771
0.00461285
0.00537431
0.00657238
0.00816907
0.0099863
0.0116908
0.0125973
0.011063
0.00335729
0.00950784
0.00500505
0.0067163
0.0112095
0.0140325
0.0157035
0.0166637
0.0172283
0.0176161
0.0179734
0.0183781
0.0188445
0.0193401
0.0198167
0.0202383
0.0205916
0.0208818
0.0211233
0.021332
0.02152
0.0216938
0.0218539
0.021997
0.0221166
0.0222075
0.0222564
0.0222517
0.0221879
0.0220582
0.0218556
0.0215764
0.0212194
0.0207866
0.0202835
0.0197205
0.019114
0.0184914
0.017903
0.0174614
0.0174367
0.0182114
0.0193752
0.0191832
0.0166991
0.0128675
0.00908832
0.00597992
0.00342015
0.00116814
0.0011638
0.00237626
0.0027531
0.00244652
0.00284737
0.00514366
0.00707304
0.00833569
0.00912305
0.00964541
0.0100621
0.0104417
0.010786
0.0110754
0.0112871
0.011399
0.0113938
0.01126
0.0109915
0.0105875
0.0100521
0.00939548
0.00863679
0.00787233
0.00733173
0.00757757
0.00866494
0.0112415
0.0137596
0.0132407
0.0104302
0.00769381
0.00640546
0.00594108
0.00562
0.00523669
0.00473122
0.00408386
0.00332246
0.00252456
0.00186808
0.00192106
0.00251918
0.00359257
0.00527657
0.00746026
0.00984453
0.0120647
0.0134137
0.012145
0.00488922
0.0100827
0.0032617
0.00872634
0.0125676
0.0148447
0.0161221
0.0168315
0.0172472
0.0175528
0.0178644
0.0182298
0.0186298
0.0190023
0.0192872
0.0194592
0.0195309
0.0195362
0.0195139
0.0194954
0.0195003
0.0195351
0.0195965
0.0196755
0.019761
0.0198438
0.0199171
0.0199659
0.0199842
0.0199639
0.0198955
0.0197723
0.0195903
0.0193489
0.0190515
0.0187068
0.0183301
0.0179481
0.0176127
0.0174425
0.0177131
0.0187753
0.0201726
0.0202248
0.018041
0.0144583
0.0107522
0.00758978
0.00503656
0.00305616
0.00229897
0.003028
0.00389064
0.00460685
0.00553139
0.0069883
0.00842207
0.00952527
0.0103007
0.0108493
0.0112702
0.011622
0.0119217
0.0121631
0.012331
0.0124082
0.0123788
0.0122313
0.0119591
0.0115607
0.0110394
0.0104144
0.00971826
0.00899182
0.00841578
0.00847168
0.0094129
0.0117417
0.0144622
0.0148696
0.0128677
0.0100439
0.00793577
0.00686975
0.00625243
0.00564601
0.00490065
0.00397998
0.00290207
0.00167914
0.000209231
0.000925311
0.00145577
0.00228012
0.00411135
0.00668858
0.00949716
0.0121591
0.0139524
0.0130108
0.00624123
0.0105878
0.00720144
0.0106624
0.0133598
0.0150515
0.0160091
0.0165519
0.0169009
0.0172003
0.0175312
0.0179028
0.0182536
0.0184886
0.018544
0.0184214
0.0181749
0.0178784
0.017599
0.0173822
0.0172481
0.0171946
0.0172057
0.01726
0.0173383
0.0174264
0.0175276
0.0176272
0.017721
0.0178018
0.01786
0.0178873
0.0178772
0.0178263
0.017735
0.0176087
0.0174599
0.0173134
0.0172221
0.0173127
0.0178675
0.019197
0.0207733
0.0209694
0.0189852
0.0156136
0.0120329
0.00891063
0.00641533
0.00465285
0.00406805
0.00474997
0.00581576
0.0068205
0.00780406
0.00887666
0.00991143
0.0107643
0.011406
0.0118799
0.0122442
0.0125412
0.0127889
0.0129873
0.0131262
0.0131913
0.013168
0.0130449
0.0128158
0.0124811
0.0120509
0.0115148
0.0108777
0.0101927
0.00961327
0.00950921
0.0102269
0.0122219
0.0149391
0.0160659
0.0149305
0.0124719
0.00997236
0.00822175
0.00715014
0.00631743
0.0054379
0.00441672
0.00325286
0.00202334
0.00137113
0.00142036
0.0014822
0.00166451
0.00320076
0.00593332
0.0089976
0.0120033
0.0142108
0.0136468
0.00712146
0.010625
0.00946502
0.0121984
0.0140404
0.0151857
0.0158324
0.0162168
0.016509
0.0168131
0.0171689
0.017538
0.0178085
0.017853
0.0176172
0.0171498
0.0165639
0.0159829
0.0155013
0.0151679
0.0149863
0.0149293
0.0149571
0.0150322
0.0151279
0.0152288
0.0153468
0.0154738
0.0156117
0.0157594
0.0159114
0.0160601
0.0161976
0.016317
0.0164144
0.0164901
0.0165523
0.0166233
0.0167587
0.017097
0.0179282
0.0195076
0.0212059
0.0214446
0.0195616
0.016357
0.0129265
0.00991052
0.00753958
0.00601064
0.00569664
0.00650726
0.00768114
0.00876393
0.00969894
0.0105401
0.0112852
0.0118966
0.0123647
0.0127144
0.0129829
0.0132007
0.0133841
0.0135357
0.0136485
0.01371
0.0137057
0.013622
0.0134489
0.013183
0.0128117
0.0123429
0.0117968
0.0112141
0.0107051
0.0105432
0.0110735
0.0127242
0.0152768
0.0168949
0.0165574
0.0146811
0.0122184
0.0100096
0.00839464
0.00720811
0.00615161
0.00505367
0.00388436
0.00277383
0.00208866
0.00174197
0.00144916
0.0014228
0.00258248
0.00527026
0.00840029
0.0116225
0.0141886
0.0140524
0.0077823
0.0100366
0.0119757
0.0141155
0.0150497
0.0155414
0.0158091
0.0160003
0.0162143
0.0165038
0.01686
0.0171892
0.0173253
0.0171125
0.0165246
0.0156821
0.0147777
0.01399
0.0134271
0.0131099
0.0129933
0.0130067
0.0130863
0.0131887
0.0132921
0.0133896
0.0134968
0.0136143
0.0137548
0.013927
0.0141326
0.0143669
0.0146208
0.014883
0.015143
0.0153952
0.0156425
0.0159062
0.0162479
0.0168231
0.017927
0.0197359
0.0214866
0.0216621
0.0197904
0.0167131
0.0134481
0.0105915
0.00841264
0.00717472
0.0071739
0.00815131
0.00938146
0.0104502
0.0112869
0.0119389
0.0124498
0.0128384
0.013121
0.0133228
0.0134729
0.0135954
0.0137047
0.0138043
0.0138894
0.0139486
0.0139672
0.0139293
0.0138201
0.0136266
0.0133437
0.012977
0.0125419
0.0120724
0.0116545
0.0114942
0.011896
0.0132451
0.015541
0.0174342
0.0177629
0.0165301
0.0143779
0.0120375
0.0100054
0.00839795
0.0070635
0.00582191
0.00459882
0.00347086
0.00257995
0.0018478
0.00124061
0.00110355
0.0023469
0.00471831
0.00775108
0.0110447
0.0138942
0.0142353
0.00850133
0.00897796
0.0140452
0.0158155
0.0160394
0.0159744
0.0159029
0.015913
0.0160422
0.0162967
0.0166206
0.016865
0.0168109
0.0162817
0.0153028
0.0140981
0.012962
0.01212
0.0116448
0.0114694
0.0114705
0.0115423
0.0116232
0.0116903
0.0117446
0.0117979
0.0118661
0.0119508
0.0120751
0.0122559
0.0125004
0.0128056
0.0131597
0.0135453
0.013945
0.0143473
0.0147521
0.0151829
0.0157139
0.0165223
0.0178992
0.0199055
0.0216179
0.0216204
0.0196855
0.0167093
0.0136263
0.01098
0.00906429
0.00818566
0.00853031
0.00966579
0.0108986
0.0118888
0.0125884
0.0130553
0.0133559
0.0135388
0.0136393
0.0136883
0.013713
0.0137345
0.0137657
0.0138105
0.0138652
0.0139199
0.0139604
0.0139698
0.0139297
0.013824
0.0136471
0.0133991
0.0130903
0.0127473
0.012437
0.0123172
0.0126459
0.013758
0.0157701
0.0177622
0.0185979
0.0179791
0.0162704
0.0140526
0.0118312
0.0098796
0.00822161
0.00675231
0.0053823
0.00411164
0.00297876
0.001982
0.00117915
0.0009453
0.0022045
0.00436498
0.00707284
0.0103011
0.013345
0.0141996
0.00919438
0.00759531
0.0157529
0.0172468
0.0169201
0.0164257
0.0160846
0.0159388
0.0159798
0.0161782
0.0164378
0.0165574
0.0162708
0.0153907
0.0140225
0.0125304
0.011325
0.0106249
0.0103695
0.0103554
0.0104054
0.0104251
0.0103901
0.010318
0.0102441
0.0102046
0.0102141
0.0102698
0.0103997
0.0106198
0.0109336
0.0113323
0.0117966
0.012302
0.0128265
0.0133563
0.0138935
0.014471
0.0151831
0.0162314
0.0178821
0.0200302
0.0215847
0.0213067
0.0192582
0.0163763
0.0135005
0.01112
0.00955035
0.0091066
0.0098012
0.0110471
0.0122194
0.013075
0.0136039
0.0138795
0.0139818
0.0139747
0.0139052
0.0138093
0.0137145
0.0136404
0.0135979
0.0135905
0.0136146
0.0136618
0.0137196
0.0137725
0.013802
0.0137901
0.0137269
0.0136067
0.0134338
0.0132264
0.0130353
0.012983
0.0132847
0.0142272
0.0159761
0.0179455
0.0191317
0.0190469
0.0178205
0.0158768
0.0136699
0.0115292
0.00960041
0.0078821
0.00632179
0.00489703
0.00362156
0.00250505
0.00155549
0.00110583
0.00216197
0.00409014
0.00643079
0.00942749
0.0125621
0.0139501
0.0098488
0.00602275
0.0171472
0.0184074
0.0176506
0.0168467
0.0163093
0.0160361
0.0159887
0.0161148
0.0162852
0.016254
0.015718
0.014491
0.0127887
0.01115
0.0100784
0.00966105
0.00962121
0.00966296
0.00962642
0.00946398
0.00919554
0.00888153
0.00859755
0.00841325
0.00834639
0.00839732
0.00859184
0.00892661
0.00938037
0.00992377
0.0105248
0.0111546
0.0117922
0.0124294
0.0130788
0.0137917
0.0146907
0.0159964
0.0179109
0.020103
0.0213498
0.0207012
0.0185219
0.015751
0.013121
0.0110752
0.00994627
0.0100044
0.0110055
0.0122799
0.0133242
0.0139967
0.0143288
0.0144084
0.014323
0.0141436
0.0139233
0.0137009
0.0135042
0.0133509
0.0132492
0.0131996
0.0131976
0.0132354
0.0133034
0.0133899
0.0134809
0.0135569
0.0136042
0.0136116
0.0135759
0.0135067
0.0134407
0.0134738
0.0137844
0.0146177
0.0161503
0.0180307
0.0194345
0.0197839
0.019022
0.0174258
0.0153744
0.0131995
0.0111118
0.00919697
0.00746594
0.00591917
0.00457067
0.00340023
0.00233273
0.00162645
0.0022455
0.0038525
0.00590331
0.00845587
0.0115741
0.0134815
0.0104254
0.0044024
0.0182667
0.0193173
0.0182254
0.0172103
0.0165365
0.0161601
0.0160259
0.0160694
0.0161361
0.0159461
0.0151742
0.0136501
0.0117238
0.0101134
0.00932333
0.00918209
0.00924082
0.00921313
0.00899343
0.00857176
0.00799257
0.00734726
0.00675877
0.0063496
0.00617653
0.00627624
0.00664404
0.00720751
0.00788711
0.00862316
0.0093765
0.0101242
0.0108568
0.0115813
0.01233
0.0131813
0.0142885
0.0158718
0.0180046
0.0200811
0.0208544
0.0197843
0.017498
0.0148793
0.0125532
0.0109337
0.0103519
0.0109197
0.0121345
0.0133369
0.0141882
0.01464
0.0147603
0.0146464
0.0143886
0.0140596
0.0137144
0.0133932
0.013123
0.0129181
0.0127815
0.0127082
0.01269
0.0127187
0.0127882
0.0128927
0.0130255
0.013172
0.0133152
0.0134388
0.0135324
0.0135963
0.0136549
0.0137826
0.0141277
0.0149008
0.0162721
0.0180426
0.0195659
0.0202511
0.0199074
0.0186811
0.0168707
0.0147834
0.0126566
0.0106333
0.00878279
0.00713823
0.00571384
0.00447629
0.0033522
0.00246106
0.00254363
0.0036954
0.00541145
0.00754246
0.0104214
0.0127892
0.0108734
0.00290135
0.0191443
0.0200017
0.0186532
0.0175014
0.0167341
0.0162723
0.0160541
0.0160099
0.0159686
0.01563
0.014666
0.012937
0.010929
0.00948124
0.00898082
0.00900287
0.00905395
0.0089063
0.00849359
0.00781616
0.00691395
0.00587723
0.00486203
0.00407158
0.00373431
0.00402135
0.00474979
0.00566213
0.00661233
0.00753819
0.00841852
0.00925212
0.0100514
0.0108456
0.0116937
0.0127043
0.0140508
0.0159074
0.0181382
0.0198726
0.0200284
0.0185492
0.0162209
0.0138221
0.011889
0.0108174
0.0108721
0.0118794
0.0131573
0.0141798
0.0147845
0.0149941
0.0149012
0.0146067
0.014199
0.0137494
0.0133127
0.012929
0.0126232
0.0124039
0.0122651
0.0121927
0.0121719
0.0121935
0.0122548
0.0123574
0.0125049
0.012693
0.0129054
0.013123
0.0133284
0.0135124
0.0136879
0.0139116
0.014307
0.0150562
0.0163179
0.0179864
0.0195677
0.0205048
0.0205224
0.019659
0.0181344
0.0162193
0.0141534
0.0121108
0.0102001
0.0084814
0.00697409
0.00565158
0.0044758
0.00349625
0.00311624
0.00369714
0.00498198
0.00676885
0.00918017
0.0118787
0.0111302
0.0017507
0.0198093
0.0204869
0.0189478
0.0177126
0.0168795
0.0163445
0.0160459
0.0159133
0.0157681
0.0153063
0.0142155
0.0123984
0.0104404
0.00918591
0.00887123
0.00895361
0.00896915
0.00873434
0.00819849
0.00735761
0.00623225
0.00487069
0.00336988
0.00191283
0.00120658
0.00212004
0.00340943
0.00464875
0.00577966
0.0068019
0.00773256
0.00859727
0.00943185
0.0102897
0.0112562
0.0124614
0.0140591
0.0161035
0.0182138
0.0193457
0.0188167
0.0170136
0.0147451
0.012668
0.0112627
0.0108795
0.0115878
0.0128423
0.0140048
0.0147645
0.0150902
0.0150553
0.0147629
0.0143115
0.0137845
0.0132499
0.0127618
0.0123594
0.0120635
0.0118728
0.0117678
0.0117211
0.0117103
0.0117249
0.0117671
0.0118475
0.01198
0.0121744
0.0124208
0.0127016
0.0129931
0.013277
0.0135552
0.0138692
0.0143217
0.0150719
0.0162659
0.0178546
0.0194621
0.0205871
0.0209102
0.0203867
0.0191651
0.0174743
0.0155423
0.0135542
0.0116404
0.0098793
0.00830212
0.00689977
0.00566118
0.00462453
0.00391708
0.00392259
0.0046715
0.00605208
0.00806586
0.0107687
0.0111485
0.00129207
0.0202888
0.020798
0.0191247
0.0178417
0.0169593
0.0163593
0.0159835
0.0157639
0.0155251
0.0149742
0.0138279
0.0120365
0.0102158
0.00910388
0.00885316
0.00894627
0.00895498
0.00871073
0.0081681
0.00732479
0.00620204
0.00484698
0.00335154
0.00193016
0.00129834
0.00213346
0.00334181
0.00450806
0.00557146
0.00653521
0.00742325
0.0082727
0.00913518
0.0100817
0.0112076
0.0126172
0.0143643
0.0163284
0.0179934
0.0183653
0.0172056
0.0152261
0.013156
0.011557
0.0108617
0.0112593
0.0124409
0.0136995
0.0146016
0.0150488
0.0150916
0.0148298
0.0143662
0.0137915
0.0131827
0.0126045
0.0121104
0.0117383
0.011501
0.0113814
0.0113409
0.0113369
0.0113405
0.0113429
0.0113533
0.0113918
0.0114831
0.0116502
0.0118945
0.0122041
0.0125517
0.0129112
0.0132735
0.0136667
0.0141761
0.0149418
0.0160992
0.017633
0.0192546
0.0205229
0.0211023
0.0208882
0.0199682
0.0185289
0.0167782
0.0148996
0.0130323
0.0112668
0.00964823
0.00818682
0.00688538
0.00577848
0.00485972
0.00437377
0.00453517
0.00542675
0.00708813
0.00955236
0.0108837
0.00153898
0.0206078
0.0209594
0.0191986
0.0178897
0.0169675
0.0163081
0.0158579
0.0155544
0.0152327
0.0146246
0.0134874
0.0118512
0.0101699
0.00911013
0.00885149
0.00895602
0.0090139
0.00885416
0.00843443
0.00776222
0.00687577
0.00585045
0.00481915
0.00399821
0.00366141
0.00392031
0.00455271
0.0053288
0.00613149
0.00692267
0.00770783
0.0085189
0.0094059
0.0104306
0.0116549
0.0131094
0.0147374
0.0163113
0.0173047
0.0168571
0.0152293
0.0132733
0.0116027
0.010718
0.0109007
0.0119884
0.0133069
0.0143275
0.0148827
0.0150057
0.0147894
0.0143367
0.0137415
0.0130845
0.0124359
0.0118589
0.0114075
0.0111161
0.0109831
0.0109675
0.0110073
0.0110474
0.0110575
0.011035
0.0109987
0.010979
0.0110098
0.0111251
0.0113375
0.0116451
0.0120204
0.0124306
0.0128568
0.0133154
0.0138767
0.0146647
0.0158058
0.0173062
0.0189401
0.0203214
0.0211159
0.0211785
0.0205468
0.0193676
0.0178252
0.0160935
0.0143126
0.0125803
0.0109534
0.0094574
0.00810291
0.00690465
0.00587682
0.00500677
0.00460296
0.00492256
0.00616953
0.00837165
0.0102889
0.00194287
0.0207887
0.0209932
0.0191837
0.0178612
0.0169043
0.0161896
0.0156682
0.015285
0.0149006
0.0142852
0.0132285
0.011732
0.0101638
0.00911314
0.00882354
0.00895656
0.00911419
0.00911214
0.00890494
0.00850347
0.00794872
0.0073112
0.00669385
0.00621961
0.0060029
0.00609493
0.00642628
0.00690153
0.00745792
0.00806685
0.00872862
0.00946381
0.0103033
0.0112767
0.0123954
0.0136256
0.0148515
0.015818
0.0160213
0.0148045
0.0129805
0.0113239
0.0103642
0.0104519
0.0114792
0.0128565
0.0139698
0.0146094
0.0148003
0.0146308
0.0142024
0.0136079
0.0129277
0.0122322
0.0115874
0.0110574
0.0106978
0.0105339
0.0105393
0.0106413
0.0107565
0.0108241
0.0108204
0.0107542
0.0106555
0.0105647
0.0105237
0.010574
0.0107366
0.011021
0.0114023
0.0118428
0.012315
0.0128249
0.0134305
0.0142425
0.0153794
0.0168615
0.0185088
0.0199819
0.0209569
0.0212632
0.0208988
0.0199754
0.0186525
0.0170906
0.0154258
0.0137586
0.0121537
0.0106458
0.00924897
0.00796777
0.00680782
0.00573734
0.00486731
0.00458052
0.00530786
0.00720604
0.00941701
0.00226884
0.0208511
0.0209187
0.0190916
0.0177632
0.0167791
0.016013
0.0154237
0.0149673
0.0145329
0.013932
0.012977
0.011635
0.0101694
0.00909342
0.00873596
0.00888794
0.00916476
0.0093543
0.00939638
0.00929544
0.00908289
0.00880868
0.00853678
0.00833394
0.0082546
0.00832884
0.00854938
0.00887282
0.00927096
0.0097284
0.0102433
0.0108233
0.0114783
0.0122103
0.0129999
0.0137845
0.0144335
0.0146947
0.014049
0.0122845
0.0106728
0.00974209
0.00986819
0.0109343
0.0123755
0.0135495
0.0142413
0.0144764
0.0143458
0.013947
0.0133686
0.0126869
0.0119688
0.0112772
0.0106778
0.0102396
0.0100181
0.0100184
0.010176
0.0103848
0.0105485
0.0106126
0.0105674
0.0104362
0.0102608
0.0100903
0.00997314
0.00995461
0.0100622
0.0103145
0.0106905
0.0111482
0.0116532
0.0122028
0.012845
0.0136797
0.0148185
0.0162913
0.017952
0.0194996
0.0206249
0.0211421
0.0210196
0.0203385
0.0192349
0.0178542
0.0163252
0.0147476
0.0131896
0.0116903
0.0102661
0.00891875
0.0076444
0.00644158
0.00528195
0.00444788
0.00454543
0.00604102
0.00833726
0.00245656
0.0208135
0.0207601
0.0189389
0.0176059
0.016596
0.0157839
0.015132
0.0146079
0.0141303
0.0135514
0.0127054
0.0115233
0.0101629
0.0090425
0.00856539
0.00869059
0.00906889
0.00944577
0.0097307
0.00991311
0.0100102
0.0100517
0.0100729
0.0101098
0.0101855
0.0103131
0.0105147
0.0107676
0.0110565
0.0113691
0.0116981
0.0120405
0.0123929
0.0127448
0.0130674
0.0132947
0.0132941
0.0127997
0.0112967
0.00964065
0.00882805
0.00914579
0.0103682
0.0118799
0.0130831
0.0137852
0.0140341
0.0139271
0.0135575
0.0130061
0.0123414
0.0116235
0.010909
0.0102581
0.00974222
0.00943909
0.00939567
0.00957869
0.00987591
0.0101561
0.0103261
0.0103485
0.0102326
0.0100168
0.00975339
0.00949828
0.00930498
0.00922046
0.00927835
0.00950263
0.00987343
0.0103445
0.0108753
0.0114567
0.0121294
0.0129842
0.0141272
0.0155949
0.0172663
0.0188723
0.0201197
0.0208154
0.0209061
0.020448
0.0195553
0.0183583
0.0169765
0.0155061
0.0140149
0.0125441
0.0111123
0.00972209
0.00836766
0.00704387
0.00575681
0.00453613
0.00396781
0.00492105
0.00711681
0.00250644
0.0206925
0.0205383
0.0187301
0.0173971
0.0163671
0.0155151
0.0148067
0.01422
0.0136997
0.013137
0.0123921
0.0113704
0.0101318
0.00897355
0.00832084
0.00832945
0.00874515
0.00926761
0.0097551
0.010172
0.0105204
0.0108137
0.0110677
0.0112973
0.0115043
0.0117064
0.0119178
0.0121246
0.012313
0.0124677
0.0125751
0.0126251
0.012609
0.012513
0.0123108
0.0119436
0.0112366
0.00989045
0.00827799
0.00768469
0.00836581
0.00983611
0.0114051
0.0125769
0.0132344
0.0134617
0.0133625
0.0130214
0.0125068
0.0118761
0.0111797
0.0104657
0.00978621
0.00920573
0.00880984
0.00868405
0.00884686
0.00920496
0.00960142
0.0099001
0.0100278
0.00997183
0.00976069
0.00944567
0.00908711
0.00874606
0.00848001
0.00833861
0.00835893
0.00856862
0.00894409
0.00943251
0.00998789
0.0105969
0.0112955
0.0121682
0.013316
0.0147794
0.0164565
0.0181045
0.0194467
0.0202888
0.0205626
0.0203042
0.0196088
0.0185917
0.0173623
0.0160111
0.0146039
0.0131825
0.0117679
0.0103659
0.00897198
0.00757772
0.00617922
0.0047972
0.00366581
0.00391949
0.00582896
0.00232601
0.0205024
0.0202652
0.0184757
0.0171473
0.0161029
0.0152181
0.0144611
0.0138177
0.0132533
0.0126933
0.012029
0.0111583
0.0100649
0.00891096
0.00805744
0.00782669
0.0081577
0.00874308
0.00936603
0.00994759
0.0104711
0.0109365
0.0113493
0.0117087
0.0120045
0.0122603
0.0124717
0.0126247
0.0127007
0.012678
0.0125363
0.01226
0.0118374
0.0112574
0.0104952
0.00944903
0.0079585
0.00659675
0.00652182
0.00773922
0.00943916
0.0109684
0.0120113
0.012564
0.0127409
0.0126397
0.0123296
0.0118626
0.0112822
0.0106272
0.00993606
0.00925133
0.00862722
0.00814323
0.00790754
0.00799955
0.00837461
0.00886818
0.00930166
0.00955993
0.00960163
0.00943936
0.00911755
0.00869616
0.00824035
0.00781471
0.00748107
0.00729367
0.00729562
0.00751189
0.00790816
0.00842251
0.00900439
0.009639
0.0103604
0.011249
0.0124014
0.0138599
0.0155365
0.01721
0.0186207
0.0195777
0.0200039
0.01992
0.0194051
0.0185602
0.0174844
0.0162613
0.0149538
0.0136038
0.0122348
0.0108559
0.00946567
0.00805403
0.00660649
0.00511858
0.00367138
0.00313442
0.0046137
0.00185586
0.0202559
0.01995
0.0181841
0.0168651
0.0158125
0.0149029
0.0141068
0.0134154
0.0128077
0.012236
0.0116235
0.01088
0.00994637
0.00886679
0.00786283
0.00729364
0.00735466
0.00786145
0.00852462
0.00918894
0.00980495
0.0103598
0.0108487
0.0112558
0.0115931
0.0118572
0.0120337
0.0121027
0.012037
0.0118043
0.0113749
0.0107236
0.00983974
0.00869231
0.00719697
0.00553957
0.00483503
0.00577412
0.00752784
0.00923173
0.0105258
0.0113312
0.0117373
0.0118535
0.0117525
0.0114811
0.0110734
0.0105583
0.00996285
0.00931486
0.00864702
0.0080027
0.00744784
0.00709183
0.00706702
0.00740568
0.00796316
0.00852275
0.00892281
0.00908931
0.00901502
0.00873307
0.00829771
0.00777238
0.00722327
0.00671734
0.00632226
0.00610246
0.00610907
0.00635526
0.00678897
0.00733734
0.00794718
0.00860529
0.00934662
0.0102496
0.0114066
0.0128595
0.0145291
0.0162124
0.0176665
0.0187083
0.0192571
0.0193224
0.0189698
0.0182874
0.0173639
0.016276
0.015083
0.0138262
0.0125311
0.0112097
0.00986274
0.00847932
0.00703734
0.00550971
0.00391132
0.00268776
0.00351013
0.00118156
0.0199622
0.0195993
0.0178619
0.016557
0.0155025
0.0145766
0.0137525
0.0130246
0.01238
0.0117882
0.011199
0.0105457
0.00976177
0.00881993
0.00779451
0.00692089
0.0065257
0.0067191
0.00726966
0.00791674
0.00853881
0.00909947
0.00958014
0.00996911
0.0102834
0.0104915
0.0105743
0.0105021
0.0102353
0.00971973
0.00891267
0.00775525
0.006156
0.00421302
0.00312637
0.00409447
0.00597173
0.00772367
0.00905293
0.00993824
0.0104632
0.0107286
0.010799
0.0107117
0.0104896
0.0101507
0.00971158
0.00918877
0.00860072
0.00797012
0.00732892
0.00672794
0.00625954
0.00608349
0.00632793
0.00690666
0.00757361
0.00811489
0.00842065
0.0084632
0.00826296
0.00786555
0.00732819
0.00671235
0.00608137
0.0055032
0.00505473
0.00481636
0.00484814
0.00514274
0.00562483
0.00621028
0.00684613
0.00752396
0.00828205
0.00919815
0.0103606
0.0118077
0.0134649
0.0151434
0.0166182
0.017717
0.0183602
0.0185504
0.018342
0.0178115
0.0170378
0.0160905
0.0150248
0.0138809
0.0126851
0.0114507
0.0101792
0.00885807
0.00745893
0.0059378
0.00426433
0.00261389
0.00253024
0.000381854
0.0196281
0.0192175
0.0175135
0.0162275
0.0151773
0.0142436
0.0134029
0.0126524
0.0119831
0.011373
0.0107887
0.0101867
0.00951564
0.00872886
0.00781289
0.00683825
0.00601231
0.00562597
0.00577638
0.00623749
0.00676421
0.00724548
0.00763711
0.0079613
0.00816972
0.00824179
0.008145
0.00783314
0.00725232
0.0062824
0.00475211
0.00258892
0.0017088
0.00336487
0.00520663
0.00669329
0.00779255
0.00855241
0.00905635
0.00937659
0.00955488
0.00961039
0.00955216
0.00938626
0.00911901
0.00875768
0.00831116
0.00779149
0.0072145
0.00660081
0.0059836
0.00542835
0.00508383
0.00517364
0.0057237
0.00647431
0.00714885
0.00759752
0.00777353
0.00768628
0.00737278
0.00688266
0.0062696
0.005588
0.00489424
0.00425496
0.0037575
0.00350596
0.00357224
0.00392508
0.00445943
0.00507928
0.00573545
0.00642752
0.00719921
0.00812847
0.00929852
0.010741
0.012381
0.0140417
0.0155164
0.0166472
0.0173595
0.0176519
0.0175702
0.0171807
0.0165529
0.0157494
0.014821
0.0138055
0.0127285
0.0116032
0.0104299
0.00919388
0.00786157
0.00637901
0.00469038
0.0028429
0.00181101
0.000623331
0.0192572
0.0188066
0.0171411
0.0158788
0.0148387
0.0139054
0.0130594
0.012301
0.0116229
0.011006
0.0104245
0.00984857
0.00924561
0.00857993
0.00781834
0.006947
0.00600611
0.00513751
0.00458325
0.00449369
0.00471226
0.00499485
0.00523993
0.00540068
0.00541197
0.00524555
0.00484841
0.00410657
0.00284537
0.000902682
0.00202043
0.00384822
0.00515758
0.00606155
0.0067211
0.00722343
0.00761554
0.00791975
0.00814394
0.00828872
0.00835131
0.00832782
0.00821498
0.00801112
0.00771711
0.00733802
0.00688241
0.00636387
0.00578398
0.00515584
0.00456181
0.00409503
0.00397521
0.00443686
0.00524822
0.00604611
0.0066337
0.00694863
0.00699325
0.00679787
0.00640544
0.00586302
0.00521558
0.00450524
0.00377449
0.0030804
0.00251751
0.00222792
0.00232576
0.00274715
0.00333676
0.00398571
0.00465447
0.00535495
0.00613816
0.00708245
0.00826371
0.00970241
0.01132
0.0129503
0.0144061
0.0155465
0.0163049
0.016679
0.0167075
0.0164476
0.0159602
0.0153007
0.0145149
0.0136374
0.0126913
0.0116882
0.010626
0.00948727
0.00823467
0.00681039
0.00515075
0.0032452
0.00153614
0.0015208
0.0188509
0.0183673
0.0167453
0.015511
0.0144865
0.0135614
0.0127207
0.0119683
0.0112982
0.0106915
0.010124
0.00957097
0.00900969
0.0084183
0.00777421
0.00705452
0.00624169
0.0053393
0.00440387
0.00358256
0.00307416
0.00287542
0.00277917
0.00261845
0.00228722
0.00169349
0.000762852
0.00117535
0.00279832