/*--------------------------------*- C++ -*----------------------------------*\
| =========                 |                                                 |
| \\      /  F ield         | OpenFOAM: The Open Source CFD Toolbox           |
|  \\    /   O peration     | Version:  4.1                                   |
|   \\  /    A nd           | Web:      www.OpenFOAM.org                      |
|    \\/     M anipulation  |                                                 |
\*---------------------------------------------------------------------------*/
FoamFile
{
    version     2.0;
    format      ascii;
    class       volScalarField;
    location    "500";
    object      mag(U);
}
// * * * * * * * * * * * * * * * * * * * * * * * * * * * * * * * * * * * * * //

dimensions      [0 1 -1 0 0 0 0];

internalField   nonuniform List<scalar> 
5000
(
0.00078181
0.00512193
0.00784929
0.00913349
0.00987748
0.0104377
0.0109607
0.0114324
0.0118052
0.0120538
0.0121745
0.0121691
0.0120377
0.0117793
0.0113944
0.0108851
0.0102562
0.0095147
0.00866986
0.00773199
0.00671233
0.00562348
0.0044798
0.00329494
0.00208532
0.000997054
0.00137968
0.00301237
0.00467576
0.00626337
0.00771342
0.00898874
0.0100735
0.0109684
0.0116863
0.0122459
0.012668
0.0129729
0.0131784
0.0133
0.01335
0.0133394
0.0132775
0.0131694
0.0130221
0.0128445
0.012649
0.0124533
0.0122806
0.0121572
0.0121053
0.0121268
0.0121876
0.0122048
0.0120131
0.0113526
0.00990997
0.00809742
0.00381308
0.00464056
0.00592125
0.00696173
0.00768403
0.00824965
0.00873094
0.00915483
0.0095282
0.00985056
0.0101178
0.0103251
0.0104692
0.010548
0.010561
0.0105083
0.0103924
0.0102185
0.00999322
0.00972287
0.00941325
0.00906866
0.00869148
0.00828177
0.00783698
0.00735183
0.00681885
0.00623016
0.00557981
0.00486456
0.00408296
0.00323499
0.0023262
0.00138822
0.000614405
0.00109584
0.00198846
0.0028206
0.00356026
0.00423812
0.00446318
0.00456185
0.0054034
0.00766935
0.00879036
0.00960722
0.0103167
0.0108665
0.0113177
0.011689
0.0119695
0.0121444
0.0122023
0.0121338
0.0119375
0.0116142
0.0111628
0.0105876
0.00989585
0.00909692
0.00820157
0.00722193
0.00617236
0.00507215
0.00395373
0.00289895
0.00218178
0.00248352
0.00377739
0.00519439
0.00661214
0.00798292
0.00925509
0.0103917
0.0113739
0.0121986
0.012874
0.0134149
0.0138382
0.0141608
0.0143979
0.0145617
0.014662
0.0147046
0.0146932
0.0146334
0.0145294
0.0143865
0.0142122
0.0140158
0.0138077
0.0135974
0.0133885
0.0131739
0.0129174
0.0125242
0.0118413
0.0106959
0.00905101
0.00874221
0.00808739
0.00556272
0.00585045
0.00673319
0.00752601
0.00821319
0.00881588
0.00934662
0.00980813
0.0101981
0.0105125
0.0107475
0.0109014
0.0109745
0.010968
0.0108895
0.0107454
0.0105432
0.010291
0.00999593
0.00966354
0.00929723
0.0088982
0.00846561
0.00799689
0.00748829
0.00693558
0.0063348
0.00568273
0.00497778
0.0042237
0.00343711
0.00266009
0.00199441
0.00164428
0.001804
0.00226528
0.00278376
0.00322325
0.00348069
0.00328807
0.00612946
0.00859697
0.00936384
0.00879579
0.00882162
0.00944518
0.0100906
0.0106088
0.0109962
0.0112693
0.0114326
0.0114795
0.0113979
0.0111855
0.0108452
0.0103857
0.00981591
0.00914529
0.00838508
0.00754916
0.00665584
0.00573167
0.00481984
0.00400627
0.00349002
0.00366414
0.00469686
0.00586427
0.00704853
0.0082226
0.00934634
0.0103837
0.011308
0.0121049
0.0127718
0.0133151
0.013747
0.0140822
0.014335
0.0145181
0.0146409
0.0147093
0.0147288
0.0146981
0.0146156
0.0144822
0.0142977
0.0140618
0.013775
0.0134382
0.0130529
0.0126195
0.0121339
0.0115799
0.0109246
0.0101454
0.00936231
0.00917075
0.0118112
0.0118474
0.00652841
0.00542684
0.0058695
0.00658825
0.0073264
0.00801537
0.00863337
0.00917106
0.00962177
0.00998046
0.0102442
0.0104127
0.010488
0.0104737
0.0103826
0.0102254
0.0100128
0.00975414
0.00945753
0.00912894
0.00877224
0.00838924
0.00797983
0.0075425
0.00707489
0.00657454
0.00603979
0.005471
0.00487303
0.00426046
0.00366586
0.00314924
0.0028007
0.00267891
0.00271757
0.00282899
0.00296516
0.0030145
0.00274814
0.0022893
0.00824971
0.0116595
0.0111426
0.00909748
0.00836435
0.00881925
0.00946049
0.00999271
0.0103823
0.0106417
0.0107791
0.0107964
0.0106919
0.0104731
0.0101441
0.0097141
0.00919273
0.00859138
0.00792452
0.00721198
0.00648243
0.00577889
0.00516708
0.00475887
0.00476502
0.00556646
0.00666655
0.00771743
0.00872934
0.00967904
0.0105474
0.0113229
0.0119978
0.0125691
0.013039
0.0134151
0.0137086
0.0139322
0.0140986
0.0142179
0.0142972
0.0143394
0.0143436
0.0143016
0.0142103
0.0140632
0.0138541
0.0135777
0.0132293
0.0128049
0.012302
0.0117216
0.0110693
0.0103571
0.00961844
0.00899616
0.00898017
0.0105113
0.0151704
0.0147753
0.00752016
0.00561878
0.00562047
0.00613677
0.00679745
0.00746256
0.00807464
0.00860827
0.0090504
0.00939409
0.00963695
0.00978057
0.00982863
0.00978681
0.00967141
0.00949347
0.00926518
0.00899727
0.00869861
0.00837588
0.00803357
0.00767415
0.00729851
0.00690655
0.00649786
0.00607268
0.00563298
0.00518419
0.0047382
0.00431809
0.00396179
0.00372058
0.00363849
0.00367785
0.00366099
0.00348923
0.00325208
0.00295987
0.00247239
0.00233584
0.00989666
0.0143927
0.0129606
0.00980624
0.00836516
0.00852014
0.00903747
0.00950626
0.00985263
0.0100751
0.0101812
0.0101784
0.0100727
0.00987375
0.00958571
0.00921784
0.0087807
0.00828781
0.00775765
0.00721639
0.00670136
0.00626371
0.00597043
0.00591917
0.00634474
0.00743035
0.00847864
0.00944001
0.0102778
0.0109769
0.0115496
0.012016
0.0123931
0.012693
0.0129255
0.0131002
0.0132279
0.0133197
0.0133862
0.0134356
0.0134724
0.013496
0.0135021
0.013474
0.013401
0.0132717
0.0130749
0.012801
0.0124425
0.0119936
0.0114513
0.0108184
0.0101093
0.00936547
0.00870008
0.00843505
0.00929514
0.0121012
0.017939
0.0172054
0.00842222
0.00612291
0.00581636
0.00608203
0.0065677
0.00711243
0.00763652
0.00810018
0.00848286
0.0087737
0.00896819
0.00906683
0.00907243
0.00899265
0.00884373
0.00863701
0.00838636
0.0081041
0.00780041
0.00748306
0.00715742
0.00682691
0.00649366
0.00615935
0.0058262
0.00549802
0.00518127
0.00488641
0.00462949
0.00443393
0.00432772
0.00433627
0.00446337
0.00462443
0.00459368
0.00418346
0.00358816
0.0030023
0.0024996
0.00282714
0.0111197
0.0167257
0.0147287
0.010801
0.00874521
0.00851097
0.0088124
0.00915587
0.00942234
0.00959174
0.00966624
0.00965482
0.0095671
0.00940863
0.00918485
0.00890442
0.00857839
0.00822187
0.00785612
0.00751081
0.00722568
0.00704913
0.00703742
0.00727035
0.00802901
0.00918468
0.0102029
0.0110564
0.011674
0.0120618
0.0122736
0.0123687
0.0123925
0.0123741
0.0123311
0.0122749
0.0122148
0.0121594
0.0121171
0.0120945
0.012095
0.012116
0.0121505
0.012172
0.0121602
0.012097
0.0119648
0.0117505
0.0114449
0.0110423
0.0105406
0.00994506
0.00927929
0.00861395
0.00813992
0.00831598
0.00990693
0.0134909
0.0199928
0.0195551
0.0094859
0.00669571
0.00620568
0.0062615
0.0065482
0.00692728
0.00731807
0.00767437
0.00796954
0.00818777
0.00832065
0.00836493
0.00832024
0.00819862
0.00800946
0.00776643
0.00748518
0.00718036
0.00686446
0.00654722
0.00623578
0.00593523
0.00564958
0.00538288
0.00514046
0.00492989
0.00476132
0.00464713
0.00460063
0.00463474
0.00475791
0.00497065
0.0052503
0.00550909
0.00549576
0.00488782
0.00394817
0.00312045
0.00278297
0.0036136
0.0121547
0.018728
0.0164234
0.0119604
0.00938777
0.00873374
0.00876354
0.00893887
0.00909929
0.00920431
0.00924808
0.00923674
0.00917889
0.00907647
0.00893437
0.00875996
0.00856363
0.00836037
0.00817154
0.00802635
0.00796173
0.00801911
0.00824484
0.00871658
0.00969918
0.0108639
0.0118516
0.0125471
0.0128652
0.0128544
0.0126231
0.012276
0.011889
0.0115083
0.0111576
0.0108477
0.010584
0.010371
0.0102138
0.010118
0.010088
0.0101238
0.0102133
0.0103424
0.0104573
0.0105279
0.0105299
0.0104465
0.0102679
0.00998894
0.00960919
0.00913696
0.00860359
0.00810353
0.00788483
0.00847067
0.0105569
0.0145475
0.0213793
0.0216405
0.0114251
0.00723412
0.00663229
0.00655913
0.00667591
0.00688888
0.00713382
0.00736909
0.00756654
0.00770656
0.00777632
0.00776768
0.00767622
0.00751398
0.00728522
0.0070044
0.00668841
0.00635448
0.00601832
0.00569308
0.00538919
0.00511495
0.00487749
0.00468406
0.00454311
0.00446453
0.00445841
0.00453281
0.00469041
0.00492882
0.00523839
0.00560331
0.00598191
0.00632713
0.00635339
0.00558952
0.00431686
0.00330281
0.0032984
0.00463168
0.0131284
0.0204766
0.0180545
0.0132129
0.0101977
0.00912841
0.0088615
0.00884361
0.00888124
0.00891405
0.00892667
0.00892025
0.00889981
0.0088642
0.00881623
0.00876072
0.00870552
0.00866308
0.00865211
0.00869867
0.00883519
0.00909708
0.00952425
0.0101972
0.011319
0.0124862
0.0134079
0.0138637
0.0137761
0.0132614
0.0124963
0.0116356
0.0107849
0.0100058
0.00932489
0.00874868
0.00827504
0.00790083
0.00762614
0.00745554
0.00739753
0.00746091
0.00763925
0.00794787
0.00829526
0.00859634
0.00882033
0.00895001
0.0089762
0.00889556
0.00871019
0.00843168
0.00809751
0.0078166
0.00786296
0.00876023
0.0111168
0.0152524
0.0221785
0.0232515
0.0141268
0.00781602
0.00706036
0.00692217
0.00691249
0.00697994
0.00708375
0.00719538
0.00729113
0.00735078
0.0073585
0.00730179
0.00717293
0.00698203
0.00672953
0.00642624
0.00608751
0.00573161
0.00537748
0.0050428
0.0047431
0.00449182
0.00430083
0.00418116
0.00414318
0.00419575
0.00434351
0.00458516
0.00491065
0.00530683
0.00574854
0.00620213
0.00666074
0.00707511
0.00715553
0.00627866
0.0046844
0.00354055
0.00399425
0.00582583
0.014109
0.0220194
0.0196321
0.0145232
0.0111148
0.00964602
0.00907552
0.00885206
0.00875712
0.00871238
0.00869269
0.00869339
0.00871509
0.00875387
0.00880893
0.00888084
0.00897273
0.00909208
0.00925297
0.00947737
0.00979383
0.0102341
0.010834
0.0116705
0.0128816
0.0140415
0.0148339
0.014939
0.0143197
0.0131894
0.0118044
0.0103705
0.00901837
0.00781963
0.00679955
0.00595709
0.0052792
0.00475157
0.0043676
0.00413277
0.00406802
0.00419983
0.00453778
0.00503862
0.00572576
0.00642045
0.00697129
0.00738633
0.00767561
0.00784412
0.00789922
0.00785649
0.00775704
0.00771337
0.00799586
0.00909098
0.0115394
0.0156386
0.0224909
0.0243952
0.0169729
0.00898975
0.00751926
0.00734289
0.00724121
0.00718189
0.00714758
0.00712662
0.00710536
0.00706889
0.00700404
0.00689815
0.00674284
0.00655072
0.00631094
0.00602381
0.0056978
0.00534918
0.0049991
0.00467007
0.00438371
0.00415968
0.00401506
0.00396404
0.00401654
0.00417739
0.00444389
0.00480793
0.00525005
0.00573549
0.00624785
0.00676846
0.0072819
0.00774708
0.00789045
0.00694361
0.00503555
0.00381162
0.00481503
0.00714941
0.0151436
0.0233776
0.0211586
0.015874
0.0121054
0.0102519
0.00937871
0.00894464
0.00871186
0.00858585
0.00853234
0.00854091
0.00860781
0.00872643
0.00889097
0.00909587
0.00933716
0.00961526
0.00993849
0.010325
0.0108009
0.0113964
0.0121445
0.0131087
0.0143766
0.0155015
0.0160747
0.0156952
0.0144119
0.0125659
0.0105045
0.00847979
0.00662389
0.0050167
0.00367105
0.00257605
0.00171378
0.00106657
0.00064405
0.00050866
0.000720346
0.00119467
0.00185255
0.00263324
0.00345534
0.00435973
0.00523858
0.00594047
0.00649453
0.00691786
0.00722104
0.00742139
0.00755963
0.00774194
0.00821492
0.0094116
0.0118258
0.0157716
0.0224362
0.0251587
0.0194255
0.0110815
0.00807801
0.0078386
0.00765893
0.00747793
0.00729611
0.00711683
0.00694092
0.00676828
0.00660041
0.00643517
0.00627064
0.00612172
0.00595079
0.00573731
0.00547636
0.00517954
0.00486965
0.00457413
0.00432063
0.00413478
0.00403755
0.0040445
0.00416459
0.00439978
0.00473636
0.00515981
0.00564931
0.0061823
0.00673633
0.00729218
0.00783596
0.0083349
0.00854449
0.00756967
0.00534749
0.00408828
0.0057136
0.00855901
0.0162592
0.0245554
0.0226269
0.0172567
0.0131523
0.010924
0.00975015
0.00910345
0.00872976
0.00851957
0.00843046
0.00844696
0.00856099
0.0087636
0.00904268
0.00938439
0.00977526
0.0102068
0.0106812
0.0112135
0.0118291
0.0125579
0.0134307
0.0144901
0.015784
0.0168256
0.0170652
0.0160568
0.0139908
0.0113806
0.00866434
0.00614862
0.00398012
0.00228547
0.00132404
0.00158358
0.00219048
0.00256797
0.00262214
0.0024397
0.00216785
0.00198483
0.00202839
0.00229113
0.00271269
0.00326742
0.00401831
0.00483359
0.00556231
0.00618683
0.00670404
0.00712242
0.00747527
0.00785444
0.00847229
0.0097033
0.0120058
0.0157312
0.0221355
0.0256121
0.0214368
0.013529
0.00893979
0.00843015
0.0081627
0.00785343
0.00750494
0.00712792
0.00673918
0.00636555
0.00604329
0.00580058
0.00565652
0.00561488
0.00558554
0.00551278
0.00537273
0.00517215
0.00493715
0.00470111
0.0044983
0.00435904
0.00430742
0.00435934
0.00451902
0.00478411
0.00514541
0.00558843
0.00609269
0.0066357
0.007197
0.0077597
0.00831145
0.00882725
0.00910057
0.00813776
0.00558872
0.00433733
0.00665306
0.0100094
0.0174531
0.0255465
0.0240193
0.0186652
0.0142492
0.01165
0.0101757
0.00931437
0.00879696
0.00849954
0.00837242
0.00839595
0.00855834
0.00884842
0.00924655
0.00972821
0.0102679
0.0108465
0.0114599
0.0121212
0.0128564
0.0136966
0.01467
0.0157946
0.0170757
0.0179639
0.0177387
0.0159679
0.01306
0.00972419
0.00659454
0.00418832
0.00306322
0.00335487
0.00405726
0.00456139
0.00470999
0.00457149
0.00426511
0.0038961
0.00356772
0.00337942
0.00338254
0.00349048
0.00343236
0.00328286
0.00353654
0.00417976
0.00494263
0.00568299
0.00635463
0.00694649
0.00747642
0.00801652
0.0087413
0.00996712
0.0121195
0.0155932
0.0216955
0.0258298
0.023056
0.0158509
0.0103118
0.00910602
0.0087344
0.00829182
0.00776145
0.00714979
0.00648396
0.00582479
0.00527077
0.00492048
0.00484531
0.00499958
0.00519744
0.0053316
0.00535899
0.00528651
0.00514877
0.00498745
0.0048438
0.00475189
0.0047385
0.00481724
0.00499457
0.005269
0.00563036
0.00606411
0.00655217
0.00707523
0.00761541
0.00815864
0.00869577
0.00920967
0.00953711
0.00862309
0.00572284
0.00453225
0.00760537
0.0114511
0.0186923
0.0263378
0.0253049
0.0200925
0.0153973
0.0124265
0.010648
0.00956825
0.00890292
0.00851379
0.00834488
0.00837356
0.00858452
0.00896481
0.0094866
0.0101116
0.0107992
0.011518
0.0122576
0.0130303
0.0138645
0.014793
0.0158412
0.0170038
0.0182141
0.0188647
0.0180436
0.0154222
0.0116762
0.00789707
0.00514375
0.00442215
0.0048806
0.00546915
0.00580641
0.00583897
0.00565112
0.00533324
0.0049717
0.00464287
0.00442342
0.0043799
0.00453681
0.00482425
0.00484198
0.00411512
0.0036427
0.00392767
0.00462094
0.00539944
0.00616248
0.00687631
0.00754083
0.008206
0.00900896
0.0102114
0.0122041
0.0154205
0.0212016
0.025881
0.0243373
0.0179333
0.0119405
0.0098974
0.00933753
0.00876725
0.00806071
0.00720486
0.00621728
0.00517701
0.00426724
0.00376289
0.00384435
0.00431026
0.00482258
0.00521283
0.00543225
0.005501
0.00546764
0.0053843
0.00529893
0.00525104
0.00526664
0.00536319
0.00554673
0.00581457
0.00615719
0.00656087
0.0070097
0.0074876
0.00798045
0.00847814
0.00897615
0.00946566
0.00982834
0.00899427
0.00571207
0.00467205
0.00855353
0.0128314
0.0199199
0.0269145
0.0264372
0.0215258
0.0166042
0.013258
0.0111673
0.00986189
0.00904166
0.0085534
0.00833589
0.00836513
0.00862302
0.0090957
0.00974669
0.0105199
0.0113554
0.0122075
0.0130599
0.0139258
0.0148373
0.0158303
0.0169262
0.0180971
0.0191682
0.0194817
0.017949
0.0144615
0.0100701
0.00658878
0.00528373
0.00546782
0.00593385
0.00621521
0.00624829
0.00608944
0.00581538
0.00549909
0.00520756
0.00500725
0.00496556
0.00513135
0.00550245
0.00598992
0.00631074
0.00547255
0.00416818
0.00387821
0.00442986
0.00523261
0.00606633
0.00687177
0.00763911
0.00840148
0.0092641
0.0104408
0.0122852
0.0152576
0.020717
0.0258242
0.025341
0.0197325
0.0135923
0.0108068
0.00994289
0.00923649
0.00838441
0.00732365
0.00604315
0.00459132
0.00316446
0.00234624
0.00273127
0.00366926
0.00455088
0.00520416
0.00560684
0.00580916
0.00587284
0.00586199
0.00583148
0.0058221
0.0058631
0.00597072
0.00615059
0.00639963
0.00670854
0.00706453
0.0074538
0.00786362
0.00828407
0.00870982
0.0091418
0.00957969
0.00994784
0.00921536
0.00553532
0.00479781
0.00948782
0.0140988
0.0210703
0.027265
0.0273532
0.0229394
0.0178831
0.0141574
0.0117418
0.0101989
0.00921247
0.0086126
0.00833396
0.00835394
0.00865392
0.00922016
0.0100078
0.0109368
0.0119224
0.012902
0.0138538
0.0147938
0.0157604
0.0167932
0.0179083
0.0190448
0.0199281
0.0197825
0.0174802
0.0132633
0.00894625
0.00621288
0.00550995
0.00575488
0.0060283
0.00610738
0.00600832
0.00579459
0.00553185
0.00528151
0.00510718
0.00507776
0.00525659
0.00567371
0.00629612
0.00701096
0.00759243
0.00700621
0.00503537
0.00391573
0.00417377
0.0050162
0.00594668
0.00685162
0.00771635
0.00856613
0.00948401
0.010646
0.0123693
0.0151268
0.0202808
0.0257036
0.0261151
0.0212551
0.0151598
0.011751
0.0105172
0.00967696
0.00869943
0.00749032
0.00601004
0.00426951
0.00235778
0.000777731
0.00184066
0.00332347
0.00451045
0.00536121
0.00590232
0.00620935
0.00635548
0.00640977
0.00642923
0.00645563
0.00651698
0.00662866
0.0067954
0.00701367
0.0072744
0.00756596
0.0078767
0.00819709
0.00852139
0.00884912
0.00918674
0.00954207
0.0098762
0.00925361
0.00521621
0.00498117
0.0103988
0.015209
0.0220869
0.027388
0.0279771
0.0242848
0.0192523
0.0151464
0.0123878
0.0105904
0.00942026
0.00868848
0.00832645
0.0083183
0.00865013
0.00930973
0.010245
0.0113421
0.0124838
0.0135874
0.014626
0.0156213
0.01662
0.0176673
0.0187722
0.0198345
0.0204729
0.0197767
0.0168178
0.0123927
0.00837384
0.00598757
0.00534392
0.00544565
0.00555396
0.0055123
0.0053519
0.00513149
0.00490999
0.0047494
0.00471953
0.00489258
0.00532153
0.00601136
0.00690066
0.00785862
0.0086468
0.00842808
0.00611927
0.00411465
0.00372246
0.00454752
0.0056338
0.0066927
0.00768625
0.00863986
0.00962692
0.0107987
0.0124408
0.0150269
0.0199101
0.0255498
0.0266997
0.0225244
0.0165926
0.0126911
0.011025
0.0100078
0.00893159
0.00762222
0.00603635
0.00422002
0.00230694
0.000822243
0.00192431
0.00348751
0.00476394
0.00569806
0.00632637
0.00670908
0.00692095
0.0070308
0.00709397
0.00715016
0.00722496
0.00733182
0.00747431
0.00764863
0.00784639
0.00805735
0.00827204
0.00848381
0.00869058
0.00889618
0.00911203
0.0093532
0.0096095
0.00909105
0.00484623
0.00528464
0.011276
0.0161337
0.0229352
0.0272933
0.0282131
0.0254928
0.0207324
0.0162579
0.0131301
0.011055
0.00967592
0.00878082
0.00829849
0.00822869
0.00857391
0.00932487
0.0104239
0.0117086
0.0130185
0.0142467
0.0153618
0.0163943
0.0174027
0.0184394
0.0195056
0.0204584
0.0208146
0.0196007
0.0162026
0.0118162
0.00810698
0.00581947
0.0049406
0.00478732
0.00473276
0.00459512
0.00439287
0.00418005
0.00401669
0.00397096
0.0041173
0.00451955
0.00520744
0.00615939
0.00729591
0.00848298
0.00947185
0.00957342
0.00727413
0.00446697
0.00325909
0.00384345
0.00506686
0.00631408
0.00747319
0.00855988
0.00964217
0.0108572
0.012466
0.0149357
0.0196006
0.0253789
0.0271205
0.0235592
0.0178706
0.013611
0.0114813
0.0102287
0.00904199
0.00767053
0.00608708
0.00440411
0.00288315
0.00216374
0.00285774
0.00412875
0.00531358
0.00623886
0.00689129
0.0073155
0.0075746
0.00772906
0.00782755
0.00790484
0.0079829
0.00807298
0.0081778
0.00829387
0.00841398
0.00852961
0.0086333
0.00872074
0.00879258
0.00885592
0.00892608
0.00902436
0.00916162
0.00872855
0.00453152
0.00573454
0.0121082
0.0168633
0.023607
0.0269868
0.0280517
0.02634
0.0223765
0.0175482
0.0140019
0.0116186
0.00999705
0.00889369
0.00823431
0.00804765
0.00837525
0.00921326
0.0104999
0.0120011
0.0134989
0.0148582
0.0160438
0.0170983
0.0180959
0.0190987
0.0201011
0.0209195
0.020989
0.0193402
0.0156932
0.0114824
0.00808259
0.0058154
0.0045637
0.00400334
0.00371422
0.0034645
0.00322588
0.00304457
0.00298302
0.0031065
0.00346934
0.00410314
0.0050136
0.00616732
0.00748233
0.00884423
0.0100297
0.0103951
0.00833706
0.00488393
0.00295182
0.00299573
0.00427803
0.00571146
0.00705232
0.00829216
0.00949268
0.010783
0.012406
0.0148192
0.0193325
0.0251934
0.02739
0.0243678
0.0189783
0.0144975
0.0119152
0.0103673
0.00904302
0.0076389
0.00614074
0.00470315
0.00361976
0.00332689
0.00393899
0.00499662
0.00605439
0.0069273
0.00757484
0.00802164
0.00831506
0.0085033
0.00862597
0.00871174
0.00877898
0.00883734
0.0088895
0.00893304
0.00896238
0.00897084
0.00895268
0.00890515
0.00883042
0.00873735
0.00864354
0.0085752
0.00855829
0.0081771
0.00425931
0.00633519
0.0128779
0.0174057
0.0241178
0.0264602
0.0275296
0.0267214
0.0239402
0.0191893
0.015052
0.0123139
0.0104087
0.0090394
0.00812378
0.00773554
0.00799437
0.00891194
0.0104197
0.0121769
0.0138912
0.0153955
0.0166516
0.0177175
0.0186874
0.0196369
0.0205566
0.0212293
0.0210333
0.0190449
0.0152828
0.0113116
0.00823565
0.00606258
0.00452609
0.00346784
0.00277697
0.00233021
0.00206373
0.00199262
0.00214468
0.00250901
0.00307416
0.00385758
0.00488434
0.00612686
0.00750208
0.00893453
0.0102769
0.0108871
0.00917216
0.00528864
0.00289403
0.00211068
0.00335082
0.00494607
0.00645655
0.00784617
0.009171
0.0105557
0.0122297
0.0146425
0.0190781
0.0249854
0.0275085
0.0249455
0.0198915
0.0153233
0.0123497
0.0104695
0.0089781
0.00755759
0.00619515
0.0050461
0.00435361
0.00435584
0.00498589
0.00593288
0.00689423
0.00771643
0.00835318
0.00881439
0.00913197
0.0093413
0.00947302
0.00955048
0.00958965
0.00959977
0.00958448
0.00954303
0.00947175
0.00936572
0.00922048
0.00903394
0.00880842
0.00855265
0.00828416
0.00803149
0.00783067
0.0074483
0.00397996
0.00701697
0.0135554
0.0177884
0.0245011
0.0256804
0.0266956
0.0266556
0.025139
0.0211609
0.016428
0.0131793
0.0109423
0.00924298
0.00797219
0.00726082
0.00736799
0.00835401
0.0101273
0.0121898
0.0141567
0.0158277
0.0171618
0.0182349
0.019166
0.0200482
0.0208737
0.0214016
0.0209752
0.0187305
0.0149345
0.0112217
0.0084768
0.00650855
0.00494849
0.00362653
0.00254853
0.0018104
0.0015235
0.00166168
0.00206092
0.00256448
0.00316239
0.0039276
0.00493271
0.00613713
0.0074371
0.00879791
0.0101955
0.011057
0.00970142
0.00563941
0.00294801
0.00132862
0.00239697
0.00411897
0.00576023
0.00726889
0.00870066
0.010178
0.011923
0.0143812
0.0188121
0.0247421
0.0274684
0.0252775
0.0205748
0.0160401
0.0127829
0.0105861
0.00891907
0.00749731
0.0063001
0.00544548
0.00508491
0.00530839
0.00598297
0.00687871
0.00778169
0.0085712
0.0092021
0.00967317
0.0100031
0.0102166
0.0103378
0.010387
0.0103795
0.0103255
0.0102302
0.010095
0.00991805
0.00969596
0.00942502
0.00910304
0.00873119
0.00831606
0.00787214
0.00742568
0.00701589
0.00655688
0.00361244
0.00764449
0.0141181
0.0180653
0.0248048
0.0245921
0.0256019
0.0262087
0.0259061
0.0230028
0.0184119
0.0142891
0.0116279
0.00954394
0.00781045
0.00659099
0.0063837
0.00747702
0.00957562
0.0119975
0.0142559
0.0161216
0.0175494
0.0186334
0.0195214
0.020329
0.0210558
0.0214489
0.0208314
0.0183949
0.0146087
0.0111464
0.0087174
0.00700927
0.00561717
0.00436363
0.00325901
0.0024349
0.00207443
0.00221702
0.00260151
0.00304686
0.00355503
0.00422558
0.00514317
0.00623834
0.00737426
0.00853412
0.00981656
0.0109025
0.00992776
0.00586008
0.00298215
0.00103697
0.00151975
0.00334526
0.00505918
0.0066294
0.0081257
0.00967125
0.0114895
0.0140276
0.0185204
0.0244524
0.0272581
0.0253434
0.0209864
0.0165841
0.0131776
0.0107433
0.00893698
0.0075411
0.00652286
0.00593661
0.00583783
0.00622013
0.00693916
0.00781664
0.00869284
0.00946808
0.0100969
0.0105689
0.0108934
0.011089
0.0111769
0.0111768
0.0111051
0.0109738
0.0107901
0.0105574
0.0102754
0.00994189
0.00955349
0.00910737
0.00860265
0.00804222
0.00743473
0.00679824
0.00616468
0.00553657
0.00310515
0.00800698
0.0145803
0.0183167
0.0250857
0.0231299
0.0242902
0.0254725
0.0262696
0.0245254
0.0205349
0.0160462
0.0125091
0.00997525
0.00772269
0.00579366
0.00500125
0.00624814
0.00874962
0.0115747
0.0141563
0.0162458
0.0177896
0.0188964
0.0197449
0.0204776
0.0211079
0.0213815
0.0206114
0.0180295
0.0142754
0.0110447
0.00890308
0.00745853
0.00629634
0.00524126
0.00429173
0.00353642
0.00308616
0.00298999
0.00316893
0.00349547
0.0039291
0.00455174
0.00541471
0.0064037
0.00735759
0.0082544
0.00927743
0.010432
0.00990484
0.00586988
0.0029088
0.00101207
0.000918089
0.00275221
0.00444125
0.00599693
0.0074931
0.00906399
0.0109486
0.0135943
0.0182061
0.0241109
0.0268657
0.0251231
0.0210879
0.0168904
0.0134705
0.0109225
0.0090577
0.0077289
0.00688695
0.00651798
0.00661056
0.00709971
0.00786059
0.00874372
0.00961658
0.0103873
0.0110077
0.0114622
0.0117565
0.0119083
0.0119392
0.0118707
0.0117211
0.0115042
0.0112291
0.0109006
0.0105199
0.0100853
0.00959374
0.00904137
0.00842521
0.00774386
0.00699866
0.00619502
0.00534571
0.00446826
0.00246321
0.00791352
0.0149919
0.0186222
0.0253986
0.0212415
0.02279
0.0245399
0.0262856
0.0256726
0.0224718
0.0180849
0.0140107
0.0106622
0.00782317
0.00514093
0.00329285
0.00468189
0.00769289
0.0109251
0.0138391
0.0161776
0.0178627
0.0190101
0.01983
0.0204942
0.0210358
0.0212083
0.0203201
0.0176257
0.0139156
0.0108985
0.0090163
0.00782093
0.00689401
0.00605612
0.00528394
0.00462543
0.00414497
0.00384005
0.00372942
0.0038506
0.00420356
0.00483226
0.00568968
0.00659337
0.00737053
0.00799862
0.00868947
0.00972863
0.0096392
0.00569069
0.0027086
0.000987188
0.000972842
0.00250115
0.00398706
0.00540774
0.00683241
0.00838364
0.0103316
0.0131166
0.0178907
0.0237183
0.0262804
0.0246029
0.0208544
0.0169097
0.0135948
0.0110663
0.00924163
0.00802272
0.00734204
0.00713745
0.00736636
0.00793839
0.00875129
0.00966216
0.0105432
0.0113036
0.011895
0.0123037
0.0125385
0.0126203
0.0125738
0.0124229
0.0121874
0.0118827
0.011519
0.011102
0.0106338
0.0101131
0.00953675
0.00890055
0.00819977
0.0074295
0.00658445
0.00565698
0.00463488
0.00350072
0.00164933
0.00738922
0.0153906
0.0190184
0.0257803
0.0189152
0.0211249
0.0234836
0.0260257
0.0264183
0.0240666
0.0200521
0.0157669
0.0119148
0.00850447
0.00514568
0.00190257
0.00290125
0.00651899
0.0101051
0.0133138
0.0159081
0.0177562
0.0189662
0.0197741
0.0203816
0.0208459
0.0209366
0.0199602
0.0171755
0.0135192
0.0107042
0.00906098
0.00809971
0.00739811
0.00676557
0.00615533
0.00558696
0.00510135
0.0047181
0.00439416
0.00427712
0.00451657
0.00515258
0.00599705
0.00680011
0.00739361
0.00776253
0.00811283
0.00890034
0.00914603
0.00534239
0.00236156
0.00094997
0.00134466
0.00256332
0.00377564
0.00495363
0.00617812
0.00766015
0.00968331
0.0126491
0.0176108
0.0232716
0.0254904
0.0237794
0.0202814
0.0166197
0.0135013
0.0111046
0.00940481
0.0083279
0.00779436
0.00772344
0.00806426
0.00873523
0.00962299
0.0105735
0.0114542
0.0121785
0.0127075
0.013037
0.0131841
0.013175
0.0130377
0.0127977
0.0124759
0.0120877
0.0116438
0.0111501
0.0106089
0.0100196
0.00937913
0.00868325
0.00792672
0.00710265
0.0062014
0.00520551
0.00408203
0.00278142
0.000939486
0.00666489
0.0157687
0.0194798
0.0262379
0.0162029
0.0193233
0.0223415
0.0255465
0.0267784
0.0252259
0.0217249
0.017517
0.0134021
0.00957218
0.00589419
0.00237364
0.00173354
0.00540482
0.0092004
0.012614
0.0154584
0.017472
0.0187623
0.0195776
0.0201446
0.0205453
0.0205727
0.0195322
0.0166715
0.0130808
0.0104648
0.00904913
0.00831057
0.00782078
0.00737383
0.00690321
0.00641345
0.00593903
0.00551694
0.00513959
0.00486287
0.00500189
0.00561065
0.00637869
0.00702977
0.00741427
0.00752715
0.00755743
0.00803373
0.00845877
0.00482445
0.00189709
0.00101846
0.00178353
0.00279312
0.0037343
0.00464298
0.00565406
0.00700553
0.00907973
0.0122522
0.0173907
0.0227649
0.0244869
0.022665
0.0193891
0.0160285
0.013169
0.0109811
0.00946226
0.00854948
0.00816335
0.0082286
0.00870775
0.00951279
0.0104903
0.0114663
0.0123118
0.0129582
0.013386
0.0136062
0.0136452
0.0135338
0.013302
0.0129753
0.0125739
0.0121125
0.0116011
0.0110454
0.010448
0.0098084
0.00912431
0.00839225
0.00760758
0.00676313
0.00584635
0.00483118
0.00368214
0.00245859
0.00140339
0.00598822
0.0160703
0.0199411
0.0267545
0.0132282
0.0174231
0.0211221
0.0248775
0.0267751
0.0259208
0.0229747
0.019039
0.0149074
0.0109232
0.00716287
0.00391731
0.00268889
0.00506655
0.00835615
0.0117864
0.0148414
0.0170201
0.0184094
0.0192473
0.0197898
0.0201415
0.0201222
0.0190352
0.0161063
0.0125971
0.0101854
0.00899346
0.00847013
0.00817901
0.00789822
0.00754787
0.00712823
0.00667693
0.00624324
0.00587103
0.00556615
0.00566025
0.0062037
0.00682666
0.00727333
0.00741999
0.00727251
0.00700657
0.007172
0.00762383
0.00415174
0.00139305
0.00133991
0.00226466
0.00312332
0.0038351
0.00449647
0.00532243
0.00662802
0.00878206
0.0121143
0.0171264
0.0220961
0.0232685
0.0212918
0.0182216
0.0151707
0.0126047
0.0106674
0.00936104
0.0086338
0.00841623
0.00866134
0.00933629
0.0103025
0.0113492
0.0123009
0.0130561
0.0135786
0.0138732
0.0139655
0.0138887
0.0136759
0.0133561
0.0129531
0.0124849
0.0119647
0.0114012
0.0107997
0.0101627
0.00949056
0.00878194
0.00803489
0.00724633
0.00640907
0.00550419
0.0045102
0.00350216
0.00266835
0.00236201
0.00560461
0.0162138
0.0203382
0.0273105
0.0101715
0.0154699
0.0198225
0.0240314
0.0264358
0.0261604
0.0237533
0.0201904
0.0162335
0.0123015
0.00863222
0.00560909
0.00407785
0.00518509
0.00789958
0.011118
0.014119
0.0164155
0.0179139
0.018792
0.0193275
0.0196423
0.0195895
0.0184669
0.0154729
0.0120664
0.00987112
0.00890484
0.0085927
0.00848957
0.00835999
0.0081174
0.00776421
0.00734508
0.0069219
0.00656426
0.00631503
0.00641304
0.00686171
0.00729783
0.00750759
0.00739538
0.00698086
0.00643646
0.00632245
0.00668575
0.00333259
0.00106129
0.00187421
0.00281065
0.00355398
0.00410867
0.00461064
0.00533494
0.00664783
0.00887447
0.0122265
0.0168283
0.0211504
0.0218405
0.0197094
0.0168395
0.0140973
0.0118349
0.0101641
0.00909057
0.00857863
0.00857879
0.0090874
0.0100102
0.0111103
0.012154
0.0130064
0.0136149
0.0139795
0.0141257
0.0140883
0.0139027
0.0136003
0.0132071
0.0127436
0.012225
0.0116621
0.0110624
0.0104308
0.00977008
0.00908147
0.00836529
0.00762165
0.00684922
0.00603748
0.0051684
0.00431506
0.00360728
0.00321123
0.00334105
0.0056332
0.0161068
0.020635
0.027902
0.00723412
0.0135099
0.0184458
0.0230203
0.0257956
0.0259858
0.0240713
0.0209198
0.0172412
0.0134926
0.0099879
0.0070892
0.00540146
0.00558292
0.00762391
0.0105487
0.0134675
0.0157747
0.0173058
0.0182216
0.0187649
0.019056
0.0189785
0.0178233
0.0147651
0.0114881
0.00952639
0.00879189
0.00868981
0.0087674
0.00877989
0.00863949
0.00835315
0.00797284
0.00757304
0.00724282
0.00705797
0.0071794
0.00751554
0.00774821
0.00770667
0.00732372
0.00663684
0.00582705
0.00547619
0.00565258
0.00242912
0.00135479
0.0025386
0.00343443
0.00410076
0.00458697
0.00505226
0.00577976
0.00710612
0.00928891
0.0124332
0.0164186
0.0199488
0.0202307
0.0179764
0.015308
0.0128628
0.010896
0.00949596
0.00868063
0.00843562
0.00875042
0.00961139
0.0107523
0.0118784
0.0128157