/*--------------------------------*- C++ -*----------------------------------*\
| =========                 |                                                 |
| \\      /  F ield         | OpenFOAM: The Open Source CFD Toolbox           |
|  \\    /   O peration     | Version:  4.1                                   |
|   \\  /    A nd           | Web:      www.OpenFOAM.org                      |
|    \\/     M anipulation  |                                                 |
\*---------------------------------------------------------------------------*/
FoamFile
{
    version     2.0;
    format      ascii;
    class       volScalarField;
    location    "500";
    object      p_rgh;
}
// * * * * * * * * * * * * * * * * * * * * * * * * * * * * * * * * * * * * * //

dimensions      [0 2 -2 0 0 0 0];

internalField   nonuniform List<scalar> 
1600
(
0.0492033
0.0492073
0.0491969
0.0492259
0.0492836
0.0493264
0.0493368
0.0493367
0.0493369
0.0493394
0.0493414
0.0493401
0.0493349
0.0493263
0.0493176
0.0493104
0.0493118
0.0493166
0.0493117
0.0493051
0.0492987
0.0492933
0.0492897
0.049276
0.0492965
0.0493168
0.0493428
0.0493575
0.0493647
0.0493676
0.0493661
0.0493621
0.0493545
0.0493405
0.0493229
0.0493058
0.0492931
0.0492858
0.0492808
0.0492802
0.0492182
0.0492251
0.0492133
0.0492624
0.0493229
0.0493693
0.0493898
0.0493995
0.0494039
0.0494046
0.0494022
0.0493972
0.0493901
0.0493816
0.0493747
0.0493684
0.049362
0.0493564
0.0493536
0.049353
0.0493552
0.0493545
0.0493598
0.0493087
0.0493085
0.0493541
0.0493805
0.0493919
0.0493972
0.0493979
0.049394
0.0493869
0.0493772
0.0493646
0.0493505
0.0493388
0.0493331
0.0493316
0.0493259
0.0492972
0.049221
0.0492292
0.0492068
0.049258
0.0493186
0.0493702
0.0493915
0.0494013
0.0494055
0.049406
0.0494033
0.0493979
0.0493904
0.0493819
0.0493747
0.0493681
0.0493616
0.0493558
0.0493526
0.0493524
0.0493553
0.0493606
0.049365
0.0493276
0.0493006
0.0493583
0.0493807
0.0493908
0.0493953
0.0493955
0.0493913
0.0493838
0.0493738
0.0493614
0.0493477
0.0493364
0.0493317
0.0493338
0.0493356
0.0492965
0.0492205
0.0492295
0.0491852
0.0492426
0.0493114
0.0493711
0.0493925
0.0494018
0.0494056
0.0494059
0.0494032
0.0493975
0.0493896
0.0493808
0.0493731
0.0493662
0.0493594
0.0493535
0.0493502
0.0493501
0.0493536
0.0493605
0.0493639
0.0493365
0.0492837
0.0493568
0.0493799
0.049389
0.0493926
0.049392
0.0493875
0.0493797
0.0493696
0.0493574
0.049344
0.0493327
0.0493284
0.049332
0.0493366
0.049287
0.0492236
0.049236
0.0491524
0.0492196
0.049303
0.0493736
0.0493945
0.049403
0.0494063
0.0494065
0.0494036
0.0493974
0.0493886
0.0493792
0.0493709
0.0493635
0.0493564
0.0493506
0.0493476
0.0493475
0.0493516
0.0493594
0.0493608
0.0493377
0.0492636
0.0493533
0.049379
0.0493872
0.0493897
0.0493882
0.0493833
0.0493754
0.0493652
0.0493533
0.0493403
0.0493291
0.0493249
0.0493295
0.0493351
0.0492748
0.0492342
0.0492563
0.0491126
0.0491884
0.0492935
0.049378
0.0493978
0.049405
0.0494077
0.0494076
0.0494042
0.049397
0.0493871
0.0493767
0.0493677
0.0493599
0.0493529
0.0493478
0.0493454
0.0493453
0.0493497
0.0493582
0.0493588
0.0493343
0.0492428
0.0493487
0.0493782
0.0493856
0.0493867
0.0493842
0.0493789
0.049371
0.049361
0.0493494
0.049337
0.049326
0.0493216
0.049327
0.049333
0.0492621
0.049253
0.049291
0.0490754
0.049144
0.049281
0.0493845
0.0494025
0.0494079
0.0494098
0.0494091
0.0494049
0.0493963
0.0493847
0.0493732
0.0493636
0.0493556
0.0493494
0.0493456
0.0493438
0.0493438
0.0493483
0.0493573
0.049358
0.0493298
0.0492217
0.0493434
0.0493777
0.0493843
0.0493839
0.0493802
0.0493744
0.0493665
0.0493568
0.0493456
0.049334
0.0493238
0.0493192
0.0493253
0.0493312
0.04925
0.0492769
0.0493372
0.0490519
0.0490951
0.0492636
0.0493928
0.0494088
0.0494117
0.0494124
0.049411
0.0494055
0.0493951
0.0493818
0.0493691
0.049359
0.0493514
0.0493465
0.0493442
0.049343
0.0493432
0.0493474
0.0493569
0.0493583
0.0493269
0.0492013
0.0493377
0.0493776
0.0493833
0.0493812
0.0493763
0.0493698
0.0493618
0.0493525
0.049342
0.0493313
0.0493223
0.0493181
0.0493245
0.0493303
0.0492388
0.0493013
0.0493839
0.0490526
0.0490838
0.0492574
0.0494012
0.0494162
0.0494161
0.0494156
0.0494131
0.0494061
0.0493939
0.0493788
0.0493649
0.0493546
0.0493478
0.0493444
0.0493433
0.049343
0.0493435
0.0493476
0.0493573
0.0493601
0.0493275
0.049183
0.0493318
0.0493779
0.0493826
0.0493787
0.0493724
0.0493651
0.0493569
0.0493478
0.049338
0.0493284
0.0493209
0.0493184
0.0493248
0.0493303
0.0492291
0.0493233
0.0494227
0.0490931
0.0491093
0.0492847
0.0494104
0.0494241
0.0494211
0.0494192
0.0494154
0.0494068
0.0493929
0.0493759
0.049361
0.0493507
0.0493449
0.0493429
0.049343
0.0493436
0.049345
0.0493491
0.0493586
0.0493636
0.0493326
0.0491687
0.0493253
0.0493786
0.0493822
0.0493763
0.0493683
0.0493601
0.0493515
0.0493425
0.0493332
0.0493247
0.0493195
0.04932
0.0493272
0.0493315
0.0492211
0.0493404
0.0494564
0.0491828
0.0491709
0.0493335
0.0494244
0.0494317
0.0494262
0.0494231
0.0494179
0.049408
0.0493924
0.0493737
0.0493576
0.0493473
0.0493425
0.0493418
0.0493431
0.0493448
0.0493471
0.0493517
0.0493608
0.0493688
0.0493425
0.0491617
0.0493169
0.0493794
0.0493819
0.0493738
0.0493641
0.0493546
0.0493454
0.0493362
0.0493272
0.0493197
0.0493164
0.0493203
0.049331
0.0493335
0.049215
0.0493535
0.0495136
0.0493004
0.0492589
0.0493904
0.0494396
0.0494385
0.0494313
0.0494269
0.0494207
0.0494097
0.0493928
0.0493722
0.0493547
0.0493444
0.0493405
0.0493409
0.0493433
0.0493463
0.0493497
0.049355
0.0493641
0.049375
0.0493561
0.0491674
0.0493035
0.0493801
0.0493815
0.0493712
0.0493596
0.0493486
0.0493385
0.0493289
0.0493199
0.0493127
0.0493096
0.0493148
0.0493354
0.0493363
0.0492115
0.0493628
0.0495471
0.0494072
0.0493519
0.0494327
0.0494519
0.0494443
0.049436
0.0494308
0.0494238
0.0494122
0.0493942
0.0493716
0.0493524
0.0493417
0.0493385
0.0493399
0.0493433
0.0493475
0.0493524
0.0493589
0.0493683
0.0493815
0.0493713
0.0491878
0.0492906
0.0493804
0.0493806
0.0493681
0.0493546
0.0493421
0.049331
0.0493209
0.0493118
0.0493042
0.0493002
0.0493053
0.0493322
0.0493325
0.0492119
0.0493659
0.0495508
0.0494802
0.0494268
0.0494614
0.0494607
0.0494488
0.0494401
0.0494345
0.0494272
0.0494156
0.0493968
0.0493721
0.0493505
0.0493392
0.0493363
0.0493384
0.0493426
0.049348
0.0493545
0.0493627
0.049373
0.0493872
0.049386
0.0492225
0.0492802
0.0493785
0.0493785
0.0493646
0.0493492
0.0493353
0.0493232
0.0493128
0.0493036
0.0492957
0.0492899
0.0492918
0.0493112
0.0493207
0.0492179
0.0493633
0.0495497
0.0495225
0.0494744
0.0494786
0.0494664
0.0494522
0.0494437
0.049438
0.0494309
0.0494199
0.0494007
0.0493737
0.0493491
0.0493364
0.0493336
0.049336
0.0493409
0.0493473
0.0493555
0.0493655
0.0493774
0.0493915
0.0493978
0.049269
0.0492721
0.049371
0.0493744
0.0493604
0.0493435
0.0493283
0.0493155
0.0493051
0.0492966
0.0492889
0.0492818
0.0492785
0.0492859
0.0493032
0.04923
0.0493566
0.0495469
0.0495586
0.0495023
0.0494887
0.0494696
0.0494545
0.0494467
0.0494413
0.0494349
0.0494251
0.0494058
0.0493766
0.0493482
0.0493334
0.0493301
0.0493325
0.0493376
0.0493448
0.0493545
0.049367
0.0493818
0.0493958
0.0494048
0.0493219
0.0492678
0.0493527
0.0493682
0.0493557
0.0493376
0.0493212
0.0493081
0.0492983
0.0492914
0.0492855
0.0492789
0.0492718
0.0492675
0.049283
0.0492479
0.0493481
0.0495449
0.0495776
0.0495152
0.049494
0.0494707
0.049456
0.0494491
0.0494443
0.0494391
0.049431
0.0494123
0.049381
0.049348
0.0493299
0.0493256
0.0493274
0.0493323
0.0493397
0.0493506
0.0493653
0.0493832
0.0494
0.0494072
0.0493726
0.0492648
0.0493285
0.0493594
0.0493504
0.0493316
0.0493143
0.049301
0.0492923
0.0492879
0.0492857
0.0492825
0.0492753
0.0492631
0.0492613
0.0492707
0.0493385
0.0495413
0.0495646
0.0495194
0.0494962
0.0494704
0.0494569
0.0494509
0.0494471
0.0494435
0.0494375
0.0494199
0.0493872
0.0493488
0.0493261
0.0493199
0.0493207
0.0493248
0.0493319
0.0493431
0.0493593
0.0493795
0.0493985
0.0494065
0.0494125
0.0492603
0.0493002
0.0493449
0.0493442
0.0493256
0.0493075
0.049294
0.0492866
0.0492853
0.049288
0.049291
0.0492898
0.0492814
0.0492782
0.0492975
0.0493281
0.0495377
0.0495544
0.049521
0.0494966
0.0494693
0.0494574
0.0494523
0.0494494
0.0494478
0.0494444
0.0494284
0.0493951
0.0493511
0.0493221
0.0493132
0.0493124
0.0493151
0.0493212
0.0493322
0.0493494
0.0493719
0.0493942
0.0494071
0.0494359
0.0492524
0.0492706
0.0493185
0.0493363
0.0493198
0.0493008
0.049287
0.0492806
0.0492824
0.0492902
0.0493006
0.0493092
0.0493128
0.0493183
0.0493256
0.0493171
0.049534
0.0495472
0.0495223
0.0494962
0.049468
0.0494577
0.0494534
0.0494516
0.049452
0.0494514
0.0494375
0.049405
0.0493558
0.0493182
0.0493055
0.0493024
0.0493031
0.0493078
0.049318
0.0493355
0.04936
0.0493868
0.0494081
0.0494434
0.049239
0.0492431
0.0492796
0.0493253
0.0493147
0.0492946
0.0492802
0.0492746
0.0492789
0.0492909
0.0493077
0.0493263
0.0493461
0.0493686
0.0493597
0.0493059
0.0495304
0.0495421
0.0495247
0.0494954
0.049467
0.049458
0.0494544
0.0494536
0.0494562
0.0494581
0.0494468
0.0494164
0.0493635
0.0493151
0.0492971
0.049291
0.0492892
0.0492918
0.0493004
0.0493177
0.0493436
0.0493746
0.0494058
0.0494385
0.0492197
0.0492177
0.0492384
0.0493026
0.049311
0.0492892
0.0492742
0.0492692
0.0492754
0.0492903
0.0493111
0.0493369
0.0493709
0.0494193
0.0494553
0.0492947
0.0495273
0.0495392
0.0495284
0.0494943
0.0494665
0.0494585
0.0494555
0.0494557
0.0494604
0.0494644
0.0494559
0.0494288
0.0493747
0.0493137
0.0492882
0.0492785
0.0492735
0.0492735
0.0492802
0.0492968
0.0493238
0.0493586
0.0493988
0.0494275
0.049199
0.0491958
0.0492047
0.0492622
0.0493082
0.0492859
0.0492698
0.0492652
0.0492731
0.0492896
0.049312
0.04934
0.0493762
0.0494223
0.0494561
0.0492837
0.0495245
0.0495378
0.049533
0.0494931
0.0494667
0.0494593
0.0494569
0.0494579
0.0494645
0.04947
0.0494642
0.0494415
0.0493893
0.0493154
0.0492794
0.0492653
0.0492565
0.0492533
0.0492578
0.0492735
0.0493018
0.0493409
0.049389
0.0494154
0.0491815
0.0491777
0.0491766
0.0492229
0.0492891
0.0492853
0.0492672
0.049263
0.0492724
0.0492898
0.0493129
0.0493412
0.049376
0.049415
0.049444
0.049273
0.0495222
0.0495369
0.0495371
0.0494927
0.0494675
0.0494607
0.0494586
0.0494603
0.0494689
0.049475
0.0494716
0.0494536
0.0494063
0.049322
0.0492713
0.0492518
0.0492387
0.0492316
0.0492334
0.0492478
0.0492777
0.049322
0.0493782
0.0494036
0.0491723
0.0491647
0.0491554
0.0491924
0.0492559
0.0492852
0.0492668
0.0492626
0.049273
0.0492909
0.0493142
0.0493422
0.0493749
0.0494079
0.0494337
0.0492627
0.0495203
0.0495356
0.0495405
0.0494935
0.049469
0.0494625
0.0494608
0.0494631
0.0494733
0.0494795
0.0494779
0.0494643
0.0494238
0.0493352
0.0492649
0.049239
0.049221
0.0492093
0.0492076
0.04922
0.0492511
0.0493015
0.0493668
0.049393
0.0491829
0.0491614
0.0491436
0.0491707
0.0492269
0.0492675
0.0492698
0.0492637
0.0492741
0.0492923
0.0493157
0.049343
0.0493735
0.0494018
0.0494255
0.0492529
0.0495188
0.0495334
0.0495414
0.0494953
0.0494711
0.049465
0.0494637
0.0494666
0.0494772
0.0494836
0.0494832
0.0494732
0.04944
0.0493547
0.0492616
0.0492278
0.0492047
0.049188
0.0491821
0.049191
0.0492218
0.0492785
0.0493547
0.0493866
0.0492343
0.049177
0.0491451
0.0491595
0.0492052
0.0492463
0.0492627
0.049266
0.0492748
0.0492936
0.0493171
0.0493438
0.0493724
0.0493973
0.0494196
0.0492436
0.0495176
0.04953
0.0495369
0.0494981
0.0494739
0.0494682
0.0494673
0.0494713
0.0494808
0.0494873
0.0494878
0.0494803
0.0494535
0.0493772
0.0492629
0.0492194
0.0491917
0.0491706
0.0491598
0.0491631
0.0491911
0.0492526
0.0493414
0.0493876
0.0493344
0.049218
0.0491627
0.0491598
0.0491922
0.0492284
0.0492499
0.0492634
0.0492739
0.0492943
0.0493186
0.0493447
0.0493719
0.0493946
0.0494162
0.0492347
0.0495168
0.0495264
0.0495291
0.0495019
0.0494773
0.0494721
0.0494716
0.0494767
0.0494848
0.0494907
0.0494917
0.049486
0.049464
0.0493972
0.0492703
0.0492149
0.0491841
0.0491605
0.0491446
0.0491399
0.0491611
0.0492242
0.0493255
0.0493895
0.0494393
0.0492767
0.0491939
0.0491708
0.0491881
0.0492161
0.0492371
0.0492547
0.0492695
0.0492931
0.0493198
0.0493462
0.0493724
0.0493938
0.0494154
0.0492263
0.0495164
0.0495238
0.0495233
0.0495062
0.0494815
0.0494765
0.0494768
0.0494822
0.049489
0.0494939
0.0494952
0.0494907
0.049472
0.049412
0.0492843
0.0492154
0.0491832
0.0491605
0.0491393
0.049125
0.0491358
0.049195
0.0493062
0.0493871
0.0494748
0.0493299
0.0492299
0.0491889
0.0491916
0.04921
0.0492272
0.049243
0.0492629
0.0492905
0.0493201
0.0493478
0.0493739
0.049395
0.0494168
0.0492185
0.049516
0.0495219
0.0495215
0.049511
0.0494864
0.0494816
0.0494825
0.0494877
0.0494931
0.0494969
0.0494982
0.0494948
0.0494782
0.0494219
0.0493041
0.0492209
0.0491898
0.0491684
0.0491422
0.0491197
0.0491191
0.0491686
0.0492835
0.0493822
0.0494616
0.0493641
0.0492621
0.0492097
0.0492005
0.0492095
0.0492216
0.0492353
0.0492578
0.0492883
0.0493205
0.0493497
0.0493763
0.0493978
0.0494205
0.0492111
0.0495147
0.0495195
0.0495215
0.0495158
0.049492
0.0494872
0.0494887
0.0494929
0.0494968
0.0494995
0.0495007
0.0494985
0.0494834
0.0494296
0.0493269
0.0492322
0.0492022
0.0491798
0.0491481
0.0491185
0.0491091
0.0491481
0.0492604
0.0493755
0.0494492
0.0493852
0.0492882
0.0492302
0.0492126
0.0492137
0.0492207
0.049233
0.049256
0.0492878
0.0493217
0.0493522
0.0493795
0.049402
0.0494261
0.0492042
0.0495113
0.0495146
0.0495206
0.0495198
0.0494984
0.0494932
0.0494948
0.0494976
0.0494998
0.0495016
0.0495027
0.0495019
0.0494883
0.0494377
0.0493491
0.04925
0.0492195
0.0491921
0.0491531
0.0491174
0.0491013
0.0491317
0.0492407
0.0493678
0.0494417
0.0494047
0.0493112
0.0492505
0.0492274
0.0492222
0.0492248
0.0492355
0.049258
0.04929
0.0493244
0.0493556
0.0493835
0.0494073
0.0494331
0.0491977
0.0494971
0.0495048
0.0495157
0.0495218
0.0495053
0.0494993
0.0495004
0.0495013
0.0495019
0.0495027
0.049504
0.0495046
0.0494931
0.0494467
0.0493706
0.049272
0.0492398
0.0492025
0.0491549
0.0491143
0.049094
0.0491184
0.0492252
0.0493614
0.0494375
0.049429
0.0493358
0.0492725
0.0492452
0.0492354
0.0492344
0.0492434
0.0492647
0.0492955
0.049329
0.0493599
0.0493882
0.0494133
0.049441
0.0491914
0.0494517
0.0494858
0.0495017
0.0495203
0.0495126
0.0495048
0.0495045
0.0495034
0.049502
0.0495015
0.049503
0.049505
0.0494944
0.0494528
0.049388
0.0492961
0.0492573
0.0492056
0.04915
0.0491075
0.0490861
0.0491073
0.049214
0.0493583
0.0494354
0.0494532
0.0493633
0.0492977
0.0492673
0.049254
0.0492502
0.0492573
0.0492764
0.0493046
0.0493355
0.0493651
0.0493934
0.0494199
0.0494492
0.0491913
0.0493651
0.0494236
0.0494484
0.049488
0.0495147
0.0495066
0.049504
0.0495004
0.0494933
0.0494875
0.0494869
0.0494859
0.0494715
0.0494364
0.0493844
0.0493161
0.0492588
0.0491915
0.0491346
0.0490952
0.0490766
0.0490981
0.0492075
0.0493599
0.0494348
0.0494729
0.0493909
0.0493259
0.049294
0.0492784
0.0492722
0.0492768
0.0492925
0.0493163
0.0493434
0.049371
0.0493991
0.0494268
0.0494572
0.0492044
0.0492959
0.0493132
0.0492899
0.0492831
0.0493827
0.0494157
0.0494231
0.049414
0.0493995
0.0493901
0.049387
0.0493855
0.049377
0.049359
0.0493307
0.0492826
0.0492149
0.049152
0.0491061
0.0490768
0.0490654
0.0490909
0.0492064
0.0493672
0.049436
0.0494739
0.0494111
0.0493539
0.0493237
0.0493076
0.0492991
0.0493001
0.049311
0.0493291
0.0493517
0.0493771
0.0494053
0.0494341
0.0494648
0.0492294
0.0492461
0.0492319
0.049219
0.049214
0.0492183
0.0492151
0.0492122
0.0492079
0.0492079
0.0492112
0.0492165
0.0492207
0.0492203
0.0492161
0.0492047
0.0491751
0.0491321
0.0490959
0.0490703
0.0490558
0.0490545
0.0490868
0.0492119
0.0493809
0.0494377
0.049438
0.0494253
0.0493785
0.0493533
0.0493384
0.0493277
0.049324
0.0493289
0.0493408
0.0493594
0.0493836
0.0494124
0.0494423
0.0494722
0.0492607
0.0492131
0.0491661
0.0491464
0.0491397
0.0491324
0.0491213
0.0491111
0.049103
0.0490987
0.0490977
0.0490985
0.0490997
0.0490999
0.0490982
0.0490928
0.0490808
0.0490637
0.0490487
0.0490403
0.0490392
0.0490478
0.0490889
0.0492269
0.0494012
0.0494362
0.0494229
0.0494362
0.0493942
0.0493782
0.0493663
0.0493532
0.049344
0.0493427
0.0493497
0.0493663
0.0493914
0.0494222
0.049453
0.0494806
0.0492909
0.0491942
0.0491149
0.0490838
0.0490741
0.0490649
0.0490529
0.0490421
0.0490347
0.0490307
0.0490293
0.0490296
0.0490307
0.049032
0.0490329
0.0490323
0.0490289
0.0490241
0.0490225
0.0490263
0.0490354
0.0490528
0.049105
0.0492583
0.0494291
0.0494325
0.0494079
0.0494155
0.0494025
0.0493943
0.0493857
0.0493699
0.0493556
0.0493498
0.0493571
0.0493769
0.049406
0.0494396
0.0494705
0.0494944
0.0493176
0.0492015
0.0491016
0.0490651
0.0490578
0.0490529
0.0490459
0.0490402
0.0490376
0.0490377
0.0490401
0.0490439
0.0490482
0.0490526
0.0490565
0.0490587
0.0490584
0.0490566
0.0490569
0.0490621
0.0490733
0.0490978
0.0491684
0.0493322
0.0494705
0.0494458
0.0494137
0.0494082
0.0494179
0.0494138
0.0494122
0.0493989
0.0493882
0.0493889
0.0494008
0.0494231
0.0494522
0.0494834
0.0495105
0.0495392
)
;

boundaryField
{
    floor
    {
        type            fixedFluxPressure;
        gradient        uniform 0;
        value           nonuniform List<scalar> 
40
(
0.0492033
0.0492073
0.0491969
0.0492259
0.0492836
0.0493264
0.0493368
0.0493367
0.0493369
0.0493394
0.0493414
0.0493401
0.0493349
0.0493263
0.0493176
0.0493104
0.0493118
0.0493166
0.0493117
0.0493051
0.0492987
0.0492933
0.0492897
0.049276
0.0492965
0.0493168
0.0493428
0.0493575
0.0493647
0.0493676
0.0493661
0.0493621
0.0493545
0.0493405
0.0493229
0.0493058
0.0492931
0.0492858
0.0492808
0.0492802
)
;
    }
    ceiling
    {
        type            fixedFluxPressure;
        gradient        nonuniform List<scalar> 
40
(
0.342613
0.343514
0.344875
0.346174
0.347364
0.348457
0.349459
0.350399
0.351303
0.352192
0.353083
0.353992
0.354927
0.355894
0.356898
0.357938
0.359007
0.360092
0.361151
0.362032
0.362199
0.359536
0.346689
0.31363
0.283137
0.282912
0.284952
0.286218
0.288154
0.29196
0.292063
0.291707
0.290909
0.289562
0.288027
0.286182
0.283952
0.281393
0.27892
0.275055
)
;
        value           nonuniform List<scalar> 
40
(
0.0510307
0.0509191
0.050826
0.050796
0.0507946
0.0507952
0.0507932
0.0507922
0.0507941
0.0507987
0.0508055
0.0508138
0.0508228
0.0508321
0.0508409
0.0508484
0.0508534
0.050857
0.0508627
0.0508723
0.0508843
0.0508954
0.0509018
0.0509004
0.0508862
0.0508603
0.0508384
0.0508393
0.0508587
0.0508736
0.0508726
0.0508574
0.0508428
0.0508367
0.050841
0.050854
0.0508719
0.0508904
0.0509051
0.0509145
)
;
    }
    fixedWalls
    {
        type            fixedFluxPressure;
        gradient        uniform 0;
        value           nonuniform List<scalar> 
80
(
0.0492033
0.0492182
0.049221
0.0492205
0.0492236
0.0492342
0.049253
0.0492769
0.0493013
0.0493233
0.0493404
0.0493535
0.0493628
0.0493659
0.0493633
0.0493566
0.0493481
0.0493385
0.0493281
0.0493171
0.0493059
0.0492947
0.0492837
0.049273
0.0492627
0.0492529
0.0492436
0.0492347
0.0492263
0.0492185
0.0492111
0.0492042
0.0491977
0.0491914
0.0491913
0.0492044
0.0492294
0.0492607
0.0492909
0.0493176
0.0492802
0.0492972
0.0492965
0.049287
0.0492748
0.0492621
0.04925
0.0492388
0.0492291
0.0492211
0.049215
0.0492115
0.0492119
0.0492179
0.04923
0.0492479
0.0492707
0.0492975
0.0493256
0.0493597
0.0494553
0.0494561
0.049444
0.0494337
0.0494255
0.0494196
0.0494162
0.0494154
0.0494168
0.0494205
0.0494261
0.0494331
0.049441
0.0494492
0.0494572
0.0494648
0.0494722
0.0494806
0.0494944
0.0495392
)
;
    }
    frontAndBack
    {
        type            empty;
    }
}


// ************************************************************************* //
