/*--------------------------------*- C++ -*----------------------------------*\
| =========                 |                                                 |
| \\      /  F ield         | OpenFOAM: The Open Source CFD Toolbox           |
|  \\    /   O peration     | Version:  4.1                                   |
|   \\  /    A nd           | Web:      www.OpenFOAM.org                      |
|    \\/     M anipulation  |                                                 |
\*---------------------------------------------------------------------------*/
FoamFile
{
    version     2.0;
    format      ascii;
    class       surfaceScalarField;
    location    "500";
    object      phi;
}
// * * * * * * * * * * * * * * * * * * * * * * * * * * * * * * * * * * * * * //

dimensions      [0 3 -1 0 0 0 0];

internalField   nonuniform List<scalar> 
3120
(
-4.80115e-06
4.80115e-06
-9.25512e-06
4.45398e-06
-1.55888e-05
6.33372e-06
-1.5999e-05
4.10114e-07
-1.30158e-05
-2.98316e-06
-9.06932e-06
-3.94649e-06
-6.59041e-06
-2.47891e-06
-5.24749e-06
-1.34292e-06
-4.39169e-06
-8.55796e-07
-3.5124e-06
-8.79293e-07
-2.44236e-06
-1.07005e-06
-1.27902e-06
-1.16334e-06
-2.02149e-07
-1.07687e-06
5.33686e-07
-7.35836e-07
9.20625e-07
-3.86939e-07
9.2979e-07
-9.16512e-09
1.43052e-06
-5.00726e-07
2.69776e-06
-1.26724e-06
3.38691e-06
-6.89153e-07
3.67675e-06
-2.89838e-07
3.70536e-06
-2.86096e-08
3.37419e-06
3.31171e-07
3.16344e-06
2.10749e-07
-3.08741e-06
6.25085e-06
-1.04185e-05
7.33112e-06
-1.07546e-05
3.36099e-07
-8.77746e-06
-1.97718e-06
-6.68528e-06
-2.09217e-06
-4.69712e-06
-1.98816e-06
-2.64697e-06
-2.05015e-06
-4.27459e-07
-2.21951e-06
2.10496e-06
-2.53242e-06
4.67531e-06
-2.57035e-06
6.61889e-06
-1.94358e-06
7.88312e-06
-1.26423e-06
8.40819e-06
-5.2507e-07
8.38308e-06
2.51067e-08
8.12278e-06
2.60301e-07
7.02017e-06
1.10262e-06
7.02017e-06
-4.46198e-06
9.26312e-06
-8.77113e-06
8.76314e-06
-1.39537e-05
1.15163e-05
-1.48031e-05
1.25951e-06
-1.23258e-05
-5.46052e-06
-9.11937e-06
-7.15287e-06
-7.05602e-06
-4.54226e-06
-5.61017e-06
-2.78877e-06
-4.40054e-06
-2.06543e-06
-3.25546e-06
-2.02437e-06
-2.09352e-06
-2.23199e-06
-9.33962e-07
-2.32289e-06
8.96793e-08
-2.10051e-06
9.08875e-07
-1.55503e-06
1.52673e-06
-1.00479e-06
2.18424e-06
-6.66678e-07
2.69448e-06
-1.01097e-06
2.89464e-06
-1.4674e-06
3.1453e-06
-9.39817e-07
3.02396e-06
-1.68498e-07
2.64096e-06
3.54395e-07
2.06946e-06
9.02673e-07
1.79138e-06
4.88821e-07
-2.57819e-06
1.06204e-05
-9.16269e-06
1.39156e-05
-9.92284e-06
1.09624e-06
-8.4065e-06
-3.49352e-06
-6.52733e-06
-3.97134e-06
-4.51655e-06
-3.99894e-06
-2.42024e-06
-4.14645e-06
-1.44309e-07
-4.49544e-06
2.24977e-06
-4.9265e-06
4.43152e-06
-4.7521e-06
6.30762e-06
-3.81969e-06
7.63089e-06
-2.58749e-06
8.20772e-06
-1.1019e-06
8.13834e-06
9.4486e-08
7.63594e-06
7.62706e-07
6.22625e-06
2.5123e-06
1.32464e-05
-3.26802e-06
1.25311e-05
-6.41395e-06
1.19091e-05
-1.13458e-05
1.64482e-05
-1.26757e-05
2.58939e-06
-1.07125e-05
-7.42377e-06
-8.02502e-06
-9.84032e-06
-6.3677e-06
-6.19958e-06
-5.17118e-06
-3.98529e-06
-4.11242e-06
-3.12418e-06
-3.03236e-06
-3.10444e-06
-1.87826e-06
-3.38609e-06
-7.12587e-07
-3.48856e-06
3.06862e-07
-3.11996e-06
1.06846e-06
-2.31663e-06
1.60137e-06
-1.5377e-06
2.07767e-06
-1.14298e-06
2.38962e-06
-1.32292e-06
2.52299e-06
-1.60076e-06
2.68904e-06
-1.10587e-06
2.54658e-06
-2.60337e-08
1.97742e-06
9.23557e-07
1.267e-06
1.61309e-06
5.13849e-07
1.24198e-06
-2.45029e-06
1.35846e-05
-7.68219e-06
1.91475e-05
-8.65052e-06
2.06457e-06
-7.67007e-06
-4.47397e-06
-6.08427e-06
-5.55714e-06
-4.27299e-06
-5.81023e-06
-2.37876e-06
-6.04068e-06
-4.16224e-07
-6.45798e-06
1.56882e-06
-6.91155e-06
3.49627e-06
-6.67954e-06
5.28612e-06
-5.60953e-06
6.67387e-06
-3.97524e-06
7.30936e-06
-1.73739e-06
7.15585e-06
2.47991e-07
6.38987e-06
1.52869e-06
4.91437e-06
3.9878e-06
1.81608e-05
-1.97337e-06
1.45045e-05
-3.61409e-06
1.35498e-05
-8.64714e-06
2.14813e-05
-1.06124e-05
4.55466e-06
-9.11965e-06
-8.91653e-06
-7.00763e-06
-1.19523e-05
-5.74872e-06
-7.45849e-06
-4.80851e-06
-4.92551e-06
-3.89836e-06
-4.03433e-06
-2.87958e-06
-4.12321e-06
-1.73998e-06
-4.52569e-06
-5.95681e-07
-4.63286e-06
3.58235e-07
-4.07388e-06
1.00077e-06
-2.95916e-06
1.38515e-06
-1.92208e-06
1.64886e-06
-1.40669e-06
1.79398e-06
-1.46804e-06
1.89437e-06
-1.70115e-06
2.07085e-06
-1.28236e-06
1.97826e-06
6.6561e-08
1.45692e-06
1.44489e-06
7.94235e-07
2.27578e-06
-1.69231e-07
2.20544e-06
-2.40812e-06
1.58235e-05
-6.70552e-06
2.34449e-05
-7.75665e-06
3.1157e-06
-7.09352e-06
-5.1371e-06
-5.77825e-06
-6.87241e-06
-4.21891e-06
-7.36957e-06
-2.59998e-06
-7.65961e-06
-9.92622e-07
-8.06534e-06
6.12913e-07
-8.51708e-06
2.30478e-06
-8.37141e-06
4.01259e-06
-7.31735e-06
5.48208e-06
-5.44473e-06
6.23621e-06
-2.49152e-06
6.10464e-06
3.7956e-07
5.32475e-06
2.30857e-06
3.97853e-06
5.33402e-06
2.21393e-05
-8.84766e-07
1.53893e-05
-1.17139e-06
1.38364e-05
-5.81817e-06
2.6128e-05
-8.39956e-06
7.13605e-06
-7.46733e-06
-9.84876e-06
-6.03528e-06
-1.33844e-05
-5.17093e-06
-8.32284e-06
-4.48762e-06
-5.60882e-06
-3.71971e-06
-4.80224e-06
-2.76762e-06
-5.0753e-06
-1.67112e-06
-5.62219e-06
-5.98941e-07
-5.70505e-06
2.17652e-07
-4.89047e-06
7.09811e-07
-3.45132e-06
9.21741e-07
-2.13401e-06
1.00209e-06
-1.48704e-06
1.03286e-06
-1.49882e-06
1.11808e-06
-1.78636e-06
1.32341e-06
-1.48768e-06
1.32081e-06
6.91584e-08
8.9006e-07
1.87564e-06
2.9611e-07
2.86973e-06
-9.14336e-07
3.41589e-06
-2.33762e-06
1.72467e-05
-5.93298e-06
2.70403e-05
-7.07067e-06
4.25339e-06
-6.64844e-06
-5.55933e-06
-5.60789e-06
-7.91295e-06
-4.3408e-06
-8.63666e-06
-3.03428e-06
-8.96613e-06
-1.75035e-06
-9.34927e-06
-4.75256e-07
-9.79217e-06
9.59625e-07
-9.80629e-06
2.56936e-06
-8.92708e-06
4.11488e-06
-6.99025e-06
5.04834e-06
-3.42498e-06
5.01386e-06
4.14044e-07
4.37785e-06
2.94459e-06
3.27022e-06
6.44165e-06
2.54095e-05
-3.53062e-07
1.57423e-05
8.08554e-07
1.26748e-05
-2.90548e-06
2.98421e-05
-5.91078e-06
1.01413e-05
-5.71072e-06
-1.00488e-05
-5.05322e-06
-1.40419e-05
-4.60212e-06
-8.77394e-06
-4.18253e-06
-6.02841e-06
-3.56408e-06
-5.42069e-06
-2.70112e-06
-5.93825e-06
-1.68858e-06
-6.63473e-06
-7.33786e-07
-6.65984e-06
-6.87175e-08
-5.55554e-06
2.29117e-07
-3.74915e-06
2.79595e-07
-2.18449e-06
2.29317e-07
-1.43676e-06
1.96905e-07
-1.46641e-06
2.64217e-07
-1.85367e-06
4.55033e-07
-1.6785e-06
5.80186e-07
-5.59943e-08
2.70736e-07
2.18509e-06
-2.67797e-07
3.40826e-06
-1.42545e-06
4.57354e-06
-2.17469e-06
1.7996e-05
-5.20864e-06
3.00743e-05
-6.49557e-06
5.54031e-06
-6.30863e-06
-5.74627e-06
-5.55988e-06
-8.66171e-06
-4.61254e-06
-9.58401e-06
-3.62965e-06
-9.94902e-06
-2.63608e-06
-1.03428e-05
-1.62215e-06
-1.08061e-05
-4.46984e-07
-1.09815e-05
1.00878e-06
-1.03828e-05
2.58876e-06
-8.57023e-06
3.7795e-06
-4.61572e-06
3.91279e-06
2.80761e-07
3.5111e-06
3.34627e-06
2.69237e-06
7.26038e-06
2.81019e-05
-5.46634e-07
1.6289e-05
2.17032e-06
9.95784e-06
-3.33229e-07
3.23456e-05
-3.09194e-06
1.29001e-05
-3.83406e-06
-9.3067e-06
-4.02807e-06
-1.38479e-05
-4.03742e-06
-8.76459e-06
-3.89085e-06
-6.17498e-06
-3.43556e-06
-5.87597e-06
-2.69102e-06
-6.68279e-06
-1.80002e-06
-7.52573e-06
-9.92936e-07
-7.46692e-06
-4.98578e-07
-6.0499e-06
-3.7778e-07
-3.86995e-06
-4.7912e-07
-2.08315e-06
-6.08911e-07
-1.30697e-06
-6.4374e-07
-1.43158e-06
-5.8632e-07
-1.91109e-06
-4.78816e-07
-1.786e-06
-2.68195e-07
-2.66616e-07
-3.94861e-07
2.31176e-06
-7.97503e-07
3.8109e-06
-1.77011e-06
5.54614e-06
-1.92114e-06
1.8147e-05
-4.46452e-06
3.26176e-05
-5.98101e-06
7.05681e-06
-6.05556e-06
-5.67172e-06
-5.61792e-06
-9.09935e-06
-5.00447e-06
-1.01975e-05
-4.34385e-06
-1.06096e-05
-3.62641e-06
-1.10603e-05
-2.81084e-06
-1.16217e-05
-1.83483e-06
-1.19575e-05
-5.99528e-07
-1.16181e-05
9.12339e-07
-1.00821e-05
2.42212e-06
-6.12551e-06
2.86004e-06
-1.57161e-07
2.72169e-06
3.48463e-06
2.20526e-06
7.77681e-06
3.03072e-05
-9.41357e-07
1.72303e-05
2.36786e-06
6.64863e-06
2.33787e-06
3.23756e-05
6.74465e-08
1.51705e-05
-1.79047e-06
-7.44877e-06
-2.96813e-06
-1.26702e-05
-3.49035e-06
-8.24236e-06
-3.62171e-06
-6.04363e-06
-3.34215e-06
-6.15553e-06
-2.74123e-06
-7.28371e-06
-1.99503e-06
-8.27194e-06
-1.34549e-06
-8.11646e-06
-1.02082e-06
-6.37456e-06
-1.05465e-06
-3.83613e-06
-1.25508e-06
-1.88271e-06
-1.42079e-06
-1.14127e-06
-1.46191e-06
-1.39046e-06
-1.4289e-06
-1.94411e-06
-1.35903e-06
-1.85587e-06
-1.16263e-06
-4.6301e-07
-1.10061e-06
2.24973e-06
-1.38127e-06
4.09157e-06
-2.03472e-06
6.1996e-06
-1.61733e-06
1.77296e-05
-3.66039e-06
3.46607e-05
-5.49422e-06
8.89064e-06
-5.87376e-06
-5.29218e-06
-5.763e-06
-9.21011e-06
-5.4863e-06
-1.04742e-05
-5.13918e-06
-1.09567e-05
-4.68532e-06
-1.15141e-05
-4.06612e-06
-1.22409e-05
-3.22267e-06
-1.28009e-05
-2.12926e-06
-1.27116e-05
-8.0865e-07
-1.14027e-05
9.58887e-07
-7.89304e-06
1.91285e-06
-1.11112e-06
2.01835e-06
3.37912e-06
1.78526e-06
8.0099e-06
3.20924e-05
-1.29586e-06
1.85262e-05
1.833e-06
3.51976e-06
3.80598e-06
3.04026e-05
2.42547e-06
1.6551e-05
2.08446e-07
-5.23175e-06
-1.9233e-06
-1.05385e-05
-2.98523e-06
-7.18043e-06
-3.38664e-06
-5.64223e-06
-3.28841e-06
-6.25376e-06
-2.84486e-06
-7.72726e-06
-2.24866e-06
-8.86814e-06
-1.74685e-06
-8.61827e-06
-1.56733e-06
-6.55409e-06
-1.71972e-06
-3.68374e-06
-1.98717e-06
-1.61526e-06
-2.18066e-06
-9.47775e-07
-2.25176e-06
-1.31936e-06
-2.26286e-06
-1.933e-06
-2.21809e-06
-1.90064e-06
-2.05644e-06
-6.24662e-07
-1.80497e-06
1.99826e-06
-1.90175e-06
4.18835e-06
-2.25593e-06
6.55377e-06
-1.31437e-06
1.67881e-05
-2.77214e-06
3.61185e-05
-5.01188e-06
1.11304e-05
-5.74692e-06
-4.55714e-06
-5.97417e-06
-8.98286e-06
-6.0289e-06
-1.04194e-05
-5.98388e-06
-1.10018e-05
-5.78513e-06
-1.17129e-05
-5.36284e-06
-1.26632e-05
-4.65482e-06
-1.35089e-05
-3.63749e-06
-1.37289e-05
-2.36751e-06
-1.26727e-05
-6.33455e-07
-9.6271e-06
9.7652e-07
-2.7211e-06
1.40847e-06
2.94717e-06
1.40587e-06
8.0125e-06
3.34983e-05
-1.61186e-06
2.01381e-05
9.87568e-07
9.20332e-07
4.40637e-06
2.69838e-05
4.04786e-06
1.69095e-05
1.43078e-06
-2.61467e-06
-1.05568e-06
-8.05203e-06
-2.55148e-06
-5.68464e-06
-3.1936e-06
-5.00011e-06
-3.27244e-06
-6.17492e-06
-2.98632e-06
-8.01337e-06
-2.53019e-06
-9.32427e-06
-2.15378e-06
-8.99468e-06
-2.08568e-06
-6.62219e-06
-2.32335e-06
-3.44606e-06
-2.64203e-06
-1.29659e-06
-2.87118e-06
-7.18618e-07
-2.99176e-06
-1.19878e-06
-3.05405e-06
-1.87071e-06
-3.03416e-06
-1.92053e-06
-2.8564e-06
-8.02427e-07
-2.46843e-06
1.61029e-06
-2.36112e-06
4.08104e-06
-2.44605e-06
6.6387e-06
-1.05975e-06
1.54018e-05
-1.79731e-06
3.6856e-05
-4.51149e-06
1.38446e-05
-5.65639e-06
-3.41224e-06
-6.22901e-06
-8.41023e-06
-6.60433e-06
-1.00441e-05
-6.84905e-06
-1.07571e-05
-6.8999e-06
-1.1662e-05
-6.67795e-06
-1.28851e-05
-6.1118e-06
-1.40751e-05
-5.16105e-06
-1.46796e-05
-3.84052e-06
-1.39932e-05
-2.31209e-06
-1.11555e-05
-1.01061e-07
-4.93213e-06
9.73878e-07
1.87223e-06
1.03691e-06
7.94946e-06
3.45352e-05
-1.7967e-06
2.19348e-05
1.63957e-07
-1.04032e-06
4.27178e-06
2.2876e-05
4.84356e-06
1.63377e-05
2.32291e-06
-9.40197e-08
-4.56581e-07
-5.27254e-06
-2.20746e-06
-3.93376e-06
-3.04471e-06
-4.16286e-06
-3.28617e-06
-5.93346e-06
-3.14583e-06
-8.15371e-06
-2.81075e-06
-9.65935e-06
-2.53237e-06
-9.27305e-06
-2.54104e-06
-6.61352e-06
-2.8378e-06
-3.14931e-06
-3.20258e-06
-9.31806e-07
-3.47914e-06
-4.42065e-07
-3.66059e-06
-1.01733e-06
-3.77478e-06
-1.75653e-06
-3.77278e-06
-1.92253e-06
-3.55309e-06
-1.02211e-06
-3.0724e-06
1.12961e-06
-2.76797e-06
3.7766e-06
-2.60343e-06
6.47417e-06
-8.79317e-07
1.36776e-05
-7.81187e-07
3.67579e-05
-3.94684e-06
1.70102e-05
-5.57851e-06
-1.78057e-06
-6.50408e-06
-7.48466e-06
-7.18442e-06
-9.36378e-06
-7.70484e-06
-1.02366e-05
-8.00071e-06
-1.13662e-05
-7.98448e-06
-1.29014e-05
-7.57182e-06
-1.44877e-05
-6.70171e-06
-1.55497e-05
-5.36222e-06
-1.53327e-05
-3.60199e-06
-1.29158e-05
-1.09451e-06
-7.43961e-06
5.2037e-07
2.57356e-07
6.2124e-07
7.8486e-06
3.51564e-05
-1.81699e-06
2.37517e-05
-4.6744e-07
-2.38987e-06
3.73852e-06
1.867e-05
4.97829e-06
1.5098e-05
2.74737e-06
2.1369e-06
-7.42782e-08
-2.45089e-06
-1.94938e-06
-2.05865e-06
-2.93472e-06
-3.17752e-06
-3.31705e-06
-5.55113e-06
-3.30339e-06
-8.16737e-06
-3.06736e-06
-9.89538e-06
-2.8602e-06
-9.48021e-06
-2.91393e-06
-6.55979e-06
-3.24976e-06
-2.81347e-06
-3.66092e-06
-5.20645e-07
-3.99567e-06
-1.07313e-07
-4.24499e-06
-7.68007e-07
-4.41399e-06
-1.58753e-06
-4.43676e-06
-1.89977e-06
-4.19888e-06
-1.25999e-06
-3.64774e-06
5.7847e-07
-3.12152e-06
3.25038e-06
-2.71453e-06
6.06718e-06
-7.45603e-07
1.17087e-05
3.66041e-07
3.56463e-05
-3.21842e-06
2.05947e-05
-5.47933e-06
4.80332e-07
-6.7769e-06
-6.18709e-06
-7.73879e-06
-8.40189e-06
-8.51666e-06
-9.45876e-06
-9.05109e-06
-1.08317e-05
-9.24629e-06
-1.27062e-05
-9.00579e-06
-1.47282e-05
-8.25131e-06
-1.63042e-05
-6.93522e-06
-1.66488e-05
-4.97871e-06
-1.48723e-05
-2.18487e-06
-1.02334e-05
-2.47746e-07
-1.67977e-06
1.21335e-07
7.47952e-06
3.52778e-05
-1.96633e-06
2.57181e-05
-8.44867e-07
-3.51133e-06
3.26983e-06
1.45553e-05
4.71649e-06
1.36513e-05
2.81274e-06
4.04064e-06
1.43519e-07
2.18338e-07
-1.76094e-06
-1.54195e-07
-2.85258e-06
-2.08589e-06
-3.35024e-06
-5.05347e-06
-3.44131e-06
-8.07629e-06
-3.28381e-06
-1.00529e-05
-3.12497e-06
-9.63905e-06
-3.19617e-06
-6.4886e-06
-3.55458e-06
-2.45506e-06
-4.01451e-06
-6.0714e-08
-4.41568e-06
2.93854e-07
-4.73625e-06
-4.4744e-07
-4.96123e-06
-1.36255e-06
-5.01234e-06
-1.84866e-06
-4.7734e-06
-1.49893e-06
-4.15896e-06
-3.59744e-08
-3.40327e-06
2.49469e-06
-2.75017e-06
5.41408e-06
-6.44786e-07
9.60332e-06
1.45642e-06
3.3545e-05
-2.35359e-06
2.44047e-05
-5.36538e-06
3.49212e-06
-7.02534e-06
-4.52713e-06
-8.23195e-06
-7.19527e-06
-9.24203e-06
-8.44869e-06
-1.00031e-05
-1.00706e-05
-1.04123e-05
-1.2297e-05
-1.03655e-05
-1.4775e-05
-9.77516e-06
-1.68946e-05
-8.5681e-06
-1.78559e-05
-6.64496e-06
-1.67954e-05
-4.07774e-06
-1.28007e-05
-1.59043e-06
-4.16708e-06
-7.51941e-07
6.64103e-06
3.45258e-05
-2.02354e-06
2.77416e-05
-7.62067e-07
-4.77281e-06
3.12473e-06
1.06685e-05
4.31286e-06
1.24632e-05
2.65433e-06
5.69917e-06
1.90534e-07
2.68214e-06
-1.63299e-06
1.66933e-06
-2.78393e-06
-9.3495e-07
-3.37052e-06
-4.46689e-06
-3.5451e-06
-7.9017e-06
-3.44971e-06
-1.01483e-05
-3.32208e-06
-9.76668e-06
-3.38746e-06
-6.42322e-06
-3.75331e-06
-2.08921e-06
-4.26526e-06
4.51231e-07
-4.73819e-06
7.66784e-07
-5.13237e-06
-5.32633e-08
-5.41547e-06
-1.07944e-06
-5.49846e-06
-1.76567e-06
-5.25687e-06
-1.74051e-06
-4.58889e-06
-7.03959e-07
-3.61721e-06
1.52301e-06
-2.70276e-06
4.49963e-06
-5.58643e-07
7.45921e-06
2.37341e-06
3.0613e-05
-1.40114e-06
2.81792e-05
-5.22181e-06
7.31279e-06
-7.21975e-06
-2.52919e-06
-8.62075e-06
-5.79427e-06
-9.82943e-06
-7.24001e-06
-1.0796e-05
-9.10404e-06
-1.14122e-05
-1.16809e-05
-1.15727e-05
-1.46145e-05
-1.11889e-05
-1.72783e-05
-1.01853e-05
-1.88595e-05
-8.50264e-06
-1.84781e-05
-6.26443e-06
-1.50389e-05
-3.40862e-06
-7.02289e-06
-1.74607e-06
4.97848e-06
3.27798e-05
-1.95e-06
2.96916e-05
-4.60556e-07
-6.26225e-06
3.16309e-06
7.0449e-06
3.86098e-06
1.17653e-05
2.40344e-06
7.15671e-06
1.59534e-07
4.92604e-06
-1.54957e-06
3.37843e-06
-2.7119e-06
2.27381e-07
-3.36382e-06
-3.81496e-06
-3.60339e-06
-7.66213e-06
-3.559e-06
-1.01927e-05
-3.45215e-06
-9.87353e-06
-3.49269e-06
-6.38268e-06
-3.84938e-06
-1.73251e-06
-4.41227e-06
1.01412e-06
-4.96232e-06
1.31683e-06
-5.43655e-06
4.20972e-07
-5.78371e-06
-7.32283e-07
-5.91117e-06
-1.63821e-06
-5.68789e-06
-1.96379e-06
-4.99066e-06
-1.40119e-06
-3.83005e-06
3.62399e-07
-2.5854e-06
3.25498e-06
-4.4154e-07
5.31535e-06
3.15067e-06
2.70208e-05
-3.44643e-07
3.16745e-05
-4.96986e-06
1.1938e-05
-7.30362e-06
-1.95427e-07
-8.85571e-06
-4.24218e-06
-1.02215e-05
-5.87422e-06
-1.13599e-05
-7.96565e-06
-1.21618e-05
-1.0879e-05
-1.25259e-05
-1.42503e-05
-1.23699e-05
-1.74344e-05
-1.16287e-05
-1.96006e-05
-1.02523e-05
-1.98545e-05
-8.18634e-06
-1.71049e-05
-5.18343e-06
-1.00258e-05
-2.81347e-06
2.60852e-06
2.99663e-05
-1.78175e-06
3.14734e-05
-4.7241e-07
-7.57159e-06
2.90062e-06
3.67187e-06
3.30885e-06
1.1357e-05
2.08315e-06
8.38241e-06
8.45449e-08
6.92465e-06
-1.49226e-06
4.95523e-06
-2.62543e-06
1.36056e-06
-3.31814e-06
-3.12225e-06
-3.60762e-06
-7.37266e-06
-3.60851e-06
-1.01918e-05
-3.51878e-06
-9.96326e-06
-3.51967e-06
-6.38179e-06
-3.84582e-06
-1.40637e-06
-4.45594e-06
1.62425e-06
-5.08916e-06
1.95005e-06
-5.64677e-06
9.78582e-07
-6.06234e-06
-3.16719e-07
-6.24358e-06
-1.45697e-06
-6.06158e-06
-2.14579e-06
-5.38442e-06
-2.07835e-06
-4.11764e-06
-9.04385e-07
-2.44787e-06
1.58521e-06
-2.67653e-07
3.13513e-06
3.76496e-06
2.29882e-05
8.52789e-07
3.45867e-05
-4.34161e-06
1.71324e-05
-7.17229e-06
2.63525e-06
-8.8914e-06
-2.52307e-06
-1.03628e-05
-4.40282e-06
-1.16264e-05
-6.70207e-06
-1.25784e-05
-9.92696e-06
-1.31245e-05
-1.37042e-05
-1.31945e-05
-1.73644e-05
-1.27424e-05
-2.00527e-05
-1.17086e-05
-2.08883e-05
-9.89612e-06
-1.89174e-05
-6.94062e-06
-1.29813e-05
-3.9588e-06
-3.73295e-07
2.60075e-05
-1.63896e-06
3.31123e-05
-1.0308e-06
-8.17975e-06
2.03336e-06
6.07706e-07
2.71011e-06
1.06803e-05
1.69989e-06
9.39263e-06
-2.98943e-08
8.65444e-06
-1.44024e-06
6.36558e-06
-2.51535e-06
2.43567e-06
-3.22425e-06
-2.41335e-06
-3.55176e-06
-7.04515e-06
-3.59689e-06
-1.01466e-05
-3.5269e-06
-1.00332e-05
-3.47885e-06
-6.42984e-06
-3.74936e-06
-1.13586e-06
-4.39834e-06
2.27323e-06
-5.11532e-06
2.66703e-06
-5.75743e-06
1.62069e-06
-6.24272e-06
1.68579e-07
-6.47686e-06
-1.22284e-06
-6.33915e-06
-2.2835e-06
-5.698e-06
-2.7195e-06
-4.42901e-06
-2.17338e-06
-2.37582e-06
-4.67972e-07
-1.03045e-07
8.6235e-07
4.26218e-06
1.8623e-05
2.01245e-06
3.68364e-05
-3.34486e-06
2.24897e-05
-6.82839e-06
6.11878e-06
-8.7021e-06
-6.49367e-07
-1.02085e-05
-2.89645e-06
-1.15421e-05
-5.36842e-06
-1.25992e-05
-8.86989e-06
-1.32909e-05
-1.30125e-05
-1.35622e-05
-1.70932e-05
-1.33944e-05
-2.02205e-05
-1.27317e-05
-2.1551e-05
-1.13391e-05
-2.031e-05
-8.88554e-06
-1.54348e-05
-5.31942e-06
-3.93941e-06
2.06881e-05
-1.53156e-06
3.46439e-05
-1.16563e-06
-8.54569e-06
1.32086e-06
-1.87878e-06
2.16046e-06
9.84068e-06
1.29288e-06
1.02602e-05
-1.53442e-07
1.01008e-05
-1.37921e-06
7.59135e-06
-2.37275e-06
3.42921e-06
-3.07603e-06
-1.71007e-06
-3.4324e-06
-6.68878e-06
-3.52393e-06
-1.00551e-05
-3.48179e-06
-1.00754e-05
-3.3824e-06
-6.52923e-06
-3.56876e-06
-9.49498e-07
-4.24225e-06
2.94672e-06
-5.0424e-06
3.46718e-06
-5.76903e-06
2.34733e-06
-6.32441e-06
7.23956e-07
-6.60867e-06
-9.38573e-07
-6.51008e-06
-2.38209e-06
-5.89331e-06
-3.33627e-06
-4.59592e-06
-3.47077e-06
-2.36544e-06
-2.69845e-06
3.85629e-08
-1.54166e-06
4.64787e-06
1.40136e-05
3.08263e-06
3.84017e-05
-1.96152e-06
2.75339e-05
-6.22781e-06
1.03851e-05
-8.27266e-06
1.39548e-06
-9.73028e-06
-1.43883e-06
-1.10822e-05
-4.01646e-06
-1.21982e-05
-7.75392e-06
-1.29904e-05
-1.22203e-05
-1.34142e-05
-1.66694e-05
-1.34828e-05
-2.01519e-05
-1.3165e-05
-2.18688e-05
-1.22328e-05
-2.12422e-05
-1.02875e-05
-1.73801e-05
-6.52043e-06
-7.70649e-06
1.41676e-05
-1.42452e-06
3.60684e-05
-1.08256e-06
-8.88765e-06
8.03023e-07
-3.76436e-06
1.69426e-06
8.94944e-06
9.13682e-07
1.10408e-05
-2.6068e-07
1.12751e-05
-1.29975e-06
8.63042e-06
-2.19195e-06
4.3214e-06
-2.87218e-06
-1.02984e-06
-3.24887e-06
-6.31209e-06
-3.39023e-06
-9.91375e-06
-3.38791e-06
-1.00777e-05
-3.24306e-06
-6.67407e-06
-3.31586e-06
-8.76696e-07
-3.99024e-06
3.6211e-06
-4.87114e-06
4.34808e-06
-5.68184e-06
3.15802e-06
-6.30838e-06
1.35049e-06
-6.64646e-06
-6.00493e-07
-6.59235e-06
-2.43619e-06
-6.00906e-06
-3.91955e-06
-4.73585e-06
-4.74398e-06
-2.64785e-06
-4.78645e-06
-8.95596e-08
-4.09995e-06
4.89472e-06
9.02936e-06
3.99279e-06
3.93036e-05
-1.50411e-07
3.16771e-05
-4.94956e-06
1.51842e-05
-7.43786e-06
3.88379e-06
-8.92895e-06
5.22553e-08
-1.02609e-05
-2.68446e-06
-1.13986e-05
-6.61628e-06
-1.22481e-05
-1.13708e-05
-1.27629e-05
-1.61545e-05
-1.29865e-05
-1.99283e-05
-1.29337e-05
-2.19216e-05
-1.24263e-05
-2.17496e-05
-1.10542e-05
-1.87522e-05
-7.64633e-06
-1.11144e-05
6.52131e-06
-1.32093e-06
3.73893e-05
-9.64304e-07
-9.24428e-06
3.58616e-07
-5.08728e-06
1.30784e-06
8.00022e-06
5.8407e-07
1.17646e-05
-3.39636e-07
1.21988e-05
-1.19762e-06
9.48841e-06
-1.97394e-06
5.09772e-06
-2.61507e-06
-3.88709e-07
-3.00315e-06
-5.92401e-06
-3.19708e-06
-9.71982e-06
-3.24837e-06
-1.00264e-05
-3.07343e-06
-6.84902e-06
-3.00783e-06
-9.42287e-07
-3.64499e-06
4.25825e-06
-4.59963e-06
5.30272e-06
-5.49105e-06
4.04944e-06
-6.18722e-06
2.04667e-06
-6.5813e-06
-2.06416e-07
-6.57634e-06
-2.44116e-06
-6.04092e-06
-4.45497e-06
-4.84068e-06
-5.94423e-06
-2.96188e-06
-6.66525e-06
-5.36195e-07
-6.52563e-06
4.82982e-06
3.66335e-06
4.62676e-06
3.95067e-05
1.92864e-06
3.43752e-05
-2.95742e-06
2.00703e-05
-6.29081e-06
7.21718e-06
-7.81722e-06
1.57867e-06
-9.1284e-06
-1.37328e-06
-1.02663e-05
-5.47835e-06
-1.11438e-05
-1.04933e-05
-1.16935e-05
-1.56048e-05
-1.19784e-05
-1.96434e-05
-1.20615e-05
-2.18385e-05
-1.18431e-05
-2.19681e-05
-1.10747e-05
-1.95206e-05
-8.81406e-06
-1.3375e-05
-2.29275e-06
-1.22248e-06
3.86118e-05
-8.47846e-07
-9.6189e-06
-2.46585e-08
-5.91047e-06
9.49411e-07
7.02615e-06
3.0223e-07
1.24117e-05
-3.91471e-07
1.28925e-05
-1.07388e-06
1.01708e-05
-1.72519e-06
5.74903e-06
-2.31122e-06
1.97317e-07
-2.69882e-06
-5.5364e-06
-2.9466e-06
-9.47204e-06
-3.06472e-06
-9.9083e-06
-2.88444e-06
-7.02931e-06
-2.668e-06
-1.15873e-06
-3.21188e-06
4.80213e-06
-4.22599e-06
6.31683e-06
-5.18997e-06
5.01342e-06
-5.95074e-06
2.80744e-06
-6.39998e-06
2.42824e-07
-6.44804e-06
-2.39309e-06
-5.97514e-06
-4.92787e-06
-4.86266e-06
-7.0567e-06
-3.16515e-06
-8.36276e-06
-1.28241e-06
-8.40838e-06
4.13052e-06
-1.74958e-06
5.02937e-06
3.86078e-05
3.81739e-06
3.55872e-05
-2.55692e-07
2.41434e-05
-4.45284e-06
1.14143e-05
-6.37648e-06
3.50231e-06
-7.76071e-06
1.09506e-08
-8.88266e-06
-4.3564e-06
-9.77691e-06
-9.59909e-06
-1.03294e-05
-1.50522e-05
-1.06074e-05
-1.93654e-05
-1.06906e-05
-2.17553e-05
-1.051e-05
-2.21487e-05
-9.88776e-06
-2.01428e-05
-8.05143e-06
-1.52113e-05
-1.03442e-05
-1.1355e-06
3.97473e-05
-8.2983e-07
-9.92457e-06
-4.16292e-07
-6.32401e-06
5.88364e-07
6.0215e-06
6.61526e-08
1.29339e-05
-4.22719e-07
1.33814e-05
-9.32505e-07
1.06806e-05
-1.45229e-06
6.26882e-06
-1.96815e-06
7.13177e-07
-2.33824e-06
-5.16632e-06
-2.64173e-06
-9.16855e-06
-2.83762e-06
-9.71242e-06
-2.68457e-06
-7.18236e-06
-2.32685e-06
-1.51644e-06
-2.70303e-06
5.17831e-06
-3.75108e-06
7.36488e-06
-4.77181e-06
6.03414e-06
-5.58498e-06
3.62061e-06
-6.08431e-06
7.42156e-07
-6.1915e-06
-2.2859e-06
-5.80261e-06
-5.31677e-06
-4.79796e-06
-8.06135e-06
-3.22011e-06
-9.94062e-06
-1.49508e-06
-1.01334e-05
3.15916e-06
-6.40381e-06
5.30932e-06
3.64577e-05
5.33035e-06
3.55661e-05
2.58252e-06
2.68912e-05
-1.82845e-06
1.58253e-05
-4.68179e-06
6.35566e-06
-6.08107e-06
1.41023e-06
-7.31407e-06
-3.1234e-06
-8.22164e-06
-8.69152e-06
-8.7746e-06
-1.44993e-05
-9.04538e-06
-1.90947e-05
-9.10068e-06
-2.17e-05
-8.84119e-06
-2.24082e-05
-7.94921e-06
-2.10348e-05
-5.49534e-06
-1.76652e-05
-1.58395e-05
-1.05453e-06
4.08018e-05
-8.78676e-07
-1.01004e-05
-7.50162e-07
-6.45252e-06
2.1562e-07
5.05572e-06
-1.45558e-07
1.32951e-05
-4.41626e-07
1.36775e-05
-7.78116e-07
1.10171e-05
-1.15567e-06
6.64638e-06
-1.57816e-06
1.13567e-06
-1.91953e-06
-4.82495e-06
-2.28725e-06
-8.80083e-06
-2.56838e-06
-9.43128e-06
-2.47815e-06
-7.27258e-06
-2.01557e-06
-1.97902e-06
-2.14229e-06
5.30503e-06
-3.1815e-06
8.4041e-06
-4.23254e-06
7.08518e-06
-5.07291e-06
4.46098e-06
-5.61297e-06
1.28221e-06
-5.78135e-06
-2.11752e-06
-5.50275e-06
-5.59537e-06
-4.64635e-06
-8.91775e-06
-3.18368e-06
-1.14033e-05
-1.57302e-06
-1.17441e-05
2.09322e-06
-1.007e-05
5.57492e-06
3.2976e-05
6.60959e-06
3.45315e-05
5.04858e-06
2.84522e-05
1.31974e-06
1.95541e-05
-2.43816e-06
1.01136e-05
-4.33372e-06
3.30579e-06
-5.59758e-06
-1.85954e-06
-6.49741e-06
-7.79169e-06
-7.06178e-06
-1.39349e-05
-7.37488e-06
-1.87816e-05
-7.47091e-06
-2.1604e-05
-7.2407e-06
-2.26384e-05
-6.32502e-06
-2.19504e-05
-3.98412e-06
-2.00061e-05
-1.98236e-05
-9.78558e-07
4.17804e-05
-9.75543e-07
-1.01034e-05
-1.04118e-06
-6.38688e-06
-1.86684e-07
4.20121e-06
-3.27822e-07
1.34363e-05
-4.53254e-07
1.38029e-05
-6.16457e-07
1.11803e-05
-8.41132e-07
6.87105e-06
-1.12981e-06
1.42435e-06
-1.44455e-06
-4.51021e-06
-1.89175e-06
-8.35363e-06
-2.26126e-06
-9.06178e-06
-2.26481e-06
-7.26903e-06
-1.74851e-06
-2.49533e-06
-1.57177e-06
5.12829e-06
-2.53493e-06
9.36726e-06
-3.57788e-06
8.12812e-06
-4.41145e-06
5.29455e-06
-4.9631e-06
1.83386e-06
-5.18689e-06
-1.89372e-06
-5.03769e-06
-5.74457e-06
-4.37732e-06
-9.57812e-06
-3.08215e-06
-1.26985e-05
-1.62668e-06
-1.31995e-05
1.12094e-06
-1.28177e-05
5.85749e-06
2.82394e-05
7.68408e-06
3.27049e-05
7.03279e-06
2.91035e-05
4.38696e-06
2.22e-05
5.1057e-07
1.39899e-05
-2.35877e-06
6.17513e-06
-3.69983e-06
-5.18486e-07
-4.58466e-06
-6.90686e-06
-5.17257e-06
-1.3347e-05
-5.58872e-06
-1.83654e-05
-5.78931e-06
-2.14034e-05
-5.66383e-06
-2.27639e-05
-4.88244e-06
-2.27318e-05
-2.93236e-06
-2.19562e-05
-2.2756e-05
-9.08032e-07
4.26884e-05
-1.11333e-06
-9.89814e-06
-1.29694e-06
-6.20327e-06
-6.10664e-07
3.51494e-06
-4.94383e-07
1.332e-05
-4.62054e-07
1.37706e-05
-4.55197e-07
1.11734e-05
-5.25122e-07
6.94098e-06
-6.44216e-07
1.54344e-06
-9.37465e-07
-4.21696e-06
-1.46877e-06
-7.82232e-06
-1.92498e-06
-8.60557e-06
-2.04249e-06
-7.15151e-06
-1.53793e-06
-2.99989e-06
-1.0542e-06
4.64456e-06
-1.84408e-06
1.01571e-05
-2.82993e-06
9.11398e-06
-3.60964e-06
6.07425e-06
-4.13264e-06
2.35687e-06
-4.39069e-06
-1.63567e-06
-4.37332e-06
-5.76194e-06
-3.94744e-06
-1.0004e-05
-2.89375e-06
-1.37521e-05
-1.55164e-06
-1.45416e-05
4.58488e-07
-1.48278e-05
6.05545e-06
2.26424e-05
8.53507e-06
3.02253e-05
8.62894e-06
2.90096e-05
6.79754e-06
2.40314e-05
3.80967e-06
1.69778e-05
6.51727e-07
9.33308e-06
-1.44968e-06
1.58292e-06
-2.42401e-06
-5.93253e-06
-3.08658e-06
-1.26844e-05
-3.67732e-06
-1.77747e-05
-4.04886e-06
-2.10319e-05
-4.09426e-06
-2.27185e-05
-3.55112e-06
-2.3275e-05
-2.08469e-06
-2.34226e-05
-2.48407e-05
-8.43432e-07
4.35319e-05
-1.27641e-06
-9.46516e-06
-1.59573e-06
-5.88395e-06
-1.05393e-06
2.97314e-06
-6.54924e-07
1.2921e-05
-4.71753e-07
1.35874e-05
-3.00611e-07
1.10023e-05
-2.11736e-07
6.8521e-06
-1.75228e-07
1.50693e-06
-4.35973e-07
-3.95622e-06
-1.03376e-06
-7.22453e-06
-1.57311e-06
-8.06622e-06
-1.81359e-06
-6.91103e-06
-1.39624e-06
-3.41724e-06
-6.59641e-07
3.90796e-06
-1.15925e-06
1.06567e-05
-2.03184e-06
9.98656e-06
-2.703e-06
6.74541e-06
-3.14885e-06
2.80272e-06
-3.40533e-06
-1.37919e-06
-3.49869e-06
-5.66858e-06
-3.32047e-06
-1.01822e-05
-2.57704e-06
-1.44956e-05
-1.35335e-06
-1.57653e-05
-2.09351e-07
-1.59718e-05
5.98076e-06
1.64523e-05
9.12163e-06
2.70844e-05
9.84813e-06
2.82831e-05
8.69009e-06
2.51894e-05
6.43741e-06
1.92305e-05
3.99931e-06
1.17712e-05
1.63818e-06
3.94406e-06
1.19828e-07
-4.41418e-06
-7.89676e-07
-1.17749e-05
-1.64095e-06
-1.69234e-05
-2.25305e-06
-2.04198e-05
-2.53252e-06
-2.2439e-05
-2.2986e-06
-2.35089e-05
-1.34876e-06
-2.43724e-05
-2.61895e-05
-7.85587e-07
4.43175e-05
-1.47732e-06
-8.77343e-06
-1.93097e-06
-5.43029e-06
-1.4973e-06
2.53947e-06
-8.11644e-07
1.22353e-05
-4.8226e-07
1.3258e-05
-1.49953e-07
1.067e-05
1.332e-07
6.56895e-06
2.96059e-07
1.34407e-06
2.9757e-08
-3.68992e-06
-6.0021e-07
-6.59457e-06
-1.22353e-06
-7.44291e-06
-1.58902e-06
-6.54554e-06
-1.3262e-06
-3.68005e-06
-4.39862e-07
3.02162e-06
-5.48022e-07
1.07649e-05
-1.24399e-06
1.06825e-05
-1.75585e-06
7.25727e-06
-2.07565e-06
3.12252e-06
-2.28478e-06
-1.17006e-06
-2.43925e-06
-5.51411e-06
-2.48129e-06
-1.01402e-05
-2.08437e-06
-1.48925e-05
-1.06222e-06
-1.67875e-05
-7.1896e-07
-1.63151e-05
5.64232e-06
1.00911e-05
9.41944e-06
2.33073e-05
1.06781e-05
2.70244e-05
1.01024e-05
2.57652e-05
8.48371e-06
2.08492e-05
6.54591e-06
1.3709e-05
4.64229e-06
5.84767e-06
2.9527e-06
-2.72459e-06
1.63581e-06
-1.0458e-05
5.05458e-07
-1.5793e-05
-4.17019e-07
-1.94973e-05
-9.82995e-07
-2.1873e-05
-1.10392e-06
-2.3388e-05
-6.79953e-07
-2.47964e-05
-2.68694e-05
-7.31632e-07
4.50491e-05
-1.71268e-06
-7.79238e-06
-2.27835e-06
-4.86463e-06
-1.90784e-06
2.16897e-06
-9.64643e-07
1.12921e-05
-4.86438e-07
1.27798e-05
4.72793e-09
1.01788e-05
4.95935e-07
6.07774e-06
7.17137e-07
1.12287e-06
4.18244e-07
-3.39102e-06
-1.82042e-07
-5.99428e-06
-8.95485e-07
-6.72947e-06
-1.38489e-06
-6.05614e-06
-1.31342e-06
-3.75152e-06
-4.35661e-07
2.14386e-06
-9.67124e-08
1.0426e-05
-5.34895e-07
1.11207e-05
-8.49093e-07
7.57147e-06
-1.00832e-06
3.28175e-06
-1.12357e-06
-1.05482e-06
-1.26277e-06
-5.37492e-06
-1.44867e-06
-9.95426e-06
-1.38546e-06
-1.49557e-05
-6.34387e-07
-1.75386e-05
-6.43176e-07
-1.63063e-05
5.28842e-06
4.15946e-06
9.43896e-06
1.91567e-05
1.1115e-05
2.53484e-05
1.1055e-05
2.58252e-05
1.00141e-05
2.189e-05
8.5775e-06
1.51456e-05
7.13687e-06
7.2883e-06
5.55587e-06
-1.14359e-06
3.97454e-06
-8.87671e-06
2.59911e-06
-1.44176e-05
1.41937e-06
-1.83175e-05
5.47947e-07
-2.10016e-05
3.75259e-08
-2.28776e-05
-1.86967e-08
-2.47402e-05
-2.68881e-05
-6.77791e-07
4.57269e-05
-1.98166e-06
-6.48851e-06
-2.63366e-06
-4.21263e-06
-2.2815e-06
1.8168e-06
-1.11391e-06
1.01245e-05
-4.66545e-07
1.21324e-05
2.20512e-07
9.49177e-06
8.41581e-07
5.45668e-06
1.09671e-06
8.67745e-07
7.83223e-07
-3.07754e-06
1.41141e-07
-5.3522e-06
-6.09659e-07
-5.97866e-06
-1.21648e-06
-5.44932e-06
-1.33729e-06
-3.63071e-06
-5.86686e-07
1.39326e-06
1.71049e-07
9.66822e-06
2.27691e-08
1.1269e-05
-7.24721e-08
7.66671e-06
-4.1037e-08
3.25031e-06
-2.77908e-08
-1.06807e-06
-6.97343e-08
-5.33297e-06
-2.82313e-07
-9.74169e-06
-4.75664e-07
-1.47624e-05
-5.13368e-08
-1.79629e-05
8.30237e-08
-1.64406e-05
5.17398e-06
-9.31495e-07
9.22236e-06
1.51083e-05
1.11765e-05
2.33942e-05
1.15795e-05
2.54222e-05
1.10819e-05
2.23876e-05
1.01403e-05
1.60871e-05
9.05942e-06
8.3692e-06
7.68442e-06
2.31408e-07
6.07053e-06
-7.26282e-06
4.53558e-06
-1.28826e-05
3.14701e-06
-1.6929e-05
1.98987e-06
-1.98444e-05
1.12791e-06
-2.20156e-05
5.39336e-07
-2.41516e-05
-2.63488e-05
-6.21462e-07
4.63483e-05
-2.30248e-06
-4.80749e-06
-3.01735e-06
-3.49776e-06
-2.64584e-06
1.4453e-06
-1.26737e-06
8.74606e-06
-4.1172e-07
1.12768e-05
4.46255e-07
8.63379e-06
1.17499e-06
4.72794e-06
1.43472e-06
6.08015e-07
1.10126e-06
-2.74408e-06
4.18448e-07
-4.66938e-06
-3.78932e-07
-5.18128e-06