/*--------------------------------*- C++ -*----------------------------------*\
| =========                 |                                                 |
| \\      /  F ield         | OpenFOAM: The Open Source CFD Toolbox           |
|  \\    /   O peration     | Version:  4.1                                   |
|   \\  /    A nd           | Web:      www.OpenFOAM.org                      |
|    \\/     M anipulation  |                                                 |
\*---------------------------------------------------------------------------*/
FoamFile
{
    version     2.0;
    format      ascii;
    class       volVectorField;
    location    "500";
    object      U;
}
// * * * * * * * * * * * * * * * * * * * * * * * * * * * * * * * * * * * * * //

dimensions      [0 1 -1 0 0 0 0];

internalField   nonuniform List<vector> 
5000
(
(-0.000465572 0.000628068 0)
(-0.00451409 0.00242015 0)
(-0.00769781 0.00153465 0)
(-0.00911026 0.000650955 0)
(-0.00987075 0.000364618 0)
(-0.010433 0.000314492 0)
(-0.0109565 0.00030009 0)
(-0.0114294 0.000260055 0)
(-0.0118035 0.000197217 0)
(-0.0120531 0.000127269 0)
(-0.0121743 5.94104e-05 0)
(-0.0121691 -5.55586e-06 0)
(-0.0120375 -7.06765e-05 0)
(-0.0117785 -0.000137369 0)
(-0.0113925 -0.000204895 0)
(-0.0108817 -0.000271813 0)
(-0.0102506 -0.00033668 0)
(-0.00950636 -0.000398308 0)
(-0.00865788 -0.000455775 0)
(-0.00771526 -0.000508346 0)
(-0.00668931 -0.000555411 0)
(-0.00559176 -0.000596447 0)
(-0.00443515 -0.000630874 0)
(-0.00322827 -0.000659511 0)
(-0.00196539 -0.000696975 0)
(-0.000615506 -0.000784391 0)
(0.0010075 -0.000942577 0)
(0.00281883 -0.00106236 0)
(0.00455376 -0.00106113 0)
(0.0061854 -0.000985203 0)
(0.0076639 -0.00087262 0)
(0.00895764 -0.000747109 0)
(0.0100542 -0.000622342 0)
(0.0109568 -0.000505726 0)
(0.0116794 -0.000400989 0)
(0.012242 -0.000309636 0)
(0.0126659 -0.000231708 0)
(0.0129718 -0.000166242 0)
(0.013178 -0.000111663 0)
(0.0132998 -6.61623e-05 0)
(0.01335 -2.81097e-05 0)
(0.0133394 3.43548e-06 0)
(0.0132774 2.87228e-05 0)
(0.0131693 4.92426e-05 0)
(0.013022 6.47813e-05 0)
(0.0128443 7.35263e-05 0)
(0.0126488 7.26655e-05 0)
(0.0124531 5.89779e-05 0)
(0.0122806 3.01574e-05 0)
(0.0121572 -1.29328e-05 0)
(0.0121051 -6.31228e-05 0)
(0.0121263 -0.000106347 0)
(0.012187 -0.000120654 0)
(0.0122046 -6.82676e-05 0)
(0.0120127 0.000107133 0)
(0.0113421 0.000486452 0)
(0.00983527 0.00121443 0)
(0.00759102 0.00281862 0)
(-0.000629154 0.00376082 0)
(-0.0043715 0.00155717 0)
(-0.00588031 0.000695146 0)
(-0.00694927 0.000416256 0)
(-0.00767822 0.000298518 0)
(-0.00824607 0.000243166 0)
(-0.00872835 0.000212554 0)
(-0.00915285 0.000190319 0)
(-0.0095267 0.000169103 0)
(-0.00984947 0.000146064 0)
(-0.0101171 0.000120424 0)
(-0.0103247 9.22555e-05 0)
(-0.010469 6.20192e-05 0)
(-0.010548 3.01912e-05 0)
(-0.010561 -2.95921e-06 0)
(-0.0105082 -3.68558e-05 0)
(-0.0103921 -6.96335e-05 0)
(-0.0102181 -9.98775e-05 0)
(-0.00999241 -0.000126965 0)
(-0.0097217 -0.000150826 0)
(-0.00941168 -0.000171789 0)
(-0.00906666 -0.000190528 0)
(-0.00868899 -0.000208098 0)
(-0.00827869 -0.000225947 0)
(-0.00783312 -0.000245819 0)
(-0.00734689 -0.000269424 0)
(-0.00681234 -0.000297933 0)
(-0.00622134 -0.000331343 0)
(-0.00556766 -0.000368074 0)
(-0.00484762 -0.000405503 0)
(-0.00405872 -0.000444268 0)
(-0.00319811 -0.000487091 0)
(-0.00226444 -0.000532486 0)
(-0.00126284 -0.000576533 0)
(-0.000136017 -0.00059916 0)
(0.000933114 -0.000574605 0)
(0.00192313 -0.000505532 0)
(0.00278707 -0.000433608 0)
(0.00353633 -0.000412134 0)
(0.00421785 -0.000414036 0)
(0.00446018 0.000163675 0)
(0.00388958 0.00238362 0)
(-0.00278862 0.00462821 0)
(-0.00576105 0.00506253 0)
(-0.00817663 0.00322692 0)
(-0.00947351 0.0015973 0)
(-0.0102738 0.000939621 0)
(-0.0108389 0.000774154 0)
(-0.0112956 0.000706817 0)
(-0.0116739 0.000595018 0)
(-0.0119617 0.000433049 0)
(-0.0121419 0.00024837 0)
(-0.0122022 6.0111e-05 0)
(-0.0121331 -0.000126781 0)
(-0.0119334 -0.000314849 0)
(-0.0116031 -0.000506221 0)
(-0.011141 -0.000696467 0)
(-0.0105509 -0.000880591 0)
(-0.00983946 -0.00105489 0)
(-0.00901518 -0.0012168 0)
(-0.00808725 -0.00136462 0)
(-0.007065 -0.0014973 0)
(-0.00595754 -0.00161423 0)
(-0.00477345 -0.0017149 0)
(-0.00352098 -0.00179851 0)
(-0.00221066 -0.00187533 0)
(-0.000822267 -0.0020209 0)
(0.000858105 -0.00233057 0)
(0.002722 -0.00261904 0)
(0.00445143 -0.00267702 0)
(0.0060989 -0.00255418 0)
(0.00763645 -0.00232628 0)
(0.00902624 -0.00204542 0)
(0.0102439 -0.00174696 0)
(0.0112806 -0.00145406 0)
(0.0121413 -0.00118078 0)
(0.0128401 -0.000934835 0)
(0.0133956 -0.000719345 0)
(0.0138278 -0.000534097 0)
(0.0141558 -0.000376539 0)
(0.0143958 -0.000242738 0)
(0.0145612 -0.000128354 0)
(0.014662 -2.96905e-05 0)
(0.0147045 5.51645e-05 0)
(0.0146926 0.000129962 0)
(0.0146321 0.000195112 0)
(0.0145272 0.000249178 0)
(0.0143836 0.000288513 0)
(0.0142089 0.000307132 0)
(0.0140126 0.000298244 0)
(0.0138053 0.000256854 0)
(0.0135961 0.000184582 0)
(0.0133882 9.65914e-05 0)
(0.0131739 2.90983e-05 0)
(0.0129173 4.85007e-05 0)
(0.0125213 0.000265939 0)
(0.0118122 0.000829529 0)
(0.0105244 0.00190753 0)
(0.00825339 0.00371515 0)
(0.00550002 0.0067953 0)
(-0.0020278 0.00782905 0)
(-0.00400006 0.00386566 0)
(-0.00549907 0.00199698 0)
(-0.00660557 0.00130471 0)
(-0.00746186 0.000980555 0)
(-0.008173 0.000811609 0)
(-0.00878752 0.000706649 0)
(-0.00932579 0.000623711 0)
(-0.00979304 0.000543911 0)
(-0.0101878 0.000459603 0)
(-0.010506 0.000368696 0)
(-0.010744 0.000271705 0)
(-0.0109001 0.000170637 0)
(-0.0109743 6.8042e-05 0)
(-0.010968 -3.37672e-05 0)
(-0.0108887 -0.000133025 0)
(-0.0107431 -0.000225174 0)
(-0.0105387 -0.000307517 0)
(-0.010284 -0.000379608 0)
(-0.00998613 -0.000442495 0)
(-0.00965069 -0.000498239 0)
(-0.00928097 -0.000549601 0)
(-0.00887796 -0.000599842 0)
(-0.00844042 -0.000652535 0)
(-0.0079652 -0.000711238 0)
(-0.00744766 -0.000778976 0)
(-0.00688235 -0.000857591 0)
(-0.0062636 -0.00094706 0)
(-0.00558579 -0.00104515 0)
(-0.0048435 -0.00114838 0)
(-0.00403261 -0.00125606 0)
(-0.00315288 -0.00136859 0)
(-0.00220892 -0.00148214 0)
(-0.0012066 -0.00158801 0)
(-0.00011328 -0.00164037 0)
(0.000901948 -0.00156234 0)
(0.00181262 -0.00135863 0)
(0.00254656 -0.00112445 0)
(0.00307127 -0.000978084 0)
(0.00336582 -0.000886843 0)
(0.00323441 0.000591607 0)
(0.00314587 0.00526058 0)
(-0.00269143 0.00816481 0)
(-0.00520034 0.00778704 0)
(-0.00722036 0.00502317 0)
(-0.00839566 0.0027081 0)
(-0.00929423 0.00168188 0)
(-0.0100031 0.0013258 0)
(-0.0105475 0.00113887 0)
(-0.010957 0.000928093 0)
(-0.0112497 0.000664009 0)
(-0.0114267 0.000364834 0)
(-0.0114794 4.92185e-05 0)
(-0.0113946 -0.000273559 0)
(-0.0111694 -0.000600345 0)
(-0.0108054 -0.000928764 0)
(-0.0103101 -0.00125118 0)
(-0.00969107 -0.00156052 0)
(-0.00895584 -0.00185186 0)
(-0.00811212 -0.00212204 0)
(-0.00716772 -0.00236931 0)
(-0.00612997 -0.00259298 0)
(-0.00500514 -0.00279296 0)
(-0.00379705 -0.00296872 0)
(-0.00251337 -0.0031198 0)
(-0.00118271 -0.00328351 0)
(0.00034784 -0.0036476 0)
(0.00219156 -0.00415422 0)
(0.00389934 -0.00438005 0)
(0.00555026 -0.0043447 0)
(0.00711793 -0.00411658 0)
(0.00855817 -0.00375657 0)
(0.00983857 -0.00332016 0)
(0.0109419 -0.00285399 0)
(0.011866 -0.00239308 0)
(0.0126203 -0.00196112 0)
(0.0132219 -0.00157195 0)
(0.0136917 -0.00123146 0)
(0.0140508 -0.00093959 0)
(0.0143183 -0.000692068 0)
(0.0145101 -0.000482153 0)
(0.0146378 -0.000302233 0)
(0.0147085 -0.000145349 0)
(0.0147288 -6.22129e-06 0)
(0.0146976 0.000119606 0)
(0.0146137 0.000233725 0)
(0.0144784 0.00033419 0)
(0.0142916 0.00041598 0)
(0.0140539 0.000471986 0)
(0.0137661 0.000494653 0)
(0.0134297 0.000479355 0)
(0.0130458 0.000430587 0)
(0.012614 0.00037131 0)
(0.0121287 0.000356443 0)
(0.0115695 0.000491168 0)
(0.0108834 0.000947878 0)
(0.00995579 0.00195223 0)
(0.00857928 0.00374817 0)
(0.00636464 0.00660258 0)
(0.00398598 0.0111182 0)
(-0.00226945 0.011628 0)
(-0.00302681 0.00578433 0)
(-0.0043392 0.00325912 0)
(-0.00539718 0.00230682 0)
(-0.00633082 0.00182367 0)
(-0.00716175 0.00154453 0)
(-0.00790063 0.00135133 0)
(-0.00855143 0.0011867 0)
(-0.00911365 0.00102457 0)
(-0.00958378 0.000854151 0)
(-0.00995774 0.000673086 0)
(-0.0102328 0.000483436 0)
(-0.0104087 0.000289767 0)
(-0.0104875 9.76743e-05 0)
(-0.0104734 -8.73647e-05 0)
(-0.0103794 -0.000260943 0)
(-0.0102169 -0.000417478 0)
(-0.00999739 -0.000554564 0)
(-0.00973091 -0.000672806 0)
(-0.00942572 -0.000774959 0)
(-0.00908784 -0.000865232 0)
(-0.00872079 -0.000948717 0)
(-0.00832565 -0.00103095 0)
(-0.00790119 -0.00111751 0)
(-0.00744423 -0.00121357 0)
(-0.00695002 -0.00132338 0)
(-0.00641277 -0.00144948 0)
(-0.00582619 -0.00159203 0)
(-0.00518402 -0.00174865 0)
(-0.00448075 -0.00191554 0)
(-0.0037128 -0.00208965 0)
(-0.00288018 -0.00226785 0)
(-0.00198664 -0.00244356 0)
(-0.00103174 -0.00260373 0)
(1.21347e-05 -0.00267888 0)
(0.000995318 -0.00252874 0)
(0.00185876 -0.00213265 0)
(0.00247541 -0.00163233 0)
(0.00276852 -0.00119268 0)
(0.00262913 -0.000799965 0)
(0.00192837 0.00123381 0)
(0.00239255 0.00789515 0)
(-0.00224685 0.011441 0)
(-0.00437888 0.0102461 0)
(-0.00622226 0.00663685 0)
(-0.00742807 0.00384528 0)
(-0.00843989 0.0025588 0)
(-0.00924648 0.00200085 0)
(-0.00985652 0.00164411 0)
(-0.0103015 0.00129304 0)
(-0.0106033 0.00090223 0)
(-0.0107686 0.00047463 0)
(-0.0107964 2.34613e-05 0)
(-0.0106829 -0.000439717 0)
(-0.0104339 -0.000905462 0)
(-0.0100518 -0.00136574 0)
(-0.00954349 -0.00181261 0)
(-0.00891584 -0.00223921 0)
(-0.00817551 -0.00264061 0)
(-0.00732902 -0.0030139 0)
(-0.0063825 -0.00335803 0)
(-0.00534117 -0.0036734 0)
(-0.00420795 -0.0039609 0)
(-0.00298159 -0.00422005 0)
(-0.00167897 -0.00445285 0)
(-0.000318672 -0.00475435 0)
(0.00142783 -0.00538022 0)
(0.0031405 -0.00588049 0)
(0.00479972 -0.00604329 0)
(0.00640874 -0.00592702 0)
(0.00790914 -0.00557936 0)
(0.00925276 -0.00506303 0)
(0.0104126 -0.00444814 0)
(0.0113809 -0.00379764 0)
(0.0121653 -0.00316015 0)
(0.0127836 -0.00256843 0)
(0.013259 -0.00204096 0)
(0.0136167 -0.00158468 0)
(0.0138806 -0.00119791 0)
(0.0140715 -0.000873048 0)
(0.0142053 -0.000598922 0)
(0.0142926 -0.000363001 0)
(0.0143386 -0.000153479 0)
(0.0143435 3.88958e-05 0)
(0.0143 0.000218556 0)
(0.014205 0.000388478 0)
(0.0140526 0.00054725 0)
(0.0138369 0.000689575 0)
(0.0135536 0.000808287 0)
(0.013199 0.000895981 0)
(0.0127697 0.000948 0)
(0.0122639 0.000967675 0)
(0.0116809 0.000976183 0)
(0.0110211 0.0010314 0)
(0.0102803 0.00125822 0)
(0.00943352 0.00187698 0)
(0.00841022 0.0031936 0)
(0.00707297 0.00553321 0)
(0.00508509 0.00919947 0)
(0.00313721 0.0148424 0)
(-0.0019486 0.0146462 0)
(-0.00239323 0.00712919 0)
(-0.00356295 0.00434465 0)
(-0.00454704 0.00330364 0)
(-0.00549511 0.00273199 0)
(-0.00637308 0.00236415 0)
(-0.00716636 0.00208158 0)
(-0.00786578 0.00182462 0)
(-0.00846468 0.00156571 0)
(-0.0089574 0.0012941 0)
(-0.00933978 0.00100866 0)
(-0.00961048 0.000713871 0)
(-0.00977167 0.000417247 0)
(-0.0098278 0.000127498 0)
(-0.00978571 -0.00014644 0)
(-0.00966332 -0.000395543 0)
(-0.00947357 -0.000614388 0)
(-0.0092304 -0.000801965 0)
(-0.00894583 -0.000960754 0)
(-0.0086293 -0.00109588 0)
(-0.00828742 -0.00121414 0)
(-0.00792384 -0.00132325 0)
(-0.00753952 -0.00143115 0)
(-0.00713299 -0.00154557 0)
(-0.00670073 -0.00167351 0)
(-0.00623759 -0.00182062 0)
(-0.00573723 -0.00199038 0)
(-0.00519267 -0.00218327 0)
(-0.00459702 -0.0023965 0)
(-0.00394446 -0.00262522 0)
(-0.00323141 -0.00286424 0)
(-0.00245734 -0.00310762 0)
(-0.00162548 -0.00334672 0)
(-0.000727335 -0.00356506 0)
(0.000241067 -0.00366994 0)
(0.00118383 -0.00346431 0)
(0.00201164 -0.00285097 0)
(0.00255535 -0.00201152 0)
(0.00271797 -0.00117194 0)
(0.00245167 -0.000319416 0)
(0.00143988 0.00183927 0)
(0.00187771 0.0097169 0)
(-0.00184366 0.0142741 0)
(-0.00369986 0.0124213 0)
(-0.00544958 0.00815258 0)
(-0.00669688 0.00501276 0)
(-0.00777021 0.00349521 0)
(-0.00861659 0.00272587 0)
(-0.0092527 0.00218093 0)
(-0.00971053 0.00166731 0)
(-0.0100116 0.00112962 0)
(-0.0101657 0.000561004 0)
(-0.0101783 -2.89685e-05 0)
(-0.010053 -0.000628597 0)
(-0.00979725 -0.00122675 0)
(-0.00941246 -0.00181421 0)
(-0.0089047 -0.00238223 0)
(-0.00827966 -0.00292368 0)
(-0.00754308 -0.00343363 0)
(-0.00670042 -0.00390967 0)
(-0.00575647 -0.00435192 0)
(-0.00471462 -0.00476242 0)
(-0.00357429 -0.00514378 0)
(-0.00233038 -0.00549685 0)
(-0.00102392 -0.00582993 0)
(0.00045745 -0.00632823 0)
(0.00220773 -0.00709479 0)
(0.00385133 -0.00755345 0)
(0.00549856 -0.0076733 0)
(0.00706886 -0.00746081 0)
(0.00848761 -0.00696074 0)
(0.00970835 -0.00625628 0)
(0.0107136 -0.00544083 0)
(0.0115093 -0.00459632 0)
(0.0121159 -0.00378387 0)
(0.0125622 -0.00304295 0)
(0.0128796 -0.0023942 0)
(0.0130988 -0.00184348 0)
(0.0132475 -0.00138581 0)
(0.0133482 -0.00100881 0)
(0.0134176 -0.000695549 0)
(0.0134657 -0.000427207 0)
(0.0134947 -0.00018568 0)
(0.013502 4.30063e-05 0)
(0.0134714 0.000268959 0)
(0.0133919 0.000494116 0)
(0.0132524 0.00071638 0)
(0.0130418 0.000929693 0)
(0.0127515 0.00112535 0)
(0.012375 0.00129456 0)
(0.0119079 0.00143097 0)
(0.011348 0.00153524 0)
(0.0106956 0.0016255 0)
(0.00995478 0.00176056 0)
(0.0091318 0.00207902 0)
(0.00822475 0.00283634 0)
(0.00720208 0.00439091 0)
(0.00598594 0.00711113 0)
(0.00429481 0.0113134 0)
(0.00280443 0.0177185 0)
(-0.00127052 0.0171584 0)
(-0.00200128 0.008181 0)
(-0.0031118 0.00527321 0)
(-0.00397443 0.00424664 0)
(-0.0048759 0.00363548 0)
(-0.00573561 0.0031996 0)
(-0.00652457 0.00283136 0)
(-0.00722364 0.002477 0)
(-0.00781999 0.00211205 0)
(-0.00830486 0.00172864 0)
(-0.00867254 0.00132849 0)
(-0.00892095 0.000919315 0)
(-0.00905236 0.00051216 0)
(-0.00907164 0.000119348 0)
(-0.0089893 -0.000245585 0)
(-0.00882536 -0.000569681 0)
(-0.00859531 -0.000847778 0)
(-0.0083165 -0.00108027 0)
(-0.00800362 -0.00127218 0)
(-0.00766788 -0.00143179 0)
(-0.00731668 -0.00156919 0)
(-0.00695379 -0.00169514 0)
(-0.00657977 -0.00182025 0)
(-0.00619254 -0.00195451 0)
(-0.00578785 -0.00210673 0)
(-0.00535983 -0.00228403 0)
(-0.00490137 -0.00249093 0)
(-0.00440476 -0.00272831 0)
(-0.00386251 -0.00299301 0)
(-0.00326828 -0.0032788 0)
(-0.00261817 -0.0035784 0)
(-0.00191125 -0.00388281 0)
(-0.00114984 -0.00418104 0)
(-0.000317435 -0.00445207 0)
(0.000546543 -0.00459202 0)
(0.0014413 -0.00436171 0)
(0.0022379 -0.00353457 0)
(0.00273876 -0.0023182 0)
(0.0028187 -0.00103381 0)
(0.00248382 0.000280447 0)
(0.00127339 0.00252412 0)
(0.00149237 0.0110191 0)
(-0.0015201 0.0166564 0)
(-0.00319235 0.0143786 0)
(-0.00488576 0.00963278 0)
(-0.0061566 0.00621088 0)
(-0.00724873 0.00446012 0)
(-0.0081002 0.00347062 0)
(-0.00873911 0.0027309 0)
(-0.00919721 0.00204739 0)
(-0.00949537 0.00135623 0)
(-0.0096448 0.000643503 0)
(-0.00965445 -8.43795e-05 0)
(-0.00953215 -0.000817011 0)
(-0.00928106 -0.00154409 0)
(-0.00890342 -0.00225621 0)
(-0.00840363 -0.00294411 0)
(-0.00778635 -0.0036002 0)
(-0.00705662 -0.00421938 0)
(-0.00621934 -0.00479985 0)
(-0.00527849 -0.0053432 0)
(-0.00423611 -0.0058537 0)
(-0.00308892 -0.00633631 0)
(-0.00183091 -0.00679508 0)
(-0.000522089 -0.00725158 0)
(0.00108821 -0.00795492 0)
(0.00274854 -0.00876378 0)
(0.00438606 -0.009212 0)
(0.00601695 -0.00927584 0)
(0.00752446 -0.00892557 0)
(0.00882325 -0.00822415 0)
(0.00987381 -0.00729039 0)
(0.0106746 -0.00624803 0)
(0.0112495 -0.00519839 0)
(0.0116349 -0.00421279 0)
(0.0118718 -0.0033342 0)
(0.0120002 -0.00258253 0)
(0.0120565 -0.00196028 0)
(0.0120717 -0.00145749 0)
(0.012071 -0.00105565 0)
(0.0120724 -0.000730839 0)
(0.0120864 -0.000456319 0)
(0.0121142 -0.000204851 0)
(0.0121504 4.80706e-05 0)
(0.012168 0.00031173 0)
(0.0121459 0.000590469 0)
(0.0120649 0.000881192 0)
(0.011907 0.00117456 0)
(0.0116596 0.00145879 0)
(0.0113146 0.00172226 0)
(0.0108677 0.00195586 0)
(0.0103175 0.00215684 0)
(0.0096661 0.00233893 0)
(0.00892001 0.00255706 0)
(0.00809214 0.00295253 0)
(0.00719804 0.00380085 0)
(0.00623926 0.00549792 0)
(0.00519151 0.00843774 0)
(0.00382962 0.0129359 0)
(0.00281897 0.019793 0)
(-0.000263066 0.0195533 0)
(-0.00158381 0.00935274 0)
(-0.00287888 0.00604521 0)
(-0.0035346 0.0051007 0)
(-0.00436523 0.00448901 0)
(-0.00517776 0.00400872 0)
(-0.00593843 0.00356683 0)
(-0.00661981 0.00311965 0)
(-0.00720281 0.00264867 0)
(-0.00767394 0.00215039 0)
(-0.0080238 0.0016304 0)
(-0.00824755 0.00110051 0)
(-0.00834507 0.000576063 0)
(-0.00831991 7.39519e-05 0)
(-0.00818951 -0.000386564 0)
(-0.00797065 -0.00078748 0)
(-0.00768485 -0.00112273 0)
(-0.00735419 -0.00139422 0)
(-0.00699742 -0.00161048 0)
(-0.00662854 -0.00178414 0)
(-0.00625641 -0.00192962 0)
(-0.00588516 -0.00206151 0)
(-0.00551499 -0.0021936 0)
(-0.00514295 -0.00233833 0)
(-0.00476373 -0.00250644 0)
(-0.0043703 -0.00270643 0)
(-0.00395451 -0.00294374 0)
(-0.00350772 -0.00321964 0)
(-0.00302181 -0.00353051 0)
(-0.00249 -0.00386855 0)
(-0.00190778 -0.00422389 0)
(-0.00127417 -0.00458413 0)
(-0.000586551 -0.00493592 0)
(0.000152646 -0.00524809 0)
(0.000917531 -0.00543215 0)
(0.00174836 -0.00521024 0)
(0.00251194 -0.00419296 0)
(0.00298756 -0.00258119 0)
(0.00301244 -0.000813881 0)
(0.00260695 0.00097403 0)
(0.00125813 0.00338751 0)
(0.00119113 0.0120962 0)
(-0.00126091 0.0186855 0)
(-0.00280515 0.016182 0)
(-0.00446773 0.0110946 0)
(-0.00575199 0.00741922 0)
(-0.00684285 0.00542713 0)
(-0.00768444 0.00421297 0)
(-0.00831619 0.00327785 0)
(-0.00877034 0.00242448 0)
(-0.00906758 0.0015806 0)
(-0.00921953 0.000726044 0)
(-0.00923573 -0.000136234 0)
(-0.00912446 -0.000998183 0)
(-0.00888547 -0.00185219 0)
(-0.00852029 -0.00268842 0)
(-0.00803174 -0.00349687 0)
(-0.0074237 -0.00426901 0)
(-0.00670098 -0.00499927 0)
(-0.0058685 -0.00568637 0)
(-0.0049301 -0.00633375 0)
(-0.00388691 -0.00694846 0)
(-0.00273428 -0.00753855 0)
(-0.00146942 -0.00811285 0)
(-0.000134082 -0.00871555 0)
(0.00151398 -0.00958029 0)
(0.00311389 -0.0104081 0)
(0.004751 -0.0108576 0)
(0.0063398 -0.0108276 0)
(0.00773805 -0.010278 0)
(0.00885772 -0.00931539 0)
(0.0096745 -0.00810843 0)
(0.0102102 -0.00681555 0)
(0.010511 -0.00555585 0)
(0.0106312 -0.0044067 0)
(0.0106237 -0.00341018 0)
(0.0105359 -0.00258207 0)
(0.0104086 -0.00191917 0)
(0.0102754 -0.00140506 0)
(0.0101633 -0.0010144 0)
(0.0100927 -0.000716126 0)
(0.0100768 -0.000475316 0)
(0.0101206 -0.000254237 0)
(0.0102133 -1.39719e-05 0)
(0.0103389 0.000267467 0)
(0.0104405 0.000593021 0)
(0.0104846 0.000954403 0)
(0.0104449 0.00133541 0)
(0.0103042 0.00171832 0)
(0.0100536 0.00208683 0)
(0.00968942 0.00242775 0)
(0.00921193 0.00273441 0)
(0.00862482 0.00301606 0)
(0.00793632 0.00332213 0)
(0.00716275 0.00378975 0)
(0.00633149 0.00469924 0)
(0.00547257 0.00646554 0)
(0.00461444 0.009495 0)
(0.00358438 0.0140991 0)
(0.00302987 0.0211635 0)
(0.000935189 0.0216203 0)
(-0.000823828 0.0113954 0)
(-0.00267752 0.00672037 0)
(-0.00310355 0.00586133 0)
(-0.00389112 0.00528028 0)
(-0.00466044 0.00477997 0)
(-0.00539789 0.00428011 0)
(-0.00606931 0.00374897 0)
(-0.00664981 0.00317544 0)
(-0.00711998 0.00256092 0)
(-0.00746473 0.00191545 0)
(-0.00767427 0.00125572 0)
(-0.00774427 0.000602611 0)
(-0.00767619 -2.04886e-05 0)
(-0.00749109 -0.000586121 0)
(-0.00720629 -0.00106949 0)
(-0.00685019 -0.00146164 0)
(-0.00645095 -0.00176638 0)
(-0.00603252 -0.00199702 0)
(-0.00561268 -0.0021721 0)
(-0.00520257 -0.0023118 0)
(-0.00480738 -0.00243567 0)
(-0.0044274 -0.00256142 0)
(-0.00405906 -0.00270444 0)
(-0.00369596 -0.00287754 0)
(-0.00332982 -0.00309065 0)
(-0.00295122 -0.00334997 0)
(-0.00255056 -0.00365678 0)
(-0.00211896 -0.00400703 0)
(-0.00164929 -0.00439087 0)
(-0.0011359 -0.00479615 0)
(-0.000577477 -0.00520647 0)
(2.94717e-05 -0.00560323 0)
(0.000657098 -0.00594571 0)
(0.0013347 -0.00618475 0)
(0.0020886 -0.00600028 0)
(0.00281376 -0.00482965 0)
(0.00327209 -0.0028158 0)
(0.00326023 -0.000528632 0)
(0.00278646 0.00176495 0)
(0.00134602 0.00443178 0)
(0.000966697 0.0130928 0)
(-0.00104768 0.0204498 0)
(-0.00249444 0.0178813 0)
(-0.00414222 0.0125468 0)
(-0.00543802 0.00862672 0)
(-0.00652332 0.00638546 0)
(-0.00735285 0.00494588 0)
(-0.00797655 0.00381893 0)
(-0.00842813 0.00280053 0)
(-0.00872856 0.00180903 0)
(-0.00888916 0.000817561 0)
(-0.00891853 -0.000175259 0)
(-0.00882325 -0.00116483 0)
(-0.00860058 -0.00214569 0)
(-0.00825042 -0.00310749 0)
(-0.00777413 -0.00403895 0)
(-0.0071751 -0.00492991 0)
(-0.00645849 -0.0057738 0)
(-0.00562999 -0.00656979 0)
(-0.00469396 -0.0073235 0)
(-0.00365136 -0.00804538 0)
(-0.00249734 -0.00874758 0)
(-0.00123339 -0.00944405 0)
(0.000128514 -0.0101964 0)
(0.00175296 -0.0111825 0)
(0.00331876 -0.0120371 0)
(0.00493112 -0.0124682 0)
(0.00643124 -0.0122818 0)
(0.00765371 -0.0114543 0)
(0.00851817 -0.010164 0)
(0.00902633 -0.00864191 0)
(0.00923115 -0.00708331 0)
(0.00920546 -0.0056191 0)
(0.00902178 -0.00432711 0)
(0.00874316 -0.00324203 0)
(0.0084212 -0.00237126 0)
(0.0080978 -0.00170346 0)
(0.00780683 -0.00121517 0)
(0.00757586 -0.000874291 0)
(0.0074277 -0.000643761 0)
(0.00738175 -0.000482827 0)
(0.00745291 -0.000345328 0)
(0.00763714 -0.000179533 0)
(0.00794752 7.49393e-05 0)
(0.00828394 0.000433192 0)
(0.00855222 0.000869757 0)
(0.00871622 0.00135122 0)
(0.00875733 0.00184715 0)
(0.00866738 0.00233424 0)
(0.00844523 0.00279449 0)
(0.00809425 0.00321722 0)
(0.00762097 0.00360751 0)
(0.0070356 0.00400873 0)
(0.00635672 0.00454878 0)
(0.00562014 0.0054991 0)
(0.00487941 0.0072755 0)
(0.00421259 0.0102878 0)
(0.00349487 0.0148466 0)
(0.0033285 0.0219274 0)
(0.0021018 0.0231563 0)
(0.000316856 0.0141232 0)
(-0.00224784 0.00748581 0)
(-0.00263623 0.00654973 0)
(-0.00340629 0.00602607 0)
(-0.00415164 0.00552689 0)
(-0.00488596 0.00498468 0)
(-0.00556723 0.00438012 0)
(-0.0061659 0.0037088 0)
(-0.00665593 0.00297644 0)
(-0.00701463 0.00219748 0)
(-0.00722517 0.0013944 0)
(-0.0072775 0.000595084 0)
(-0.00717097 -0.000167866 0)
(-0.00692961 -0.000854021 0)
(-0.00657607 -0.00142891 0)
(-0.00614502 -0.00188021 0)
(-0.0056705 -0.00221434 0)
(-0.00518127 -0.00245069 0)
(-0.00469875 -0.00261515 0)
(-0.00423671 -0.00273499 0)
(-0.00380199 -0.00283582 0)
(-0.00339583 -0.0029402 0)
(-0.00301494 -0.00306714 0)
(-0.00265261 -0.00323199 0)
(-0.00229984 -0.00344625 0)
(-0.00194638 -0.00371698 0)
(-0.00158199 -0.00404517 0)
(-0.0011972 -0.0044261 0)
(-0.000784526 -0.00484758 0)
(-0.000336819 -0.00529613 0)
(0.000144038 -0.00574674 0)
(0.000647498 -0.00616824 0)
(0.0011893 -0.0065537 0)
(0.00177611 -0.00684855 0)
(0.00244575 -0.00672458 0)
(0.00312527 -0.00544557 0)
(0.0035724 -0.00303011 0)
(0.00353547 -0.000189531 0)
(0.00299488 0.00264286 0)
(0.00149718 0.00563016 0)
(0.000817182 0.0140853 0)
(-0.000868223 0.0220023 0)
(-0.00222722 0.0195054 0)
(-0.00386951 0.0139982 0)
(-0.00517977 0.00983401 0)
(-0.00626367 0.00733567 0)
(-0.007086 0.00567042 0)
(-0.00770607 0.00435608 0)
(-0.00815979 0.00317882 0)
(-0.00846875 0.0020459 0)
(-0.00864359 0.000922622 0)
(-0.00869115 -0.00019753 0)
(-0.00861553 -0.00131358 0)
(-0.00841205 -0.00242233 0)
(-0.00807834 -0.0035125 0)
(-0.0076144 -0.00457059 0)
(-0.00702359 -0.00558381 0)
(-0.0063122 -0.00654386 0)
(-0.00548747 -0.00745017 0)
(-0.00455517 -0.00831089 0)
(-0.00351696 -0.00914057 0)
(-0.00236871 -0.00995624 0)
(-0.00111409 -0.0107766 0)
(0.000251259 -0.0116678 0)
(0.0018276 -0.0127513 0)
(0.00335481 -0.0136349 0)
(0.0048997 -0.0140013 0)
(0.00624465 -0.0135713 0)
(0.00720789 -0.0123734 0)
(0.00772953 -0.0106871 0)
(0.00784862 -0.00881724 0)
(0.00765837 -0.00699263 0)
(0.00726165 -0.00534784 0)
(0.0067485 -0.00395024 0)
(0.00618843 -0.00281732 0)
(0.0056312 -0.00194334 0)
(0.00511503 -0.00130631 0)
(0.00466986 -0.000877442 0)
(0.00432334 -0.000620162 0)
(0.00410313 -0.000494061 0)
(0.0040421 -0.000458484 0)
(0.00417384 -0.000466473 0)
(0.00451498 -0.000454303 0)
(0.00502777 -0.00033057 0)
(0.00572576 4.91774e-06 0)
(0.0063988 0.000526829 0)
(0.00687809 0.00113608 0)
(0.00716989 0.00177496 0)
(0.00728858 0.00240656 0)
(0.00724484 0.00300708 0)
(0.0070502 0.00356265 0)
(0.00671674 0.00407551 0)
(0.00625794 0.00458364 0)
(0.00569463 0.00520262 0)
(0.00506865 0.00618406 0)
(0.00445049 0.00792711 0)
(0.00395889 0.010839 0)
(0.00351117 0.0152394 0)
(0.00364515 0.0221936 0)
(0.00308044 0.0241999 0)
(0.00158264 0.0168989 0)
(-0.00136774 0.00888509 0)
(-0.00214459 0.00720695 0)
(-0.00287048 0.00675859 0)
(-0.00361778 0.0062727 0)
(-0.00436835 0.00570062 0)
(-0.00507566 0.00503246 0)
(-0.00570763 0.00426752 0)
(-0.00623141 0.00341403 0)
(-0.00661572 0.00249028 0)
(-0.00683581 0.00152584 0)
(-0.00687553 0.00055815 0)
(-0.00673288 -0.000366299 0)
(-0.00644201 -0.00118846 0)
(-0.00602956 -0.00186343 0)
(-0.00553509 -0.00237677 0)
(-0.00499648 -0.00273863 0)
(-0.00444522 -0.00297552 0)
(-0.00390478 -0.00312148 0)
(-0.00339064 -0.00321141 0)
(-0.00291117 -0.0032775 0)
(-0.00246907 -0.00334763 0)
(-0.00206229 -0.00344495 0)
(-0.0016853 -0.00358795 0)
(-0.0013297 -0.00379005 0)
(-0.000985547 -0.00405947 0)
(-0.00064374 -0.00439701 0)
(-0.000293864 -0.00479894 0)
(7.05741e-05 -0.00524958 0)
(0.00044574 -0.00571814 0)
(0.000842337 -0.00619081 0)
(0.00126649 -0.00664892 0)
(0.00172379 -0.00707492 0)
(0.00221933 -0.00742239 0)
(0.00279984 -0.007377 0)
(0.00342386 -0.00604076 0)
(0.0038645 -0.00322838 0)
(0.00380701 0.00018754 0)
(0.00320508 0.00359332 0)
(0.00167085 0.00695142 0)
(0.000734167 0.0151258 0)
(-0.000713072 0.0233667 0)
(-0.00197678 0.0210661 0)
(-0.00361727 0.0154564 0)
(-0.00494806 0.0110479 0)
(-0.006039 0.0082845 0)
(-0.00686247 0.00639271 0)
(-0.00748632 0.00489506 0)
(-0.00794899 0.00356511 0)
(-0.00827293 0.00229685 0)
(-0.00846794 0.00104639 0)
(-0.0085386 -0.00019873 0)
(-0.00848631 -0.00144116 0)
(-0.00830466 -0.00268014 0)
(-0.00798858 -0.00390282 0)
(-0.00753686 -0.00509221 0)
(-0.00695348 -0.0062315 0)
(-0.00624674 -0.00730968 0)
(-0.00542649 -0.00832627 0)
(-0.00450078 -0.00929238 0)
(-0.00347297 -0.0102273 0)
(-0.00234041 -0.0111535 0)
(-0.00110618 -0.012094 0)
(0.000233016 -0.0131066 0)
(0.00174481 -0.0142703 0)
(0.00320709 -0.0151662 0)
(0.00462534 -0.0153949 0)
(0.00573223 -0.0146109 0)
(0.00634128 -0.0129418 0)
(0.00642789 -0.0107974 0)
(0.00608011 -0.00856602 0)
(0.00544087 -0.00650413 0)
(0.00464559 -0.0047217 0)
(0.00380519 -0.00326922 0)
(0.00298564 -0.00213601 0)
(0.00222723 -0.0012944 0)
(0.00156017 -0.000709158 0)
(0.00100521 -0.00035654 0)
(0.000607637 -0.00021349 0)
(0.000430727 -0.000270572 0)
(0.000528675 -0.000489286 0)
(0.000907917 -0.000776486 0)
(0.00155086 -0.00101329 0)
(0.00240707 -0.00106769 0)
(0.003356 -0.000822585 0)
(0.00435499 -0.000203322 0)
(0.00520199 0.000618042 0)
(0.00575775 0.00146201 0)
(0.00608105 0.00228029 0)
(0.00620971 0.003049 0)
(0.00616689 0.00375672 0)
(0.00597133 0.00440683 0)
(0.00563983 0.00503392 0)
(0.00519488 0.00574028 0)
(0.00468151 0.00675044 0)
(0.00417924 0.0084328 0)
(0.00383332 0.0111873 0)
(0.00359777 0.0153558 0)
(0.00394 0.0220875 0)
(0.00383494 0.0248647 0)
(0.00268803 0.0192386 0)
(-0.000135557 0.0110807 0)
(-0.00158298 0.00792139 0)
(-0.00225615 0.00750689 0)
(-0.00303015 0.00703402 0)
(-0.0038014 0.00643962 0)
(-0.00453529 0.00571527 0)
(-0.00519936 0.00485963 0)
(-0.00575482 0.00388052 0)
(-0.00616225 0.00279934 0)
(-0.00638971 0.00165438 0)
(-0.00641599 0.000496377 0)
(-0.00624127 -0.000606183 0)
(-0.00591595 -0.00157382 0)
(-0.00546582 -0.00235304 0)
(-0.00493308 -0.00292942 0)
(-0.00435658 -0.00331825 0)
(-0.00376795 -0.00355389 0)
(-0.00319062 -0.00367879 0)
(-0.00264009 -0.00373532 0)
(-0.0021253 -0.00376178 0)
(-0.00165018 -0.00379122 0)
(-0.00121416 -0.00385067 0)
(-0.000813549 -0.00396183 0)
(-0.000443024 -0.00414096 0)
(-9.36126e-05 -0.00439878 0)
(0.000234964 -0.00473052 0)
(0.000553344 -0.00513005 0)
(0.000868134 -0.00558221 0)
(0.00118701 -0.00606727 0)
(0.00151719 -0.00656325 0)
(0.00186564 -0.00704949 0)
(0.00223845 -0.00750944 0)
(0.00264171 -0.00790518 0)
(0.00312853 -0.00795114 0)
(0.00368232 -0.00661365 0)
(0.00411933 -0.00340981 0)
(0.0040434 0.00060412 0)
(0.00338223 0.00460497 0)
(0.00182614 0.00836193 0)
(0.000700603 0.0162441 0)
(-0.00057584 0.0245487 0)
(-0.00172055 0.0225614 0)
(-0.00335639 0.0169271 0)
(-0.00471569 0.0122779 0)
(-0.00582458 0.00924161 0)
(-0.00665948 0.00712157 0)
(-0.0072964 0.00544384 0)
(-0.0077765 0.00396669 0)
(-0.0081232 0.00256838 0)
(-0.00834543 0.00119433 0)
(-0.00844516 -0.000174448 0)
(-0.00842059 -0.00154408 0)
(-0.00826389 -0.00291698 0)
(-0.00796684 -0.0042778 0)
(-0.00752725 -0.00560422 0)
(-0.00695057 -0.00687352 0)
(-0.00624824 -0.00807088 0)
(-0.00543388 -0.00919575 0)
(-0.00451884 -0.0102627 0)
(-0.00350907 -0.0112966 0)
(-0.00240404 -0.0123257 0)
(-0.00120495 -0.0133766 0)
(7.99449e-05 -0.0144899 0)
(0.00150581 -0.015712 0)
(0.00286281 -0.0165802 0)
(0.00408106 -0.0165701 0)
(0.00485582 -0.015305 0)
(0.00501388 -0.0130615 0)
(0.00457953 -0.0104185 0)
(0.00370173 -0.00783377 0)
(0.00259125 -0.00557592 0)
(0.00142617 -0.00371583 0)
(0.000330332 -0.00226147 0)
(-0.000682558 -0.00113455 0)
(-0.00154495 -0.000347643 0)
(-0.0021895 6.55907e-05 0)
(-0.00256362 0.000149406 0)
(-0.0026217 -4.79432e-05 0)
(-0.00239825 -0.000447792 0)
(-0.00194218 -0.000963069 0)
(-0.00128993 -0.00150852 0)
(-0.000407838 -0.00198696 0)
(0.000685317 -0.00218624 0)
(0.00190493 -0.0019313 0)
(0.00303352 -0.001214 0)
(0.00401487 -0.000166255 0)
(0.0047411 0.00094105 0)
(0.00519649 0.00198388 0)
(0.00544189 0.00294325 0)
(0.00551189 0.00381617 0)
(0.0054273 0.0046123 0)
(0.00520495 0.00536547 0)
(0.00486666 0.00616506 0)
(0.00445687 0.00720528 0)
(0.00405592 0.00881496 0)
(0.00381954 0.0113821 0)
(0.00373262 0.0152819 0)
(0.00419593 0.0217342 0)
(0.00438964 0.0252331 0)
(0.00354563 0.0211416 0)
(0.0010892 0.0134851 0)
(-0.000843185 0.00889994 0)
(-0.00159443 0.008278 0)
(-0.0023749 0.00780958 0)
(-0.00314842 0.00719471 0)
(-0.00388878 0.00641884 0)
(-0.0045645 0.00547473 0)
(-0.00513339 0.00436634 0)
(-0.00554992 0.00311747 0)
(-0.00577611 0.00177706 0)
(-0.00578576 0.000414305 0)
(-0.00558879 -0.000872758 0)
(-0.00525177 -0.0019864 0)
(-0.00479299 -0.00286801 0)
(-0.0042546 -0.00350559 0)
(-0.00367357 -0.0039206 0)
(-0.00307958 -0.00415539 0)
(-0.00249441 -0.00426068 0)
(-0.00193199 -0.00428577 0)
(-0.00140123 -0.00427449 0)
(-0.000905434 -0.00426396 0)
(-0.000446723 -0.00428419 0)