/*--------------------------------*- C++ -*----------------------------------*\
| =========                 |                                                 |
| \\      /  F ield         | OpenFOAM: The Open Source CFD Toolbox           |
|  \\    /   O peration     | Version:  4.1                                   |
|   \\  /    A nd           | Web:      www.OpenFOAM.org                      |
|    \\/     M anipulation  |                                                 |
\*---------------------------------------------------------------------------*/
FoamFile
{
    version     2.0;
    format      ascii;
    class       volScalarField;
    location    "1340";
    object      p;
}
// * * * * * * * * * * * * * * * * * * * * * * * * * * * * * * * * * * * * * //

dimensions      [0 2 -2 0 0 0 0];

internalField   nonuniform List<scalar> 
5000
(
0
5.56722e-06
8.37741e-06
4.79381e-06
8.6975e-07
-3.25437e-06
-7.12049e-06
-1.05918e-05
-1.37039e-05
-1.64994e-05
-1.90075e-05
-2.12676e-05
-2.33334e-05
-2.52656e-05
-2.71233e-05
-2.89565e-05
-3.0802e-05
-3.26845e-05
-3.46189e-05
-3.66133e-05
-3.86721e-05
-4.07973e-05
-4.29889e-05
-4.52434e-05
-4.75505e-05
-4.98894e-05
-5.22257e-05
-5.45118e-05
-5.6696e-05
-5.8737e-05
-6.05783e-05
-6.22173e-05
-6.36254e-05
-6.48477e-05
-6.59763e-05
-6.71205e-05
-6.83999e-05
-6.99353e-05
-7.18372e-05
-7.41977e-05
-7.70858e-05
-8.05463e-05
-8.46002e-05
-8.92456e-05
-9.44599e-05
-0.000100202
-0.000106413
-0.000113023
-0.000119951
-0.00012711
-0.000134409
-0.000141756
-0.000149061
-0.000156237
-0.000163207
-0.000169902
-0.000176268
-0.000182266
-0.000187878
-0.000193085
-0.000197873
-0.000202236
-0.000206147
-0.000209561
-0.000212415
-0.000214636
-0.000216142
-0.00021685
-0.000216687
-0.000215599
-0.000213553
-0.000210548
-0.000206615
-0.000201833
-0.000196359
-0.000190382
-0.000183267
-0.000170763
-0.000167044
-0.00017465
-0.000173734
-0.000172364
-0.000171619
-0.000171334
-0.000171093
-0.000170396
-0.000168636
-0.000165072
-0.000158981
-0.000149512
-0.000136742
-0.000122949
-0.000113029
-0.00010887
-0.000112241
-0.000119696
-0.00012671
-0.000130691
-0.00013116
-0.000125769
-0.0984345
-0.0984331
-0.0984323
-0.0984327
-0.0984335
-0.0984344
-0.0984351
-0.0984357
-0.0984361
-0.0984365
-0.0984369
-0.0984373
-0.0984379
-0.0984386
-0.0984394
-0.0984402
-0.0984411
-0.0984421
-0.098443
-0.098444
-0.098445
-0.098446
-0.0984471
-0.0984481
-0.0984492
-0.0984503
-0.0984514
-0.0984526
-0.0984538
-0.0984552
-0.0984567
-0.0984583
-0.0984602
-0.0984622
-0.0984645
-0.098467
-0.0984697
-0.0984727
-0.098476
-0.0984797
-0.0984837
-0.0984882
-0.098493
-0.0984983
-0.098504
-0.09851
-0.0985163
-0.0985228
-0.0985295
-0.0985362
-0.098543
-0.0985496
-0.098556
-0.0985621
-0.0985678
-0.098573
-0.0985777
-0.0985818
-0.0985853
-0.0985882
-0.0985906
-0.0985924
-0.0985937
-0.0985944
-0.0985947
-0.0985944
-0.0985936
-0.0985922
-0.0985902
-0.0985876
-0.0985843
-0.0985804
-0.0985756
-0.0985699
-0.0985632
-0.0985554
-0.098547
-0.098541
-0.0985578
-0.0985792
-0.0985872
-0.0985894
-0.098592
-0.098595
-0.0985979
-0.0986003
-0.0986015
-0.0986009
-0.0985975
-0.0985907
-0.0985807
-0.0985695
-0.0985609
-0.0985566
-0.0985581
-0.0985626
-0.0985661
-0.0985665
-0.0985633
-0.098554
-0.196879
-0.19688
-0.196879
-0.196879
-0.19688
-0.19688
-0.196881
-0.196881
-0.196882
-0.196882
-0.196882
-0.196883
-0.196883
-0.196884
-0.196885
-0.196886
-0.196886
-0.196887
-0.196888
-0.196889
-0.19689
-0.196891
-0.196892
-0.196893
-0.196894
-0.196895
-0.196896
-0.196897
-0.196898
-0.1969
-0.196901
-0.196903
-0.196905
-0.196907
-0.196909
-0.196911
-0.196914
-0.196917
-0.19692
-0.196924
-0.196928
-0.196933
-0.196938
-0.196943
-0.196949
-0.196955
-0.196961
-0.196967
-0.196974
-0.196981
-0.196988
-0.196994
-0.197001
-0.197007
-0.197012
-0.197017
-0.197022
-0.197026
-0.197029
-0.197032
-0.197033
-0.197034
-0.197035
-0.197034
-0.197033
-0.197031
-0.197029
-0.197026
-0.197023
-0.197019
-0.197015
-0.197011
-0.197006
-0.197
-0.196993
-0.196985
-0.196977
-0.196971
-0.196983
-0.19701
-0.197028
-0.197033
-0.197037
-0.197041
-0.197045
-0.197049
-0.197052
-0.197052
-0.19705
-0.197044
-0.197035
-0.197025
-0.197017
-0.197012
-0.197013
-0.197016
-0.197018
-0.197017
-0.197013
-0.197003
-0.295325
-0.295326
-0.295325
-0.295326
-0.295326
-0.295326
-0.295327
-0.295327
-0.295327
-0.295328
-0.295328
-0.295329
-0.295329
-0.29533
-0.29533
-0.295331
-0.295332
-0.295333
-0.295334
-0.295334
-0.295335
-0.295336
-0.295337
-0.295338
-0.295339
-0.29534
-0.295341
-0.295342
-0.295344
-0.295345
-0.295346
-0.295348
-0.29535
-0.295352
-0.295354
-0.295356
-0.295359
-0.295362
-0.295365
-0.295369
-0.295373
-0.295377
-0.295382
-0.295388
-0.295394
-0.2954
-0.295406
-0.295412
-0.295419
-0.295426
-0.295432
-0.295439
-0.295445
-0.295451
-0.295457
-0.295462
-0.295467
-0.295471
-0.295474
-0.295477
-0.295478
-0.295479
-0.295479
-0.295479
-0.295478
-0.295476
-0.295473
-0.29547
-0.295467
-0.295463
-0.295459
-0.295454
-0.295449
-0.295444
-0.295437
-0.295431
-0.295424
-0.295419
-0.295426
-0.295447
-0.295469
-0.29548
-0.295484
-0.29549
-0.295495
-0.2955
-0.295503
-0.295505
-0.295504
-0.295499
-0.295491
-0.295482
-0.295474
-0.295469
-0.295469
-0.295471
-0.295472
-0.29547
-0.295465
-0.295457
-0.39377
-0.393771
-0.393771
-0.393771
-0.393771
-0.393771
-0.393772
-0.393772
-0.393772
-0.393773
-0.393773
-0.393774
-0.393774
-0.393775
-0.393776
-0.393777
-0.393777
-0.393778
-0.393779
-0.39378
-0.393781
-0.393782
-0.393782
-0.393783
-0.393784
-0.393785
-0.393786
-0.393788
-0.393789
-0.39379
-0.393792
-0.393793
-0.393795
-0.393797
-0.393799
-0.393801
-0.393804
-0.393806
-0.39381
-0.393813
-0.393818
-0.393822
-0.393827
-0.393833
-0.393838
-0.393844
-0.393851
-0.393857
-0.393864
-0.393871
-0.393877
-0.393884
-0.39389
-0.393896
-0.393902
-0.393907
-0.393912
-0.393916
-0.393919
-0.393921
-0.393923
-0.393924
-0.393925
-0.393924
-0.393923
-0.393921
-0.393919
-0.393916
-0.393913
-0.393909
-0.393905
-0.3939
-0.393896
-0.393891
-0.393885
-0.39388
-0.393875
-0.39387
-0.393874
-0.39389
-0.39391
-0.393926
-0.393934
-0.393939
-0.393945
-0.393951
-0.393956
-0.393959
-0.393959
-0.393956
-0.393949
-0.39394
-0.393931
-0.393927
-0.393925
-0.393926
-0.393926
-0.393923
-0.393919
-0.393911
-0.492216
-0.492217
-0.492216
-0.492216
-0.492216
-0.492216
-0.492217
-0.492217
-0.492218
-0.492218
-0.492219
-0.49222
-0.49222
-0.492221
-0.492222
-0.492223
-0.492224
-0.492224
-0.492225
-0.492226
-0.492227
-0.492227
-0.492228
-0.492229
-0.49223
-0.492231
-0.492232
-0.492233
-0.492234
-0.492236
-0.492237
-0.492239
-0.49224
-0.492242
-0.492244
-0.492246
-0.492248
-0.492251
-0.492254
-0.492258
-0.492262
-0.492267
-0.492272
-0.492278
-0.492284
-0.49229
-0.492296
-0.492303
-0.49231
-0.492316
-0.492323
-0.492329
-0.492336
-0.492341
-0.492347
-0.492352
-0.492356
-0.49236
-0.492364
-0.492366
-0.492368
-0.492369
-0.49237
-0.492369
-0.492368
-0.492367
-0.492364
-0.492362
-0.492359
-0.492355
-0.492351
-0.492347
-0.492343
-0.492338
-0.492334
-0.492329
-0.492325
-0.492321
-0.492323
-0.492335
-0.492353
-0.49237
-0.492383
-0.49239
-0.492396
-0.492403
-0.492409
-0.492414
-0.492415
-0.492413
-0.492407
-0.492399
-0.49239
-0.492385
-0.492381
-0.492382
-0.492381
-0.492377
-0.492372
-0.492365
-0.590661
-0.590662
-0.590661
-0.590661
-0.590661
-0.590661
-0.590662
-0.590662
-0.590663
-0.590664
-0.590665
-0.590666
-0.590667
-0.590668
-0.590669
-0.59067
-0.59067
-0.590671
-0.590672
-0.590672
-0.590673
-0.590674
-0.590674
-0.590675
-0.590676
-0.590677
-0.590678
-0.590679
-0.59068
-0.590681
-0.590683
-0.590684
-0.590686
-0.590687
-0.590688
-0.59069
-0.590692
-0.590695
-0.590698
-0.590702
-0.590707
-0.590712
-0.590718
-0.590724
-0.59073
-0.590736
-0.590743
-0.59075
-0.590757
-0.590763
-0.59077
-0.590776
-0.590782
-0.590788
-0.590793
-0.590798
-0.590802
-0.590806
-0.590809
-0.590812
-0.590813
-0.590814
-0.590815
-0.590814
-0.590814
-0.590812
-0.59081
-0.590807
-0.590805
-0.590801
-0.590798
-0.590794
-0.59079
-0.590786
-0.590782
-0.590778
-0.590775
-0.590772
-0.590773
-0.590782
-0.590797
-0.590815
-0.59083
-0.590841
-0.590848
-0.590856
-0.590863
-0.590869
-0.590872
-0.590871
-0.590867
-0.590858
-0.590849
-0.590842
-0.590836
-0.590836
-0.590834
-0.59083
-0.590825
-0.590818
-0.689107
-0.689108
-0.689107
-0.689107
-0.689106
-0.689107
-0.689107
-0.689108
-0.689109
-0.689111
-0.689112
-0.689113
-0.689115
-0.689116
-0.689117
-0.689117
-0.689118
-0.689119
-0.689119
-0.689119
-0.68912
-0.68912
-0.689121
-0.689121
-0.689122
-0.689123
-0.689124
-0.689125
-0.689126
-0.689127
-0.689128
-0.689129
-0.689131
-0.689132
-0.689133
-0.689134
-0.689136
-0.68914
-0.689144
-0.689148
-0.689153
-0.689159
-0.689165
-0.689171
-0.689178
-0.689185
-0.689192
-0.689199
-0.689206
-0.689212
-0.689219
-0.689225
-0.689231
-0.689237
-0.689242
-0.689246
-0.68925
-0.689253
-0.689256
-0.689258
-0.68926
-0.68926
-0.689261
-0.68926
-0.689259
-0.689258
-0.689256
-0.689253
-0.689251
-0.689248
-0.689244
-0.689241
-0.689237
-0.689233
-0.68923
-0.689227
-0.689224
-0.689221
-0.689222
-0.689229
-0.689243
-0.68926
-0.689277
-0.68929
-0.6893
-0.689308
-0.689316
-0.689324
-0.689329
-0.68933
-0.689326
-0.689318
-0.689307
-0.689298
-0.689291
-0.689289
-0.689286
-0.689282
-0.689276
-0.68927
-0.787553
-0.787554
-0.787553
-0.787552
-0.787552
-0.787552
-0.787553
-0.787555
-0.787556
-0.787558
-0.78756
-0.787562
-0.787563
-0.787564
-0.787565
-0.787565
-0.787566
-0.787566
-0.787566
-0.787566
-0.787567
-0.787567
-0.787567
-0.787567
-0.787568
-0.787569
-0.787569
-0.78757
-0.787571
-0.787572
-0.787573
-0.787574
-0.787575
-0.787576
-0.787577
-0.787579
-0.787582
-0.787585
-0.78759
-0.787595
-0.787601
-0.787607
-0.787614
-0.787621
-0.787628
-0.787635
-0.787643
-0.78765
-0.787657
-0.787664
-0.78767
-0.787677
-0.787683
-0.787688
-0.787693
-0.787697
-0.787701
-0.787704
-0.787706
-0.787707
-0.787708
-0.787709
-0.787708
-0.787708
-0.787706
-0.787705
-0.787703
-0.7877
-0.787698
-0.787694
-0.787691
-0.787688
-0.787684
-0.787681
-0.787678
-0.787675
-0.787672
-0.787671
-0.787671
-0.787676
-0.787689
-0.787705
-0.787723
-0.787738
-0.787751
-0.78776
-0.787769
-0.787778
-0.787785
-0.787787
-0.787785
-0.787776
-0.787764
-0.787753
-0.787743
-0.787739
-0.787736
-0.787731
-0.787726
-0.78772
-0.885999
-0.886
-0.885999
-0.885999
-0.885998
-0.885999
-0.886
-0.886002
-0.886004
-0.886007
-0.886009
-0.88601
-0.886012
-0.886013
-0.886013
-0.886014
-0.886014
-0.886014
-0.886013
-0.886013
-0.886013
-0.886013
-0.886013
-0.886013
-0.886013
-0.886014
-0.886015
-0.886015
-0.886016
-0.886017
-0.886017
-0.886018
-0.886019
-0.88602
-0.886021
-0.886024
-0.886028
-0.886032
-0.886038
-0.886044
-0.88605
-0.886057
-0.886064
-0.886072
-0.886079
-0.886087
-0.886095
-0.886102
-0.88611
-0.886117
-0.886123
-0.88613
-0.886136
-0.886141
-0.886146
-0.886151
-0.886154
-0.886157
-0.886159
-0.88616
-0.88616
-0.88616
-0.886159
-0.886158
-0.886156
-0.886154
-0.886151
-0.886149
-0.886146
-0.886142
-0.886139
-0.886136
-0.886132
-0.886129
-0.886126
-0.886123
-0.886121
-0.88612
-0.88612
-0.886124
-0.886135
-0.88615
-0.886168
-0.886185
-0.886199
-0.886211
-0.886221
-0.88623
-0.886239
-0.886243
-0.886241
-0.886233
-0.88622
-0.886205
-0.886193
-0.886185
-0.886182
-0.886178
-0.886173
-0.886167
-0.984447
-0.984447
-0.984446
-0.984445
-0.984445
-0.984446
-0.984448
-0.984451
-0.984454
-0.984456
-0.984458
-0.98446
-0.984461
-0.984462
-0.984462
-0.984462
-0.984461
-0.984461
-0.98446
-0.98446
-0.984459
-0.984459
-0.984458
-0.984458
-0.984458
-0.984459
-0.984459
-0.984459
-0.984459
-0.98446
-0.98446
-0.984461
-0.984462
-0.984464
-0.984466
-0.98447
-0.984475
-0.98448
-0.984486
-0.984493
-0.9845
-0.984508
-0.984516
-0.984524
-0.984532
-0.98454
-0.984548
-0.984556
-0.984563
-0.984571
-0.984578
-0.984585
-0.984591
-0.984597
-0.984602
-0.984606
-0.98461
-0.984613
-0.984614
-0.984615
-0.984615
-0.984614
-0.984613
-0.984611
-0.984609
-0.984606
-0.984603
-0.984599
-0.984596
-0.984592
-0.984588
-0.984585
-0.984581
-0.984578
-0.984575
-0.984572
-0.98457
-0.984569
-0.984569
-0.984572
-0.984581
-0.984595
-0.984611
-0.984629
-0.984645
-0.984658
-0.98467
-0.98468
-0.984688
-0.984693
-0.984692
-0.984684
-0.984671
-0.984655
-0.98464
-0.984629
-0.984626
-0.984622
-0.984617
-0.984612
-1.08289
-1.08289
-1.08289
-1.08289
-1.08289
-1.08289
-1.0829
-1.0829
-1.0829
-1.08291
-1.08291
-1.08291
-1.08291
-1.08291
-1.08291
-1.08291
-1.08291
-1.08291
-1.08291
-1.08291
-1.0829
-1.0829
-1.0829
-1.0829
-1.0829
-1.0829
-1.0829
-1.0829
-1.0829
-1.0829
-1.0829
-1.0829
-1.0829
-1.08291
-1.08291
-1.08292
-1.08292
-1.08293
-1.08294
-1.08294
-1.08295
-1.08296
-1.08297
-1.08298
-1.08299
-1.08299
-1.083
-1.08301
-1.08302
-1.08303
-1.08303
-1.08304
-1.08305
-1.08305
-1.08306
-1.08306
-1.08307
-1.08307
-1.08307
-1.08307
-1.08307
-1.08307
-1.08307
-1.08307
-1.08306
-1.08306
-1.08306
-1.08305
-1.08305
-1.08304
-1.08304
-1.08304
-1.08303
-1.08303
-1.08302
-1.08302
-1.08302
-1.08302
-1.08302
-1.08302
-1.08303
-1.08304
-1.08305
-1.08307
-1.08309
-1.0831
-1.08311
-1.08312
-1.08313
-1.08314
-1.08313
-1.08313
-1.08312
-1.0831
-1.08308
-1.08307
-1.08307
-1.08306
-1.08306
-1.08305
-1.18134
-1.18134
-1.18134
-1.18134
-1.18134
-1.18134
-1.18135
-1.18135
-1.18135
-1.18136
-1.18136
-1.18136
-1.18136
-1.18136
-1.18136
-1.18136
-1.18136
-1.18135
-1.18135
-1.18135
-1.18135
-1.18135
-1.18135
-1.18134
-1.18134
-1.18134
-1.18134
-1.18134
-1.18134
-1.18134
-1.18134
-1.18134
-1.18135
-1.18135
-1.18136
-1.18136
-1.18137
-1.18138
-1.18139
-1.18139
-1.1814
-1.18141
-1.18142
-1.18143
-1.18144
-1.18145
-1.18146
-1.18146
-1.18147
-1.18148
-1.18149
-1.1815
-1.1815
-1.18151
-1.18152
-1.18152
-1.18153
-1.18153
-1.18153
-1.18153
-1.18153
-1.18153
-1.18153
-1.18153
-1.18152
-1.18152
-1.18151
-1.18151
-1.1815
-1.1815
-1.18149
-1.18149
-1.18148
-1.18148
-1.18148
-1.18147
-1.18147
-1.18147
-1.18147
-1.18147
-1.18147
-1.18148
-1.1815
-1.18151
-1.18153
-1.18154
-1.18155
-1.18156
-1.18157
-1.18157
-1.18157
-1.18156
-1.18155
-1.18154
-1.18152
-1.18151
-1.1815
-1.1815
-1.1815
-1.18149
-1.27979
-1.27979
-1.27979
-1.27979
-1.27979
-1.27979
-1.2798
-1.2798
-1.27981
-1.27981
-1.27981
-1.27981
-1.27981
-1.27981
-1.27981
-1.2798
-1.2798
-1.2798
-1.27979
-1.27979
-1.27979
-1.27979
-1.27979
-1.27978
-1.27978
-1.27978
-1.27978
-1.27978
-1.27978
-1.27978
-1.27978
-1.27979
-1.27979
-1.2798
-1.27981
-1.27981
-1.27982
-1.27983
-1.27984
-1.27985
-1.27986
-1.27987
-1.27987
-1.27988
-1.27989
-1.2799
-1.27991
-1.27992
-1.27993
-1.27994
-1.27995
-1.27995
-1.27996
-1.27997
-1.27998
-1.27998
-1.27999
-1.27999
-1.27999
-1.27999
-1.27999
-1.27999
-1.27999
-1.27999
-1.27998
-1.27998
-1.27997
-1.27997
-1.27996
-1.27995
-1.27995
-1.27994
-1.27994
-1.27993
-1.27993
-1.27992
-1.27992
-1.27992
-1.27992
-1.27992
-1.27992
-1.27993
-1.27994
-1.27995
-1.27996
-1.27998
-1.27999
-1.28
-1.28
-1.28
-1.28
-1.27999
-1.27998
-1.27997
-1.27996
-1.27994
-1.27994
-1.27993
-1.27993
-1.27993
-1.37823
-1.37823
-1.37823
-1.37824
-1.37824
-1.37824
-1.37825
-1.37825
-1.37826
-1.37826
-1.37826
-1.37826
-1.37826
-1.37826
-1.37825
-1.37825
-1.37824
-1.37824
-1.37824
-1.37823
-1.37823
-1.37823
-1.37822
-1.37822
-1.37822
-1.37822
-1.37822
-1.37822
-1.37822
-1.37822
-1.37823
-1.37823
-1.37824
-1.37824
-1.37825
-1.37826
-1.37827
-1.37828
-1.37829
-1.3783
-1.37831
-1.37832
-1.37833
-1.37834
-1.37835
-1.37836
-1.37837
-1.37837
-1.37838
-1.37839
-1.3784
-1.37841
-1.37842
-1.37843
-1.37844
-1.37844
-1.37845
-1.37845
-1.37846
-1.37846
-1.37846
-1.37845
-1.37845
-1.37845
-1.37844
-1.37844
-1.37843
-1.37842
-1.37842
-1.37841
-1.3784
-1.3784
-1.37839
-1.37839
-1.37838
-1.37838
-1.37837
-1.37837
-1.37837
-1.37837
-1.37837
-1.37837
-1.37838
-1.37839
-1.3784
-1.37841
-1.37842
-1.37842
-1.37843
-1.37843
-1.37842
-1.37842
-1.37841
-1.3784
-1.37839
-1.37837
-1.37837
-1.37837
-1.37837
-1.37837
-1.47668
-1.47668
-1.47668
-1.47668
-1.47669
-1.47669
-1.4767
-1.4767
-1.4767
-1.47671
-1.47671
-1.4767
-1.4767
-1.4767
-1.4767
-1.47669
-1.47669
-1.47668
-1.47668
-1.47667
-1.47667
-1.47667
-1.47666
-1.47666
-1.47666
-1.47666
-1.47666
-1.47666
-1.47666
-1.47666
-1.47667
-1.47668
-1.47668
-1.47669
-1.4767
-1.47671
-1.47672
-1.47673
-1.47674
-1.47675
-1.47676
-1.47677
-1.47678
-1.47679
-1.4768
-1.47681
-1.47682
-1.47683
-1.47684
-1.47685
-1.47686
-1.47687
-1.47688
-1.47689
-1.4769
-1.4769
-1.47691
-1.47691
-1.47692
-1.47692
-1.47692
-1.47692
-1.47691
-1.47691
-1.4769
-1.4769
-1.47689
-1.47688
-1.47688
-1.47687
-1.47686
-1.47686
-1.47685
-1.47684
-1.47684
-1.47683
-1.47683
-1.47682
-1.47682
-1.47682
-1.47682
-1.47682
-1.47682
-1.47683
-1.47683
-1.47684
-1.47684
-1.47684
-1.47685
-1.47685
-1.47684
-1.47684
-1.47683
-1.47682
-1.47681
-1.47681
-1.4768
-1.4768
-1.4768
-1.4768
-1.57512
-1.57512
-1.57512
-1.57513
-1.57513
-1.57514
-1.57515
-1.57515
-1.57515
-1.57515
-1.57515
-1.57515
-1.57515
-1.57514
-1.57514
-1.57513
-1.57513
-1.57512
-1.57512
-1.57511
-1.57511
-1.5751
-1.5751
-1.5751
-1.5751
-1.5751
-1.5751
-1.5751
-1.5751
-1.57511
-1.57511
-1.57512
-1.57513
-1.57514
-1.57515
-1.57516
-1.57517
-1.57518
-1.57519
-1.5752
-1.57521
-1.57522
-1.57523
-1.57524
-1.57525
-1.57526
-1.57527
-1.57528
-1.57529
-1.5753
-1.57531
-1.57532
-1.57534
-1.57535
-1.57535
-1.57536
-1.57537
-1.57537
-1.57538
-1.57538
-1.57538
-1.57538
-1.57538
-1.57537
-1.57537
-1.57536
-1.57535
-1.57534
-1.57534
-1.57533
-1.57532
-1.57531
-1.57531
-1.5753
-1.57529
-1.57529
-1.57528
-1.57528
-1.57527
-1.57527
-1.57527
-1.57526
-1.57526
-1.57526
-1.57526
-1.57527
-1.57527
-1.57527
-1.57527
-1.57526
-1.57526
-1.57525
-1.57525
-1.57525
-1.57524
-1.57524
-1.57524
-1.57524
-1.57524
-1.57524
-1.67357
-1.67357
-1.67357
-1.67357
-1.67358
-1.67359
-1.67359
-1.67359
-1.67359
-1.67359
-1.67359
-1.67359
-1.67359
-1.67358
-1.67358
-1.67357
-1.67357
-1.67356
-1.67356
-1.67355
-1.67355
-1.67354
-1.67354
-1.67354
-1.67354
-1.67354
-1.67354
-1.67354
-1.67355
-1.67355
-1.67356
-1.67357
-1.67358
-1.67359
-1.6736
-1.67361
-1.67362
-1.67363
-1.67364
-1.67366
-1.67367
-1.67368
-1.67369
-1.6737
-1.67371
-1.67372
-1.67373
-1.67374
-1.67375
-1.67376
-1.67377
-1.67378
-1.67379
-1.6738
-1.67381
-1.67382
-1.67383
-1.67383
-1.67384
-1.67384
-1.67384
-1.67384
-1.67384
-1.67383
-1.67383
-1.67382
-1.67381
-1.6738
-1.6738
-1.67379
-1.67378
-1.67377
-1.67376
-1.67375
-1.67375
-1.67374
-1.67373
-1.67373
-1.67372
-1.67372
-1.67371
-1.67371
-1.67371
-1.6737
-1.6737
-1.6737
-1.67369
-1.67369
-1.67368
-1.67368
-1.67367
-1.67367
-1.67367
-1.67367
-1.67367
-1.67367
-1.67368
-1.67368
-1.67368
-1.67368
-1.77201
-1.77201
-1.77201
-1.77202
-1.77202
-1.77203
-1.77203
-1.77203
-1.77203
-1.77203
-1.77203
-1.77203
-1.77202
-1.77202
-1.77202
-1.77201
-1.77201
-1.772
-1.772
-1.77199
-1.77199
-1.77198
-1.77198
-1.77198
-1.77198
-1.77198
-1.77198
-1.77199
-1.77199
-1.772
-1.772
-1.77201
-1.77202
-1.77204
-1.77205
-1.77206
-1.77207
-1.77209
-1.7721
-1.77211
-1.77212
-1.77213
-1.77214
-1.77215
-1.77216
-1.77217
-1.77218
-1.77219
-1.7722
-1.77221
-1.77222
-1.77224
-1.77225
-1.77226
-1.77227
-1.77228
-1.77228
-1.77229
-1.77229
-1.7723
-1.7723
-1.7723
-1.7723
-1.77229
-1.77229
-1.77228
-1.77227
-1.77226
-1.77226
-1.77225
-1.77224
-1.77223
-1.77222
-1.77221
-1.7722
-1.77219
-1.77219
-1.77218
-1.77217
-1.77217
-1.77216
-1.77216
-1.77215
-1.77214
-1.77213
-1.77213
-1.77212
-1.77211
-1.7721
-1.7721
-1.77209
-1.77209
-1.77209
-1.77209
-1.77209
-1.7721
-1.77211
-1.77212
-1.77212
-1.77212
-1.87045
-1.87045
-1.87045
-1.87046
-1.87046
-1.87047
-1.87047
-1.87047
-1.87047
-1.87047
-1.87047
-1.87047
-1.87046
-1.87046
-1.87046
-1.87045
-1.87045
-1.87044
-1.87044
-1.87043
-1.87043
-1.87042
-1.87042
-1.87042
-1.87042
-1.87042
-1.87043
-1.87043
-1.87044
-1.87044
-1.87045
-1.87046
-1.87047
-1.87048
-1.8705
-1.87051
-1.87052
-1.87054
-1.87055
-1.87056
-1.87057
-1.87058
-1.87059
-1.8706
-1.87061
-1.87062
-1.87063
-1.87064
-1.87065
-1.87066
-1.87068
-1.87069
-1.8707
-1.87071
-1.87072
-1.87073
-1.87074
-1.87074
-1.87075
-1.87075
-1.87075
-1.87075
-1.87075
-1.87075
-1.87074
-1.87074
-1.87073
-1.87072
-1.87071
-1.8707
-1.87069
-1.87069
-1.87068
-1.87067
-1.87066
-1.87065
-1.87064
-1.87063
-1.87062
-1.87062
-1.87061
-1.8706
-1.87059
-1.87058
-1.87057
-1.87056
-1.87055
-1.87054
-1.87053
-1.87052
-1.87051
-1.87051
-1.87051
-1.87051
-1.87052
-1.87053
-1.87055
-1.87056
-1.87056
-1.87055
-1.96889
-1.96889
-1.96889
-1.9689
-1.9689
-1.9689
-1.9689
-1.9689
-1.9689
-1.96891
-1.96891
-1.9689
-1.9689
-1.9689
-1.9689
-1.96889
-1.96889
-1.96888
-1.96888
-1.96887
-1.96887
-1.96887
-1.96886
-1.96886
-1.96887
-1.96887
-1.96887
-1.96888
-1.96888
-1.96889
-1.9689
-1.96891
-1.96892
-1.96893
-1.96895
-1.96896
-1.96898
-1.96899
-1.969
-1.96901
-1.96902
-1.96903
-1.96904
-1.96905
-1.96906
-1.96907
-1.96908
-1.96909
-1.9691
-1.96912
-1.96913
-1.96914
-1.96915
-1.96916
-1.96917
-1.96918
-1.96919
-1.96919
-1.9692
-1.9692
-1.96921
-1.96921
-1.9692
-1.9692
-1.9692
-1.96919
-1.96919
-1.96918
-1.96917
-1.96916
-1.96915
-1.96914
-1.96913
-1.96912
-1.96911
-1.9691
-1.96909
-1.96908
-1.96908
-1.96907
-1.96906
-1.96905
-1.96904
-1.96902
-1.96901
-1.96899
-1.96898
-1.96896
-1.96895
-1.96894
-1.96893
-1.96893
-1.96893
-1.96893
-1.96894
-1.96896
-1.96898
-1.96899
-1.96899
-1.96898
-2.06732
-2.06733
-2.06733
-2.06733
-2.06733
-2.06734
-2.06734
-2.06734
-2.06734
-2.06734
-2.06734
-2.06734
-2.06734
-2.06734
-2.06734
-2.06734
-2.06733
-2.06733
-2.06732
-2.06732
-2.06731
-2.06731
-2.06731
-2.06731
-2.06731
-2.06731
-2.06732
-2.06732
-2.06733
-2.06734
-2.06735
-2.06736
-2.06737
-2.06738
-2.0674
-2.06741
-2.06743
-2.06744
-2.06745
-2.06746
-2.06747
-2.06748
-2.06749
-2.0675
-2.06751
-2.06752
-2.06753
-2.06754
-2.06755
-2.06757
-2.06758
-2.06759
-2.0676
-2.06761
-2.06762
-2.06763
-2.06763
-2.06764
-2.06765
-2.06765
-2.06765
-2.06766
-2.06766
-2.06765
-2.06765
-2.06764
-2.06764
-2.06763
-2.06762
-2.06761
-2.06761
-2.0676
-2.06759
-2.06758
-2.06757
-2.06756
-2.06755
-2.06754
-2.06753
-2.06752
-2.0675
-2.06749
-2.06748
-2.06747
-2.06745
-2.06743
-2.06741
-2.06739
-2.06738
-2.06737
-2.06736
-2.06735
-2.06735
-2.06735
-2.06737
-2.06739
-2.0674
-2.06741
-2.06741
-2.06741
-2.16576
-2.16576
-2.16576
-2.16577
-2.16577
-2.16577
-2.16577
-2.16578
-2.16578
-2.16578
-2.16578
-2.16578
-2.16579
-2.16578
-2.16578
-2.16578
-2.16578
-2.16577
-2.16577
-2.16576
-2.16576
-2.16576
-2.16575
-2.16575
-2.16576
-2.16576
-2.16576
-2.16577
-2.16577
-2.16578
-2.16579
-2.16581
-2.16582
-2.16583
-2.16585
-2.16586
-2.16588
-2.16589
-2.1659
-2.16591
-2.16592
-2.16593
-2.16594
-2.16595
-2.16596
-2.16597
-2.16598
-2.16599
-2.166
-2.16602
-2.16603
-2.16604
-2.16605
-2.16606
-2.16607
-2.16607
-2.16608
-2.16609
-2.16609
-2.1661
-2.1661
-2.1661
-2.1661
-2.1661
-2.1661
-2.1661
-2.16609
-2.16608
-2.16608
-2.16607
-2.16606
-2.16605
-2.16604
-2.16603
-2.16602
-2.16601
-2.166
-2.16599
-2.16598
-2.16596
-2.16595
-2.16594
-2.16593
-2.16591
-2.16589
-2.16587
-2.16585
-2.16583
-2.16581
-2.1658
-2.16579
-2.16578
-2.16578
-2.16578
-2.16579
-2.16581
-2.16583
-2.16583
-2.16583
-2.16583
-2.2642
-2.2642
-2.2642
-2.2642
-2.2642
-2.26421
-2.26421
-2.26421
-2.26422
-2.26422
-2.26422
-2.26423
-2.26423
-2.26423
-2.26423
-2.26422
-2.26422
-2.26422
-2.26421
-2.26421
-2.2642
-2.2642
-2.2642
-2.2642
-2.2642
-2.26421
-2.26421
-2.26422
-2.26422
-2.26423
-2.26424
-2.26426
-2.26427
-2.26428
-2.2643
-2.26431
-2.26433
-2.26434
-2.26435
-2.26436
-2.26437
-2.26438
-2.26439
-2.26439
-2.2644
-2.26441
-2.26443
-2.26444
-2.26445
-2.26446
-2.26448
-2.26449
-2.26449
-2.2645
-2.26451
-2.26452
-2.26452
-2.26453
-2.26454
-2.26454
-2.26455
-2.26455
-2.26455
-2.26455
-2.26455
-2.26454
-2.26454
-2.26453
-2.26453
-2.26452
-2.26451
-2.2645
-2.26449
-2.26448
-2.26447
-2.26446
-2.26445
-2.26444
-2.26443
-2.26441
-2.2644
-2.26439
-2.26437
-2.26435
-2.26433
-2.26431
-2.26429
-2.26426
-2.26424
-2.26423
-2.26422
-2.26421
-2.26421
-2.26421
-2.26422
-2.26424
-2.26425
-2.26425
-2.26426
-2.26426
-2.36263
-2.36263
-2.36263
-2.36264
-2.36264
-2.36264
-2.36265
-2.36265
-2.36266
-2.36266
-2.36267
-2.36267
-2.36267
-2.36267
-2.36267
-2.36267
-2.36267
-2.36266
-2.36266
-2.36265
-2.36265
-2.36265
-2.36265
-2.36265
-2.36265
-2.36265
-2.36266
-2.36266
-2.36267
-2.36268
-2.36269
-2.3627
-2.36272
-2.36273
-2.36275
-2.36276
-2.36277
-2.36278
-2.3628
-2.36281
-2.36281
-2.36282
-2.36283
-2.36284
-2.36285
-2.36286
-2.36287
-2.36288
-2.3629
-2.36291
-2.36292
-2.36293
-2.36294
-2.36295
-2.36295
-2.36296
-2.36297
-2.36298
-2.36298
-2.36299
-2.36299
-2.36299
-2.363
-2.363
-2.363
-2.36299
-2.36299
-2.36298
-2.36298
-2.36297
-2.36296
-2.36295
-2.36294
-2.36293
-2.36292
-2.36291
-2.3629
-2.36289
-2.36288
-2.36286
-2.36285
-2.36283
-2.36281
-2.3628
-2.36277
-2.36275
-2.36272
-2.3627
-2.36268
-2.36266
-2.36265
-2.36265
-2.36264
-2.36264
-2.36265
-2.36266
-2.36267
-2.36267
-2.36268
-2.36268
-2.46107
-2.46107
-2.46107
-2.46107
-2.46108
-2.46108
-2.46109
-2.46109
-2.4611
-2.4611
-2.46111
-2.46111
-2.46112
-2.46112
-2.46112
-2.46112
-2.46111
-2.46111
-2.46111
-2.4611
-2.4611
-2.4611
-2.4611
-2.4611
-2.4611
-2.4611
-2.46111
-2.46111
-2.46112
-2.46113
-2.46114
-2.46115
-2.46117
-2.46118
-2.46119
-2.46121
-2.46122
-2.46123
-2.46124
-2.46125
-2.46126
-2.46127
-2.46128
-2.46129
-2.4613
-2.46131
-2.46132
-2.46133
-2.46134
-2.46135
-2.46136
-2.46137
-2.46138
-2.46139
-2.4614
-2.4614
-2.46141
-2.46142
-2.46143
-2.46143
-2.46144
-2.46144
-2.46144
-2.46144
-2.46144
-2.46144
-2.46144
-2.46143
-2.46143
-2.46142
-2.46141
-2.46141
-2.4614
-2.46139
-2.46137
-2.46136
-2.46135
-2.46134
-2.46132
-2.46131
-2.46129
-2.46128
-2.46126
-2.46124
-2.46122
-2.46119
-2.46116
-2.46114
-2.46112
-2.4611
-2.46109
-2.46108
-2.46108
-2.46108
-2.46108
-2.46109
-2.46109
-2.46109
-2.4611
-2.46111
-2.55951
-2.55951
-2.55951
-2.55951
-2.55952
-2.55952
-2.55953
-2.55953
-2.55954
-2.55955
-2.55955
-2.55956
-2.55956
-2.55956
-2.55957
-2.55956
-2.55956
-2.55956
-2.55955
-2.55955
-2.55955
-2.55955
-2.55954
-2.55954
-2.55955
-2.55955
-2.55955
-2.55956
-2.55957
-2.55958
-2.55959
-2.5596
-2.55961
-2.55963
-2.55964
-2.55965
-2.55966
-2.55967
-2.55968
-2.55969
-2.5597
-2.55971
-2.55972
-2.55973
-2.55974
-2.55975
-2.55976
-2.55978
-2.55979
-2.5598
-2.55981
-2.55981
-2.55982
-2.55983
-2.55984
-2.55985
-2.55985
-2.55986
-2.55987
-2.55988
-2.55988
-2.55988
-2.55989
-2.55989
-2.55989
-2.55989
-2.55989
-2.55988
-2.55988
-2.55987
-2.55986
-2.55986
-2.55985
-2.55984
-2.55982
-2.55981
-2.5598
-2.55979
-2.55977
-2.55976
-2.55974
-2.55972
-2.5597
-2.55968
-2.55966
-2.55963
-2.5596
-2.55958
-2.55956
-2.55954
-2.55953
-2.55952
-2.55952
-2.55952
-2.55952
-2.55952
-2.55952
-2.55952
-2.55953
-2.55953
-2.65795
-2.65795
-2.65795
-2.65795
-2.65796
-2.65796
-2.65797
-2.65798
-2.65798
-2.65799
-2.658
-2.65801
-2.65801
-2.65801
-2.65801
-2.65801
-2.65801
-2.65801
-2.658
-2.658
-2.658
-2.65799
-2.65799
-2.65799
-2.65799
-2.658
-2.658
-2.65801
-2.65801
-2.65802
-2.65804
-2.65805
-2.65806
-2.65807
-2.65808
-2.6581
-2.65811
-2.65812
-2.65813
-2.65814
-2.65815
-2.65816
-2.65817
-2.65818
-2.65819
-2.6582
-2.65821
-2.65822
-2.65823
-2.65824
-2.65825
-2.65826
-2.65826
-2.65827
-2.65828
-2.65829
-2.6583
-2.6583
-2.65831
-2.65832
-2.65832
-2.65833
-2.65833
-2.65833
-2.65833
-2.65833
-2.65833
-2.65833
-2.65833
-2.65832
-2.65831
-2.6583
-2.6583
-2.65829
-2.65827
-2.65826
-2.65825
-2.65823
-2.65822
-2.6582
-2.65819
-2.65817
-2.65815
-2.65812
-2.6581
-2.65807
-2.65804
-2.65802
-2.65799
-2.65798
-2.65797
-2.65796
-2.65796
-2.65796
-2.65796
-2.65796
-2.65796
-2.65796
-2.65797
-2.65797
-2.75639
-2.75639
-2.75639
-2.7564
-2.7564
-2.7564
-2.75641
-2.75642
-2.75643
-2.75644
-2.75645
-2.75645
-2.75646
-2.75646
-2.75646
-2.75646
-2.75646
-2.75646
-2.75645
-2.75645
-2.75645
-2.75644
-2.75644
-2.75644
-2.75644
-2.75644
-2.75645
-2.75645
-2.75646
-2.75647
-2.75648
-2.75649
-2.7565
-2.75652
-2.75653
-2.75654
-2.75655
-2.75656
-2.75657
-2.75658
-2.75659
-2.7566
-2.75661
-2.75662
-2.75663
-2.75664
-2.75665
-2.75666
-2.75667
-2.75668
-2.75669
-2.7567
-2.75671
-2.75671
-2.75672
-2.75673
-2.75674
-2.75675
-2.75675
-2.75676
-2.75677
-2.75677
-2.75678
-2.75678
-2.75678
-2.75678
-2.75678
-2.75678
-2.75677
-2.75677
-2.75676
-2.75675
-2.75674
-2.75673
-2.75672
-2.75671
-2.7567
-2.75668
-2.75667
-2.75665
-2.75663
-2.75661
-2.75659
-2.75656
-2.75654
-2.75651
-2.75648
-2.75645
-2.75643
-2.75642
-2.75641
-2.7564
-2.75639
-2.75639
-2.75639
-2.75639
-2.75639
-2.7564
-2.7564
-2.7564
-2.85484
-2.85484
-2.85484
-2.85484
-2.85484
-2.85485
-2.85485
-2.85486
-2.85487
-2.85488
-2.85489
-2.8549
-2.85491
-2.85491
-2.85491
-2.85491
-2.85491
-2.85491
-2.8549
-2.8549
-2.85489
-2.85489
-2.85489
-2.85489
-2.85489
-2.85489
-2.85489
-2.8549
-2.85491
-2.85491
-2.85493
-2.85494
-2.85495
-2.85496
-2.85497
-2.85498
-2.85499
-2.855
-2.85501
-2.85502
-2.85503
-2.85504
-2.85505
-2.85506
-2.85507
-2.85509
-2.8551
-2.85511
-2.85512
-2.85512
-2.85513
-2.85514
-2.85515
-2.85515
-2.85516
-2.85517
-2.85518
-2.85519
-2.85519
-2.8552
-2.85521
-2.85521
-2.85522
-2.85522
-2.85523
-2.85523
-2.85523
-2.85522
-2.85522
-2.85521
-2.85521
-2.8552
-2.85519
-2.85518
-2.85517
-2.85515
-2.85514
-2.85513
-2.85511
-2.85509
-2.85507
-2.85505
-2.85503
-2.855
-2.85497
-2.85494
-2.85491
-2.85489
-2.85487
-2.85485
-2.85484
-2.85484
-2.85483
-2.85483
-2.85483
-2.85483
-2.85483
-2.85483
-2.85483
-2.85483
-2.95328
-2.95328
-2.95328
-2.95328
-2.95329
-2.95329
-2.9533
-2.95331
-2.95332
-2.95333
-2.95334
-2.95335
-2.95335
-2.95336
-2.95336
-2.95336
-2.95336
-2.95336
-2.95335
-2.95335
-2.95334
-2.95334
-2.95334
-2.95333
-2.95333
-2.95333
-2.95334
-2.95334
-2.95335
-2.95336
-2.95337
-2.95338
-2.95339
-2.9534
-2.95341
-2.95342
-2.95343
-2.95344
-2.95345
-2.95346
-2.95347
-2.95348
-2.95349
-2.95351
-2.95352
-2.95353
-2.95354
-2.95355
-2.95356
-2.95357
-2.95357
-2.95358
-2.95359
-2.95359
-2.9536
-2.95361
-2.95362
-2.95362
-2.95363
-2.95364
-2.95365
-2.95365
-2.95366
-2.95366
-2.95367
-2.95367
-2.95367
-2.95367
-2.95366
-2.95366
-2.95365
-2.95364
-2.95363
-2.95362
-2.95361
-2.9536
-2.95358
-2.95357
-2.95355
-2.95353
-2.95351
-2.95349
-2.95347
-2.95344
-2.95341
-2.95338
-2.95335
-2.95332
-2.9533
-2.95329
-2.95328
-2.95327
-2.95327
-2.95326
-2.95326
-2.95326
-2.95325
-2.95326
-2.95326
-2.95325
-3.05172
-3.05172
-3.05172
-3.05173
-3.05173
-3.05174
-3.05174
-3.05175
-3.05176
-3.05177
-3.05178
-3.05179
-3.0518
-3.05181
-3.05181
-3.05181