/*--------------------------------*- C++ -*----------------------------------*\
| =========                 |                                                 |
| \\      /  F ield         | OpenFOAM: The Open Source CFD Toolbox           |
|  \\    /   O peration     | Version:  4.1                                   |
|   \\  /    A nd           | Web:      www.OpenFOAM.org                      |
|    \\/     M anipulation  |                                                 |
\*---------------------------------------------------------------------------*/
FoamFile
{
    version     2.0;
    format      ascii;
    class       volScalarField;
    location    "1340";
    object      T;
}
// * * * * * * * * * * * * * * * * * * * * * * * * * * * * * * * * * * * * * //

dimensions      [0 0 0 1 0 0 0];

internalField   nonuniform List<scalar> 
5000
(
285.002
284.447
284.189
284.489
284.745
285.008
285.272
285.532
285.782
286.01
286.209
286.375
286.509
286.618
286.71
286.794
286.876
286.958
287.045
287.135
287.231
287.332
287.439
287.55
287.666
287.784
287.902
288.012
288.106
288.174
288.208
288.199
288.145
288.053
287.933
287.796
287.654
287.515
287.386
287.269
287.168
287.083
287.014
286.962
286.926
286.905
286.899
286.907
286.93
286.967
287.019
287.086
287.168
287.268
287.384
287.52
287.674
287.845
288.021
288.19
288.354
288.51
288.659
288.799
288.93
289.051
289.161
289.26
289.347
289.425
289.494
289.558
289.619
289.679
289.744
289.815
289.9
289.761
287.155
286.521
286.269
286.032
285.804
285.585
285.377
285.178
284.986
284.798
284.617
284.458
284.319
284.201
284.104
284.102
284.201
284.339
284.535
284.799
285.061
285.41
284.458
283.529
283.529
283.538
283.54
283.541
283.542
283.543
283.545
283.548
283.55
283.553
283.556
283.559
283.562
283.565
283.569
283.572
283.576
283.58
283.583
283.587
283.592
283.596
283.6
283.604
283.609
283.613
283.616
283.621
283.623
283.625
283.626
283.627
283.627
283.627
283.627
283.627
283.627
283.627
283.627
283.628
283.629
283.631
283.632
283.635
283.637
283.639
283.642
283.644
283.647
283.65
283.652
283.655
283.659
283.662
283.666
283.673
283.694
283.738
283.804
283.893
284.001
284.124
284.257
284.391
284.519
284.633
284.727
284.796
284.839
284.86
284.863
284.859
284.889
285.138
286.041
287.424
287.227
285.263
283.896
283.709
283.635
283.587
283.542
283.502
283.472
283.461
283.468
283.478
283.49
283.501
283.509
283.503
283.492
283.475
283.46
283.521
283.928
284.788
284.287
283.529
283.534
283.544
283.546
283.545
283.543
283.542
283.54
283.539
283.539
283.54
283.541
283.542
283.544
283.545
283.547
283.549
283.55
283.552
283.553
283.555
283.556
283.558
283.559
283.561
283.562
283.564
283.565
283.567
283.568
283.57
283.571
283.573
283.575
283.576
283.578
283.581
283.584
283.587
283.592
283.596
283.601
283.605
283.61
283.614
283.618
283.622
283.625
283.628
283.63
283.632
283.634
283.635
283.636
283.636
283.636
283.636
283.635
283.636
283.639
283.646
283.658
283.676
283.7
283.73
283.763
283.797
283.829
283.857
283.879
283.895
283.909
283.926
283.965
284.118
284.714
285.971
286.624
285.774
284.118
283.504
283.477
283.465
283.46
283.461
283.468
283.482
283.5
283.519
283.538
283.553
283.56
283.548
283.538
283.513
283.483
283.476
283.692
284.528
284.197
283.533
283.539
283.552
283.558
283.56
283.56
283.56
283.561
283.561
283.562
283.563
283.563
283.564
283.564
283.564
283.564
283.564
283.564
283.564
283.564
283.565
283.565
283.565
283.566
283.566
283.566
283.566
283.567
283.567
283.567
283.568
283.568
283.569
283.571
283.574
283.577
283.582
283.589
283.596
283.604
283.612
283.619
283.626
283.632
283.638
283.642
283.646
283.65
283.653
283.656
283.659
283.661
283.663
283.665
283.666
283.667
283.667
283.666
283.665
283.664
283.663
283.662
283.663
283.665
283.669
283.675
283.682
283.689
283.697
283.705
283.712
283.72
283.731
283.752
283.828
284.172
285.101
285.976
285.804
284.794
283.68
283.462
283.461
283.467
283.48
283.497
283.518
283.543
283.569
283.592
283.606
283.607
283.589
283.585
283.56
283.518
283.49
283.612
284.379
284.141
283.535
283.542
283.557
283.565
283.569
283.571
283.573
283.573
283.572
283.571
283.568
283.565
283.561
283.558
283.556
283.553
283.552
283.55
283.549
283.548
283.548
283.547
283.547
283.547
283.547
283.547
283.548
283.548
283.549
283.55
283.552
283.555
283.558
283.563
283.57
283.579
283.591
283.604
283.616
283.628
283.637
283.644
283.649
283.652
283.655
283.657
283.66
283.662
283.665
283.668
283.671
283.675
283.679
283.683
283.687
283.69
283.692
283.693
283.694
283.693
283.692
283.691
283.689
283.688
283.687
283.687
283.688
283.689
283.691
283.693
283.695
283.697
283.7
283.708
283.743
283.935
284.578
285.423
285.632
285.084
284.222
283.528
283.471
283.484
283.503
283.528
283.557
283.588
283.62
283.644
283.656
283.65
283.624
283.625
283.608
283.558
283.513
283.581
284.28
284.103
283.536
283.543
283.558
283.567
283.572
283.574
283.573
283.57
283.565
283.559
283.552
283.546
283.541
283.537
283.533
283.531
283.529
283.527
283.526
283.525
283.525
283.525
283.525
283.526
283.527
283.528
283.529
283.531
283.534
283.538
283.543
283.549
283.557
283.568
283.582
283.6
283.619
283.636
283.647
283.653
283.655
283.654
283.652
283.649
283.646
283.643
283.642
283.642
283.643
283.646
283.65
283.656
283.663
283.671
283.68
283.689
283.697
283.705
283.711
283.715
283.717
283.718
283.717
283.716
283.715
283.714
283.713
283.713
283.713
283.712
283.712
283.711
283.71
283.711
283.725
283.83
284.26
284.983
285.381
285.17
284.56
283.88
283.499
283.501
283.527
283.559
283.596
283.633
283.67
283.696
283.704
283.689
283.655
283.658
283.659
283.601
283.542
283.572
284.21
284.074
283.535
283.54
283.554
283.563
283.567
283.566
283.561
283.554
283.546
283.538
283.531
283.526
283.521
283.518
283.515
283.513
283.512
283.511
283.51
283.51
283.511
283.511
283.512
283.514
283.516
283.518
283.521
283.526
283.531
283.538
283.546
283.557
283.571
283.589
283.614
283.64
283.658
283.664
283.661
283.653
283.644
283.634
283.624
283.616
283.608
283.602
283.597
283.594
283.593
283.594
283.597
283.603
283.612
283.622
283.636
283.651
283.668
283.685
283.7
283.713
283.723
283.73
283.734
283.737
283.738
283.738
283.738
283.737
283.736
283.735
283.733
283.731
283.728
283.725
283.728
283.784
284.064
284.643
285.111
285.134
284.754
284.193
283.7
283.52
283.547
283.588
283.633
283.677
283.718
283.745
283.749
283.726
283.684
283.682
283.712
283.649
283.574
283.575
284.158
284.051
283.534
283.534
283.547
283.554
283.555
283.55
283.543
283.535
283.527
283.521
283.516
283.512
283.509
283.507
283.506
283.505
283.505
283.505
283.505
283.506
283.507
283.508
283.51
283.512
283.516
283.52
283.525
283.531
283.54
283.55
283.563
283.579
283.601
283.631
283.667
283.68
283.673
283.659
283.643
283.627
283.613
283.6
283.588
283.577
283.567
283.559
283.551
283.545
283.54
283.538
283.537
283.539
283.545
283.553
283.566
283.582
283.602
283.625
283.648
283.671
283.692
283.709
283.723
283.734
283.741
283.746
283.748
283.749
283.749
283.748
283.746
283.744
283.741
283.737
283.735
283.764
283.942
284.384
284.852
285.025
284.84
284.421
283.952
283.63
283.566
283.612
283.666
283.719
283.764
283.792
283.793
283.764
283.712
283.7
283.765
283.701
283.61
283.586
284.12
284.032
283.531
283.527
283.535
283.54
283.538
283.532
283.525
283.519
283.514
283.511
283.508
283.506
283.505
283.505
283.505
283.506
283.506
283.507
283.508
283.51
283.512
283.514
283.517
283.52
283.525
283.531
283.539
283.548
283.56
283.574
283.593
283.618
283.654
283.704
283.702
283.677
283.654
283.635
283.619
283.604
283.591
283.578
283.566
283.555
283.543
283.533
283.523
283.513
283.505
283.498
283.492
283.489
283.488
283.49
283.496
283.507
283.522
283.542
283.566
283.592
283.62
283.647
283.672
283.693
283.711
283.724
283.734
283.74
283.744
283.746
283.746
283.746
283.744
283.741
283.739
283.754
283.864
284.189
284.617
284.877
284.845
284.568
284.173
283.812
283.627
283.63
283.695
283.756
283.805
283.835
283.837
283.801
283.74
283.714
283.811
283.755
283.649
283.601
284.091
284.015
283.528
283.517
283.522
283.523
283.52
283.516
283.512
283.51
283.508
283.507
283.507
283.508
283.509
283.511
283.512
283.514
283.516
283.517
283.519
283.521
283.524
283.527
283.531
283.536
283.543
283.552
283.562
283.576
283.597
283.626
283.672
283.727
283.75
283.718
283.68
283.655
283.637
283.622
283.609
283.597
283.585
283.574
283.562
283.55
283.538
283.526
283.514
283.502
283.49
283.48
283.47
283.461
283.454
283.45
283.448
283.45
283.456
283.467
283.484
283.506
283.533
283.562
283.592
283.621
283.648
283.671
283.689
283.704
283.715
283.723
283.729
283.732
283.734
283.735
283.736
283.745
283.813
284.044
284.411
284.711
284.792
284.644
284.342
284.003
283.751
283.666
283.708
283.786
283.839
283.873
283.878
283.84
283.769
283.727
283.841
283.809
283.69
283.62
284.069
284.001
283.524
283.508
283.509
283.508
283.507
283.506
283.506
283.507
283.509
283.511
283.514
283.517
283.52
283.523
283.526
283.529
283.531
283.534
283.536
283.539
283.543
283.547
283.553
283.561
283.57
283.587
283.615
283.672
283.712
283.733
283.751
283.76
283.725
283.685
283.663
283.646
283.634
283.622
283.612
283.602
283.592
283.581
283.57
283.558
283.545
283.532
283.518
283.504
283.49
283.477
283.464
283.452
283.441
283.431
283.424
283.419
283.417
283.419
283.426
283.439
283.458
283.481
283.509
283.538
283.568
283.597
283.623
283.646
283.665
283.68
283.693
283.703
283.711
283.717
283.722
283.732
283.776
283.937
284.237
284.542
284.7
284.66
284.456
284.17
283.904
283.75
283.73
283.788
283.854
283.9
283.914
283.88
283.801
283.741
283.854
283.863
283.731
283.641
284.055
283.989
283.521
283.5
283.499
283.499
283.502
283.505
283.51
283.514
283.519
283.524
283.529
283.534
283.538
283.542
283.546
283.549
283.552
283.555
283.558
283.562
283.568
283.573
283.584
283.614
283.681
283.709
283.728
283.751
283.768
283.774
283.768
283.731
283.693
283.674
283.66
283.649
283.639
283.631
283.623
283.614
283.605
283.595
283.584
283.572
283.558
283.544
283.529
283.513
283.497
283.482
283.466
283.452
283.438
283.426
283.415
283.406
283.398
283.394
283.393
283.397
283.406
283.421
283.441
283.465
283.493
283.521
283.55
283.577
283.601
283.624
283.643
283.66
283.674
283.687
283.699
283.712
283.745
283.856
284.093
284.38
284.585
284.63
284.516
284.297
284.053
283.867
283.789
283.8
283.852
283.911
283.942
283.92
283.835
283.756
283.855
283.927
283.774
283.665
284.046
283.98
283.52
283.494
283.494
283.498
283.506
283.514
283.522
283.53
283.538
283.545
283.552
283.557
283.563
283.567
283.571
283.575
283.578
283.583
283.585
283.591
283.625
283.688
283.714
283.733
283.758
283.775
283.785
283.79
283.788
283.774
283.737
283.704
283.686
283.673
283.664
283.656
283.65
283.643
283.637
283.63
283.622
283.612
283.601
283.588
283.574
283.558
283.542
283.524
283.507
283.489
283.472
283.456
283.441
283.427
283.414
283.403
283.392
283.384
283.378
283.376
283.377
283.384
283.395
283.412
283.432
283.457
283.483
283.51
283.537
283.562
283.586
283.609
283.63
283.649
283.667
283.685
283.714
283.795
283.977
284.233
284.458
284.566
284.531
284.382
284.179
283.993
283.88
283.849
283.872
283.922
283.962
283.953
283.872
283.775
283.851
284.005
283.822
283.69
284.042
283.974
283.519
283.492
283.495
283.505
283.519
283.532
283.545
283.556
283.566
283.574
283.582
283.588
283.594
283.598
283.602
283.607
283.608
283.635
283.691
283.72
283.74
283.765
283.784
283.796
283.805
283.809
283.806
283.795
283.773
283.74
283.712
283.696
283.685
283.677
283.671
283.666
283.662
283.658
283.653
283.647
283.639
283.63
283.618
283.605
283.59
283.573
283.554
283.535
283.516
283.497
283.478
283.461
283.445
283.431
283.417
283.405
283.394
283.383
283.375
283.368
283.364
283.364
283.368
283.377
283.391
283.409
283.43
283.454
283.479
283.505
283.531
283.557
283.582
283.606
283.63
283.653
283.683
283.744
283.884
284.104
284.331
284.48
284.51
284.427
284.273
284.107
283.982
283.923
283.921
283.95
283.984
283.98
283.906
283.797
283.849
284.08
283.878
283.719
284.043
283.968
283.516
283.494
283.501
283.52
283.54
283.56
283.576
283.59
283.602
283.611
283.619
283.625
283.631
283.634
283.645
283.69
283.726
283.745
283.768
283.789
283.804
283.816
283.822
283.824
283.819
283.809
283.789
283.763
283.737
283.716
283.703
283.694
283.687
283.682
283.679
283.678
283.676
283.674
283.671
283.665
283.658
283.648
283.636
283.622
283.605
283.586
283.565
283.544
283.522
283.501
283.482
283.465
283.449
283.436
283.423
283.412
283.401
283.39
283.38
283.371
283.364
283.359
283.357
283.36
283.366
283.378
283.393
283.411
283.433
283.457
283.482
283.509
283.536
283.563
283.591
283.619
283.65
283.701
283.81
283.993
284.209
284.382
284.461
284.437
284.334
284.198
284.079
284.006
283.983
283.992
284.012
284.006
283.935
283.82
283.852
284.106
283.939
283.753
284.048
283.965
283.512
283.497
283.513
283.541
283.57
283.595
283.616
283.632
283.645
283.654
283.663
283.669
283.688
283.73
283.753
283.77
283.79
283.806
283.819
283.829
283.834
283.834
283.828
283.816
283.796
283.772
283.749
283.731
283.716
283.707
283.699
283.694
283.691
283.69
283.69
283.691
283.692
283.692
283.689
283.685
283.677
283.667
283.653
283.637
283.618
283.596
283.573
283.549
283.525
283.503
283.483
283.467
283.454
283.443
283.433
283.424
283.415
283.405
283.394
283.384
283.374
283.366
283.36
283.357
283.357
283.362
283.371
283.384
283.401
283.421
283.443
283.468
283.495
283.523
283.553
283.584
283.617
283.663
283.75
283.901
284.097
284.28
284.394
284.418
284.362
284.262
284.158
284.082
284.046
284.041
284.044
284.031
283.96
283.84
283.859
284.082
283.991
283.791
284.056
283.963
283.508
283.502
283.53
283.569
283.607
283.638
283.662
283.681
283.694
283.707
283.725
283.76
283.78
283.793
283.808
283.821
283.831
283.839
283.842
283.84
283.833
283.82
283.801
283.776
283.754
283.737
283.724
283.713
283.706
283.701
283.698
283.696
283.697
283.7
283.703
283.707
283.71
283.71
283.709
283.704
283.696
283.684
283.668
283.649
283.627
283.602
283.576
283.549
283.523
283.501
283.483
283.47
283.461
283.455
283.45
283.445
283.439
283.431
283.421
283.409
283.397
283.385
283.375
283.367
283.362
283.361
283.363
283.37
283.381
283.396
283.415
283.437
283.462
283.489
283.519
283.551
283.585
283.629
283.7
283.825
283.999
284.18
284.317
284.378
284.364
284.299
284.215
284.143
284.1
284.084
284.075
284.053
283.98
283.855
283.869
284.067
284.032
283.83
284.071
283.962
283.505
283.511
283.554
283.606
283.652
283.689
283.716
283.737
283.755
283.782
283.804
283.814
283.824
283.834
283.842
283.847
283.849
283.846
283.838
283.825
283.807
283.782
283.758
283.739
283.725
283.714
283.705
283.701
283.698
283.697
283.698
283.701
283.706
283.712
283.719
283.725
283.729
283.73
283.728
283.722
283.713
283.699
283.68
283.658
283.633
283.604
283.573
283.543
283.517
283.496
283.483
283.476
283.474
283.476
283.478
283.479
283.478
283.472
283.462
283.45
283.435
283.42
283.404
283.391
283.38
283.372
283.369
283.369
283.374
283.384
283.398
283.415
283.437
283.462
283.491
283.522
283.557
283.598
283.659
283.763
283.915
284.088
284.236
284.325
284.346
284.312
284.251
284.188
284.143
284.119
284.102
284.072
283.995
283.866
283.881
284.081
284.072
283.869
284.092
283.963
283.504
283.524
283.584
283.65
283.704
283.745
283.773
283.796
283.819
283.833
283.84
283.846
283.851
283.855
283.855
283.852
283.845
283.832
283.815
283.793
283.766
283.743
283.724
283.709
283.699
283.691
283.689
283.69
283.692
283.696
283.701
283.709
283.718
283.728
283.737
283.744
283.749
283.75
283.747
283.739
283.727
283.71
283.689
283.663
283.633
283.599
283.565
283.533
283.508
283.493
283.487
283.49
283.498
283.508
283.518
283.526
283.53
283.528
283.52
283.506
283.488
283.468
283.448
283.428
283.41
283.396
283.386
283.38
283.379
283.382
283.391
283.404
283.421
283.443
283.469
283.499
283.532
283.571
283.625
283.713
283.844
284.005
284.157
284.265
284.314
284.308
284.268
284.217
284.174
284.145
284.123
284.087
284.005
283.871
283.892
284.112
284.118
283.909
284.12
283.966
283.507
283.543
283.622
283.701
283.76
283.797
283.823
283.843
283.853
283.858
283.861
283.863
283.863
283.86
283.853
283.841
283.826
283.805
283.78
283.751
283.726
283.706
283.69
283.679
283.672
283.67
283.675
283.681
283.689
283.698
283.709
283.721
283.734
283.746
283.757
283.765
283.769
283.769
283.763
283.753
283.738
283.718
283.692
283.662
283.627
283.589
283.551
283.52
283.5
283.493
283.499
283.514
283.533
283.552
283.569
283.582
283.59
283.592
283.587
283.573
283.553
283.528
283.501
283.475
283.45
283.429
283.412
283.4
283.392
283.39
283.393
283.401
283.413
283.431
283.454
283.481
283.512
283.549
283.598
283.672
283.785
283.932
284.082
284.203
284.273
284.291
284.271
284.232
284.193
284.162
284.137
284.097
284.01
283.871
283.904
284.15
284.168
283.956
284.154
283.969
283.513
283.566
283.667
283.752
283.804
283.836
283.857
283.867
283.871
283.872
283.872
283.869
283.862
283.852
283.838
283.82
283.796
283.768
283.736
283.709
283.686
283.667
283.654
283.647
283.646
283.653
283.664
283.678
283.691
283.705
283.721
283.737
283.752
283.766
283.778
283.785
283.787
283.785
283.777
283.764
283.745
283.721
283.691
283.655
283.615
283.573
283.535
283.507
283.496
283.502
283.522
283.549
283.577
283.602
283.622
283.635
283.643
283.647
283.646
283.634
283.614
283.587
283.557
283.525
283.495
283.468
283.445
283.426
283.413
283.405
283.402
283.405
283.413
283.426
283.445
283.469
283.498
283.532
283.576
283.64
283.738
283.87
284.015
284.143
284.228
284.266
284.263
284.236
284.203
284.173
284.146
284.104
284.013
283.868
283.914
284.184
284.219
284.016
284.193
283.972
283.519
283.595
283.711
283.79
283.836
283.862
283.876
283.88
283.881
283.878
283.873
283.865
283.853
283.836
283.815
283.79
283.759
283.723
283.691
283.664
283.643
283.628
283.62
283.619
283.626
283.641
283.66
283.679
283.698
283.717
283.736
283.755
283.773
283.788
283.798
283.803
283.803
283.798
283.787
283.77
283.747
283.719
283.684
283.644
283.599
283.554
283.517
283.497
283.499
283.521
283.555
283.592
283.624
283.647
283.66
283.667
283.671
283.673
283.674
283.67
283.655
283.631
283.602
283.569
283.536
283.505
283.478
283.455
283.437
283.424
283.417
283.415
283.419
283.428
283.443
283.463
283.488
283.519
283.559
283.615
283.7
283.819
283.957
284.087
284.184
284.237
284.249
284.233
284.206
284.179
284.151
284.108
284.013
283.865
283.922
284.202
284.273
284.088
284.238
283.975
283.524
283.625
283.743
283.816
283.857
283.878
283.886
283.887
283.884
283.878
283.868
283.854
283.836
283.813
283.785
283.752
283.713
283.675
283.643
283.618
283.601
283.592
283.591
283.598
283.612
283.636
283.661
283.686
283.71
283.732
283.755
283.776
283.794
283.808
283.816
283.819
283.815
283.806
283.792
283.771
283.745
283.712
283.673
283.628
283.58
283.535
283.503
283.494
283.512
283.549
283.594
283.634
283.661
283.673
283.674
283.67
283.667
283.667
283.669
283.671
283.666
283.651
283.627
283.598
283.567
283.536
283.507
283.482
283.461
283.445
283.434
283.429
283.429
283.434
283.445
283.462
283.484
283.512
283.547
283.597
283.671
283.777
283.907
284.037
284.142
284.207
284.232
284.226
284.205
284.181
284.155
284.112
284.014
283.862
283.924
284.19
284.331
284.168
284.289
283.978
283.53
283.648
283.765
283.835
283.872
283.887
283.891
283.889
283.883
283.873
283.858
283.839
283.814
283.785
283.749
283.708
283.664
283.627
283.597
283.576
283.565
283.563
283.57
283.584
283.605
283.636
283.668
283.697
283.724
283.751
283.775
283.797
283.815
283.826
283.831
283.83
283.823
283.81
283.792
283.768
283.738
283.702
283.659
283.611
283.561
283.518
283.494
283.499
283.533
283.583
283.631
283.665
283.678
283.675
283.664
283.652
283.644
283.643
283.646
283.651
283.653
283.647
283.632
283.609
283.583
283.555
283.529
283.504
283.483
283.465
283.453
283.445
283.442
283.444
283.452
283.465
283.484
283.509
283.54
283.584
283.649
283.745
283.866
283.995
284.105
284.179
284.214
284.217
284.202
284.181
284.157
284.116
284.017
283.863
283.906
284.153
284.387
284.251
284.346
283.981
283.538
283.664
283.78
283.847
283.88
283.892
283.893
283.888
283.879
283.864
283.844
283.819
283.789
283.751
283.708
283.66
283.616
283.581
283.556
283.541
283.537
283.541
283.555
283.577
283.605
283.64
283.677
283.711
283.741
283.77
283.796
283.818
283.833
283.84
283.841
283.836
283.825
283.809
283.788
283.762
283.729
283.69
283.645
283.595
283.545
283.506
283.492
283.51
283.557
283.613
283.657
283.677
283.676
283.663
283.645
283.63
283.621
283.618
283.621
283.626
283.631
283.63
283.621
283.605
283.585
283.563
283.54
283.519
283.5
283.483
283.471
283.462
283.457
283.458
283.463
283.474
283.489
283.51
283.538
283.577
283.635
283.721
283.835
283.961
284.075
284.156
284.198
284.208
284.198
284.182
284.161
284.122
284.024
283.868
283.875
284.079
284.424
284.332
284.408
283.982
283.545
283.674
283.789
283.855
283.884
283.894
283.893
283.886
283.872
283.853
283.828
283.797
283.759
283.715
283.665
283.614
283.573
283.542
283.522
283.514
283.515
283.526
283.546
283.574
283.608
283.647
283.689
283.726
283.759
283.789
283.816
283.835
283.846
283.85
283.846
283.837
283.823
283.805
283.782
283.753
283.719
283.679
283.632
283.581
283.534
283.501
283.497
283.525
283.578
283.632
283.666
283.675
283.666
283.649
283.63
283.615
283.604
283.6
283.601
283.603
283.606
283.606
283.6
283.59
283.577
283.561
283.545
283.528
283.513
283.499
283.488
283.48
283.476
283.475
283.479
283.487
283.5
283.518
283.542
283.575
283.627
283.705
283.813
283.937
284.052
284.138
284.185
284.2
284.195
284.183
284.165
284.129
284.039
283.882
283.839
283.971
284.394
284.407
284.475
283.983
283.55
283.679
283.794
283.858
283.886
283.895
283.892
283.882
283.865
283.841
283.811
283.774
283.729
283.678
283.623
283.574
283.537
283.511
283.497
283.493
283.5
283.515
283.541
283.575
283.615
283.657
283.702
283.741
283.777
283.808
283.833
283.849
283.855
283.854
283.846
283.834
283.818
283.798
283.774
283.744
283.71
283.669
283.622
283.573
283.53
283.503
283.506
283.539
283.59
283.637
283.662
283.666
283.656
283.64
283.623
283.609
283.598
283.591
283.587
283.584
283.581
283.58
283.577
283.572
283.565
283.557
283.547
283.537
283.526
283.517
283.509
283.503
283.5
283.499
283.501
283.507
283.516
283.531
283.551
283.58
283.625
283.698
283.801
283.922
284.039
284.127
284.177
284.195
284.194
284.186
284.171
284.138
284.071
283.911
283.821
283.857
284.212
284.47
284.542
283.982
283.552
283.679
283.794
283.859
283.887
283.895
283.89
283.877
283.857
283.829
283.793
283.75
283.699
283.643
283.587
283.542
283.509
283.488
283.478
283.478
283.488
283.508
283.538
283.577
283.622
283.669
283.714
283.756
283.793
283.824
283.846
283.858
283.859
283.853
283.842
283.828
283.81
283.79
283.765
283.736
283.702
283.662
283.618
283.572
283.533
283.511
283.516
283.548
283.591
283.63
283.652
283.657
283.651
283.639
283.625
283.613
283.603
283.595
283.588
283.582
283.575
283.57
283.567
283.566
283.564
283.561
283.558
283.553
283.549
283.544
283.54
283.537
283.534
283.533
283.533
283.535
283.541
283.55
283.566
283.59
283.631
283.699
283.798
283.918
284.034
284.123
284.173
284.192
284.195
284.191
284.179
284.149
284.094
283.962
283.836
283.799
283.981
284.527
284.607
283.981
283.552
283.675
283.79
283.857
283.886
283.894
283.888
283.873
283.849
283.817
283.777
283.728
283.672
283.613
283.559
283.518
283.49
283.473
283.466
283.467
283.48
283.502
283.536
283.58
283.63
283.681
283.728
283.77
283.808
283.837
283.855
283.862
283.859
283.849
283.836
283.82
283.802
283.781
283.758
283.73
283.697
283.66
283.619
283.577
283.543
283.523
283.526
283.55
283.585
283.62
283.643
283.653
283.651
283.644
283.635
283.626
283.62
283.615
283.612
283.609
283.606
283.601
283.591
283.589
283.59
283.591
283.593
283.596
283.599
283.599
283.597
283.592
283.587
283.581
283.576
283.573
283.573
283.576
283.586
283.605
283.642
283.707
283.805
283.925
284.039
284.125
284.173
284.193
284.198
284.197
284.188
284.162
284.112
284.015
283.873
283.803
283.969
284.573
284.667
283.979
283.55
283.668
283.783
283.853
283.885
283.893
283.886
283.869
283.843
283.808
283.763
283.709
283.65
283.59
283.54
283.504
283.48
283.465
283.458
283.46
283.473
283.498
283.535
283.583
283.638
283.691
283.74
283.783
283.82
283.846
283.86
283.862
283.855
283.843
283.828
283.812
283.794
283.774
283.751
283.726
283.696
283.662
283.625
283.589
283.557
283.537
283.534
283.55
283.578
283.609
283.635
283.65
283.655
283.654
283.651
283.65
283.65
283.654
283.66
283.669
283.678
283.686
283.689
283.679
283.678
283.686
283.694
283.701
283.702
283.696
283.685
283.672
283.657
283.643
283.629
283.617
283.609
283.606
283.61
283.625
283.66
283.725
283.823
283.942
284.053
284.133
284.177
284.197
284.205
284.207
284.199
284.175
284.129
284.05
283.911
283.816
283.996
284.608
284.718
283.977
283.547
283.658
283.773
283.847
283.882
283.891
283.885
283.867
283.839
283.801
283.753
283.696
283.635
283.576
283.53
283.499
283.478
283.464
283.455
283.455
283.467
283.493
283.533
283.585
283.644
283.7
283.751
283.794
283.829
283.852
283.861
283.859
283.849
283.835
283.82
283.804
283.787
283.768
283.747
283.724
283.698
283.668
283.637
283.605
283.575
283.554
283.546
283.552
283.572
283.599
283.626
283.646
283.659
283.666
283.671
283.677
283.687
283.701
283.721
283.745
283.774
283.804
283.833
283.855
283.857
283.858
283.856
283.848
283.833
283.812
283.787
283.76
283.733
283.706
283.682
283.661
283.645
283.636
283.636
283.649
283.686
283.754
283.854
283.967
284.07
284.143
284.184
284.204
284.214
284.218
284.212
284.189
284.144
284.071
283.944
283.825
283.989
284.629
284.759
283.975
283.543
283.647
283.761
283.839
283.878
283.89
283.884
283.866
283.837
283.797
283.747
283.689
283.627
283.571
283.529
283.503
283.485
283.469
283.456
283.452
283.462
283.489
283.531
283.586
283.648
283.708
283.759
283.802
283.835
283.855
283.86
283.855
283.843
283.828
283.812
283.797
283.78
283.763
283.745
283.725
283.702
283.678
283.651
283.624
283.598
283.576
283.562
283.561
283.571
283.592
283.617
283.64
283.659
283.673
283.686
283.7
283.717
283.741
283.771
283.807
283.849
283.894
283.939
283.976
283.997
283.999
283.989
283.97
283.943
283.91
283.873
283.835
283.797
283.761
283.729
283.701
283.68
283.667
283.666
283.682
283.723
283.794
283.891
283.997
284.09
284.155
284.192
284.213
284.225
284.23
284.224
284.201
284.156
284.083
283.967
283.831
283.956
284.632
284.789
283.973
283.538
283.635
283.746
283.828
283.873
283.888
283.884
283.867
283.838
283.798
283.748
283.689
283.629
283.575
283.537
283.516
283.5
283.482
283.462
283.451
283.458
283.484
283.527
283.586
283.651
283.712
283.765
283.808
283.839
283.856
283.858
283.85
283.837
283.821
283.806
283.79
283.775
283.76
283.744
283.727
283.709
283.689
283.667
283.645
283.623
283.602
283.586
283.578
283.579
283.59
283.609
283.63
283.651
283.671
283.689
283.708
283.731
283.759
283.794
283.837
283.885
283.937
283.987
284.03
284.059
284.068
284.06
284.039
284.008
283.97
283.928
283.884
283.841
283.801
283.765
283.734
283.712
283.7
283.702
283.723
283.769
283.841
283.933
284.029
284.111
284.169
284.204
284.224
284.238
284.243
284.236
284.211
284.164
284.089
283.981
283.836
283.905
284.613
284.805
283.972
283.533
283.623
283.73
283.815
283.865
283.885
283.884
283.869
283.841
283.803
283.754
283.697
283.639
283.589
283.555
283.538
283.524
283.501
283.472
283.453
283.455
283.478
283.522
283.583
283.651
283.715
283.768
283.811
283.841
283.855
283.855
283.845
283.831
283.815
283.8
283.785
283.771
283.757
283.744
283.73
283.715
283.7
283.684
283.666
283.648
283.631
283.615
283.603
283.598
283.599
283.608
283.623
283.64
283.659
283.679
283.7
283.725
283.755
283.791
283.836
283.887
283.942
283.995
284.041
284.073
284.086
284.083
284.064
284.034
283.997
283.955
283.912
283.869
283.83
283.795
283.766
283.747
283.739
283.747
283.774
283.822
283.893
283.977
284.062
284.134
284.185
284.217
284.238
284.251
284.254
284.244
284.216
284.166
284.089
283.983
283.843
283.844
284.564
284.808
283.97
283.528
283.61
283.712
283.799
283.855
283.881
283.884
283.872
283.847
283.811
283.765
283.712
283.658
283.611
283.58
283.568
283.557
283.527
283.486
283.457
283.452
283.472
283.516
283.579
283.649
283.715
283.769
283.812
283.84
283.854
283.852
283.841
283.826
283.81
283.795
283.781
283.768
283.756
283.745
283.733
283.722
283.71
283.698
283.685
283.672
283.659
283.646
283.634
283.626
283.621
283.621
283.627
283.637
283.65
283.667
283.686
283.71
283.739
283.775
283.819
283.87
283.925
283.979
284.027
284.063
284.081
284.082
284.068
284.042
284.008
283.97
283.93
283.892
283.856
283.826
283.802
283.788
283.786
283.799
283.83
283.88
283.946
284.021
284.096
284.158
284.202
284.232
284.252
284.263
284.262
284.247
284.213
284.158
284.08
283.976
283.845
283.784
284.484
284.797
283.969
283.522
283.596
283.692
283.78
283.842
283.874
283.882
283.874
283.853
283.822
283.781
283.733
283.684
283.64
283.613
283.604
283.595
283.559
283.505
283.464
283.451
283.467
283.509
283.573
283.645
283.712
283.767
283.81
283.839
283.852
283.85
283.838
283.823
283.807
283.792
283.779
283.767
283.756
283.746
283.737
283.728
283.719
283.71
283.701
283.692
283.682
283.673
283.664
283.657
283.651
283.648
283.648
283.652
283.659
283.671
283.686
283.706
283.732
283.764
283.803
283.85
283.901
283.954
284.002
284.041
284.065
284.073
284.065
284.046
284.018
283.986
283.952
283.919
283.889
283.864
283.846
283.838
283.841
283.858
283.89
283.938
283.998
284.065
284.128
284.181
284.22
284.246
284.263
284.269
284.262
284.24
284.199
284.139
284.059
283.959
283.837
283.74
284.376
284.769
283.968
283.516
283.583
283.672
283.759
283.826
283.864
283.878
283.875
283.858
283.832
283.796
283.756
283.714
283.678
283.656
283.645
283.634
283.592
283.528
283.473
283.451
283.461
283.501
283.565
283.639
283.707
283.764
283.807
283.837
283.85
283.848
283.836
283.82
283.804
283.79
283.778
283.767
283.758
283.75
283.742
283.735
283.728
283.721
283.714
283.707
283.701
283.694
283.688
283.683
283.68
283.677
283.677
283.679
283.684
283.691
283.703
283.718
283.739
283.765
283.797
283.836
283.88
283.927
283.973
284.012
284.041
284.057
284.059
284.049
284.03
284.006
283.979
283.952
283.928
283.909
283.897
283.893
283.9
283.919
283.951
283.995
284.048
284.105
284.159
284.203
284.236
284.257
284.267
284.265
284.25
284.219
284.171