/*--------------------------------*- C++ -*----------------------------------*\
| =========                 |                                                 |
| \\      /  F ield         | OpenFOAM: The Open Source CFD Toolbox           |
|  \\    /   O peration     | Version:  4.1                                   |
|   \\  /    A nd           | Web:      www.OpenFOAM.org                      |
|    \\/     M anipulation  |                                                 |
\*---------------------------------------------------------------------------*/
FoamFile
{
    version     2.0;
    format      ascii;
    class       volScalarField;
    location    "60";
    object      p;
}
// * * * * * * * * * * * * * * * * * * * * * * * * * * * * * * * * * * * * * //

dimensions      [0 2 -2 0 0 0 0];

internalField   nonuniform List<scalar> 
5000
(
0
-1.25178e-05
-1.20011e-05
5.85945e-06
2.76401e-05
3.43939e-05
2.42876e-05
3.9266e-06
-1.57566e-05
-2.25379e-05
-1.53344e-05
6.17203e-06
5.66894e-06
-1.51166e-05
-2.43017e-05
-1.42995e-05
-9.70973e-06
-1.81343e-05
-1.48127e-05
-2.99091e-06
-1.49784e-05
-3.20869e-05
-3.88128e-05
-3.29488e-05
-2.29322e-05
-2.27313e-05
-2.30114e-05
-1.87839e-05
-2.1951e-05
-1.92718e-05
-8.06965e-06
-2.81514e-06
-1.62618e-05
-1.95472e-05
-7.64547e-06
-1.81914e-06
-1.61291e-05
-2.51035e-05
-1.94339e-05
-9.28549e-06
-3.42959e-06
-3.15939e-05
-3.03092e-05
-1.76311e-05
-1.12971e-05
-2.21553e-05
-3.0609e-05
-2.04948e-05
2.50508e-06
1.28376e-05
-1.47697e-06
-1.19355e-05
1.10664e-06
1.45575e-05
9.10645e-06
-2.8367e-06
-1.15253e-05
1.62399e-06
1.32239e-05
1.34047e-05
1.90367e-06
-8.99888e-06
-1.15397e-05
-1.87371e-06
8.64999e-06
2.14173e-06
-1.92441e-05
-2.84527e-05
-1.61568e-05
-3.90188e-07
1.1304e-05
-1.22192e-06
-1.49956e-05
-2.21041e-05
-1.55395e-05
-3.98019e-06
7.05103e-06
-7.59723e-06
-2.21734e-05
-1.4981e-05
-1.89416e-05
-3.71937e-05
-1.81123e-05
-1.19172e-05
-1.47794e-05
-2.70354e-05
-8.002e-06
1.82611e-05
2.37654e-05
1.66929e-05
7.71286e-06
1.35475e-05
2.03999e-05
2.24282e-05
-7.77907e-06
-3.08399e-05
-3.38464e-05
-1.86538e-05
-2.80931e-05
-3.04231e-05
-0.0984915
-0.0985121
-0.0985213
-0.0985116
-0.0984959
-0.0984899
-0.0984965
-0.0985112
-0.0985288
-0.0985319
-0.0985302
-0.0985159
-0.0985189
-0.098538
-0.0985285
-0.0985278
-0.0985207
-0.0985137
-0.098516
-0.0985139
-0.0985278
-0.0985426
-0.0985304
-0.0985442
-0.0985299
-0.0985125
-0.0985204
-0.0985197
-0.0985099
-0.0985189
-0.0985161
-0.0985202
-0.0985248
-0.0985217
-0.0985165
-0.0985251
-0.0985375
-0.0985361
-0.098532
-0.0985274
-0.0985292
-0.0985357
-0.0985328
-0.0985281
-0.0985315
-0.0985399
-0.0985396
-0.0985416
-0.0985224
-0.0985094
-0.0985086
-0.0985118
-0.0985091
-0.0985025
-0.0985023
-0.098506
-0.0985073
-0.0985041
-0.0985011
-0.0984978
-0.0985095
-0.0985159
-0.0985172
-0.0985168
-0.0985106
-0.0985174
-0.0985252
-0.0985225
-0.0985182
-0.0985098
-0.098506
-0.0985162
-0.0985212
-0.0985207
-0.0985209
-0.0985137
-0.0985061
-0.0985064
-0.0985075
-0.0985
-0.0985056
-0.0985047
-0.0985021
-0.0985017
-0.0985008
-0.0985133
-0.0985098
-0.0984952
-0.0984921
-0.0984948
-0.0984956
-0.0984938
-0.0984955
-0.0985036
-0.0985277
-0.0985405
-0.0985333
-0.0985163
-0.0985273
-0.0985288
-0.197009
-0.19703
-0.197041
-0.197034
-0.197021
-0.197014
-0.197017
-0.197027
-0.197041
-0.197037
-0.197044
-0.197035
-0.197035
-0.197041
-0.197031
-0.197038
-0.197028
-0.197019
-0.197021
-0.197022
-0.197033
-0.197037
-0.197022
-0.197039
-0.197032
-0.197018
-0.197024
-0.197025
-0.197014
-0.197025
-0.197026
-0.197032
-0.197029
-0.19703
-0.19703
-0.197041
-0.197052
-0.197053
-0.197052
-0.197047
-0.197041
-0.197026
-0.197034
-0.197036
-0.197044
-0.197047
-0.197053
-0.197058
-0.197046
-0.197029
-0.197021
-0.197027
-0.197028
-0.197024
-0.197024
-0.197027
-0.197026
-0.197025
-0.197024
-0.197023
-0.197036
-0.197042
-0.197041
-0.197045
-0.197035
-0.197039
-0.197035
-0.19704
-0.197041
-0.197034
-0.19703
-0.197042
-0.197046
-0.197045
-0.197052
-0.19704
-0.197027
-0.197021
-0.197019
-0.197016
-0.19701
-0.196988
-0.197001
-0.197009
-0.197007
-0.197016
-0.197024
-0.197014
-0.197013
-0.197014
-0.197013
-0.197014
-0.197015
-0.197024
-0.197039
-0.197045
-0.197037
-0.197021
-0.197035
-0.197038
-0.295529
-0.295548
-0.295558
-0.295552
-0.295539
-0.295531
-0.295529
-0.295533
-0.295538
-0.295527
-0.295539
-0.29554
-0.295534
-0.295527
-0.295528
-0.295538
-0.295531
-0.295523
-0.295529
-0.295526
-0.295522
-0.295507
-0.295509
-0.295523
-0.295524
-0.295525
-0.295534
-0.295532
-0.295522
-0.295531
-0.295533
-0.295536
-0.295528
-0.295538
-0.295538
-0.295547
-0.295555
-0.29556
-0.295563
-0.295558
-0.295541
-0.295519
-0.295536
-0.295539
-0.295544
-0.29554
-0.295561
-0.295558
-0.295558
-0.295543
-0.295537
-0.295543
-0.295547
-0.295542
-0.295543
-0.295543
-0.295546
-0.295547
-0.295544
-0.295541
-0.295556
-0.295558
-0.295557
-0.295562
-0.295551
-0.295551
-0.295545
-0.295561
-0.295555
-0.29555
-0.295544
-0.295558
-0.295562
-0.29556
-0.295568
-0.295556
-0.295541
-0.295533
-0.295535
-0.295538
-0.295529
-0.29551
-0.295518
-0.295526
-0.295523
-0.295522
-0.295533
-0.295528
-0.29553
-0.295533
-0.295531
-0.295531
-0.295532
-0.295538
-0.295551
-0.295552
-0.295537
-0.29553
-0.295547
-0.295546
-0.394042
-0.394059
-0.394068
-0.394063
-0.394052
-0.394042
-0.394036
-0.394032
-0.394026
-0.394014
-0.394017
-0.394028
-0.39403
-0.394029
-0.394033
-0.394038
-0.394032
-0.39403
-0.394042
-0.394034
-0.394019
-0.394002
-0.394014
-0.394023
-0.394019
-0.394032
-0.394047
-0.394039
-0.394031
-0.394037
-0.394039
-0.394038
-0.394031
-0.394046
-0.394042
-0.394043
-0.394048
-0.394047
-0.394053
-0.394055
-0.394039
-0.394026
-0.394044
-0.394041
-0.394039
-0.394037
-0.394066
-0.394056
-0.394054
-0.394051
-0.394051
-0.394059
-0.394058
-0.394055
-0.394055
-0.394053
-0.394065
-0.394065
-0.394057
-0.394051
-0.394065
-0.394054
-0.39406
-0.394061
-0.394054
-0.394052
-0.394055
-0.394074
-0.39406
-0.394053
-0.394046
-0.394062
-0.394057
-0.394058
-0.394061
-0.394057
-0.394047
-0.394044
-0.394051
-0.394051
-0.394048
-0.394034
-0.394037
-0.394044
-0.394041
-0.394029
-0.39404
-0.39404
-0.394046
-0.39405
-0.394046
-0.394044
-0.394043
-0.394047
-0.394058
-0.394056
-0.394036
-0.394035
-0.394047
-0.394041
-0.492552
-0.492564
-0.492573
-0.492569
-0.492561
-0.492552
-0.492544
-0.492535
-0.492524
-0.492509
-0.492495
-0.492517
-0.492532
-0.492543
-0.492542
-0.492543
-0.492535
-0.492536
-0.492548
-0.49254
-0.492527
-0.492522
-0.492533
-0.492536
-0.492522
-0.492539
-0.492549
-0.492541
-0.492538
-0.492545
-0.492544
-0.492539
-0.492536
-0.492552
-0.492544
-0.492534
-0.49253
-0.492519
-0.492526
-0.492535
-0.492533
-0.492534
-0.49255
-0.492543
-0.492534
-0.492533
-0.492546
-0.492547
-0.492545
-0.49255
-0.492559
-0.49257
-0.492562
-0.492558
-0.492557
-0.492559
-0.492576
-0.49257
-0.49256
-0.492552
-0.492557
-0.492546
-0.492559
-0.492552
-0.492548
-0.492545
-0.492551
-0.492559
-0.492551
-0.492543
-0.492539
-0.492547
-0.492537
-0.492545
-0.492545
-0.492545
-0.492544
-0.492551
-0.492561
-0.492554
-0.492553
-0.492546
-0.492551
-0.492559
-0.492555
-0.492538
-0.492549
-0.492551
-0.492559
-0.492564
-0.492558
-0.492552
-0.492551
-0.492551
-0.492555
-0.492551
-0.492537
-0.492536
-0.492535
-0.492523
-0.591058
-0.591066
-0.591077
-0.591075
-0.59107
-0.591062
-0.591053
-0.591044
-0.591032
-0.591017
-0.591002
-0.591023
-0.591037
-0.591047
-0.591047
-0.591047
-0.591038
-0.591035
-0.591037
-0.591037
-0.591029
-0.59103
-0.591037
-0.591039
-0.591027
-0.591036
-0.591035
-0.591035
-0.591042
-0.591051
-0.591046
-0.591038
-0.591036
-0.591044
-0.59104
-0.591024
-0.591011
-0.590996
-0.591004
-0.591014
-0.591023
-0.591034
-0.591042
-0.591037
-0.591025
-0.591019
-0.591013
-0.591025
-0.591032
-0.591043
-0.591057
-0.591065
-0.591058
-0.591052
-0.59105
-0.591056
-0.591066
-0.591062
-0.591053
-0.591044
-0.591045
-0.591043
-0.59105
-0.591042
-0.591037
-0.591032
-0.591031
-0.591026
-0.59103
-0.591028
-0.591027
-0.591028
-0.591023
-0.591027
-0.591026
-0.59103
-0.591037
-0.59105
-0.591055
-0.591048
-0.591048
-0.591048
-0.591057
-0.591067
-0.591067
-0.591048
-0.591055
-0.591059
-0.591069
-0.591075
-0.591069
-0.591058
-0.591057
-0.591052
-0.591049
-0.591046
-0.591046
-0.59104
-0.591026
-0.591012
-0.689563
-0.689569
-0.689581
-0.689585
-0.689581
-0.689574
-0.689565
-0.689555
-0.689545
-0.689535
-0.689528
-0.689534
-0.68954
-0.689544
-0.689543
-0.689542
-0.689537
-0.68953
-0.689522
-0.689529
-0.689529
-0.689531
-0.689534
-0.68953
-0.689528
-0.689527
-0.689516
-0.689528
-0.689542
-0.689547
-0.68954
-0.689533
-0.689528
-0.689526
-0.689529
-0.689519
-0.689507
-0.689496
-0.689501
-0.689509
-0.689519
-0.689526
-0.689524
-0.689524
-0.689519
-0.68951
-0.689493
-0.689511
-0.689523
-0.689534
-0.689542
-0.689543
-0.689542
-0.68954
-0.689539
-0.689541
-0.68954
-0.689542
-0.68954
-0.689535
-0.689535
-0.689534
-0.689532
-0.689529
-0.689527
-0.689521
-0.689514
-0.689498
-0.689513
-0.689519
-0.689521
-0.68952
-0.689516
-0.689508
-0.689513
-0.689521
-0.689529
-0.689539
-0.689536
-0.689536
-0.68954
-0.689545
-0.689557
-0.689566
-0.68957
-0.689555
-0.689557
-0.689561
-0.689573
-0.68958
-0.689578
-0.689563
-0.689563
-0.689552
-0.689547
-0.689544
-0.689557
-0.689551
-0.689533
-0.68952
-0.788067
-0.788073
-0.788087
-0.788095
-0.788093
-0.788086
-0.788077
-0.788067
-0.788058
-0.788051
-0.788045
-0.788044
-0.788044
-0.788041
-0.788035
-0.78803
-0.788035
-0.788029
-0.788019
-0.788029
-0.788032
-0.788033
-0.788031
-0.788022
-0.788029
-0.788026
-0.788014
-0.788028
-0.788037
-0.788034
-0.788033
-0.78803
-0.788023
-0.788013
-0.788023
-0.788023
-0.788017
-0.788012
-0.788013
-0.788017
-0.788022
-0.788021
-0.78801
-0.788018
-0.788019
-0.788014
-0.788
-0.788014
-0.788023
-0.788029
-0.788029
-0.78802
-0.788029
-0.788031
-0.788031
-0.788027
-0.788016
-0.788027
-0.788032
-0.788031
-0.788029
-0.788024
-0.788012
-0.788021
-0.788023
-0.78802
-0.788012
-0.787996
-0.788013
-0.788021
-0.788023
-0.788022
-0.788017
-0.788002
-0.788013
-0.788022
-0.788028
-0.788029
-0.788018
-0.788028
-0.788036
-0.788043
-0.788052
-0.788057
-0.788058
-0.788054
-0.788055
-0.78806
-0.788072
-0.788077
-0.788081
-0.788069
-0.788064
-0.788053
-0.788047
-0.788044
-0.788054
-0.788056
-0.788042
-0.788036
-0.886572
-0.886576
-0.886591
-0.886602
-0.886603
-0.886598
-0.886588
-0.886579
-0.886571
-0.886565
-0.88656
-0.886556
-0.886552
-0.886545
-0.886535
-0.886524
-0.886536
-0.886537
-0.886532
-0.886539
-0.886541
-0.886541
-0.886537
-0.886527
-0.886537
-0.886534
-0.886527
-0.886535
-0.886535
-0.886526
-0.886533
-0.886534
-0.886529
-0.886518
-0.886529
-0.886533
-0.886532
-0.886531
-0.886531
-0.886532
-0.886532
-0.886527
-0.886514
-0.886525
-0.886529
-0.886528
-0.886521
-0.886528
-0.886532
-0.886532
-0.886527
-0.886513
-0.886527
-0.886532
-0.886532
-0.886527
-0.886511
-0.886526
-0.886534
-0.886535
-0.886532
-0.886525
-0.88651
-0.886524
-0.886529
-0.886529
-0.886525
-0.886515
-0.886526
-0.886532
-0.886534
-0.886533
-0.886527
-0.886516
-0.886526
-0.886531
-0.886535
-0.886532
-0.886519
-0.886532
-0.88654
-0.886546
-0.88655
-0.886549
-0.886543
-0.886549
-0.886553
-0.886559
-0.886566
-0.886569
-0.886572
-0.886569
-0.886563
-0.886554
-0.886548
-0.886544
-0.886543
-0.886551
-0.886549
-0.886546
-0.985077
-0.985081
-0.985096
-0.985106
-0.985109
-0.985106
-0.985099
-0.985091
-0.985084
-0.985078
-0.985073
-0.985069
-0.985063
-0.985056
-0.985047
-0.985035
-0.985048
-0.985051
-0.985051
-0.985054
-0.985055
-0.985054
-0.985051
-0.985044
-0.98505
-0.985049
-0.985046
-0.985047
-0.985043
-0.985032
-0.985042
-0.985045
-0.985044
-0.985038
-0.985044
-0.985048
-0.985049
-0.985048
-0.985048
-0.985048
-0.985047
-0.985042
-0.985034
-0.985041
-0.985044
-0.985045
-0.985043
-0.985045
-0.985046
-0.985044
-0.985039
-0.985027
-0.985038
-0.985043
-0.985043
-0.985039
-0.985028
-0.985039
-0.985045
-0.985046
-0.985044
-0.985038
-0.985028
-0.985038
-0.985043
-0.985044
-0.985043
-0.985039
-0.985044
-0.985047
-0.985048
-0.985048
-0.985044
-0.985039
-0.985044
-0.985047
-0.985048
-0.985045
-0.985037
-0.985046
-0.985051
-0.985054
-0.985054
-0.98505
-0.985038
-0.98505
-0.985056
-0.98506
-0.985063
-0.985061
-0.985057
-0.985063
-0.985062
-0.985058
-0.985054
-0.985049
-0.98504
-0.985052
-0.985056
-0.985056
-1.08359
-1.08359
-1.0836
-1.08361
-1.08361
-1.08361
-1.08361
-1.0836
-1.0836
-1.08359
-1.08359
-1.08358
-1.08358
-1.08357
-1.08357
-1.08356
-1.08357
-1.08357
-1.08357
-1.08357
-1.08357
-1.08357
-1.08357
-1.08357
-1.08357
-1.08357
-1.08356
-1.08356
-1.08356
-1.08355
-1.08356
-1.08356
-1.08356
-1.08356
-1.08356
-1.08357
-1.08357
-1.08357
-1.08357
-1.08357
-1.08356
-1.08356
-1.08356
-1.08356
-1.08356
-1.08356
-1.08356
-1.08356
-1.08356
-1.08356
-1.08356
-1.08355
-1.08356
-1.08356
-1.08356
-1.08356
-1.08355
-1.08356
-1.08356
-1.08356
-1.08356
-1.08356
-1.08355
-1.08356
-1.08356
-1.08356
-1.08356
-1.08356
-1.08356
-1.08356
-1.08357
-1.08357
-1.08356
-1.08356
-1.08356
-1.08356
-1.08356
-1.08356
-1.08356
-1.08356
-1.08357
-1.08357
-1.08357
-1.08356
-1.08355
-1.08356
-1.08357
-1.08357
-1.08357
-1.08356
-1.08355
-1.08356
-1.08357
-1.08357
-1.08357
-1.08356
-1.08355
-1.08356
-1.08357
-1.08357
-1.1821
-1.18211
-1.18211
-1.18212
-1.18212
-1.18212
-1.18212
-1.18211
-1.18211
-1.18211
-1.1821
-1.1821
-1.18209
-1.18209
-1.18209
-1.18208
-1.18209
-1.18209
-1.18209
-1.18209
-1.18209
-1.18209
-1.18209
-1.18209
-1.18209
-1.18208
-1.18208
-1.18208
-1.18208
-1.18208
-1.18208
-1.18208
-1.18208
-1.18208
-1.18208
-1.18208
-1.18208
-1.18208
-1.18208
-1.18208
-1.18208
-1.18208
-1.18208
-1.18208
-1.18208
-1.18208
-1.18208
-1.18208
-1.18208
-1.18208
-1.18208
-1.18208
-1.18208
-1.18208
-1.18208
-1.18208
-1.18208
-1.18208
-1.18208
-1.18208
-1.18208
-1.18208
-1.18208
-1.18208
-1.18208
-1.18208
-1.18208
-1.18208
-1.18208
-1.18208
-1.18208
-1.18208
-1.18208
-1.18208
-1.18208
-1.18208
-1.18208
-1.18208
-1.18208
-1.18208
-1.18208
-1.18208
-1.18208
-1.18208
-1.18207
-1.18208
-1.18208
-1.18208
-1.18208
-1.18207
-1.18206
-1.18207
-1.18208
-1.18208
-1.18208
-1.18208
-1.18207
-1.18208
-1.18208
-1.18208
-1.28062
-1.28063
-1.28063
-1.28063
-1.28063
-1.28063
-1.28063
-1.28063
-1.28062
-1.28062
-1.28062
-1.28062
-1.28061
-1.28061
-1.28061
-1.28061
-1.28061
-1.28061
-1.28061
-1.28061
-1.28061
-1.28061
-1.28061
-1.28061
-1.2806
-1.2806
-1.2806
-1.2806
-1.2806
-1.2806
-1.2806
-1.2806
-1.2806
-1.2806
-1.2806
-1.2806
-1.2806
-1.2806
-1.2806
-1.2806
-1.2806
-1.2806
-1.2806
-1.2806
-1.2806
-1.2806
-1.2806
-1.2806
-1.2806
-1.2806
-1.2806
-1.2806
-1.2806
-1.2806
-1.2806
-1.2806
-1.2806
-1.2806
-1.2806
-1.2806
-1.2806
-1.2806
-1.2806
-1.2806
-1.2806
-1.2806
-1.2806
-1.2806
-1.2806
-1.2806
-1.2806
-1.2806
-1.2806
-1.2806
-1.2806
-1.2806
-1.2806
-1.2806
-1.2806
-1.2806
-1.2806
-1.2806
-1.2806
-1.2806
-1.2806
-1.2806
-1.2806
-1.2806
-1.28059
-1.28059
-1.28058
-1.28059
-1.28059
-1.2806
-1.2806
-1.2806
-1.2806
-1.2806
-1.2806
-1.2806
-1.37914
-1.37915
-1.37914
-1.37914
-1.37914
-1.37914
-1.37914
-1.37914
-1.37914
-1.37914
-1.37913
-1.37913
-1.37913
-1.37913
-1.37913
-1.37913
-1.37913
-1.37913
-1.37913
-1.37913
-1.37913
-1.37913
-1.37913
-1.37912
-1.37912
-1.37912
-1.37912
-1.37912
-1.37912
-1.37912
-1.37912
-1.37912
-1.37912
-1.37912
-1.37912
-1.37912
-1.37912
-1.37912
-1.37912
-1.37912
-1.37912
-1.37912
-1.37912
-1.37912
-1.37912
-1.37912
-1.37912
-1.37912
-1.37912
-1.37912
-1.37912
-1.37912
-1.37912
-1.37912
-1.37912
-1.37912
-1.37912
-1.37912
-1.37912
-1.37912
-1.37912
-1.37912
-1.37912
-1.37912
-1.37912
-1.37912
-1.37912
-1.37912
-1.37912
-1.37912
-1.37912
-1.37912
-1.37912
-1.37912
-1.37912
-1.37912
-1.37912
-1.37912
-1.37912
-1.37912
-1.37912
-1.37912
-1.37912
-1.37912
-1.37912
-1.37912
-1.37912
-1.37912
-1.37911
-1.37911
-1.37911
-1.37911
-1.37911
-1.37912
-1.37912
-1.37912
-1.37912
-1.37912
-1.37912
-1.37912
-1.47766
-1.47766
-1.47765
-1.47765
-1.47765
-1.47765
-1.47765
-1.47765
-1.47765
-1.47765
-1.47765
-1.47765
-1.47765
-1.47765
-1.47765
-1.47765
-1.47765
-1.47765
-1.47765
-1.47765
-1.47764
-1.47764
-1.47764
-1.47764
-1.47764
-1.47764
-1.47764
-1.47764
-1.47764
-1.47764
-1.47764
-1.47764
-1.47764
-1.47764
-1.47764
-1.47764
-1.47764
-1.47764
-1.47764
-1.47764
-1.47764
-1.47764
-1.47764
-1.47764
-1.47764
-1.47764
-1.47764
-1.47764
-1.47764
-1.47764
-1.47764
-1.47764
-1.47764
-1.47764
-1.47764
-1.47764
-1.47764
-1.47764
-1.47764
-1.47764
-1.47764
-1.47764
-1.47764
-1.47764
-1.47764
-1.47764
-1.47764
-1.47764
-1.47764
-1.47764
-1.47764
-1.47764
-1.47764
-1.47764
-1.47764
-1.47764
-1.47764
-1.47764
-1.47764
-1.47764
-1.47764
-1.47764
-1.47764
-1.47764
-1.47764
-1.47764
-1.47764
-1.47764
-1.47763
-1.47763
-1.47763
-1.47763
-1.47763
-1.47764
-1.47764
-1.47764
-1.47764
-1.47764
-1.47764
-1.47764
-1.57617
-1.57617
-1.57616
-1.57616
-1.57617
-1.57617
-1.57617
-1.57617
-1.57617
-1.57617
-1.57617
-1.57617
-1.57617
-1.57617
-1.57616
-1.57616
-1.57616
-1.57616
-1.57616
-1.57616
-1.57616
-1.57616
-1.57616
-1.57616
-1.57616
-1.57616
-1.57616
-1.57616
-1.57616
-1.57616
-1.57616
-1.57616
-1.57616
-1.57616
-1.57616
-1.57616
-1.57616
-1.57616
-1.57616
-1.57616
-1.57616
-1.57616
-1.57616
-1.57616
-1.57616
-1.57616
-1.57616
-1.57616
-1.57616
-1.57616
-1.57616
-1.57616
-1.57616
-1.57616
-1.57616
-1.57616
-1.57616
-1.57616
-1.57616
-1.57616
-1.57616
-1.57616
-1.57616
-1.57616
-1.57616
-1.57616
-1.57616
-1.57616
-1.57616
-1.57616
-1.57616
-1.57616
-1.57616
-1.57616
-1.57616
-1.57616
-1.57616
-1.57616
-1.57616
-1.57616
-1.57616
-1.57616
-1.57616
-1.57616
-1.57616
-1.57616
-1.57616
-1.57616
-1.57615
-1.57615
-1.57615
-1.57615
-1.57615
-1.57616
-1.57616
-1.57616
-1.57616
-1.57616
-1.57616
-1.57616
-1.67468
-1.67468
-1.67467
-1.67468
-1.67468
-1.67468
-1.67468
-1.67468
-1.67468
-1.67468
-1.67468
-1.67468
-1.67468
-1.67468
-1.67468
-1.67468
-1.67468
-1.67468
-1.67468
-1.67468
-1.67468
-1.67468
-1.67468
-1.67468
-1.67468
-1.67468
-1.67468
-1.67468
-1.67468
-1.67468
-1.67468
-1.67468
-1.67468
-1.67468
-1.67468
-1.67468
-1.67468
-1.67468
-1.67468
-1.67468
-1.67468
-1.67468
-1.67468
-1.67468
-1.67468
-1.67468
-1.67468
-1.67468
-1.67468
-1.67468
-1.67468
-1.67468
-1.67468
-1.67468
-1.67468
-1.67468
-1.67468
-1.67468
-1.67468
-1.67468
-1.67468
-1.67468
-1.67468
-1.67468
-1.67468
-1.67468
-1.67468
-1.67468
-1.67468
-1.67468
-1.67468
-1.67468
-1.67468
-1.67468
-1.67468
-1.67468
-1.67468
-1.67468
-1.67468
-1.67468
-1.67468
-1.67468
-1.67468
-1.67468
-1.67468
-1.67468
-1.67468
-1.67468
-1.67467
-1.67467
-1.67467
-1.67467
-1.67467
-1.67468
-1.67468
-1.67468
-1.67468
-1.67468
-1.67468
-1.67468
-1.77319
-1.77319
-1.77319
-1.77319
-1.77319
-1.7732
-1.7732
-1.7732
-1.7732
-1.7732
-1.7732
-1.7732
-1.7732
-1.7732
-1.7732
-1.7732
-1.7732
-1.7732
-1.7732
-1.7732
-1.7732
-1.7732
-1.7732
-1.7732
-1.7732
-1.7732
-1.7732
-1.7732
-1.7732
-1.7732
-1.7732
-1.7732
-1.7732
-1.7732
-1.7732
-1.7732
-1.7732
-1.7732
-1.7732
-1.7732
-1.7732
-1.7732
-1.7732
-1.7732
-1.7732
-1.7732
-1.7732
-1.7732
-1.7732
-1.7732
-1.7732
-1.7732
-1.7732
-1.7732
-1.7732
-1.7732
-1.7732
-1.7732
-1.7732
-1.7732
-1.7732
-1.7732
-1.7732
-1.7732
-1.7732
-1.7732
-1.7732
-1.7732
-1.7732
-1.7732
-1.7732
-1.7732
-1.7732
-1.7732
-1.7732
-1.7732
-1.7732
-1.7732
-1.7732
-1.7732
-1.7732
-1.7732
-1.7732
-1.7732
-1.7732
-1.7732
-1.7732
-1.7732
-1.77319
-1.77319
-1.77319
-1.77319
-1.77319
-1.7732
-1.7732
-1.7732
-1.7732
-1.7732
-1.7732
-1.7732
-1.8717
-1.8717
-1.8717
-1.87171
-1.87171
-1.87171
-1.87172
-1.87172
-1.87172
-1.87172
-1.87172
-1.87172
-1.87172
-1.87172
-1.87172
-1.87172
-1.87172
-1.87172
-1.87172
-1.87172
-1.87172
-1.87172
-1.87172
-1.87172
-1.87172
-1.87172
-1.87172
-1.87172
-1.87172
-1.87172
-1.87172
-1.87172
-1.87172
-1.87172
-1.87172
-1.87172
-1.87172
-1.87172
-1.87172
-1.87172
-1.87172
-1.87172
-1.87172
-1.87172
-1.87172
-1.87172
-1.87172
-1.87172
-1.87172
-1.87172
-1.87172
-1.87172
-1.87172
-1.87172
-1.87172
-1.87172
-1.87172
-1.87172
-1.87172
-1.87172
-1.87172
-1.87172
-1.87172
-1.87172
-1.87172
-1.87172
-1.87172
-1.87172
-1.87172
-1.87172
-1.87172
-1.87172
-1.87172
-1.87172
-1.87172
-1.87172
-1.87172
-1.87172
-1.87172
-1.87172
-1.87172
-1.87172
-1.87172
-1.87172
-1.87172
-1.87172
-1.87172
-1.87172
-1.87172
-1.87172
-1.87171
-1.87171
-1.87172
-1.87172
-1.87172
-1.87172
-1.87172
-1.87172
-1.87172
-1.87172
-1.97022
-1.97022
-1.97022
-1.97023
-1.97023
-1.97023
-1.97023
-1.97024
-1.97024
-1.97024
-1.97024
-1.97024
-1.97024
-1.97024
-1.97024
-1.97024
-1.97024
-1.97024
-1.97024
-1.97024
-1.97024
-1.97024
-1.97024
-1.97024
-1.97024
-1.97024
-1.97024
-1.97024
-1.97024
-1.97024
-1.97024
-1.97024
-1.97024
-1.97024
-1.97024
-1.97024
-1.97024
-1.97024
-1.97024
-1.97024
-1.97024
-1.97024
-1.97024
-1.97024
-1.97024
-1.97024
-1.97024
-1.97024
-1.97024
-1.97024
-1.97024
-1.97024
-1.97024
-1.97024
-1.97024
-1.97024
-1.97024
-1.97024
-1.97024
-1.97024
-1.97024
-1.97024
-1.97024
-1.97024
-1.97024
-1.97024
-1.97024
-1.97024
-1.97024
-1.97024
-1.97024
-1.97024
-1.97024
-1.97024
-1.97024
-1.97024
-1.97024
-1.97024
-1.97024
-1.97024
-1.97024
-1.97024
-1.97024
-1.97024
-1.97024
-1.97024
-1.97024
-1.97024
-1.97024
-1.97024
-1.97024
-1.97024
-1.97024
-1.97024
-1.97024
-1.97024
-1.97024
-1.97024
-1.97024
-1.97024
-2.06874
-2.06874
-2.06874
-2.06875
-2.06875
-2.06875
-2.06875
-2.06875
-2.06876
-2.06876
-2.06876
-2.06876
-2.06876
-2.06876
-2.06876
-2.06876
-2.06876
-2.06876
-2.06876
-2.06876
-2.06876
-2.06876
-2.06876
-2.06876
-2.06876
-2.06876
-2.06876
-2.06876
-2.06876
-2.06876
-2.06876
-2.06876
-2.06876
-2.06876
-2.06876
-2.06876
-2.06876
-2.06876
-2.06876
-2.06876
-2.06876
-2.06876
-2.06876
-2.06876
-2.06876
-2.06876
-2.06876
-2.06876
-2.06876
-2.06876
-2.06876
-2.06876
-2.06876
-2.06876
-2.06876
-2.06876
-2.06876
-2.06876
-2.06876
-2.06876
-2.06876
-2.06876
-2.06876
-2.06876
-2.06876
-2.06876
-2.06876
-2.06876
-2.06876
-2.06876
-2.06876
-2.06876
-2.06876
-2.06876
-2.06876
-2.06876
-2.06876
-2.06876
-2.06876
-2.06876
-2.06876
-2.06876
-2.06876
-2.06876
-2.06876
-2.06876
-2.06876
-2.06876
-2.06876
-2.06876
-2.06876
-2.06876
-2.06876
-2.06876
-2.06876
-2.06876
-2.06876
-2.06876
-2.06876
-2.06876
-2.16726
-2.16726
-2.16726
-2.16727
-2.16727
-2.16727
-2.16727
-2.16727
-2.16727
-2.16728
-2.16728
-2.16728
-2.16728
-2.16728
-2.16728
-2.16728
-2.16728
-2.16728
-2.16728
-2.16728
-2.16728
-2.16728
-2.16728
-2.16728
-2.16728
-2.16728
-2.16728
-2.16728
-2.16728
-2.16728
-2.16728
-2.16728
-2.16728
-2.16728
-2.16728
-2.16728
-2.16728
-2.16728
-2.16728
-2.16728
-2.16728
-2.16728
-2.16728
-2.16728
-2.16728
-2.16728
-2.16728
-2.16728
-2.16728
-2.16728
-2.16728
-2.16728
-2.16728
-2.16728
-2.16728
-2.16728
-2.16728
-2.16728
-2.16728
-2.16728
-2.16728
-2.16728
-2.16728
-2.16728
-2.16728
-2.16728
-2.16728
-2.16728
-2.16728
-2.16728
-2.16728
-2.16728
-2.16728
-2.16728
-2.16728
-2.16728
-2.16728
-2.16728
-2.16728
-2.16728
-2.16728
-2.16728
-2.16728
-2.16728
-2.16728
-2.16728
-2.16728
-2.16728
-2.16728
-2.16728
-2.16728
-2.16728
-2.16728
-2.16728
-2.16728
-2.16728
-2.16728
-2.16728
-2.16728
-2.16728
-2.26579
-2.26578
-2.26579
-2.26579
-2.26579
-2.26579
-2.26579
-2.26579
-2.26579
-2.2658
-2.2658
-2.2658
-2.2658
-2.2658
-2.2658
-2.2658
-2.2658
-2.2658
-2.2658
-2.2658
-2.2658
-2.2658
-2.2658
-2.2658
-2.2658
-2.2658
-2.2658
-2.2658
-2.2658
-2.2658
-2.2658
-2.2658
-2.2658
-2.2658
-2.2658
-2.2658
-2.2658
-2.2658
-2.2658
-2.2658
-2.2658
-2.2658
-2.2658
-2.2658
-2.2658
-2.2658
-2.2658
-2.2658
-2.2658
-2.2658
-2.2658
-2.2658
-2.2658
-2.2658
-2.2658
-2.2658
-2.2658
-2.2658
-2.2658
-2.2658
-2.2658
-2.2658
-2.2658
-2.2658
-2.2658
-2.2658
-2.2658
-2.2658
-2.2658
-2.2658
-2.2658
-2.2658
-2.2658
-2.2658
-2.2658
-2.2658
-2.2658
-2.2658
-2.2658
-2.2658
-2.2658
-2.2658
-2.2658
-2.2658
-2.2658
-2.2658
-2.2658
-2.2658
-2.2658
-2.2658
-2.2658
-2.2658
-2.2658
-2.2658
-2.2658
-2.2658
-2.2658
-2.2658
-2.2658
-2.2658
-2.36431
-2.36431
-2.36431
-2.36431
-2.36431
-2.36431
-2.36431
-2.36431
-2.36431
-2.36431
-2.36432
-2.36432
-2.36432
-2.36432
-2.36432
-2.36432
-2.36432
-2.36432
-2.36432
-2.36432
-2.36432
-2.36432
-2.36432
-2.36432
-2.36432
-2.36432
-2.36432
-2.36432
-2.36432
-2.36432
-2.36432
-2.36432
-2.36432
-2.36432
-2.36432
-2.36432
-2.36432
-2.36432
-2.36432
-2.36432
-2.36432
-2.36432
-2.36432
-2.36432
-2.36432
-2.36432
-2.36432
-2.36432
-2.36432
-2.36432
-2.36432
-2.36432
-2.36432
-2.36432
-2.36432
-2.36432
-2.36432
-2.36432
-2.36432
-2.36432
-2.36432
-2.36432
-2.36432
-2.36432
-2.36432
-2.36432
-2.36432
-2.36432
-2.36432
-2.36432
-2.36432
-2.36432
-2.36432
-2.36432
-2.36432
-2.36432
-2.36432
-2.36432
-2.36432
-2.36432
-2.36432
-2.36432
-2.36432
-2.36432
-2.36432
-2.36432
-2.36432
-2.36432
-2.36432
-2.36432
-2.36432
-2.36432
-2.36432
-2.36432
-2.36432
-2.36432
-2.36432
-2.36432
-2.36432
-2.36432
-2.46283
-2.46283
-2.46283
-2.46283
-2.46283
-2.46283
-2.46283
-2.46283
-2.46283
-2.46283
-2.46284
-2.46284
-2.46284
-2.46284
-2.46284
-2.46284
-2.46284
-2.46284
-2.46284
-2.46284
-2.46284
-2.46284
-2.46284
-2.46284
-2.46284
-2.46284
-2.46284
-2.46284
-2.46284
-2.46284
-2.46284
-2.46284
-2.46284
-2.46284
-2.46284
-2.46284
-2.46284
-2.46284
-2.46284
-2.46284
-2.46284
-2.46284
-2.46284
-2.46284
-2.46284
-2.46284
-2.46284
-2.46284
-2.46284
-2.46284
-2.46284
-2.46284
-2.46284
-2.46284
-2.46284
-2.46284
-2.46284
-2.46284
-2.46284
-2.46284
-2.46284
-2.46284
-2.46284
-2.46284
-2.46284
-2.46284
-2.46284
-2.46284
-2.46284
-2.46284
-2.46284
-2.46284
-2.46284
-2.46284
-2.46284
-2.46284
-2.46284
-2.46284
-2.46284
-2.46284
-2.46284
-2.46284
-2.46284
-2.46284
-2.46284
-2.46284
-2.46284
-2.46284
-2.46284
-2.46284
-2.46284
-2.46284
-2.46284
-2.46284
-2.46284
-2.46284
-2.46284
-2.46284
-2.46284
-2.46284
-2.56135
-2.56135
-2.56135
-2.56135
-2.56135
-2.56135
-2.56135
-2.56135
-2.56135
-2.56135
-2.56135
-2.56136
-2.56136
-2.56136
-2.56136
-2.56136
-2.56136
-2.56136
-2.56136
-2.56136
-2.56136
-2.56136
-2.56136
-2.56136
-2.56136
-2.56136
-2.56136
-2.56136
-2.56136
-2.56136
-2.56136
-2.56136
-2.56136
-2.56136
-2.56136
-2.56136
-2.56136
-2.56136
-2.56136
-2.56136
-2.56136
-2.56136
-2.56136
-2.56136
-2.56136
-2.56136
-2.56136
-2.56136
-2.56136
-2.56136
-2.56136
-2.56136
-2.56136
-2.56136
-2.56136
-2.56136
-2.56136
-2.56136
-2.56136
-2.56136
-2.56136
-2.56136
-2.56136
-2.56136
-2.56136
-2.56136
-2.56136
-2.56136
-2.56136
-2.56136
-2.56136
-2.56136
-2.56136
-2.56136
-2.56136
-2.56136
-2.56136
-2.56136
-2.56136
-2.56136
-2.56136
-2.56136
-2.56136
-2.56136
-2.56136
-2.56136
-2.56136
-2.56136
-2.56136
-2.56136
-2.56136
-2.56136
-2.56136
-2.56136
-2.56136
-2.56136
-2.56136
-2.56136
-2.56136
-2.56136
-2.65987
-2.65987
-2.65987
-2.65987
-2.65987
-2.65987
-2.65987
-2.65987
-2.65987
-2.65987
-2.65987
-2.65988
-2.65988
-2.65988
-2.65988
-2.65988
-2.65988
-2.65988
-2.65988
-2.65988
-2.65988
-2.65988
-2.65988
-2.65988
-2.65988
-2.65988
-2.65988
-2.65988
-2.65988
-2.65988
-2.65988
-2.65988
-2.65988
-2.65988
-2.65988
-2.65988
-2.65988
-2.65988
-2.65988
-2.65988
-2.65988
-2.65988
-2.65988
-2.65988
-2.65988
-2.65988
-2.65988
-2.65988
-2.65988
-2.65988
-2.65988
-2.65988
-2.65988
-2.65988
-2.65988
-2.65988
-2.65988
-2.65988
-2.65988
-2.65988
-2.65988
-2.65988
-2.65988
-2.65988
-2.65988
-2.65988
-2.65988
-2.65988
-2.65988
-2.65988
-2.65988
-2.65988
-2.65988
-2.65988
-2.65988
-2.65988
-2.65988
-2.65988
-2.65988
-2.65988
-2.65988
-2.65988
-2.65988
-2.65988
-2.65988
-2.65988
-2.65988
-2.65988
-2.65988
-2.65988
-2.65988
-2.65988
-2.65988
-2.65988
-2.65988
-2.65988
-2.65988
-2.65988
-2.65988
-2.65988
-2.75839
-2.75839
-2.75839
-2.75839
-2.75839
-2.75839
-2.75839
-2.75839
-2.75839
-2.75839
-2.75839
-2.75839
-2.7584
-2.7584
-2.7584
-2.7584
-2.7584
-2.7584
-2.7584
-2.7584
-2.7584
-2.7584
-2.7584
-2.7584
-2.7584
-2.7584
-2.7584
-2.7584
-2.7584
-2.7584
-2.7584
-2.7584
-2.7584
-2.7584
-2.7584
-2.7584
-2.7584
-2.7584
-2.7584
-2.7584
-2.7584
-2.7584
-2.7584
-2.7584
-2.7584
-2.7584
-2.7584
-2.7584
-2.7584
-2.7584
-2.7584
-2.7584
-2.7584
-2.7584
-2.7584
-2.7584
-2.7584
-2.7584
-2.7584
-2.7584
-2.7584
-2.7584
-2.7584
-2.7584
-2.7584
-2.7584
-2.7584
-2.7584
-2.7584
-2.7584
-2.7584
-2.7584
-2.7584
-2.7584
-2.7584
-2.7584
-2.7584
-2.7584
-2.7584
-2.7584
-2.7584
-2.7584
-2.7584
-2.7584
-2.7584
-2.7584
-2.7584
-2.7584
-2.7584
-2.7584
-2.7584
-2.7584
-2.7584
-2.7584
-2.7584
-2.7584
-2.7584
-2.7584
-2.7584
-2.7584
-2.85691
-2.85691
-2.85691
-2.85691
-2.85691
-2.85691
-2.85691
-2.85691
-2.85691
-2.85691
-2.85691
-2.85691
-2.85692
-2.85692
-2.85692
-2.85692
-2.85692
-2.85692
-2.85692
-2.85692
-2.85692
-2.85692
-2.85692
-2.85692
-2.85692
-2.85692
-2.85692
-2.85692
-2.85692
-2.85692
-2.85692
-2.85692
-2.85692
-2.85692
-2.85692
-2.85692
-2.85692
-2.85692
-2.85692
-2.85692
-2.85692
-2.85692
-2.85692
-2.85692
-2.85692
-2.85692
-2.85692
-2.85692
-2.85692
-2.85692
-2.85692
-2.85692
-2.85692
-2.85692
-2.85692
-2.85692
-2.85692
-2.85692
-2.85692
-2.85692
-2.85692
-2.85692
-2.85692
-2.85692
-2.85692
-2.85692
-2.85692
-2.85692
-2.85692
-2.85692
-2.85692
-2.85692
-2.85692
-2.85692
-2.85692
-2.85692
-2.85692
-2.85692
-2.85692
-2.85692
-2.85692
-2.85692
-2.85692
-2.85692
-2.85692
-2.85692
-2.85692
-2.85692
-2.85692
-2.85692
-2.85692
-2.85692
-2.85692
-2.85692
-2.85692
-2.85692
-2.85692
-2.85692
-2.85692
-2.85692
-2.95543
-2.95543
-2.95543
-2.95543
-2.95543
-2.95543
-2.95543
-2.95543
-2.95543
-2.95543
-2.95543
-2.95543
-2.95543
-2.95544
-2.95544
-2.95544
-2.95544
-2.95544
-2.95544
-2.95544
-2.95544
-2.95544
-2.95544
-2.95544
-2.95544
-2.95544
-2.95544
-2.95544
-2.95544
-2.95544
-2.95544
-2.95544
-2.95544
-2.95544
-2.95544
-2.95544
-2.95544
-2.95544
-2.95544
-2.95544
-2.95544
-2.95544
-2.95544
-2.95544
-2.95544
-2.95544
-2.95544
-2.95544
-2.95544
-2.95544
-2.95544
-2.95544
-2.95544
-2.95544
-2.95544
-2.95544
-2.95544
-2.95544
-2.95544
-2.95544
-2.95544
-2.95544
-2.95544
-2.95544
-2.95544
-2.95544
-2.95544
-2.95544
-2.95544
-2.95544
-2.95544
-2.95544
-2.95544
-2.95544
-2.95544
-2.95544
-2.95544
-2.95544
-2.95544
-2.95544
-2.95544
-2.95544
-2.95544
-2.95544
-2.95544
-2.95544
-2.95544
-2.95544
-2.95544
-2.95544
-2.95544
-2.95544
-2.95544
-2.95544
-2.95544
-2.95544
-2.95544
-2.95544
-2.95544
-2.95544
-3.05395
-3.05395
-3.05395
-3.05395
-3.05395
-3.05395
-3.05395
-3.05395
-3.05395
-3.05395
-3.05395
-3.05395
-3.05395
-3.05395
-3.05396
-3.05396
-3.05396
-3.05396
-3.05396
-3.05396
-3.05396
-3.05396
-3.05396
-3.05396