/*--------------------------------*- C++ -*----------------------------------*\
| =========                 |                                                 |
| \\      /  F ield         | OpenFOAM: The Open Source CFD Toolbox           |
|  \\    /   O peration     | Version:  4.1                                   |
|   \\  /    A nd           | Web:      www.OpenFOAM.org                      |
|    \\/     M anipulation  |                                                 |
\*---------------------------------------------------------------------------*/
FoamFile
{
    version     2.0;
    format      ascii;
    class       volScalarField;
    location    "60";
    object      p_rgh;
}
// * * * * * * * * * * * * * * * * * * * * * * * * * * * * * * * * * * * * * //

dimensions      [0 2 -2 0 0 0 0];

internalField   nonuniform List<scalar> 
5000
(
0.0492285
0.0492221
0.0492295
0.0492527
0.0492781
0.0492863
0.0492755
0.0492502
0.0492269
0.0492151
0.0492224
0.049256
0.0492571
0.0492282
0.0492101
0.0492275
0.04924
0.0492171
0.0492243
0.0492468
0.0492322
0.0492086
0.0491926
0.0492099
0.049226
0.0492102
0.0492144
0.0492287
0.0492096
0.049218
0.0492384
0.0492491
0.0492246
0.0492157
0.0492369
0.0492503
0.0492297
0.0492135
0.0492223
0.049239
0.0492485
0.0492056
0.0492068
0.049229
0.0492392
0.0492195
0.0492043
0.0492219
0.0492521
0.0492651
0.0492356
0.0492155
0.049237
0.0492647
0.0492545
0.0492291
0.0492118
0.0492344
0.0492611
0.0492555
0.049243
0.0492248
0.0492219
0.0492409
0.0492583
0.0492504
0.0492142
0.0491927
0.049212
0.0492391
0.049258
0.0492419
0.0492204
0.0492061
0.049217
0.0492358
0.0492531
0.0492278
0.049202
0.0492111
0.049219
0.049186
0.0492188
0.0492289
0.0492129
0.0491917
0.049227
0.049268
0.0492745
0.0492601
0.0492437
0.0492534
0.0492707
0.0492758
0.0492408
0.0492107
0.0491997
0.049221
0.0492176
0.049209
0.049207
0.0492065
0.0492284
0.0492568
0.0492794
0.0492869
0.0492778
0.0492576
0.0492284
0.0491918
0.0491888
0.0492547
0.0492532
0.0491995
0.0491756
0.0492061
0.0492434
0.0492404
0.0492133
0.0492502
0.0492289
0.0491791
0.0491724
0.0491899
0.0492283
0.0492444
0.0492062
0.0492396
0.0492421
0.049205
0.0492472
0.0492456
0.0492211
0.049197
0.0492481
0.0492421
0.0492227
0.0491865
0.0492078
0.0492347
0.049239
0.0491692
0.0491846
0.049233
0.0492321
0.0492131
0.0491668
0.0491989
0.0492467
0.0492653
0.0492579
0.0491925
0.0492569
0.0492728
0.0492719
0.0492544
0.0491902
0.0492597
0.049275
0.0492796
0.0492619
0.0492114
0.0491998
0.049253
0.0492626
0.0492559
0.0491994
0.0491666
0.04925
0.0492641
0.0492703
0.0492539
0.0492135
0.0491885
0.0492461
0.0492569
0.0492701
0.049264
0.0491983
0.0492605
0.0492427
0.049154
0.0492379
0.0492558
0.0492094
0.0491755
0.0492625
0.0492811
0.049283
0.0492657
0.0492286
0.0492722
0.0492765
0.0492711
0.0492239
0.0491831
0.0491662
0.0492286
0.0492239
0.0492025
0.0491652
0.0491684
0.049206
0.0492428
0.0492726
0.0492815
0.0492733
0.0492497
0.0492082
0.0491635
0.0491466
0.049244
0.0492517
0.049161
0.0491443
0.0491711
0.0492465
0.0492364
0.0492034
0.0492509
0.0492291
0.0491404
0.0491673
0.049167
0.049229
0.0492422
0.049194
0.0492395
0.0492437
0.049186
0.0492411
0.0492419
0.0492093
0.0491739
0.0492412
0.0492338
0.0491865
0.049144
0.0491785
0.0492154
0.0492367
0.0491718
0.0491609
0.0492285
0.0492251
0.0491661
0.049118
0.0491593
0.0492331
0.0492618
0.0492482
0.0491604
0.0492499
0.049267
0.0492642
0.0492417
0.0491535
0.0492555
0.0492684
0.0492726
0.0492427
0.0491727
0.049154
0.0492271
0.0492511
0.0492481
0.0492092
0.049122
0.0492192
0.0492536
0.0492632
0.0492311
0.0491807
0.0491403
0.0492086
0.0492366
0.0492649
0.0492565
0.0491755
0.0492585
0.0492712
0.0492696
0.0492861
0.0492799
0.0492039
0.0491701
0.0492573
0.0492792
0.0492778
0.0492568
0.0492016
0.0492611
0.04927
0.049269
0.0492314
0.0491735
0.0491331
0.0492388
0.0492204
0.0491839
0.0491275
0.0491234
0.0491754
0.0492289
0.0492742
0.049285
0.0492807
0.0492596
0.0492181
0.049164
0.0491094
0.0492443
0.0492655
0.0491885
0.0491453
0.0491437
0.0492571
0.0492437
0.0491902
0.0492588
0.0492536
0.0491456
0.0491927
0.0491742
0.0492431
0.0492431
0.0491706
0.0492353
0.0492478
0.0491673
0.049236
0.049248
0.0492048
0.0491506
0.0492389
0.0492344
0.0491647
0.0490997
0.0491394
0.0491991
0.0492566
0.0492251
0.0491411
0.0492292
0.0492333
0.0491615
0.0490688
0.0491575
0.0492314
0.0492623
0.0492349
0.0491266
0.0492213
0.049263
0.0492585
0.0492155
0.0491152
0.0492291
0.0492627
0.0492714
0.0492297
0.0491342
0.0491051
0.0491743
0.0492467
0.0492491
0.0492051
0.0490649
0.0491873
0.0492504
0.049266
0.0492116
0.0491406
0.0490917
0.0491515
0.049221
0.0492651
0.0492479
0.0491456
0.0492288
0.0492659
0.049304
0.0492932
0.0492744
0.0491887
0.0491841
0.0492549
0.0492812
0.049274
0.0492429
0.0491735
0.0492369
0.0492667
0.0492726
0.0492406
0.0491897
0.0491089
0.0492535
0.049207
0.0491517
0.0491056
0.0490845
0.0491478
0.0492224
0.0492829
0.0492947
0.0492981
0.0492909
0.0492691
0.0492204
0.0491085
0.0492683
0.0492918
0.0492717
0.0491649
0.0491227
0.0492712
0.0492511
0.0491597
0.0492659
0.049312
0.0493092
0.04927
0.0491828
0.0492762
0.0492456
0.0491318
0.0492275
0.0492484
0.0491441
0.0492296
0.0492637
0.0492098
0.0491192
0.049241
0.0492544
0.049174
0.0490693
0.0491056
0.0491917
0.0492766
0.0492386
0.0491064
0.0492299
0.0492626
0.0491946
0.0490093
0.0491862
0.0492511
0.0492705
0.0492143
0.0490842
0.0491882
0.0492638
0.0492588
0.0491933
0.0490665
0.0491894
0.0492618
0.0492786
0.0492285
0.0491292
0.049066
0.0491523
0.0492545
0.0492625
0.0491842
0.0489967
0.0491681
0.0492595
0.0492801
0.0492136
0.049113
0.0490552
0.0491261
0.0492209
0.0492742
0.0492407
0.0491087
0.0491925
0.0492528
0.0492953
0.0492882
0.0492544
0.0491648
0.0492012
0.0492615
0.0492872
0.0492712
0.0492271
0.0491452
0.0492115
0.0492679
0.0492785
0.0492323
0.0491712
0.0491006
0.0492542
0.0491996
0.0491242
0.0490991
0.0490603
0.0491325
0.0492338
0.0492923
0.0493047
0.0493143
0.0493204
0.0493223
0.0493087
0.0492192
0.0493255
0.0493061
0.0492562
0.0491689
0.0490937
0.0492843
0.04926
0.0491192
0.0492579
0.0493247
0.0493176
0.0492434
0.0491463
0.0493046
0.0492477
0.0490885
0.0492358
0.0492506
0.0491106
0.0492181
0.0492854
0.0492226
0.0490745
0.0492427
0.0492929
0.0492242
0.0490804
0.0491127
0.0492276
0.0493002
0.0492388
0.0490563
0.0492227
0.049297
0.0492298
0.0489867
0.0491865
0.0492821
0.0492872
0.0491927
0.0490308
0.049173
0.0492729
0.0492727
0.0491856
0.0490101
0.0491583
0.0492689
0.0492981
0.0492545
0.0491696
0.0490264
0.0491649
0.0492733
0.0492889
0.0491882
0.0489615
0.049176
0.049286
0.0493074
0.0492462
0.0491403
0.0490301
0.0491459
0.0492544
0.0492976
0.0492365
0.049065
0.0491727
0.0492565
0.0493005
0.049288
0.0492215
0.049133
0.0492101
0.0492699
0.049296
0.0492686
0.0492091
0.0491155
0.0491919
0.0492755
0.0492908
0.0492355
0.0491565
0.0491039
0.0492704
0.0492352
0.0491328
0.0491056
0.0490529
0.0491333
0.0492605
0.0492993
0.0493122
0.0493246
0.0493353
0.0493467
0.049361
0.0493735
0.0493504
0.0493158
0.0492536
0.0491667
0.0490593
0.0492977
0.0492832
0.0491128
0.0492755
0.0493406
0.0493214
0.049237
0.0491173
0.049322
0.0492683
0.0490854
0.0492727
0.0492578
0.0490686
0.0492116
0.0493117
0.0492475
0.0490436
0.0492424
0.0493392
0.0493136
0.0491901
0.0491971
0.049306
0.0493384
0.0492481
0.0490261
0.0492282
0.0493345
0.0492946
0.0490441
0.0492569
0.049328
0.0493105
0.0491923
0.0489917
0.049184
0.049296
0.0493009
0.0491979
0.0489782
0.0491687
0.0492882
0.0493277
0.0492942
0.0492032
0.0489974
0.049198
0.0493069
0.0493303
0.0492469
0.0489916
0.0492361
0.0493285
0.0493454
0.0493115
0.0492256
0.0490343
0.0492151
0.0493096
0.0493297
0.0492406
0.0490331
0.0491899
0.049286
0.0493209
0.049294
0.049194
0.0490918
0.049216
0.0492845
0.0493088
0.0492664
0.0491831
0.0490806
0.0491849
0.0492867
0.0493103
0.0492598
0.0491626
0.0490948
0.0492953
0.0493154
0.0492508
0.0491224
0.0490615
0.0491437
0.0492748
0.0493013
0.0493164
0.0493318
0.0493436
0.0493539
0.049364
0.0493705
0.0493602
0.0493364
0.0492829
0.0491859
0.0490478
0.0493124
0.0493329
0.0491801
0.0493276
0.0493644
0.0493446
0.0492719
0.0491303
0.0493456
0.0493246
0.0491724
0.0493343
0.0492624
0.0490407
0.0492389
0.049342
0.049302
0.0490731
0.0492807
0.0493688
0.049386
0.0493581
0.0493319
0.049378
0.0493693
0.0492897
0.0490564
0.0492834
0.0493657
0.0493682
0.0492155
0.0493508
0.0493714
0.0493405
0.0492361
0.0489986
0.0492364
0.0493349
0.0493411
0.0492507
0.0489978
0.0492294
0.0493298
0.0493592
0.0493363
0.0492483
0.0490156
0.0492574
0.0493479
0.0493717
0.0493355
0.0491286
0.0493267
0.0493711
0.0493768
0.0493652
0.0493167
0.0491129
0.0493128
0.0493635
0.0493598
0.0492772
0.0490524
0.0492555
0.0493321
0.0493483
0.0493054
0.0491951
0.049056
0.0492295
0.0493093
0.0493269
0.0492663
0.0491572
0.0490416
0.0491918
0.049299
0.0493342
0.0492969
0.0491947
0.0490615
0.0492828
0.0493606
0.0493779
0.0491476
0.0490856
0.0491595
0.0492632
0.0492975
0.0493171
0.0493373
0.0493508
0.0493605
0.0493683
0.0493733
0.0493723
0.049364
0.049335
0.0492566
0.0490974
0.0493424
0.0493816
0.0493185
0.0493798
0.0493856
0.0493754
0.0493359
0.0492112
0.0493768
0.0493808
0.0493255
0.049378
0.0492961
0.0490684
0.0492971
0.049374
0.0493687
0.0491971
0.0493508
0.0493899
0.0494019
0.0494064
0.0494005
0.0494011
0.0493922
0.0493554
0.0491749
0.0493552
0.0493938
0.0494036
0.0493779
0.0494009
0.0493952
0.0493771
0.0493131
0.0490872
0.0493167
0.0493764
0.0493805
0.0493307
0.049106
0.0493184
0.0493745
0.0493865
0.0493783
0.0493288
0.0491201
0.0493356
0.0493854
0.0493975
0.0493973
0.0493191
0.0493932
0.0493967
0.0493952
0.0493937
0.0493801
0.0492663
0.0493849
0.0493949
0.0493863
0.0493435
0.0491601
0.0493375
0.0493742
0.0493724
0.0493332
0.0492347
0.0490542
0.049267
0.0493426
0.0493478
0.049281
0.0491561
0.0490034
0.0492076
0.0493161
0.049359
0.0493385
0.0492512
0.0490549
0.0492705
0.0493644
0.0493827
0.0491819
0.049123
0.0491777
0.0492529
0.0492806
0.0493154
0.0493417
0.0493576
0.0493671
0.0493739
0.0493791
0.0493826
0.0493848
0.049381
0.0493497
0.0492282
0.0493864
0.0494006
0.0493998
0.0493997
0.0493974
0.0493959
0.0493881
0.0493322
0.0493999
0.0494036
0.0494026
0.0493977
0.0493584
0.0491774
0.049361
0.0493995
0.0494065
0.0493476
0.0493998
0.0494048
0.0494067
0.0494081
0.0494081
0.049407
0.0494065
0.0494025
0.049329
0.0494034
0.0494091
0.0494112
0.0494161
0.0494111
0.0494069
0.0494033
0.0493852
0.0492527
0.0493881
0.0494041
0.0494053
0.0493956
0.0492812
0.049391
0.0494028
0.0494037
0.0494043
0.0493947
0.0492859
0.0493964
0.0494074
0.0494093
0.0494134
0.0494105
0.0494122
0.049407
0.049405
0.049406
0.0494086
0.0493869
0.049411
0.0494072
0.0494034
0.049396
0.0493199
0.0493955
0.0493979
0.0493913
0.0493706
0.0493059
0.0491191
0.0493296
0.0493773
0.0493705
0.0493157
0.0491934
0.0489953
0.0492338
0.0493421
0.0493808
0.0493768
0.0493233
0.0491172
0.0493185
0.0493793
0.049392
0.0492274
0.0491684
0.049199
0.0492514
0.0492754
0.0493105
0.0493455
0.0493642
0.0493739
0.0493802
0.0493852
0.0493898
0.049395
0.0494009
0.049403
0.0493654
0.0494088
0.0494072
0.0494078
0.0494048
0.0494036
0.0494043
0.0494067
0.0494013
0.0494081
0.0494094
0.049412
0.0494103
0.0494025
0.0493218
0.0494047
0.0494127
0.0494146
0.0494114
0.0494135
0.0494107
0.0494101
0.0494102
0.0494105
0.0494105
0.049412
0.0494156
0.049408
0.0494166
0.0494144
0.0494141
0.0494161
0.0494141
0.0494128
0.0494139
0.049416
0.0493848
0.0494172
0.0494153
0.0494153
0.0494183
0.0493985
0.0494174
0.0494138
0.0494125
0.0494144
0.0494182
0.0493981
0.0494183
0.0494155
0.0494144
0.0494156
0.0494189
0.0494147
0.0494115
0.0494102
0.049411
0.0494141
0.049417
0.0494146
0.0494118
0.0494108
0.0494127
0.0494067
0.0494123
0.0494076
0.049404
0.0493991
0.0493771
0.0492581
0.0493899
0.0494013
0.0493932
0.0493616
0.0492684
0.0490488
0.0492941
0.0493757
0.0493984
0.0494019
0.0493857
0.0492512
0.0493788
0.0493994
0.049402
0.0492815
0.0492129
0.0492203
0.0492552
0.0492785
0.0493126
0.0493479
0.0493703
0.0493807
0.0493863
0.0493909
0.0493953
0.0494001
0.0494059
0.0494125
0.0494145
0.049412
0.0494101
0.0494092
0.0494076
0.0494071
0.0494079
0.0494101
0.0494126
0.0494111
0.0494119
0.0494136
0.0494151
0.0494174
0.0494042
0.0494185
0.0494171
0.0494166
0.0494181
0.0494154
0.0494133
0.0494123
0.0494121
0.0494124
0.0494128
0.0494142
0.0494167
0.0494197
0.0494177
0.0494162
0.0494157
0.0494161
0.0494157
0.0494158
0.0494174
0.0494209
0.0494223
0.0494215
0.0494191
0.0494189
0.049421
0.0494234
0.0494207
0.0494177
0.0494167
0.0494179
0.0494209
0.0494232
0.049421
0.049418
0.0494166
0.0494166
0.0494172
0.0494154
0.0494137
0.049413
0.0494135
0.049415
0.049417
0.0494151
0.0494139
0.0494138
0.0494153
0.049418
0.0494147
0.049412
0.0494109
0.0494117
0.0494119
0.0493812
0.0494157
0.0494127
0.0494094
0.0494001
0.0493547
0.0491819
0.0493673
0.0494045
0.0494108
0.0494131
0.0494136
0.049374
0.049411
0.0494105
0.0494092
0.049328
0.0492433
0.0492349
0.049259
0.049284
0.04932
0.0493542
0.0493762
0.0493869
0.0493921
0.049396
0.0493996
0.0494035
0.0494077
0.049412
0.0494152
0.0494124
0.0494112
0.0494103
0.0494096
0.0494094
0.04941
0.0494113
0.0494128
0.0494126
0.0494134
0.0494147
0.0494163
0.049419
0.0494207
0.0494197
0.049418
0.0494172
0.0494173
0.0494159
0.0494146
0.0494138
0.0494136
0.0494137
0.0494142
0.0494152
0.0494167
0.0494183
0.0494175
0.0494168
0.0494166
0.0494167
0.0494168
0.0494173
0.0494186
0.0494207
0.049423
0.0494213
0.0494201
0.04942
0.0494209
0.0494226
0.0494207
0.0494191
0.0494185
0.0494191
0.0494205
0.0494223
0.0494205
0.0494187
0.0494176
0.0494171
0.0494169
0.0494159
0.049415
0.0494146
0.0494148
0.0494154
0.0494161
0.0494156
0.0494151
0.0494152
0.0494159
0.049417
0.0494156
0.0494146
0.0494146
0.049416
0.0494192
0.0494202
0.0494197
0.0494178
0.0494178
0.0494188
0.0494099
0.0493346
0.0494137
0.0494192
0.0494177
0.0494179
0.0494195
0.0494176
0.0494183
0.0494153
0.0494138
0.049348
0.0492518
0.04924
0.0492614
0.0492923
0.0493313
0.0493637
0.0493834
0.0493929
0.0493974
0.0494004
0.0494032
0.049406
0.0494088
0.0494114
0.049413
0.0494124
0.0494118
0.0494113
0.049411
0.049411
0.0494114
0.0494122
0.049413
0.0494135
0.0494143
0.0494153
0.0494167
0.0494183
0.0494199
0.0494189
0.049418
0.0494174
0.0494169
0.0494162
0.0494154
0.0494149
0.0494147
0.0494147
0.0494151
0.0494158
0.0494166
0.0494175
0.0494174
0.0494171
0.0494171
0.0494172
0.0494174
0.049418
0.0494189
0.0494201
0.0494212
0.0494207
0.0494203
0.0494202
0.0494206
0.0494211
0.0494204
0.0494196
0.0494193
0.0494195
0.0494201
0.0494207
0.0494199
0.0494189
0.0494181
0.0494175
0.049417
0.0494164
0.0494159
0.0494156
0.0494156
0.0494159
0.0494161
0.049416
0.0494159
0.049416
0.0494164
0.0494167
0.0494164
0.0494162
0.0494165
0.0494178
0.0494199
0.0494221
0.0494208
0.0494204
0.0494213
0.0494239
0.0494266
0.049414
0.0494268
0.0494234
0.0494211
0.0494203
0.0494207
0.0494218
0.0494196
0.0494176
0.0494166
0.0493487
0.0492438
0.0492401
0.0492658
0.0493054
0.0493464
0.0493756
0.0493917
0.0493989
0.0494021
0.0494042
0.0494062
0.0494081
0.0494099
0.0494115
0.0494124
0.0494125
0.0494124
0.0494122
0.0494121
0.0494121
0.0494125
0.049413
0.0494136
0.0494142
0.0494149
0.0494157
0.0494167
0.0494177
0.0494185
0.0494182
0.0494178
0.0494173
0.0494169
0.0494164
0.0494159
0.0494156
0.0494154
0.0494155
0.0494157
0.0494162
0.0494167
0.0494172
0.0494173
0.0494173
0.0494174
0.0494175
0.0494178
0.0494183
0.0494189
0.0494197
0.0494202
0.0494202
0.0494201
0.0494201
0.0494203
0.0494204
0.0494201
0.0494197
0.0494195
0.0494196
0.0494197
0.0494199
0.0494194
0.0494188
0.0494182
0.0494177
0.0494173
0.0494169
0.0494165
0.0494163
0.0494162
0.0494163
0.0494164
0.0494164
0.0494164
0.0494165
0.0494167
0.049417
0.049417
0.0494172
0.0494177
0.0494186
0.0494199
0.0494211
0.0494211
0.0494215
0.0494226
0.0494248
0.0494276
0.0494288
0.0494272
0.0494244
0.0494224
0.0494215
0.0494212
0.0494213
0.04942
0.0494189
0.0494183
0.0493505
0.0492329
0.049243
0.0492782
0.0493253
0.0493648
0.0493886
0.0494
0.0494045
0.0494064
0.0494076
0.0494088
0.0494099
0.0494111
0.0494121
0.0494127
0.0494129
0.0494129
0.0494129
0.0494129
0.0494131
0.0494133
0.0494137
0.0494142
0.0494147
0.0494153
0.0494159
0.0494166
0.0494173
0.0494177
0.0494177
0.0494175
0.0494172
0.0494169
0.0494166
0.0494163
0.0494161
0.049416
0.049416
0.0494162
0.0494165
0.0494168
0.0494171
0.0494173
0.0494174
0.0494176
0.0494178
0.049418
0.0494184
0.0494189
0.0494194
0.0494197
0.0494199
0.0494199
0.0494199
0.04942
0.04942
0.0494199
0.0494197
0.0494195
0.0494195
0.0494195
0.0494194
0.0494191
0.0494187
0.0494183
0.0494179
0.0494175
0.0494172
0.0494169
0.0494168
0.0494167
0.0494167
0.0494167
0.0494168
0.0494168
0.049417
0.0494171
0.0494173
0.0494175
0.0494178
0.0494183
0.0494191
0.04942
0.0494208
0.0494213
0.0494219
0.0494229
0.0494244
0.0494261
0.0494274
0.0494257
0.0494242
0.0494228
0.049422
0.0494214
0.0494211
0.0494204
0.0494197
0.0494193
0.0493626
0.0492306
0.0492565
0.049303
0.0493519
0.0493848
0.0494012
0.0494075
0.0494094
0.04941
0.0494105
0.049411
0.0494117
0.0494123
0.0494129
0.0494133
0.0494135
0.0494136
0.0494136
0.0494137
0.0494138
0.049414
0.0494143
0.0494147
0.0494151
0.0494156
0.0494161
0.0494166
0.049417
0.0494173
0.0494174
0.0494173
0.0494172
0.049417
0.0494168
0.0494166
0.0494164
0.0494164
0.0494164
0.0494165
0.0494167
0.049417
0.0494172
0.0494174
0.0494176
0.0494177
0.0494179
0.0494182
0.0494185
0.0494188
0.0494192
0.0494194
0.0494196
0.0494197
0.0494197
0.0494198
0.0494198
0.0494197
0.0494196
0.0494195
0.0494194
0.0494193
0.0494192
0.049419
0.0494187
0.0494184
0.0494181
0.0494178
0.0494175
0.0494173
0.0494171
0.0494171
0.0494171
0.0494171
0.0494171
0.0494172
0.0494173
0.0494175
0.0494177
0.049418
0.0494183
0.0494188
0.0494193
0.04942
0.0494207
0.0494213
0.0494219
0.0494228
0.0494238
0.0494247
0.0494253
0.0494246
0.0494237
0.0494228
0.0494221
0.0494216
0.0494212
0.0494207
0.0494203
0.04942
0.0493872
0.0492429
0.0492874
0.0493397
0.0493812
0.049403
0.0494112
0.0494132
0.0494133
0.0494131
0.049413
0.0494131
0.0494133
0.0494136
0.0494138
0.049414
0.0494142
0.0494142
0.0494143
0.0494143
0.0494145
0.0494147
0.0494149
0.0494152
0.0494155
0.0494159
0.0494163
0.0494166
0.049417
0.0494172
0.0494173
0.0494173
0.0494172
0.049417
0.0494169
0.0494168
0.0494167
0.0494167
0.0494167
0.0494168
0.049417
0.0494171
0.0494173
0.0494175
0.0494177
0.0494178
0.049418
0.0494182
0.0494185
0.0494188
0.049419
0.0494192
0.0494194
0.0494195
0.0494195
0.0494196
0.0494196
0.0494195
0.0494194
0.0494194
0.0494193
0.0494192
0.0494191
0.0494189
0.0494187
0.0494184
0.0494182
0.049418
0.0494177
0.0494176
0.0494175
0.0494174
0.0494174
0.0494174
0.0494175
0.0494175
0.0494177
0.0494178
0.0494181
0.0494183
0.0494186
0.0494191
0.0494195
0.0494201
0.0494207
0.0494212
0.0494218
0.0494225
0.0494231
0.0494237
0.049424
0.0494237
0.0494232
0.0494226
0.0494221
0.0494216
0.0494213
0.0494209
0.0494206
0.0494205
0.0494107
0.0492804
0.049335
0.0493798
0.049406
0.049416
0.0494178
0.0494172
0.0494163
0.0494155
0.0494151
0.0494148
0.0494147
0.0494147
0.0494148
0.0494148
0.0494149
0.0494149
0.0494149
0.049415
0.0494151
0.0494152
0.0494154
0.0494156
0.0494159
0.0494162
0.0494164
0.0494167
0.0494169
0.0494171
0.0494172
0.0494172
0.0494172
0.0494171
0.049417
0.049417
0.0494169
0.0494169
0.049417
0.049417
0.0494172
0.0494173
0.0494174
0.0494176
0.0494178
0.0494179
0.0494181
0.0494183
0.0494185
0.0494187
0.0494189
0.0494191
0.0494192
0.0494193
0.0494194
0.0494194
0.0494194
0.0494194
0.0494193
0.0494193
0.0494192
0.0494191
0.049419
0.0494188
0.0494187
0.0494185
0.0494183
0.0494181
0.049418
0.0494178
0.0494177
0.0494177
0.0494177
0.0494177
0.0494177
0.0494178
0.049418
0.0494181
0.0494183
0.0494186
0.0494189
0.0494193
0.0494197
0.0494201
0.0494206
0.0494211
0.0494216
0.0494221
0.0494226
0.049423
0.0494231
0.049423
0.0494227
0.0494223
0.049422
0.0494216
0.0494213
0.0494211
0.0494209
0.0494208
0.0494271
0.0493401
0.0493842
0.0494104
0.0494209
0.0494227
0.0494215
0.0494199
0.0494185
0.0494175
0.0494168
0.0494163
0.049416
0.0494158
0.0494157
0.0494156
0.0494156
0.0494155
0.0494155
0.0494155
0.0494156
0.0494157
0.0494158
0.049416
0.0494162
0.0494164
0.0494166
0.0494168
0.049417
0.0494171
0.0494172
0.0494172
0.0494172
0.0494172
0.0494172
0.0494171
0.0494171
0.0494171
0.0494172
0.0494172
0.0494173
0.0494174
0.0494176
0.0494177
0.0494179
0.049418
0.0494182
0.0494183
0.0494185
0.0494187
0.0494188
0.049419
0.0494191
0.0494192
0.0494193
0.0494193
0.0494193
0.0494193
0.0494192
0.0494192
0.0494191
0.049419
0.0494189
0.0494188
0.0494187
0.0494185
0.0494184
0.0494182
0.0494181
0.049418
0.049418
0.0494179
0.0494179
0.0494179
0.049418
0.0494181
0.0494182
0.0494184
0.0494186
0.0494188
0.0494191
0.0494194
0.0494198
0.0494202
0.0494206
0.049421
0.0494214
0.0494218
0.0494222
0.0494224
0.0494225
0.0494225
0.0494223
0.0494221
0.0494218
0.0494216
0.0494213
0.0494211
0.049421
0.0494209
0.0494335
0.0493952
0.0494168
0.0494257
0.0494271
0.0494256
0.0494234
0.0494216
0.0494202
0.049419
0.0494182
0.0494175
0.0494171
0.0494167
0.0494165
0.0494163
0.0494162
0.0494161
0.0494161
0.0494161
0.0494161
0.0494162
0.0494162
0.0494164
0.0494165
0.0494167
0.0494168
0.049417
0.0494171
0.0494172
0.0494173
0.0494173
0.0494173
0.0494173
0.0494173
0.0494173
0.0494173
0.0494173
0.0494173
0.0494174
0.0494175
0.0494176
0.0494177
0.0494178
0.0494179
0.0494181
0.0494182
0.0494184
0.0494185
0.0494187
0.0494188
0.0494189
0.049419
0.0494191
0.0494191
0.0494192
0.0494192
0.0494192
0.0494192
0.0494191
0.0494191
0.049419
0.0494189
0.0494188
0.0494187
0.0494186
0.0494185
0.0494184
0.0494183
0.0494182
0.0494181
0.0494181
0.0494181
0.0494182
0.0494182
0.0494183
0.0494184
0.0494186
0.0494188
0.049419
0.0494192
0.0494195
0.0494198
0.0494202
0.0494205
0.0494209
0.0494212
0.0494215
0.0494218
0.049422
0.0494221
0.0494221
0.049422
0.0494219
0.0494217
0.0494215
0.0494213
0.0494212
0.0494211
0.049421
0.0494342
0.0494241
0.0494296
0.0494304
0.0494288
0.0494266
0.0494245
0.0494228
0.0494213
0.0494202
0.0494192
0.0494185
0.049418
0.0494176
0.0494173
0.049417
0.0494168
0.0494167
0.0494166
0.0494166
0.0494166
0.0494166
0.0494166
0.0494167
0.0494168
0.0494169
0.049417
0.0494171
0.0494172
0.0494173
0.0494174
0.0494174
0.0494174
0.0494174
0.0494174
0.0494174
0.0494174
0.0494175
0.0494175
0.0494175
0.0494176
0.0494177
0.0494178
0.0494179
0.049418
0.0494181
0.0494183
0.0494184
0.0494185
0.0494186
0.0494188
0.0494189
0.0494189
0.049419
0.0494191
0.0494191
0.0494191
0.0494191
0.0494191
0.0494191
0.049419
0.049419
0.0494189
0.0494188
0.0494187
0.0494186
0.0494186
0.0494185
0.0494184
0.0494183
0.0494183
0.0494183
0.0494183
0.0494184
0.0494184
0.0494185
0.0494186
0.0494188
0.0494189
0.0494191
0.0494194
0.0494196
0.0494199
0.0494202
0.0494205
0.0494208
0.049421
0.0494213
0.0494215
0.0494217
0.0494218
0.0494218
0.0494217
0.0494216
0.0494215
0.0494214
0.0494213
0.0494212
0.0494211
0.0494211
0.0494332
0.0494317
0.0494319
0.0494307
0.0494288
0.0494269
0.049425
0.0494235
0.0494221
0.049421
0.0494201
0.0494193
0.0494188
0.0494183
0.0494179
0.0494176
0.0494174
0.0494172
0.0494171
0.049417
0.049417
0.049417
0.049417
0.049417
0.0494171
0.0494171
0.0494172
0.0494173
0.0494174
0.0494174
0.0494175
0.0494175
0.0494175
0.0494175
0.0494175
0.0494175
0.0494176
0.0494176
0.0494176
0.0494177
0.0494177
0.0494178
0.0494179
0.049418
0.0494181
0.0494182
0.0494183
0.0494184
0.0494185
0.0494186
0.0494187
0.0494188
0.0494189
0.049419
0.049419
0.049419
0.0494191
0.0494191
0.049419
0.049419
0.049419
0.0494189
0.0494189
0.0494188
0.0494188
0.0494187
0.0494186
0.0494186
0.0494185
0.0494185
0.0494185
0.0494185
0.0494185
0.0494185
0.0494186
0.0494187
0.0494188
0.0494189
0.0494191
0.0494192
0.0494194
0.0494197
0.0494199
0.0494202
0.0494204
0.0494207
0.0494209
0.0494211
0.0494213
0.0494214
0.0494215
0.0494215
0.0494215
0.0494215
0.0494214
0.0494213
0.0494212
0.0494212
0.0494211
0.0494211
0.0494319
0.0494318
0.0494311
0.0494298
0.0494283
0.0494267
0.0494252
0.0494238
0.0494226
0.0494216
0.0494207
0.04942
0.0494194
0.0494189
0.0494185
0.0494182
0.0494179
0.0494177
0.0494176
0.0494174
0.0494174
0.0494173
0.0494173
0.0494173
0.0494173
0.0494174
0.0494174
0.0494175
0.0494175
0.0494175
0.0494176
0.0494176
0.0494176
0.0494176
0.0494177
0.0494177
0.0494177
0.0494177
0.0494178
0.0494178
0.0494179
0.0494179
0.049418
0.0494181
0.0494182
0.0494183
0.0494183
0.0494184
0.0494185
0.0494186
0.0494187
0.0494188
0.0494189
0.0494189
0.049419
0.049419
0.049419
0.049419
0.049419
0.049419
0.049419
0.0494189
0.0494189
0.0494188
0.0494188
0.0494187
0.0494187
0.0494186
0.0494186
0.0494186
0.0494186
0.0494186
0.0494186
0.0494187
0.0494187
0.0494188
0.0494189
0.049419
0.0494192
0.0494193
0.0494195
0.0494197
0.0494199
0.0494201
0.0494204
0.0494206
0.0494208
0.0494209
0.0494211
0.0494212
0.0494213
0.0494213
0.0494213
0.0494213
0.0494213
0.0494212
0.0494212
0.0494211
0.0494211
0.0494211
0.0494305
0.0494304
0.0494298
0.0494288
0.0494276
0.0494264
0.0494252
0.049424
0.0494229
0.049422
0.0494212
0.0494205
0.0494199
0.0494194
0.049419
0.0494186
0.0494184
0.0494181
0.049418
0.0494178
0.0494177
0.0494176
0.0494176
0.0494176
0.0494176
0.0494176
0.0494176
0.0494176
0.0494177
0.0494177
0.0494177
0.0494177
0.0494177
0.0494178
0.0494178
0.0494178
0.0494178
0.0494178
0.0494179
0.0494179
0.049418
0.049418
0.0494181
0.0494182
0.0494182
0.0494183
0.0494184
0.0494185
0.0494186
0.0494186
0.0494187
0.0494188
0.0494188
0.0494189
0.0494189
0.049419
0.049419
0.049419
0.049419
0.049419
0.049419
0.0494189
0.0494189
0.0494189
0.0494188
0.0494188
0.0494188
0.0494187
0.0494187
0.0494187
0.0494187
0.0494187
0.0494187
0.0494188
0.0494188
0.0494189
0.049419
0.0494191
0.0494193
0.0494194
0.0494196
0.0494197
0.0494199
0.0494201
0.0494203
0.0494205
0.0494207
0.0494208
0.0494209
0.049421
0.0494211
0.0494212
0.0494212
0.0494212
0.0494212
0.0494211
0.0494211
0.0494211
0.049421
0.049421
0.0494293
0.0494291
0.0494286
0.0494279
0.049427
0.049426
0.049425
0.049424
0.0494231
0.0494222
0.0494215
0.0494208
0.0494203
0.0494198
0.0494194
0.049419
0.0494187
0.0494185
0.0494183
0.0494182
0.049418
0.0494179
0.0494179
0.0494178
0.0494178
0.0494178
0.0494178
0.0494178
0.0494178
0.0494178
0.0494178
0.0494178
0.0494179
0.0494179
0.0494179
0.0494179
0.0494179
0.0494179
0.049418
0.049418
0.0494181
0.0494181
0.0494182
0.0494182
0.0494183
0.0494184
0.0494184
0.0494185
0.0494186
0.0494186
0.0494187
0.0494188
0.0494188
0.0494189
0.0494189
0.0494189
0.0494189
0.049419
0.049419
0.049419
0.0494189
0.0494189
0.0494189
0.0494189
0.0494189
0.0494188
0.0494188
0.0494188
0.0494188
0.0494188
0.0494188
0.0494188
0.0494188
0.0494189
0.0494189
0.049419
0.0494191
0.0494192
0.0494193
0.0494195
0.0494196
0.0494198
0.0494199
0.0494201
0.0494203
0.0494204
0.0494206
0.0494207
0.0494208
0.0494209
0.049421
0.049421
0.049421
0.0494211
0.0494211
0.049421
0.049421
0.049421
0.049421
0.049421
0.0494282
0.049428
0.0494277
0.0494271
0.0494264
0.0494256
0.0494247
0.0494239
0.0494231
0.0494224
0.0494217
0.0494211
0.0494206
0.0494201
0.0494197
0.0494194
0.0494191
0.0494188
0.0494186
0.0494185
0.0494183
0.0494182
0.0494181
0.0494181
0.049418
0.049418
0.049418
0.049418
0.049418
0.049418
0.049418
0.049418
0.049418
0.049418
0.049418
0.049418
0.049418
0.049418
0.0494181
0.0494181
0.0494181
0.0494182
0.0494182
0.0494183
0.0494183
0.0494184
0.0494185
0.0494185
0.0494186
0.0494187
0.0494187
0.0494188
0.0494188
0.0494189
0.0494189
0.0494189
0.0494189
0.0494189
0.049419
0.049419
0.0494189
0.0494189
0.0494189
0.0494189
0.0494189
0.0494189
0.0494189
0.0494189
0.0494189
0.0494189
0.0494189
0.0494189
0.0494189
0.049419
0.049419
0.0494191
0.0494192
0.0494193
0.0494194
0.0494195
0.0494197
0.0494198
0.0494199
0.0494201
0.0494202
0.0494203
0.0494205
0.0494206
0.0494207
0.0494208
0.0494209
0.0494209
0.0494209
0.049421
0.049421
0.049421
0.0494209
0.0494209
0.0494209
0.0494209
0.0494273
0.0494271
0.0494268
0.0494264
0.0494258
0.0494252
0.0494245
0.0494238
0.0494231
0.0494224
0.0494218
0.0494213
0.0494208
0.0494204
0.04942
0.0494197
0.0494194
0.0494191
0.0494189
0.0494187
0.0494186
0.0494185
0.0494184
0.0494183
0.0494182
0.0494182
0.0494182
0.0494181
0.0494181
0.0494181
0.0494181
0.0494181
0.0494181
0.0494181
0.0494181
0.0494181
0.0494181
0.0494181
0.0494182
0.0494182
0.0494182
0.0494183
0.0494183
0.0494184
0.0494184
0.0494185
0.0494185
0.0494186
0.0494186
0.0494187
0.0494187
0.0494188
0.0494188
0.0494188
0.0494189
0.0494189
0.0494189
0.0494189
0.049419
0.049419
0.049419
0.0494189
0.0494189
0.0494189
0.0494189
0.0494189
0.0494189
0.0494189
0.0494189
0.0494189
0.0494189
0.049419
0.049419
0.0494191
0.0494191
0.0494192
0.0494193
0.0494194
0.0494195
0.0494196
0.0494197
0.0494198
0.0494199
0.0494201
0.0494202
0.0494203
0.0494204
0.0494205
0.0494206
0.0494207
0.0494207
0.0494208
0.0494208
0.0494209
0.0494209
0.0494209
0.0494209
0.0494209
0.0494209
0.0494209
0.0494265
0.0494264
0.0494261
0.0494258
0.0494253
0.0494248
0.0494242
0.0494236
0.049423
0.0494225
0.0494219
0.0494214
0.049421
0.0494206
0.0494202
0.0494199
0.0494196
0.0494194
0.0494192
0.049419
0.0494188
0.0494187
0.0494186
0.0494185
0.0494184
0.0494184
0.0494183
0.0494183
0.0494183
0.0494182
0.0494182
0.0494182
0.0494182
0.0494182
0.0494182
0.0494182
0.0494182
0.0494182
0.0494183
0.0494183
0.0494183
0.0494183
0.0494184
0.0494184
0.0494185
0.0494185
0.0494185
0.0494186
0.0494186
0.0494187
0.0494187
0.0494188
0.0494188
0.0494188
0.0494189
0.0494189
0.0494189
0.0494189
0.0494189
0.049419
0.049419
0.049419
0.049419
0.049419
0.049419
0.049419
0.049419
0.049419
0.049419
0.049419
0.049419
0.049419
0.0494191
0.0494191
0.0494192
0.0494193
0.0494193
0.0494194
0.0494195
0.0494196
0.0494197
0.0494198
0.0494199
0.04942
0.0494201
0.0494203
0.0494204
0.0494204
0.0494205
0.0494206
0.0494207
0.0494207
0.0494207
0.0494208
0.0494208
0.0494208
0.0494208
0.0494208
0.0494208
0.0494208
0.0494258
0.0494257
0.0494255
0.0494252
0.0494248
0.0494244
0.0494239
0.0494234
0.0494229
0.0494224
0.049422
0.0494215
0.0494211
0.0494207
0.0494204
0.0494201
0.0494198
0.0494196
0.0494194
0.0494192
0.049419
0.0494189
0.0494188
0.0494187
0.0494186
0.0494185
0.0494185
0.0494184
0.0494184
0.0494184
0.0494183
0.0494183
0.0494183
0.0494183
0.0494183
0.0494183
0.0494183
0.0494183
0.0494183
0.0494184
0.0494184
0.0494184
0.0494184
0.0494185
0.0494185
0.0494186
0.0494186
0.0494186
0.0494187
0.0494187