/*--------------------------------*- C++ -*----------------------------------*\
| =========                 |                                                 |
| \\      /  F ield         | OpenFOAM: The Open Source CFD Toolbox           |
|  \\    /   O peration     | Version:  4.1                                   |
|   \\  /    A nd           | Web:      www.OpenFOAM.org                      |
|    \\/     M anipulation  |                                                 |
\*---------------------------------------------------------------------------*/
FoamFile
{
    version     2.0;
    format      ascii;
    class       surfaceScalarField;
    location    "60";
    object      phi;
}
// * * * * * * * * * * * * * * * * * * * * * * * * * * * * * * * * * * * * * //

dimensions      [0 3 -1 0 0 0 0];

internalField   nonuniform List<scalar> 
760
(
-5.57057e-11
5.56797e-11
-3.15297e-11
-2.41802e-11
-1.27693e-11
-1.87593e-11
-6.47342e-12
-6.29306e-12
-1.5661e-12
-4.90717e-12
7.48645e-13
-2.31297e-12
2.9512e-12
-2.20317e-12
3.57598e-12
-6.23802e-13
2.37263e-12
1.20052e-12
3.91867e-13
1.97857e-12
-1.25802e-12
1.64917e-12
-1.95255e-12
6.93901e-13
-1.88205e-12
-7.1538e-14
-1.65088e-12
-2.32239e-13
-1.62445e-12
-2.76007e-14
-1.4161e-12
-2.09813e-13
-1.17765e-12
-2.39523e-13
1.34255e-14
-1.1911e-12
2.11576e-12
-2.1014e-12
2.11622e-12
1.61211e-11
3.95562e-11
6.02585e-12
-1.4083e-11
-7.97991e-13
-1.19352e-11
-7.98966e-13
-6.29228e-12
1.26244e-13
-5.83141e-12
1.6547e-12
-3.84122e-12
1.7703e-12
-2.32115e-12
1.31321e-12
-1.68786e-13
3.3039e-13
2.18035e-12
-4.12889e-13
2.71951e-12
-6.99929e-13
1.93471e-12
-9.55466e-13
9.48045e-13
-1.03166e-12
3.32921e-15
-9.35471e-13
-3.28995e-13
-9.61905e-13
-1.55092e-15
-1.00674e-12
-1.66605e-13
-9.97016e-13
-2.51492e-13
-7.11413e-13
-1.48058e-12
3.68201e-14
-2.85505e-12
2.15766e-12
2.00371e-11
1.95245e-11
1.02917e-11
-4.33563e-12
1.99829e-12
-3.6403e-12
1.20285e-12
-5.4937e-12
7.86922e-13
-5.41347e-12
9.02636e-13
-3.95563e-12
7.67427e-13
-2.18339e-12
-4.46146e-13
1.04416e-12
-8.234e-13
2.55849e-12
-3.29974e-13
2.22806e-12
-1.72266e-14
1.62381e-12
-2.37833e-13
1.17029e-12
-7.43275e-13
5.1018e-13
-9.75207e-13
-9.57785e-14
-8.20611e-13
-1.54522e-13
-4.88081e-13
-4.96926e-13
-1.39871e-13
-5.96724e-13
-7.70514e-13
-8.47798e-13
-1.35825e-12
-2.2702e-12
8.00203e-13
8.39467e-12
1.11302e-11
6.2753e-12
-2.21664e-12
3.87584e-12
-1.24109e-12
2.72112e-12
-4.33686e-12
1.20352e-12
-3.8967e-12
-1.13826e-13
-2.6419e-12
-8.25634e-13
-1.47265e-12
-1.24964e-12
1.46734e-12
-8.53021e-13
2.16195e-12
-2.35009e-13
1.61026e-12
5.63909e-14
1.33237e-12
-4.80976e-14
1.275e-12
-5.96323e-13
1.05846e-12
-9.98508e-13
3.0518e-13
-9.28339e-13
-2.26161e-13
-3.87664e-13
-1.03874e-12
5.04488e-13
-1.48918e-12
1.28537e-13
-4.6956e-13
-7.16014e-13
-1.42617e-12
8.4389e-14
3.99325e-12
7.13439e-12
3.7014e-12
-1.92681e-12
3.70189e-12
-1.24082e-12
2.32909e-12
-2.96291e-12
5.70853e-13
-2.1379e-12
-5.74165e-13
-1.49627e-12
-2.03353e-12
-1.60933e-14
-1.56656e-12
1.0004e-12
-5.94422e-13
1.19078e-12
-3.66465e-13
1.3826e-12
-3.42593e-13
1.30822e-12
-2.64032e-13
1.19627e-12
-3.86398e-13
1.18053e-12
-5.77799e-13
4.95233e-13
-5.29828e-13
-2.75495e-13
-1.17309e-13
-1.45299e-12
4.02627e-13
-2.00985e-12
3.18891e-13
-3.85005e-13
-3.95079e-13
-7.11849e-13
-3.10215e-13
2.55949e-12
4.57689e-12
2.49447e-12
-1.86102e-12
2.43104e-12
-1.17687e-12
9.82454e-13
-1.51424e-12
-3.12241e-13
-8.44051e-13
-1.10357e-12
-7.03522e-13
-1.82894e-12
7.09801e-13
-1.23228e-12
4.04807e-13
-4.36175e-13
3.95839e-13
-4.02614e-13
1.35012e-12
-6.04392e-13
1.51072e-12
-6.16551e-13
1.20845e-12
-4.68394e-13
1.0321e-12
-3.3789e-13
3.64499e-13
5.35572e-14
-6.67262e-13
9.95041e-14
-1.49902e-12
-1.38515e-13
-1.77253e-12
-3.05658e-13
-2.17062e-13
-4.11964e-13
-6.04982e-13
-7.21916e-13
2.22469e-12
2.35426e-12
1.59591e-12
-1.23138e-12
8.90314e-13
-4.70479e-13
1.31984e-13
-7.54507e-13
-5.02795e-13
-2.08693e-13
-1.52229e-12
3.13867e-13
-9.89065e-13
1.78207e-13
-6.47813e-13
6.43139e-14
-6.10938e-13
3.58781e-13
-5.1323e-13
1.25269e-12
-6.4544e-13
1.6432e-12
-8.48417e-13
1.41019e-12
-8.60156e-13
1.04198e-12
-5.73279e-13
7.60537e-14
5.46545e-14
-1.29545e-12
-9.6695e-14
-1.34658e-12
-5.84693e-13
-1.28334e-12
-6.2946e-13
-1.70739e-13
-2.30108e-13
-1.00387e-12
-9.51725e-13
1.16524e-12
1.19071e-12
5.88647e-13
-6.56044e-13
2.41983e-13
-1.24788e-13
-1.48605e-13
-3.65097e-13
-5.83055e-13
2.2645e-13
-9.206e-13
6.50769e-13
-3.9265e-13
-3.48907e-13
-5.32362e-13
2.04787e-13
-1.06775e-12
8.94467e-13
-9.57362e-13
1.1431e-12
-9.2719e-13
1.61409e-12
-9.82054e-13
1.46528e-12
-9.18304e-13
9.78827e-13
-6.593e-13
-1.82907e-13
-1.44109e-13
-1.8108e-12
-2.76887e-13
-1.21219e-12
-6.46234e-13
-9.12914e-13
-3.94347e-13
-4.21275e-13
2.18377e-13
-1.6158e-12
-7.32865e-13
5.58667e-13
6.34151e-13
3.05053e-13
-4.02025e-13
3.95858e-13
-2.14574e-13
-4.96097e-14
8.04612e-14
-6.91476e-13
8.67498e-13
-2.14946e-13
1.76487e-13
-4.23136e-13
-1.4052e-13
-9.15822e-13
6.98358e-13
-1.25214e-12
1.23186e-12
-1.31056e-12
1.20198e-12
-1.30103e-12
1.60436e-12
-1.25018e-12
1.41378e-12
-4.87261e-13
2.15349e-13
1.04659e-14
-6.78941e-13
2.26557e-13
-2.02606e-12
-6.74261e-14
-9.16851e-13
-2.43573e-13
-7.36049e-13
2.8431e-13
-9.47992e-13
7.683e-13
-2.09876e-12
3.58715e-14
4.66019e-13
1.67292e-13
4.56729e-13
-3.94766e-13
2.00576e-13
3.98999e-14
-2.2657e-13
5.07718e-13
-2.79446e-13
9.19901e-13
-1.94914e-13
9.2711e-14
-9.79886e-13
6.43887e-13
-1.17566e-12
8.94775e-13
-1.07238e-12
1.13018e-12
-1.3298e-12
1.46015e-12
-1.31871e-12
1.59284e-12
-1.14865e-12
1.24348e-12
-1.38289e-13
-7.95806e-13
6.47198e-13
-1.46419e-12
8.12333e-13
-2.19087e-12
6.27585e-13
-7.30818e-13
6.81158e-13
-7.88893e-13
1.07259e-12
-1.33851e-12
1.0036e-12
-2.02879e-12
1.03976e-12
3.13132e-13
-1.464e-13
3.26275e-13
-4.07734e-13
-1.67242e-13
5.32991e-13
-5.73481e-13
9.13027e-13
-3.27944e-14
3.80542e-13
-6.37316e-13
6.96506e-13
-1.20327e-12
1.20973e-12
-1.04157e-12
7.32648e-13
-9.99753e-13
1.08793e-12
-1.24275e-12
1.70254e-12
-1.10362e-12
1.45362e-12
-4.23558e-13
5.63224e-13
3.80884e-13
-1.60071e-12
1.09186e-12
-2.1751e-12
1.40383e-12
-2.50274e-12
1.54122e-12
-8.67251e-13
1.50884e-12
-7.55991e-13
1.40173e-12
-1.23079e-12
8.1059e-13
-1.43682e-12
1.8505e-12
6.74697e-14
-2.15393e-13
-2.59285e-13
-8.25493e-14
-3.96184e-13
6.69833e-13
-3.51499e-13
8.67057e-13
-3.0391e-13
3.32165e-13
-7.98802e-13
1.1904e-12
-4.96718e-13
9.09137e-13
-3.78279e-13
6.15389e-13
-8.5782e-13
1.56804e-12
-1.10094e-12
1.94469e-12
-7.3323e-13
1.08486e-12
2.49767e-13
-4.19766e-13
1.04701e-12
-2.39793e-12
1.59773e-12
-2.72553e-12
1.84691e-12
-2.7521e-12
2.05471e-12
-1.07441e-12
1.81112e-12
-5.11798e-13
1.24508e-12
-6.64159e-13
4.14435e-13
-6.05603e-13
2.26488e-12
-2.48022e-14
-1.90128e-13
-4.52659e-13
3.44728e-13
-4.7837e-13
6.94896e-13
-9.24416e-14
4.82364e-13
-6.98224e-13
9.37323e-13
-3.5905e-13
8.52023e-13
2.47924e-13
3.02862e-13
-5.75772e-14
9.20186e-13
-4.84801e-13
1.99484e-12
-5.0017e-13
1.96081e-12
1.03552e-13
4.80737e-13
9.47376e-13
-1.26351e-12
1.5409e-12
-2.99148e-12
1.85669e-12
-3.041e-12
1.95257e-12
-2.84798e-12
2.05047e-12
-1.17153e-12
1.61862e-12
-7.90479e-14
8.12291e-13
1.42711e-13
1.09034e-15
2.05736e-13
2.26573e-12
-1.94178e-13
3.26052e-15
-4.17107e-13
5.67389e-13
-3.69228e-13
6.45732e-13
-4.46758e-13
5.59448e-13
-5.90776e-13
1.08105e-12
3.42007e-13
-7.96131e-14
5.7788e-13
6.74414e-14
-1.06603e-13
1.60463e-12
9.18238e-14
1.79531e-12
5.976e-13
1.4554e-12
1.11454e-12
-3.65726e-14
1.43664e-12
-1.58587e-12
1.64855e-12
-3.20346e-12
1.85556e-12
-3.24722e-12
1.85745e-12
-2.8492e-12
1.70425e-12
-1.01729e-12
1.09235e-12
5.33688e-13
2.26199e-13
1.00903e-12
-4.5604e-13
8.87662e-13
1.80938e-12
-4.09315e-13
4.11528e-13
-7.07687e-13
8.64924e-13
-5.07541e-13
4.46355e-13
-6.79218e-13
7.30867e-13
6.84253e-14
3.3493e-13
6.68518e-13
-6.79835e-13
4.6384e-13
2.7066e-13
3.16127e-13
1.75217e-12
9.59524e-13
1.15112e-12
1.51716e-12
8.97136e-13
1.64618e-12
-1.65988e-13
1.64971e-12
-1.58936e-12
1.6867e-12
-3.23995e-12
1.74846e-12
-3.30781e-12
1.49612e-12
-2.59593e-12
1.03257e-12
-5.52885e-13
3.22313e-13
1.24435e-12
-3.59468e-13
1.69051e-12
-7.4571e-13
1.27331e-12
1.06337e-12
-4.59525e-13
8.71431e-13
-6.01453e-13
1.00681e-12
-4.93988e-13
3.38802e-13
-1.38721e-14
2.50711e-13
8.33255e-13
-5.11255e-13
4.31857e-13
-2.792e-13
7.87523e-14
6.22238e-13
8.88642e-13
9.41812e-13
1.71601e-12
3.23942e-13
2.09805e-12
5.14643e-13
1.80034e-12
1.31523e-13
1.58878e-12
-1.37761e-12
1.57834e-12
-3.22863e-12
1.37785e-12
-3.10599e-12
7.49927e-13
-1.96732e-12
8.28469e-14
1.1442e-13
-4.30757e-13
1.75779e-12
-7.1735e-13
1.97649e-12
-7.67217e-13
1.32248e-12
2.95853e-13
-1.95007e-13
1.06627e-12
-8.04688e-14
8.92594e-13
-1.14465e-13
3.71737e-13
4.13391e-13
-2.76518e-13
5.49907e-13
-6.48263e-13
1.43891e-13
1.26804e-13
3.51413e-13
4.15436e-13
1.48609e-12
-1.93148e-13
1.92303e-12
-1.13074e-13
2.01925e-12
4.18122e-13
1.68857e-12
4.62774e-13
1.3172e-12
-1.00575e-12
1.0337e-12
-2.94448e-12
5.94214e-13
-2.66547e-12
-1.91973e-13
-1.18078e-12
-7.84279e-13
7.06351e-13
-9.14842e-13
1.8876e-12
-7.61272e-13
1.82205e-12
-5.64747e-13
1.12521e-12
-2.69233e-13
2.93897e-13
7.72027e-13
3.06456e-13
8.80486e-13
4.45932e-13
2.32666e-13
4.59802e-13
-2.90229e-13
8.06057e-14
-2.69826e-13
2.88472e-13
-8.06828e-14
1.00082e-12
-2.95018e-13
1.64022e-12
-8.31923e-13
1.42176e-12
1.05257e-13
1.2106e-12
6.28577e-13
1.20922e-12
4.65091e-13
9.39334e-13
-7.34658e-13
3.00441e-13
-2.30501e-12
-3.99268e-13
-1.96536e-12
-1.08325e-12
-4.96973e-13
-1.33399e-12
9.56204e-13
-1.05024e-12
1.60267e-12
-5.88857e-13
1.35959e-12
-2.6867e-13
8.04225e-13
-5.3826e-13
3.93176e-13
3.78835e-13
6.65873e-13
6.08553e-13
9.24656e-13
-2.55417e-14
6.52011e-13
-1.75297e-14
3.77555e-13
5.13377e-15
6.7557e-13
-3.77688e-13
9.32343e-13
-5.50677e-13
6.73341e-13
-5.72577e-13
4.35826e-13
3.43405e-13
4.66362e-13
5.97948e-13
7.42271e-13
1.90066e-13
5.33773e-13
-5.24712e-13
-4.68282e-13
-1.30237e-12
-1.44797e-12
-9.85881e-13
-1.87282e-12
-7.29168e-14
-1.62924e-12
7.11362e-13
-9.42251e-13
9.14334e-13
-2.92992e-13
7.09251e-13
7.64139e-14
4.34052e-13
-4.62188e-13
3.78159e-13
9.86323e-13
9.60408e-13
9.43326e-13
9.49428e-13
5.72468e-13
2.20061e-14
-5.50932e-13
-2.0695e-13
3.91623e-13
5.82133e-13
5.78092e-14
-1.24464e-12
-2.23111e-12
-2.30483e-12
-1.59424e-12
-6.80488e-13
2.84074e-14
4.62188e-13
)
;

boundaryField
{
    floor
    {
        type            calculated;
        value           uniform 0;
    }
    ceiling
    {
        type            calculated;
        value           nonuniform List<scalar> 
20
(
0
0
0
0
0
0
0
0
0
0
0
0
0
1.00974e-28
-2.01948e-28
0
0
0
0
0
)
;
    }
    fixedWalls
    {
        type            calculated;
        value           uniform 0;
    }
    frontAndBack
    {
        type            empty;
        value           nonuniform 0();
    }
}


// ************************************************************************* //
