# vtk DataFile Version 2.0
RBConvection
ASCII
DATASET UNSTRUCTURED_GRID
POINTS 3362 float
0 0 0 0.025 0 0 0.05 0 0 0.075 0
0 0.1 0 0 0.125 0 0 0.15 0 0
0.175 0 0 0.2 0 0 0.225 0 0 0.25
0 0 0.275 0 0 0.3 0 0 0.325 0
0 0.35 0 0 0.375 0 0 0.4 0 0
0.425 0 0 0.45 0 0 0.475 0 0 0.5
0 0 0.525 0 0 0.55 0 0 0.575 0
0 0.6 0 0 0.625 0 0 0.65 0 0
0.675 0 0 0.7 0 0 0.725 0 0 0.75
0 0 0.775 0 0 0.8 0 0 0.825 0
0 0.85 0 0 0.875 0 0 0.9 0 0
0.925 0 0 0.95 0 0 0.975 0 0 1
0 0 0 0.01 0 0.025 0.01 0 0.05 0.01
0 0.075 0.01 0 0.1 0.01 0 0.125 0.01 0
0.15 0.01 0 0.175 0.01 0 0.2 0.01 0 0.225
0.01 0 0.25 0.01 0 0.275 0.01 0 0.3 0.01
0 0.325 0.01 0 0.35 0.01 0 0.375 0.01 0
0.4 0.01 0 0.425 0.01 0 0.45 0.01 0 0.475
0.01 0 0.5 0.01 0 0.525 0.01 0 0.55 0.01
0 0.575 0.01 0 0.6 0.01 0 0.625 0.01 0
0.65 0.01 0 0.675 0.01 0 0.7 0.01 0 0.725
0.01 0 0.75 0.01 0 0.775 0.01 0 0.8 0.01
0 0.825 0.01 0 0.85 0.01 0 0.875 0.01 0
0.9 0.01 0 0.925 0.01 0 0.95 0.01 0 0.975
0.01 0 1 0.01 0 0 0.02 0 0.025 0.02
0 0.05 0.02 0 0.075 0.02 0 0.1 0.02 0
0.125 0.02 0 0.15 0.02 0 0.175 0.02 0 0.2
0.02 0 0.225 0.02 0 0.25 0.02 0 0.275 0.02
0 0.3 0.02 0 0.325 0.02 0 0.35 0.02 0
0.375 0.02 0 0.4 0.02 0 0.425 0.02 0 0.45
0.02 0 0.475 0.02 0 0.5 0.02 0 0.525 0.02
0 0.55 0.02 0 0.575 0.02 0 0.6 0.02 0
0.625 0.02 0 0.65 0.02 0 0.675 0.02 0 0.7
0.02 0 0.725 0.02 0 0.75 0.02 0 0.775 0.02
0 0.8 0.02 0 0.825 0.02 0 0.85 0.02 0
0.875 0.02 0 0.9 0.02 0 0.925 0.02 0 0.95
0.02 0 0.975 0.02 0 1 0.02 0 0 0.03
0 0.025 0.03 0 0.05 0.03 0 0.075 0.03 0
0.1 0.03 0 0.125 0.03 0 0.15 0.03 0 0.175
0.03 0 0.2 0.03 0 0.225 0.03 0 0.25 0.03
0 0.275 0.03 0 0.3 0.03 0 0.325 0.03 0
0.35 0.03 0 0.375 0.03 0 0.4 0.03 0 0.425
0.03 0 0.45 0.03 0 0.475 0.03 0 0.5 0.03
0 0.525 0.03 0 0.55 0.03 0 0.575 0.03 0
0.6 0.03 0 0.625 0.03 0 0.65 0.03 0 0.675
0.03 0 0.7 0.03 0 0.725 0.03 0 0.75 0.03
0 0.775 0.03 0 0.8 0.03 0 0.825 0.03 0
0.85 0.03 0 0.875 0.03 0 0.9 0.03 0 0.925
0.03 0 0.95 0.03 0 0.975 0.03 0 1 0.03
0 0 0.04 0 0.025 0.04 0 0.05 0.04 0
0.075 0.04 0 0.1 0.04 0 0.125 0.04 0 0.15
0.04 0 0.175 0.04 0 0.2 0.04 0 0.225 0.04
0 0.25 0.04 0 0.275 0.04 0 0.3 0.04 0
0.325 0.04 0 0.35 0.04 0 0.375 0.04 0 0.4
0.04 0 0.425 0.04 0 0.45 0.04 0 0.475 0.04
0 0.5 0.04 0 0.525 0.04 0 0.55 0.04 0
0.575 0.04 0 0.6 0.04 0 0.625 0.04 0 0.65
0.04 0 0.675 0.04 0 0.7 0.04 0 0.725 0.04
0 0.75 0.04 0 0.775 0.04 0 0.8 0.04 0
0.825 0.04 0 0.85 0.04 0 0.875 0.04 0 0.9
0.04 0 0.925 0.04 0 0.95 0.04 0 0.975 0.04
0 1 0.04 0 0 0.05 0 0.025 0.05 0
0.05 0.05 0 0.075 0.05 0 0.1 0.05 0 0.125
0.05 0 0.15 0.05 0 0.175 0.05 0 0.2 0.05
0 0.225 0.05 0 0.25 0.05 0 0.275 0.05 0
0.3 0.05 0 0.325 0.05 0 0.35 0.05 0 0.375
0.05 0 0.4 0.05 0 0.425 0.05 0 0.45 0.05
0 0.475 0.05 0 0.5 0.05 0 0.525 0.05 0
0.55 0.05 0 0.575 0.05 0 0.6 0.05 0 0.625
0.05 0 0.65 0.05 0 0.675 0.05 0 0.7 0.05
0 0.725 0.05 0 0.75 0.05 0 0.775 0.05 0
0.8 0.05 0 0.825 0.05 0 0.85 0.05 0 0.875
0.05 0 0.9 0.05 0 0.925 0.05 0 0.95 0.05
0 0.975 0.05 0 1 0.05 0 0 0.06 0
0.025 0.06 0 0.05 0.06 0 0.075 0.06 0 0.1
0.06 0 0.125 0.06 0 0.15 0.06 0 0.175 0.06
0 0.2 0.06 0 0.225 0.06 0 0.25 0.06 0
0.275 0.06 0 0.3 0.06 0 0.325 0.06 0 0.35
0.06 0 0.375 0.06 0 0.4 0.06 0 0.425 0.06
0 0.45 0.06 0 0.475 0.06 0 0.5 0.06 0
0.525 0.06 0 0.55 0.06 0 0.575 0.06 0 0.6
0.06 0 0.625 0.06 0 0.65 0.06 0 0.675 0.06
0 0.7 0.06 0 0.725 0.06 0 0.75 0.06 0
0.775 0.06 0 0.8 0.06 0 0.825 0.06 0 0.85
0.06 0 0.875 0.06 0 0.9 0.06 0 0.925 0.06
0 0.95 0.06 0 0.975 0.06 0 1 0.06 0
0 0.07 0 0.025 0.07 0 0.05 0.07 0 0.075
0.07 0 0.1 0.07 0 0.125 0.07 0 0.15 0.07
0 0.175 0.07 0 0.2 0.07 0 0.225 0.07 0
0.25 0.07 0 0.275 0.07 0 0.3 0.07 0 0.325
0.07 0 0.35 0.07 0 0.375 0.07 0 0.4 0.07
0 0.425 0.07 0 0.45 0.07 0 0.475 0.07 0
0.5 0.07 0 0.525 0.07 0 0.55 0.07 0 0.575
0.07 0 0.6 0.07 0 0.625 0.07 0 0.65 0.07
0 0.675 0.07 0 0.7 0.07 0 0.725 0.07 0
0.75 0.07 0 0.775 0.07 0 0.8 0.07 0 0.825
0.07 0 0.85 0.07 0 0.875 0.07 0 0.9 0.07
0 0.925 0.07 0 0.95 0.07 0 0.975 0.07 0
1 0.07 0 0 0.08 0 0.025 0.08 0 0.05
0.08 0 0.075 0.08 0 0.1 0.08 0 0.125 0.08
0 0.15 0.08 0 0.175 0.08 0 0.2 0.08 0
0.225 0.08 0 0.25 0.08 0 0.275 0.08 0 0.3
0.08 0 0.325 0.08 0 0.35 0.08 0 0.375 0.08
0 0.4 0.08 0 0.425 0.08 0 0.45 0.08 0
0.475 0.08 0 0.5 0.08 0 0.525 0.08 0 0.55
0.08 0 0.575 0.08 0 0.6 0.08 0 0.625 0.08
0 0.65 0.08 0 0.675 0.08 0 0.7 0.08 0
0.725 0.08 0 0.75 0.08 0 0.775 0.08 0 0.8
0.08 0 0.825 0.08 0 0.85 0.08 0 0.875 0.08
0 0.9 0.08 0 0.925 0.08 0 0.95 0.08 0
0.975 0.08 0 1 0.08 0 0 0.09 0 0.025
0.09 0 0.05 0.09 0 0.075 0.09 0 0.1 0.09
0 0.125 0.09 0 0.15 0.09 0 0.175 0.09 0
0.2 0.09 0 0.225 0.09 0 0.25 0.09 0 0.275
0.09 0 0.3 0.09 0 0.325 0.09 0 0.35 0.09
0 0.375 0.09 0 0.4 0.09 0 0.425 0.09 0
0.45 0.09 0 0.475 0.09 0 0.5 0.09 0 0.525
0.09 0 0.55 0.09 0 0.575 0.09 0 0.6 0.09
0 0.625 0.09 0 0.65 0.09 0 0.675 0.09 0
0.7 0.09 0 0.725 0.09 0 0.75 0.09 0 0.775
0.09 0 0.8 0.09 0 0.825 0.09 0 0.85 0.09
0 0.875 0.09 0 0.9 0.09 0 0.925 0.09 0
0.95 0.09 0 0.975 0.09 0 1 0.09 0 0
0.1 0 0.025 0.1 0 0.05 0.1 0 0.075 0.1
0 0.1 0.1 0 0.125 0.1 0 0.15 0.1 0
0.175 0.1 0 0.2 0.1 0 0.225 0.1 0 0.25
0.1 0 0.275 0.1 0 0.3 0.1 0 0.325 0.1
0 0.35 0.1 0 0.375 0.1 0 0.4 0.1 0
0.425 0.1 0 0.45 0.1 0 0.475 0.1 0 0.5
0.1 0 0.525 0.1 0 0.55 0.1 0 0.575 0.1
0 0.6 0.1 0 0.625 0.1 0 0.65 0.1 0
0.675 0.1 0 0.7 0.1 0 0.725 0.1 0 0.75
0.1 0 0.775 0.1 0 0.8 0.1 0 0.825 0.1
0 0.85 0.1 0 0.875 0.1 0 0.9 0.1 0
0.925 0.1 0 0.95 0.1 0 0.975 0.1 0 1
0.1 0 0 0.11 0 0.025 0.11 0 0.05 0.11
0 0.075 0.11 0 0.1 0.11 0 0.125 0.11 0
0.15 0.11 0 0.175 0.11 0 0.2 0.11 0 0.225
0.11 0 0.25 0.11 0 0.275 0.11 0 0.3 0.11
0 0.325 0.11 0 0.35 0.11 0 0.375 0.11 0
0.4 0.11 0 0.425 0.11 0 0.45 0.11 0 0.475
0.11 0 0.5 0.11 0 0.525 0.11 0 0.55 0.11
0 0.575 0.11 0 0.6 0.11 0 0.625 0.11 0
0.65 0.11 0 0.675 0.11 0 0.7 0.11 0 0.725
0.11 0 0.75 0.11 0 0.775 0.11 0 0.8 0.11
0 0.825 0.11 0 0.85 0.11 0 0.875 0.11 0
0.9 0.11 0 0.925 0.11 0 0.95 0.11 0 0.975
0.11 0 1 0.11 0 0 0.12 0 0.025 0.12
0 0.05 0.12 0 0.075 0.12 0 0.1 0.12 0
0.125 0.12 0 0.15 0.12 0 0.175 0.12 0 0.2
0.12 0 0.225 0.12 0 0.25 0.12 0 0.275 0.12
0 0.3 0.12 0 0.325 0.12 0 0.35 0.12 0
0.375 0.12 0 0.4 0.12 0 0.425 0.12 0 0.45
0.12 0 0.475 0.12 0 0.5 0.12 0 0.525 0.12
0 0.55 0.12 0 0.575 0.12 0 0.6 0.12 0
0.625 0.12 0 0.65 0.12 0 0.675 0.12 0 0.7
0.12 0 0.725 0.12 0 0.75 0.12 0 0.775 0.12
0 0.8 0.12 0 0.825 0.12 0 0.85 0.12 0
0.875 0.12 0 0.9 0.12 0 0.925 0.12 0 0.95
0.12 0 0.975 0.12 0 1 0.12 0 0 0.13
0 0.025 0.13 0 0.05 0.13 0 0.075 0.13 0
0.1 0.13 0 0.125 0.13 0 0.15 0.13 0 0.175
0.13 0 0.2 0.13 0 0.225 0.13 0 0.25 0.13
0 0.275 0.13 0 0.3 0.13 0 0.325 0.13 0
0.35 0.13 0 0.375 0.13 0 0.4 0.13 0 0.425
0.13 0 0.45 0.13 0 0.475 0.13 0 0.5 0.13
0 0.525 0.13 0 0.55 0.13 0 0.575 0.13 0
0.6 0.13 0 0.625 0.13 0 0.65 0.13 0 0.675
0.13 0 0.7 0.13 0 0.725 0.13 0 0.75 0.13
0 0.775 0.13 0 0.8 0.13 0 0.825 0.13 0
0.85 0.13 0 0.875 0.13 0 0.9 0.13 0 0.925
0.13 0 0.95 0.13 0 0.975 0.13 0 1 0.13
0 0 0.14 0 0.025 0.14 0 0.05 0.14 0
0.075 0.14 0 0.1 0.14 0 0.125 0.14 0 0.15
0.14 0 0.175 0.14 0 0.2 0.14 0 0.225 0.14
0 0.25 0.14 0 0.275 0.14 0 0.3 0.14 0
0.325 0.14 0 0.35 0.14 0 0.375 0.14 0 0.4
0.14 0 0.425 0.14 0 0.45 0.14 0 0.475 0.14
0 0.5 0.14 0 0.525 0.14 0 0.55 0.14 0
0.575 0.14 0 0.6 0.14 0 0.625 0.14 0 0.65
0.14 0 0.675 0.14 0 0.7 0.14 0 0.725 0.14
0 0.75 0.14 0 0.775 0.14 0 0.8 0.14 0
0.825 0.14 0 0.85 0.14 0 0.875 0.14 0 0.9
0.14 0 0.925 0.14 0 0.95 0.14 0 0.975 0.14
0 1 0.14 0 0 0.15 0 0.025 0.15 0
0.05 0.15 0 0.075 0.15 0 0.1 0.15 0 0.125
0.15 0 0.15 0.15 0 0.175 0.15 0 0.2 0.15
0 0.225 0.15 0 0.25 0.15 0 0.275 0.15 0
0.3 0.15 0 0.325 0.15 0 0.35 0.15 0 0.375
0.15 0 0.4 0.15 0 0.425 0.15 0 0.45 0.15
0 0.475 0.15 0 0.5 0.15 0 0.525 0.15 0
0.55 0.15 0 0.575 0.15 0 0.6 0.15 0 0.625
0.15 0 0.65 0.15 0 0.675 0.15 0 0.7 0.15
0 0.725 0.15 0 0.75 0.15 0 0.775 0.15 0
0.8 0.15 0 0.825 0.15 0 0.85 0.15 0 0.875
0.15 0 0.9 0.15 0 0.925 0.15 0 0.95 0.15
0 0.975 0.15 0 1 0.15 0 0 0.16 0
0.025 0.16 0 0.05 0.16 0 0.075 0.16 0 0.1
0.16 0 0.125 0.16 0 0.15 0.16 0 0.175 0.16
0 0.2 0.16 0 0.225 0.16 0 0.25 0.16 0
0.275 0.16 0 0.3 0.16 0 0.325 0.16 0 0.35
0.16 0 0.375 0.16 0 0.4 0.16 0 0.425 0.16
0 0.45 0.16 0 0.475 0.16 0 0.5 0.16 0
0.525 0.16 0 0.55 0.16 0 0.575 0.16 0 0.6
0.16 0 0.625 0.16 0 0.65 0.16 0 0.675 0.16
0 0.7 0.16 0 0.725 0.16 0 0.75 0.16 0
0.775 0.16 0 0.8 0.16 0 0.825 0.16 0 0.85
0.16 0 0.875 0.16 0 0.9 0.16 0 0.925 0.16
0 0.95 0.16 0 0.975 0.16 0 1 0.16 0
0 0.17 0 0.025 0.17 0 0.05 0.17 0 0.075
0.17 0 0.1 0.17 0 0.125 0.17 0 0.15 0.17
0 0.175 0.17 0 0.2 0.17 0 0.225 0.17 0
0.25 0.17 0 0.275 0.17 0 0.3 0.17 0 0.325
0.17 0 0.35 0.17 0 0.375 0.17 0 0.4 0.17
0 0.425 0.17 0 0.45 0.17 0 0.475 0.17 0
0.5 0.17 0 0.525 0.17 0 0.55 0.17 0 0.575
0.17 0 0.6 0.17 0 0.625 0.17 0 0.65 0.17
0 0.675 0.17 0 0.7 0.17 0 0.725 0.17 0
0.75 0.17 0 0.775 0.17 0 0.8 0.17 0 0.825
0.17 0 0.85 0.17 0 0.875 0.17 0 0.9 0.17
0 0.925 0.17 0 0.95 0.17 0 0.975 0.17 0
1 0.17 0 0 0.18 0 0.025 0.18 0 0.05
0.18 0 0.075 0.18 0 0.1 0.18 0 0.125 0.18
0 0.15 0.18 0 0.175 0.18 0 0.2 0.18 0
0.225 0.18 0 0.25 0.18 0 0.275 0.18 0 0.3
0.18 0 0.325 0.18 0 0.35 0.18 0 0.375 0.18
0 0.4 0.18 0 0.425 0.18 0 0.45 0.18 0
0.475 0.18 0 0.5 0.18 0 0.525 0.18 0 0.55
0.18 0 0.575 0.18 0 0.6 0.18 0 0.625 0.18
0 0.65 0.18 0 0.675 0.18 0 0.7 0.18 0
0.725 0.18 0 0.75 0.18 0 0.775 0.18 0 0.8
0.18 0 0.825 0.18 0 0.85 0.18 0 0.875 0.18
0 0.9 0.18 0 0.925 0.18 0 0.95 0.18 0
0.975 0.18 0 1 0.18 0 0 0.19 0 0.025
0.19 0 0.05 0.19 0 0.075 0.19 0 0.1 0.19
0 0.125 0.19 0 0.15 0.19 0 0.175 0.19 0
0.2 0.19 0 0.225 0.19 0 0.25 0.19 0 0.275
0.19 0 0.3 0.19 0 0.325 0.19 0 0.35 0.19
0 0.375 0.19 0 0.4 0.19 0 0.425 0.19 0
0.45 0.19 0 0.475 0.19 0 0.5 0.19 0 0.525
0.19 0 0.55 0.19 0 0.575 0.19 0 0.6 0.19
0 0.625 0.19 0 0.65 0.19 0 0.675 0.19 0
0.7 0.19 0 0.725 0.19 0 0.75 0.19 0 0.775
0.19 0 0.8 0.19 0 0.825 0.19 0 0.85 0.19
0 0.875 0.19 0 0.9 0.19 0 0.925 0.19 0
0.95 0.19 0 0.975 0.19 0 1 0.19 0 0
0.2 0 0.025 0.2 0 0.05 0.2 0 0.075 0.2
0 0.1 0.2 0 0.125 0.2 0 0.15 0.2 0
0.175 0.2 0 0.2 0.2 0 0.225 0.2 0 0.25
[...]
CELL_DATA 1600
FIELD attributes 6
cellID 1 1600 int
0 1 2 3 4 5 6 7 8 9 10
11 12 13 14 15 16 17 18 19 20
21 22 23 24 25 26 27 28 29 30
31 32 33 34 35 36 37 38 39 40
41 42 43 44 45 46 47 48 49 50
51 52 53 54 55 56 57 58 59 60
61 62 63 64 65 66 67 68 69 70
71 72 73 74 75 76 77 78 79 80
81 82 83 84 85 86 87 88 89 90
91 92 93 94 95 96 97 98 99 100
101 102 103 104 105 106 107 108 109 110
111 112 113 114 115 116 117 118 119 120
121 122 123 124 125 126 127 128 129 130
131 132 133 134 135 136 137 138 139 140
141 142 143 144 145 146 147 148 149 150
151 152 153 154 155 156 157 158 159 160
161 162 163 164 165 166 167 168 169 170
171 172 173 174 175 176 177 178 179 180
181 182 183 184 185 186 187 188 189 190
191 192 193 194 195 196 197 198 199 200
201 202 203 204 205 206 207 208 209 210
211 212 213 214 215 216 217 218 219 220
221 222 223 224 225 226 227 228 229 230
231 232 233 234 235 236 237 238 239 240
241 242 243 244 245 246 247 248 249 250
251 252 253 254 255 256 257 258 259 260
261 262 263 264 265 266 267 268 269 270
271 272 273 274 275 276 277 278 279 280
281 282 283 284 285 286 287 288 289 290
291 292 293 294 295 296 297 298 299 300
301 302 303 304 305 306 307 308 309 310
311 312 313 314 315 316 317 318 319 320
321 322 323 324 325 326 327 328 329 330
331 332 333 334 335 336 337 338 339 340
341 342 343 344 345 346 347 348 349 350
351 352 353 354 355 356 357 358 359 360
361 362 363 364 365 366 367 368 369 370
371 372 373 374 375 376 377 378 379 380
381 382 383 384 385 386 387 388 389 390
391 392 393 394 395 396 397 398 399 400
401 402 403 404 405 406 407 408 409 410
411 412 413 414 415 416 417 418 419 420
421 422 423 424 425 426 427 428 429 430
431 432 433 434 435 436 437 438 439 440
441 442 443 444 445 446 447 448 449 450
451 452 453 454 455 456 457 458 459 460
461 462 463 464 465 466 467 468 469 470
471 472 473 474 475 476 477 478 479 480
481 482 483 484 485 486 487 488 489 490
491 492 493 494 495 496 497 498 499 500
501 502 503 504 505 506 507 508 509 510
511 512 513 514 515 516 517 518 519 520
521 522 523 524 525 526 527 528 529 530
531 532 533 534 535 536 537 538 539 540
541 542 543 544 545 546 547 548 549 550
551 552 553 554 555 556 557 558 559 560
561 562 563 564 565 566 567 568 569 570
571 572 573 574 575 576 577 578 579 580
581 582 583 584 585 586 587 588 589 590
591 592 593 594 595 596 597 598 599 600
601 602 603 604 605 606 607 608 609 610
611 612 613 614 615 616 617 618 619 620
621 622 623 624 625 626 627 628 629 630
631 632 633 634 635 636 637 638 639 640
641 642 643 644 645 646 647 648 649 650
651 652 653 654 655 656 657 658 659 660
661 662 663 664 665 666 667 668 669 670
671 672 673 674 675 676 677 678 679 680
681 682 683 684 685 686 687 688 689 690
691 692 693 694 695 696 697 698 699 700
701 702 703 704 705 706 707 708 709 710
711 712 713 714 715 716 717 718 719 720
721 722 723 724 725 726 727 728 729 730
731 732 733 734 735 736 737 738 739 740
741 742 743 744 745 746 747 748 749 750
751 752 753 754 755 756 757 758 759 760
761 762 763 764 765 766 767 768 769 770
771 772 773 774 775 776 777 778 779 780
781 782 783 784 785 786 787 788 789 790
791 792 793 794 795 796 797 798 799 800
801 802 803 804 805 806 807 808 809 810
811 812 813 814 815 816 817 818 819 820
821 822 823 824 825 826 827 828 829 830
831 832 833 834 835 836 837 838 839 840
841 842 843 844 845 846 847 848 849 850
851 852 853 854 855 856 857 858 859 860
861 862 863 864 865 866 867 868 869 870
871 872 873 874 875 876 877 878 879 880
881 882 883 884 885 886 887 888 889 890
891 892 893 894 895 896 897 898 899 900
901 902 903 904 905 906 907 908 909 910
911 912 913 914 915 916 917 918 919 920
921 922 923 924 925 926 927 928 929 930
931 932 933 934 935 936 937 938 939 940
941 942 943 944 945 946 947 948 949 950
951 952 953 954 955 956 957 958 959 960
961 962 963 964 965 966 967 968 969 970
971 972 973 974 975 976 977 978 979 980
981 982 983 984 985 986 987 988 989 990
991 992 993 994 995 996 997 998 999 1000
1001 1002 1003 1004 1005 1006 1007 1008 1009 1010
1011 1012 1013 1014 1015 1016 1017 1018 1019 1020
1021 1022 1023 1024 1025 1026 1027 1028 1029 1030
1031 1032 1033 1034 1035 1036 1037 1038 1039 1040
1041 1042 1043 1044 1045 1046 1047 1048 1049 1050
1051 1052 1053 1054 1055 1056 1057 1058 1059 1060
1061 1062 1063 1064 1065 1066 1067 1068 1069 1070
1071 1072 1073 1074 1075 1076 1077 1078 1079 1080
1081 1082 1083 1084 1085 1086 1087 1088 1089 1090
1091 1092 1093 1094 1095 1096 1097 1098 1099 1100
1101 1102 1103 1104 1105 1106 1107 1108 1109 1110
1111 1112 1113 1114 1115 1116 1117 1118 1119 1120
1121 1122 1123 1124 1125 1126 1127 1128 1129 1130
1131 1132 1133 1134 1135 1136 1137 1138 1139 1140
1141 1142 1143 1144 1145 1146 1147 1148 1149 1150
1151 1152 1153 1154 1155 1156 1157 1158 1159 1160
1161 1162 1163 1164 1165 1166 1167 1168 1169 1170
1171 1172 1173 1174 1175 1176 1177 1178 1179 1180
1181 1182 1183 1184 1185 1186 1187 1188 1189 1190
1191 1192 1193 1194 1195 1196 1197 1198 1199 1200
1201 1202 1203 1204 1205 1206 1207 1208 1209 1210
1211 1212 1213 1214 1215 1216 1217 1218 1219 1220
1221 1222 1223 1224 1225 1226 1227 1228 1229 1230
1231 1232 1233 1234 1235 1236 1237 1238 1239 1240
1241 1242 1243 1244 1245 1246 1247 1248 1249 1250
1251 1252 1253 1254 1255 1256 1257 1258 1259 1260
1261 1262 1263 1264 1265 1266 1267 1268 1269 1270
1271 1272 1273 1274 1275 1276 1277 1278 1279 1280
1281 1282 1283 1284 1285 1286 1287 1288 1289 1290
1291 1292 1293 1294 1295 1296 1297 1298 1299 1300
1301 1302 1303 1304 1305 1306 1307 1308 1309 1310
1311 1312 1313 1314 1315 1316 1317 1318 1319 1320
1321 1322 1323 1324 1325 1326 1327 1328 1329 1330
1331 1332 1333 1334 1335 1336 1337 1338 1339 1340
1341 1342 1343 1344 1345 1346 1347 1348 1349 1350
1351 1352 1353 1354 1355 1356 1357 1358 1359 1360
1361 1362 1363 1364 1365 1366 1367 1368 1369 1370
1371 1372 1373 1374 1375 1376 1377 1378 1379 1380
1381 1382 1383 1384 1385 1386 1387 1388 1389 1390
1391 1392 1393 1394 1395 1396 1397 1398 1399 1400
1401 1402 1403 1404 1405 1406 1407 1408 1409 1410
1411 1412 1413 1414 1415 1416 1417 1418 1419 1420
1421 1422 1423 1424 1425 1426 1427 1428 1429 1430
1431 1432 1433 1434 1435 1436 1437 1438 1439 1440
1441 1442 1443 1444 1445 1446 1447 1448 1449 1450
1451 1452 1453 1454 1455 1456 1457 1458 1459 1460
1461 1462 1463 1464 1465 1466 1467 1468 1469 1470
1471 1472 1473 1474 1475 1476 1477 1478 1479 1480
1481 1482 1483 1484 1485 1486 1487 1488 1489 1490
1491 1492 1493 1494 1495 1496 1497 1498 1499 1500
1501 1502 1503 1504 1505 1506 1507 1508 1509 1510
1511 1512 1513 1514 1515 1516 1517 1518 1519 1520
1521 1522 1523 1524 1525 1526 1527 1528 1529 1530
1531 1532 1533 1534 1535 1536 1537 1538 1539 1540
1541 1542 1543 1544 1545 1546 1547 1548 1549 1550
1551 1552 1553 1554 1555 1556 1557 1558 1559 1560
1561 1562 1563 1564 1565 1566 1567 1568 1569 1570
1571 1572 1573 1574 1575 1576 1577 1578 1579 1580
1581 1582 1583 1584 1585 1586 1587 1588 1589 1590
1591 1592 1593 1594 1595 1596 1597 1598 1599 
T 1 1600 float
287.745 287.452 287.075 286.625 286.295 285.908 285.423 284.942 284.481 284.046 283.636
283.248 282.875 282.574 282.337 282.142 281.973 281.851 282.186 282.625 283.272
283.724 284.357 285.136 284.494 283.404 283.058 282.809 282.868 283.885 284.639
283.022 284.196 284.98 282.71 283.627 282.527 281.95 281.566 282.482 285.752
284.162 283.197 282.32 282.133 282.166 282.069 281.844 281.602 281.397 281.254
281.186 281.199 281.226 281.253 281.278 281.299 281.318 281.27 281.254 281.276
281.28 281.444 283.266 283.749 281.721 281.262 281.228 281.211 281.218 281.227
281.255 283.425 284.073 281.634 282.98 281.823 281.218 281.156 281.89 284.718
282.847 282.048 281.438 281.311 281.338 281.321 281.254 281.192 281.164 281.17
281.2 281.239 281.274 281.302 281.323 281.336 281.344 281.312 281.256 281.206
281.174 281.228 282.59 283.443 281.757 281.312 281.271 281.202 281.178 281.185
281.3 283.399 282.932 281.625 282.6 281.911 281.291 281.178 281.707 284.065
282.158 281.55 281.175 281.11 281.126 281.134 281.131 281.139 281.165 281.203
281.246 281.287 281.32 281.344 281.357 281.36 281.36 281.358 281.303 281.247
281.203 281.202 282.248 283.204 282.175 281.614 281.412 281.25 281.185 281.187
281.376 283.211 282.003 281.415 282.185 282.018 281.4 281.2 281.626 283.608
281.747 281.295 281.077 281.05 281.068 281.091 281.116 281.151 281.194 281.243
281.29 281.331 281.363 281.381 281.385 281.378 281.371 281.387 281.345 281.29
281.238 281.204 282.048 283.008 282.466 282.094 281.666 281.339 281.206 281.179
281.305 282.519 281.441 281.261 281.83 281.984 281.592 281.224 281.586 283.269
281.488 281.158 281.035 281.031 281.056 281.089 281.129 281.176 281.229 281.283
281.333 281.376 281.405 281.417 281.411 281.393 281.38 281.399 281.374 281.329
281.273 281.22 281.925 282.846 282.629 282.347 281.942 281.481 281.246 281.179
281.191 281.625 281.232 281.214 281.577 281.899 281.635 281.241 281.567 283.005
281.323 281.082 281.016 281.027 281.059 281.101 281.15 281.205 281.265 281.324
281.379 281.423 281.449 281.454 281.438 281.407 281.386 281.404 281.394 281.36
281.305 281.241 281.845 282.712 282.693 282.45 282.039 281.572 281.293 281.191
281.168 281.205 281.175 281.207 281.422 281.814 281.615 281.24 281.562 282.793
281.216 281.04 281.008 281.03 281.069 281.118 281.174 281.237 281.303 281.368
281.428 281.472 281.494 281.491 281.464 281.422 281.391 281.405 281.406 281.383
281.333 281.264 281.778 282.592 282.678 282.444 282.011 281.577 281.307 281.196
281.166 281.164 281.166 281.208 281.342 281.747 281.576 281.228 281.573 282.62
281.146 281.015 281.005 281.035 281.081 281.136 281.2 281.27 281.343 281.415
281.479 281.523 281.541 281.53 281.492 281.437 281.396 281.405 281.411 281.398
281.358 281.287 281.691 282.465 282.59 282.346 281.913 281.523 281.288 281.189
281.16 281.157 281.16 281.208 281.312 281.703 281.53 281.215 281.601 282.474
281.099 281.001 281.005 281.043 281.095 281.156 281.227 281.304 281.386 281.464
281.531 281.573 281.586 281.567 281.52 281.452 281.401 281.406 281.414 281.407
281.377 281.31 281.569 282.308 282.429 282.173 281.767 281.437 281.25 281.174
281.152 281.149 281.153 281.208 281.31 281.68 281.481 281.205 281.645 282.35
281.067 280.993 281.007 281.051 281.108 281.177 281.255 281.34 281.429 281.514
281.582 281.62 281.628 281.604 281.547 281.468 281.407 281.407 281.414 281.413
281.392 281.332 281.44 282.105 282.202 281.95 281.6 281.341 281.207 281.155
281.141 281.141 281.147 281.21 281.323 281.672 281.431 281.203 281.694 282.243
281.044 280.988 281.01 281.059 281.123 281.197 281.283 281.376 281.473 281.561
281.629 281.662 281.665 281.637 281.574 281.484 281.413 281.407 281.414 281.416
281.402 281.352 281.351 281.865 281.933 281.713 281.442 281.256 281.17 281.138
281.131 281.133 281.141 281.213 281.345 281.673 281.387 281.207 281.723 282.151
281.028 280.985 281.014 281.068 281.136 281.218 281.311 281.412 281.515 281.605
281.668 281.695 281.695 281.666 281.599 281.5 281.42 281.408 281.413 281.418
281.409 281.37 281.315 281.629 281.672 281.504 281.316 281.197 281.144 281.126
281.123 281.126 281.136 281.219 281.373 281.673 281.357 281.204 281.725 282.07
281.017 280.983 281.017 281.076 281.15 281.238 281.338 281.447 281.554 281.644
281.698 281.718 281.717 281.69 281.622 281.515 281.426 281.409 281.413 281.42
281.415 281.385 281.316 281.45 281.466 281.352 281.234 281.162 281.13 281.118
281.116 281.12 281.132 281.229 281.409 281.672 281.335 281.191 281.694 281.999
281.008 280.982 281.02 281.083 281.162 281.256 281.363 281.478 281.588 281.674
281.715 281.729 281.731 281.708 281.641 281.53 281.433 281.41 281.412 281.422
281.42 281.398 281.333 281.35 281.338 281.263 281.191 281.146 281.123 281.113
281.111 281.115 281.129 281.245 281.451 281.674 281.322 281.173 281.632 281.937
281.002 280.982 281.023 281.09 281.174 281.273 281.386 281.505 281.615 281.693
281.718 281.73 281.737 281.721 281.658 281.543 281.44 281.411 281.412 281.424
281.425 281.406 281.352 281.313 281.279 281.224 281.176 281.142 281.121 281.111
281.107 281.111 281.128 281.274 281.504 281.68 281.32 281.156 281.55 281.882
280.997 280.982 281.026 281.095 281.183 281.288 281.405 281.527 281.634 281.698
281.708 281.721 281.737 281.729 281.671 281.555 281.447 281.413 281.411 281.425
281.43 281.413 281.368 281.312 281.264 281.216 281.175 281.144 281.122 281.109
281.105 281.109 281.129 281.313 281.566 281.692 281.325 281.144 281.464 281.834
280.994 280.982 281.028 281.1 281.191 281.299 281.421 281.544 281.645 281.69
281.688 281.706 281.731 281.731 281.68 281.566 281.454 281.414 281.41 281.427
281.435 281.42 281.381 281.323 281.27 281.222 281.181 281.148 281.124 281.109
281.103 281.107 281.134 281.356 281.632 281.713 281.336 281.139 281.389 281.791
280.991 280.982 281.029 281.102 281.196 281.307 281.431 281.555 281.651 281.668
281.663 281.688 281.721 281.731 281.686 281.574 281.46 281.415 281.41 281.428
281.439 281.427 281.391 281.337 281.282 281.232 281.188 281.153 281.126 281.109
281.103 281.107 281.143 281.403 281.693 281.744 281.347 281.139 281.332 281.754
280.989 280.982 281.029 281.104 281.199 281.312 281.437 281.562 281.653 281.637
281.635 281.668 281.711 281.729 281.69 281.579 281.465 281.416 281.409 281.428
281.442 281.433 281.399 281.349 281.294 281.242 281.196 281.157 281.129 281.111
281.103 281.108 281.158 281.44 281.734 281.785 281.356 281.143 281.293 281.72
280.988 280.981 281.029 281.104 281.199 281.312 281.437 281.561 281.649 281.604
281.607 281.648 281.701 281.727 281.692 281.583 281.468 281.416 281.408 281.427
281.443 281.439 281.406 281.358 281.303 281.25 281.202 281.162 281.132 281.113
281.105 281.109 281.178 281.449 281.753 281.83 281.361 281.149 281.268 281.691
280.988 280.981 281.028 281.102 281.196 281.308 281.433 281.561 281.603 281.567
281.579 281.631 281.693 281.726 281.693 281.585 281.469 281.416 281.407 281.426
281.441 281.443 281.411 281.365 281.311 281.257 281.207 281.167 281.136 281.116
281.108 281.112 281.19 281.438 281.748 281.871 281.356 281.153 281.253 281.665
280.988 280.981 281.027 281.098 281.19 281.303 281.427 281.547 281.549 281.528
281.554 281.617 281.687 281.725 281.694 281.584 281.47 281.416 281.405 281.424
281.439 281.441 281.417 281.369 281.315 281.261 281.212 281.171 281.141 281.121
281.112 281.117 281.19 281.411 281.716 281.898 281.337 281.154 281.245 281.642
280.988 280.98 281.024 281.094 281.185 281.295 281.415 281.515 281.5 281.493
281.534 281.608 281.685 281.725 281.693 281.582 281.469 281.414 281.403 281.42
281.434 281.437 281.424 281.373 281.318 281.265 281.216 281.176 281.146 281.127
281.117 281.122 281.184 281.371 281.652 281.887 281.304 281.154 281.243 281.623
280.989 280.98 281.022 281.09 281.18 281.285 281.395 281.467 281.451 281.462
281.52 281.605 281.686 281.727 281.692 281.579 281.467 281.413 281.4 281.416
281.428 281.431 281.418 281.376 281.323 281.267 281.22 281.182 281.153 281.134
281.124 281.128 281.176 281.323 281.561 281.81 281.26 281.153 281.245 281.606
280.991 280.98 281.02 281.087 281.173 281.271 281.367 281.411 281.407 281.44
281.514 281.608 281.692 281.73 281.69 281.573 281.463 281.411 281.397 281.41
281.421 281.422 281.41 281.375 281.324 281.271 281.225 281.187 281.16 281.142
281.131 281.133 281.168 281.277 281.454 281.659 281.216 281.154 281.249 281.592
280.993 280.981 281.02 281.083 281.164 281.252 281.331 281.358 281.372 281.429
281.518 281.618 281.701 281.733 281.686 281.565 281.459 281.408 281.393 281.404
281.413 281.413 281.401 281.371 281.324 281.275 281.231 281.196 281.17 281.151
281.14 281.14 281.164 281.239 281.353 281.467 281.182 281.157 281.254 281.582
280.995 280.983 281.02 281.08 281.154 281.231 281.291 281.313 281.353 281.431
281.532 281.634 281.713 281.737 281.681 281.555 281.453 281.405 281.39 281.397
281.403 281.402 281.39 281.365 281.323 281.278 281.238 281.205 281.18 281.162
281.15 281.147 281.163 281.212 281.278 281.301 281.165 281.162 281.261 281.575
280.999 280.986 281.022 281.077 281.143 281.208 281.254 281.287 281.352 281.448
281.555 281.656 281.726 281.739 281.672 281.542 281.447 281.402 281.386 281.39
281.394 281.391 281.379 281.356 281.32 281.28 281.244 281.214 281.191 281.173
281.161 281.156 281.165 281.197 281.231 281.204 281.163 281.169 281.269 281.569
281.012 280.991 281.025 281.075 281.133 281.187 281.229 281.284 281.372 281.478
281.587 281.681 281.74 281.738 281.659 281.527 281.44 281.399 281.382 281.383
281.384 281.379 281.368 281.348 281.317 281.282 281.25 281.224 281.202 281.185
281.173 281.166 281.171 281.19 281.205 281.172 281.169 281.176 281.276 281.564
281.035 281.001 281.031 281.076 281.127 281.176 281.226 281.306 281.41 281.521
281.624 281.707 281.751 281.734 281.642 281.509 281.433 281.396 281.378 281.376
281.375 281.368 281.356 281.339 281.313 281.284 281.256 281.233 281.214 281.198
281.185 281.177 281.178 281.188 281.191 281.171 281.18 281.184 281.283 281.56
281.07 281.019 281.043 281.084 281.132 281.183 281.255 281.353 281.463 281.57
281.663 281.731 281.757 281.722 281.619 281.488 281.427 281.394 281.375 281.37
281.366 281.358 281.346 281.33 281.309 281.285 281.261 281.241 281.225 281.21
281.198 281.189 281.186 281.191 281.185 281.181 281.192 281.193 281.289 281.557
281.116 281.05 281.066 281.105 281.155 281.217 281.311 281.419 281.525 281.621
281.698 281.748 281.755 281.702 281.59 281.464 281.421 281.393 281.374 281.364
281.358 281.35 281.338 281.323 281.306 281.286 281.267 281.25 281.236 281.223
281.211 281.202 281.195 281.196 281.189 281.196 281.206 281.203 281.294 281.554
281.174 281.099 281.109 281.148 281.204 281.286 281.39 281.494 281.588 281.666
281.724 281.753 281.741 281.672 281.553 281.439 281.417 281.394 281.374 281.361
281.352 281.343 281.333 281.319 281.304 281.289 281.273 281.26 281.247 281.236
281.225 281.214 281.206 281.203 281.203 281.215 281.221 281.211 281.299 281.553
281.241 281.169 281.177 281.218 281.284 281.378 281.476 281.565 281.639 281.696
281.733 281.743 281.711 281.63 281.509 281.414 281.416 281.396 281.376 281.36
281.348 281.339 281.329 281.318 281.306 281.293 281.281 281.27 281.259 281.249
281.239 281.229 281.22 281.216 281.229 281.239 281.229 281.213 281.307 281.552
281.316 281.258 281.269 281.315 281.389 281.476 281.555 281.621 281.67 281.704
281.72 281.711 281.664 281.574 281.459 281.392 281.419 281.402 281.384 281.367
281.351 281.338 281.328 281.318 281.308 281.298 281.289 281.28 281.272 281.263
281.254 281.245 281.239 281.251 281.266 281.245 281.231 281.235 281.318 281.553
281.394 281.36 281.378 281.426 281.494 281.557 281.609 281.646 281.67 281.682
281.68 281.655 281.598 281.506 281.403 281.376 281.425 281.409 281.396 281.383
281.367 281.351 281.338 281.326 281.318 281.312 281.308 281.307 281.307 281.307
281.305 281.303 281.301 281.3 281.295 281.279 281.269 281.275 281.33 281.556
281.47 281.461 281.486 281.528 281.572 281.604 281.624 281.632 281.631 281.624
281.607 281.573 281.512 281.426 281.346 281.376 281.428 281.417 281.413 281.409
281.404 281.398 281.393 281.391 281.391 281.393 281.396 281.397 281.394 281.389
281.381 281.373 281.364 281.354 281.344 281.333 281.322 281.319 281.343 281.564
281.538 281.547 281.568 281.588 281.596 281.593 281.58 281.563 281.544 281.525
281.501 281.464 281.408 281.335 281.291 281.407 281.429 281.416 281.42 281.428
281.437 281.445 281.452 281.456 281.459 281.46 281.459 281.456 281.452 281.446
281.438 281.429 281.419 281.408 281.397 281.385 281.373 281.362 281.36 281.572
281.567 281.563 281.552 281.532 281.505 281.475 281.445 281.418 281.394 281.371
281.346 281.315 281.275 281.231 281.251 281.323 281.371 281.381 281.38 281.384
281.389 281.394 281.399 281.403 281.407 281.411 281.414 281.417 281.418 281.419
281.419 281.417 281.415 281.411 281.406 281.4 281.393 281.384 281.376 
alphat 1 1600 float
0 0 0 0 0 0 0 0 0 0 0
0 0 0 0 0 0 0 0 0 0
0 0 0 0 0 0 0 0 0 0
0 0 0 0 0 0 0 0 0 0
0 0 0 0 0 0 0 0 0 0
0 0 0 0 0 0 0 0 0 0
0 0 0 0 0 0 0 0 0 0
0 0 0 0 0 0 0 0 0 0
0 0 0 0 0 0 0 0 0 0
0 0 0 0 0 0 0 0 0 0
0 0 0 0 0 0 0 0 0 0
0 0 0 0 0 0 0 0 0 0
0 0 0 0 0 0 0 0 0 0
0 0 0 0 0 0 0 0 0 0
0 0 0 0 0 0 0 0 0 0
0 0 0 0 0 0 0 0 0 0
0 0 0 0 0 0 0 0 0 0
0 0 0 0 0 0 0 0 0 0
0 0 0 0 0 0 0 0 0 0