# vtk DataFile Version 2.0
RBConvection
ASCII
DATASET UNSTRUCTURED_GRID
POINTS 3362 float
0 0 0 0.025 0 0 0.05 0 0 0.075 0
0 0.1 0 0 0.125 0 0 0.15 0 0
0.175 0 0 0.2 0 0 0.225 0 0 0.25
0 0 0.275 0 0 0.3 0 0 0.325 0
0 0.35 0 0 0.375 0 0 0.4 0 0
0.425 0 0 0.45 0 0 0.475 0 0 0.5
0 0 0.525 0 0 0.55 0 0 0.575 0
0 0.6 0 0 0.625 0 0 0.65 0 0
0.675 0 0 0.7 0 0 0.725 0 0 0.75
0 0 0.775 0 0 0.8 0 0 0.825 0
0 0.85 0 0 0.875 0 0 0.9 0 0
0.925 0 0 0.95 0 0 0.975 0 0 1
0 0 0 0.01 0 0.025 0.01 0 0.05 0.01
0 0.075 0.01 0 0.1 0.01 0 0.125 0.01 0
0.15 0.01 0 0.175 0.01 0 0.2 0.01 0 0.225
0.01 0 0.25 0.01 0 0.275 0.01 0 0.3 0.01
0 0.325 0.01 0 0.35 0.01 0 0.375 0.01 0
0.4 0.01 0 0.425 0.01 0 0.45 0.01 0 0.475
0.01 0 0.5 0.01 0 0.525 0.01 0 0.55 0.01
0 0.575 0.01 0 0.6 0.01 0 0.625 0.01 0
0.65 0.01 0 0.675 0.01 0 0.7 0.01 0 0.725
0.01 0 0.75 0.01 0 0.775 0.01 0 0.8 0.01
0 0.825 0.01 0 0.85 0.01 0 0.875 0.01 0
0.9 0.01 0 0.925 0.01 0 0.95 0.01 0 0.975
0.01 0 1 0.01 0 0 0.02 0 0.025 0.02
0 0.05 0.02 0 0.075 0.02 0 0.1 0.02 0
0.125 0.02 0 0.15 0.02 0 0.175 0.02 0 0.2
0.02 0 0.225 0.02 0 0.25 0.02 0 0.275 0.02
0 0.3 0.02 0 0.325 0.02 0 0.35 0.02 0
0.375 0.02 0 0.4 0.02 0 0.425 0.02 0 0.45
0.02 0 0.475 0.02 0 0.5 0.02 0 0.525 0.02
0 0.55 0.02 0 0.575 0.02 0 0.6 0.02 0
0.625 0.02 0 0.65 0.02 0 0.675 0.02 0 0.7
0.02 0 0.725 0.02 0 0.75 0.02 0 0.775 0.02
0 0.8 0.02 0 0.825 0.02 0 0.85 0.02 0
0.875 0.02 0 0.9 0.02 0 0.925 0.02 0 0.95
0.02 0 0.975 0.02 0 1 0.02 0 0 0.03
0 0.025 0.03 0 0.05 0.03 0 0.075 0.03 0
0.1 0.03 0 0.125 0.03 0 0.15 0.03 0 0.175
0.03 0 0.2 0.03 0 0.225 0.03 0 0.25 0.03
0 0.275 0.03 0 0.3 0.03 0 0.325 0.03 0
0.35 0.03 0 0.375 0.03 0 0.4 0.03 0 0.425
0.03 0 0.45 0.03 0 0.475 0.03 0 0.5 0.03
0 0.525 0.03 0 0.55 0.03 0 0.575 0.03 0
0.6 0.03 0 0.625 0.03 0 0.65 0.03 0 0.675
0.03 0 0.7 0.03 0 0.725 0.03 0 0.75 0.03
0 0.775 0.03 0 0.8 0.03 0 0.825 0.03 0
0.85 0.03 0 0.875 0.03 0 0.9 0.03 0 0.925
0.03 0 0.95 0.03 0 0.975 0.03 0 1 0.03
0 0 0.04 0 0.025 0.04 0 0.05 0.04 0
0.075 0.04 0 0.1 0.04 0 0.125 0.04 0 0.15
0.04 0 0.175 0.04 0 0.2 0.04 0 0.225 0.04
0 0.25 0.04 0 0.275 0.04 0 0.3 0.04 0
0.325 0.04 0 0.35 0.04 0 0.375 0.04 0 0.4
0.04 0 0.425 0.04 0 0.45 0.04 0 0.475 0.04
0 0.5 0.04 0 0.525 0.04 0 0.55 0.04 0
0.575 0.04 0 0.6 0.04 0 0.625 0.04 0 0.65
0.04 0 0.675 0.04 0 0.7 0.04 0 0.725 0.04
0 0.75 0.04 0 0.775 0.04 0 0.8 0.04 0
0.825 0.04 0 0.85 0.04 0 0.875 0.04 0 0.9
0.04 0 0.925 0.04 0 0.95 0.04 0 0.975 0.04
0 1 0.04 0 0 0.05 0 0.025 0.05 0
0.05 0.05 0 0.075 0.05 0 0.1 0.05 0 0.125
0.05 0 0.15 0.05 0 0.175 0.05 0 0.2 0.05
0 0.225 0.05 0 0.25 0.05 0 0.275 0.05 0
0.3 0.05 0 0.325 0.05 0 0.35 0.05 0 0.375
0.05 0 0.4 0.05 0 0.425 0.05 0 0.45 0.05
0 0.475 0.05 0 0.5 0.05 0 0.525 0.05 0
0.55 0.05 0 0.575 0.05 0 0.6 0.05 0 0.625
0.05 0 0.65 0.05 0 0.675 0.05 0 0.7 0.05
0 0.725 0.05 0 0.75 0.05 0 0.775 0.05 0
0.8 0.05 0 0.825 0.05 0 0.85 0.05 0 0.875
0.05 0 0.9 0.05 0 0.925 0.05 0 0.95 0.05
0 0.975 0.05 0 1 0.05 0 0 0.06 0
0.025 0.06 0 0.05 0.06 0 0.075 0.06 0 0.1
0.06 0 0.125 0.06 0 0.15 0.06 0 0.175 0.06
0 0.2 0.06 0 0.225 0.06 0 0.25 0.06 0
0.275 0.06 0 0.3 0.06 0 0.325 0.06 0 0.35
0.06 0 0.375 0.06 0 0.4 0.06 0 0.425 0.06
0 0.45 0.06 0 0.475 0.06 0 0.5 0.06 0
0.525 0.06 0 0.55 0.06 0 0.575 0.06 0 0.6
0.06 0 0.625 0.06 0 0.65 0.06 0 0.675 0.06
0 0.7 0.06 0 0.725 0.06 0 0.75 0.06 0
0.775 0.06 0 0.8 0.06 0 0.825 0.06 0 0.85
0.06 0 0.875 0.06 0 0.9 0.06 0 0.925 0.06
0 0.95 0.06 0 0.975 0.06 0 1 0.06 0
0 0.07 0 0.025 0.07 0 0.05 0.07 0 0.075
0.07 0 0.1 0.07 0 0.125 0.07 0 0.15 0.07
0 0.175 0.07 0 0.2 0.07 0 0.225 0.07 0
0.25 0.07 0 0.275 0.07 0 0.3 0.07 0 0.325
0.07 0 0.35 0.07 0 0.375 0.07 0 0.4 0.07
0 0.425 0.07 0 0.45 0.07 0 0.475 0.07 0
0.5 0.07 0 0.525 0.07 0 0.55 0.07 0 0.575
0.07 0 0.6 0.07 0 0.625 0.07 0 0.65 0.07
0 0.675 0.07 0 0.7 0.07 0 0.725 0.07 0
0.75 0.07 0 0.775 0.07 0 0.8 0.07 0 0.825
0.07 0 0.85 0.07 0 0.875 0.07 0 0.9 0.07
0 0.925 0.07 0 0.95 0.07 0 0.975 0.07 0
1 0.07 0 0 0.08 0 0.025 0.08 0 0.05
0.08 0 0.075 0.08 0 0.1 0.08 0 0.125 0.08
0 0.15 0.08 0 0.175 0.08 0 0.2 0.08 0
0.225 0.08 0 0.25 0.08 0 0.275 0.08 0 0.3
0.08 0 0.325 0.08 0 0.35 0.08 0 0.375 0.08
0 0.4 0.08 0 0.425 0.08 0 0.45 0.08 0
0.475 0.08 0 0.5 0.08 0 0.525 0.08 0 0.55
0.08 0 0.575 0.08 0 0.6 0.08 0 0.625 0.08
0 0.65 0.08 0 0.675 0.08 0 0.7 0.08 0
0.725 0.08 0 0.75 0.08 0 0.775 0.08 0 0.8
0.08 0 0.825 0.08 0 0.85 0.08 0 0.875 0.08
0 0.9 0.08 0 0.925 0.08 0 0.95 0.08 0
0.975 0.08 0 1 0.08 0 0 0.09 0 0.025
0.09 0 0.05 0.09 0 0.075 0.09 0 0.1 0.09
0 0.125 0.09 0 0.15 0.09 0 0.175 0.09 0
0.2 0.09 0 0.225 0.09 0 0.25 0.09 0 0.275
0.09 0 0.3 0.09 0 0.325 0.09 0 0.35 0.09
0 0.375 0.09 0 0.4 0.09 0 0.425 0.09 0
0.45 0.09 0 0.475 0.09 0 0.5 0.09 0 0.525
0.09 0 0.55 0.09 0 0.575 0.09 0 0.6 0.09
0 0.625 0.09 0 0.65 0.09 0 0.675 0.09 0
0.7 0.09 0 0.725 0.09 0 0.75 0.09 0 0.775
0.09 0 0.8 0.09 0 0.825 0.09 0 0.85 0.09
0 0.875 0.09 0 0.9 0.09 0 0.925 0.09 0
0.95 0.09 0 0.975 0.09 0 1 0.09 0 0
0.1 0 0.025 0.1 0 0.05 0.1 0 0.075 0.1
0 0.1 0.1 0 0.125 0.1 0 0.15 0.1 0
0.175 0.1 0 0.2 0.1 0 0.225 0.1 0 0.25
0.1 0 0.275 0.1 0 0.3 0.1 0 0.325 0.1
0 0.35 0.1 0 0.375 0.1 0 0.4 0.1 0
0.425 0.1 0 0.45 0.1 0 0.475 0.1 0 0.5
0.1 0 0.525 0.1 0 0.55 0.1 0 0.575 0.1
0 0.6 0.1 0 0.625 0.1 0 0.65 0.1 0
0.675 0.1 0 0.7 0.1 0 0.725 0.1 0 0.75
0.1 0 0.775 0.1 0 0.8 0.1 0 0.825 0.1
0 0.85 0.1 0 0.875 0.1 0 0.9 0.1 0
0.925 0.1 0 0.95 0.1 0 0.975 0.1 0 1
0.1 0 0 0.11 0 0.025 0.11 0 0.05 0.11
0 0.075 0.11 0 0.1 0.11 0 0.125 0.11 0
0.15 0.11 0 0.175 0.11 0 0.2 0.11 0 0.225
0.11 0 0.25 0.11 0 0.275 0.11 0 0.3 0.11
0 0.325 0.11 0 0.35 0.11 0 0.375 0.11 0
0.4 0.11 0 0.425 0.11 0 0.45 0.11 0 0.475
0.11 0 0.5 0.11 0 0.525 0.11 0 0.55 0.11
0 0.575 0.11 0 0.6 0.11 0 0.625 0.11 0
0.65 0.11 0 0.675 0.11 0 0.7 0.11 0 0.725
0.11 0 0.75 0.11 0 0.775 0.11 0 0.8 0.11
0 0.825 0.11 0 0.85 0.11 0 0.875 0.11 0
0.9 0.11 0 0.925 0.11 0 0.95 0.11 0 0.975
0.11 0 1 0.11 0 0 0.12 0 0.025 0.12
0 0.05 0.12 0 0.075 0.12 0 0.1 0.12 0
0.125 0.12 0 0.15 0.12 0 0.175 0.12 0 0.2
0.12 0 0.225 0.12 0 0.25 0.12 0 0.275 0.12
0 0.3 0.12 0 0.325 0.12 0 0.35 0.12 0
0.375 0.12 0 0.4 0.12 0 0.425 0.12 0 0.45
0.12 0 0.475 0.12 0 0.5 0.12 0 0.525 0.12
0 0.55 0.12 0 0.575 0.12 0 0.6 0.12 0
0.625 0.12 0 0.65 0.12 0 0.675 0.12 0 0.7
0.12 0 0.725 0.12 0 0.75 0.12 0 0.775 0.12
0 0.8 0.12 0 0.825 0.12 0 0.85 0.12 0
0.875 0.12 0 0.9 0.12 0 0.925 0.12 0 0.95
0.12 0 0.975 0.12 0 1 0.12 0 0 0.13
0 0.025 0.13 0 0.05 0.13 0 0.075 0.13 0
0.1 0.13 0 0.125 0.13 0 0.15 0.13 0 0.175
0.13 0 0.2 0.13 0 0.225 0.13 0 0.25 0.13
0 0.275 0.13 0 0.3 0.13 0 0.325 0.13 0
0.35 0.13 0 0.375 0.13 0 0.4 0.13 0 0.425
0.13 0 0.45 0.13 0 0.475 0.13 0 0.5 0.13
0 0.525 0.13 0 0.55 0.13 0 0.575 0.13 0
0.6 0.13 0 0.625 0.13 0 0.65 0.13 0 0.675
0.13 0 0.7 0.13 0 0.725 0.13 0 0.75 0.13
0 0.775 0.13 0 0.8 0.13 0 0.825 0.13 0
0.85 0.13 0 0.875 0.13 0 0.9 0.13 0 0.925
0.13 0 0.95 0.13 0 0.975 0.13 0 1 0.13
0 0 0.14 0 0.025 0.14 0 0.05 0.14 0
0.075 0.14 0 0.1 0.14 0 0.125 0.14 0 0.15
0.14 0 0.175 0.14 0 0.2 0.14 0 0.225 0.14
0 0.25 0.14 0 0.275 0.14 0 0.3 0.14 0
0.325 0.14 0 0.35 0.14 0 0.375 0.14 0 0.4
0.14 0 0.425 0.14 0 0.45 0.14 0 0.475 0.14
0 0.5 0.14 0 0.525 0.14 0 0.55 0.14 0
0.575 0.14 0 0.6 0.14 0 0.625 0.14 0 0.65
0.14 0 0.675 0.14 0 0.7 0.14 0 0.725 0.14
0 0.75 0.14 0 0.775 0.14 0 0.8 0.14 0
0.825 0.14 0 0.85 0.14 0 0.875 0.14 0 0.9
0.14 0 0.925 0.14 0 0.95 0.14 0 0.975 0.14
0 1 0.14 0 0 0.15 0 0.025 0.15 0
0.05 0.15 0 0.075 0.15 0 0.1 0.15 0 0.125
0.15 0 0.15 0.15 0 0.175 0.15 0 0.2 0.15
0 0.225 0.15 0 0.25 0.15 0 0.275 0.15 0
0.3 0.15 0 0.325 0.15 0 0.35 0.15 0 0.375
0.15 0 0.4 0.15 0 0.425 0.15 0 0.45 0.15
0 0.475 0.15 0 0.5 0.15 0 0.525 0.15 0
0.55 0.15 0 0.575 0.15 0 0.6 0.15 0 0.625
0.15 0 0.65 0.15 0 0.675 0.15 0 0.7 0.15
0 0.725 0.15 0 0.75 0.15 0 0.775 0.15 0
0.8 0.15 0 0.825 0.15 0 0.85 0.15 0 0.875
0.15 0 0.9 0.15 0 0.925 0.15 0 0.95 0.15
0 0.975 0.15 0 1 0.15 0 0 0.16 0
0.025 0.16 0 0.05 0.16 0 0.075 0.16 0 0.1
0.16 0 0.125 0.16 0 0.15 0.16 0 0.175 0.16
0 0.2 0.16 0 0.225 0.16 0 0.25 0.16 0
0.275 0.16 0 0.3 0.16 0 0.325 0.16 0 0.35
0.16 0 0.375 0.16 0 0.4 0.16 0 0.425 0.16
0 0.45 0.16 0 0.475 0.16 0 0.5 0.16 0
0.525 0.16 0 0.55 0.16 0 0.575 0.16 0 0.6
0.16 0 0.625 0.16 0 0.65 0.16 0 0.675 0.16
0 0.7 0.16 0 0.725 0.16 0 0.75 0.16 0
0.775 0.16 0 0.8 0.16 0 0.825 0.16 0 0.85
0.16 0 0.875 0.16 0 0.9 0.16 0 0.925 0.16
0 0.95 0.16 0 0.975 0.16 0 1 0.16 0
0 0.17 0 0.025 0.17 0 0.05 0.17 0 0.075
0.17 0 0.1 0.17 0 0.125 0.17 0 0.15 0.17
0 0.175 0.17 0 0.2 0.17 0 0.225 0.17 0
0.25 0.17 0 0.275 0.17 0 0.3 0.17 0 0.325
0.17 0 0.35 0.17 0 0.375 0.17 0 0.4 0.17
0 0.425 0.17 0 0.45 0.17 0 0.475 0.17 0
0.5 0.17 0 0.525 0.17 0 0.55 0.17 0 0.575
0.17 0 0.6 0.17 0 0.625 0.17 0 0.65 0.17
0 0.675 0.17 0 0.7 0.17 0 0.725 0.17 0
0.75 0.17 0 0.775 0.17 0 0.8 0.17 0 0.825
0.17 0 0.85 0.17 0 0.875 0.17 0 0.9 0.17
0 0.925 0.17 0 0.95 0.17 0 0.975 0.17 0
1 0.17 0 0 0.18 0 0.025 0.18 0 0.05
0.18 0 0.075 0.18 0 0.1 0.18 0 0.125 0.18
0 0.15 0.18 0 0.175 0.18 0 0.2 0.18 0
0.225 0.18 0 0.25 0.18 0 0.275 0.18 0 0.3
0.18 0 0.325 0.18 0 0.35 0.18 0 0.375 0.18
0 0.4 0.18 0 0.425 0.18 0 0.45 0.18 0
0.475 0.18 0 0.5 0.18 0 0.525 0.18 0 0.55
0.18 0 0.575 0.18 0 0.6 0.18 0 0.625 0.18
0 0.65 0.18 0 0.675 0.18 0 0.7 0.18 0
0.725 0.18 0 0.75 0.18 0 0.775 0.18 0 0.8
0.18 0 0.825 0.18 0 0.85 0.18 0 0.875 0.18
0 0.9 0.18 0 0.925 0.18 0 0.95 0.18 0
0.975 0.18 0 1 0.18 0 0 0.19 0 0.025
0.19 0 0.05 0.19 0 0.075 0.19 0 0.1 0.19
0 0.125 0.19 0 0.15 0.19 0 0.175 0.19 0
0.2 0.19 0 0.225 0.19 0 0.25 0.19 0 0.275
0.19 0 0.3 0.19 0 0.325 0.19 0 0.35 0.19
0 0.375 0.19 0 0.4 0.19 0 0.425 0.19 0
0.45 0.19 0 0.475 0.19 0 0.5 0.19 0 0.525
0.19 0 0.55 0.19 0 0.575 0.19 0 0.6 0.19
0 0.625 0.19 0 0.65 0.19 0 0.675 0.19 0
0.7 0.19 0 0.725 0.19 0 0.75 0.19 0 0.775
0.19 0 0.8 0.19 0 0.825 0.19 0 0.85 0.19
0 0.875 0.19 0 0.9 0.19 0 0.925 0.19 0
0.95 0.19 0 0.975 0.19 0 1 0.19 0 0
0.2 0 0.025 0.2 0 0.05 0.2 0 0.075 0.2
0 0.1 0.2 0 0.125 0.2 0 0.15 0.2 0
0.175 0.2 0 0.2 0.2 0 0.225 0.2 0 0.25
[...]
CELL_DATA 1600
FIELD attributes 6
cellID 1 1600 int
0 1 2 3 4 5 6 7 8 9 10
11 12 13 14 15 16 17 18 19 20
21 22 23 24 25 26 27 28 29 30
31 32 33 34 35 36 37 38 39 40
41 42 43 44 45 46 47 48 49 50
51 52 53 54 55 56 57 58 59 60
61 62 63 64 65 66 67 68 69 70
71 72 73 74 75 76 77 78 79 80
81 82 83 84 85 86 87 88 89 90
91 92 93 94 95 96 97 98 99 100
101 102 103 104 105 106 107 108 109 110
111 112 113 114 115 116 117 118 119 120
121 122 123 124 125 126 127 128 129 130
131 132 133 134 135 136 137 138 139 140
141 142 143 144 145 146 147 148 149 150
151 152 153 154 155 156 157 158 159 160
161 162 163 164 165 166 167 168 169 170
171 172 173 174 175 176 177 178 179 180
181 182 183 184 185 186 187 188 189 190
191 192 193 194 195 196 197 198 199 200
201 202 203 204 205 206 207 208 209 210
211 212 213 214 215 216 217 218 219 220
221 222 223 224 225 226 227 228 229 230
231 232 233 234 235 236 237 238 239 240
241 242 243 244 245 246 247 248 249 250
251 252 253 254 255 256 257 258 259 260
261 262 263 264 265 266 267 268 269 270
271 272 273 274 275 276 277 278 279 280
281 282 283 284 285 286 287 288 289 290
291 292 293 294 295 296 297 298 299 300
301 302 303 304 305 306 307 308 309 310
311 312 313 314 315 316 317 318 319 320
321 322 323 324 325 326 327 328 329 330
331 332 333 334 335 336 337 338 339 340
341 342 343 344 345 346 347 348 349 350
351 352 353 354 355 356 357 358 359 360
361 362 363 364 365 366 367 368 369 370
371 372 373 374 375 376 377 378 379 380
381 382 383 384 385 386 387 388 389 390
391 392 393 394 395 396 397 398 399 400
401 402 403 404 405 406 407 408 409 410
411 412 413 414 415 416 417 418 419 420
421 422 423 424 425 426 427 428 429 430
431 432 433 434 435 436 437 438 439 440
441 442 443 444 445 446 447 448 449 450
451 452 453 454 455 456 457 458 459 460
461 462 463 464 465 466 467 468 469 470
471 472 473 474 475 476 477 478 479 480
481 482 483 484 485 486 487 488 489 490
491 492 493 494 495 496 497 498 499 500
501 502 503 504 505 506 507 508 509 510
511 512 513 514 515 516 517 518 519 520
521 522 523 524 525 526 527 528 529 530
531 532 533 534 535 536 537 538 539 540
541 542 543 544 545 546 547 548 549 550
551 552 553 554 555 556 557 558 559 560
561 562 563 564 565 566 567 568 569 570
571 572 573 574 575 576 577 578 579 580
581 582 583 584 585 586 587 588 589 590
591 592 593 594 595 596 597 598 599 600
601 602 603 604 605 606 607 608 609 610
611 612 613 614 615 616 617 618 619 620
621 622 623 624 625 626 627 628 629 630
631 632 633 634 635 636 637 638 639 640
641 642 643 644 645 646 647 648 649 650
651 652 653 654 655 656 657 658 659 660
661 662 663 664 665 666 667 668 669 670
671 672 673 674 675 676 677 678 679 680
681 682 683 684 685 686 687 688 689 690
691 692 693 694 695 696 697 698 699 700
701 702 703 704 705 706 707 708 709 710
711 712 713 714 715 716 717 718 719 720
721 722 723 724 725 726 727 728 729 730
731 732 733 734 735 736 737 738 739 740
741 742 743 744 745 746 747 748 749 750
751 752 753 754 755 756 757 758 759 760
761 762 763 764 765 766 767 768 769 770
771 772 773 774 775 776 777 778 779 780
781 782 783 784 785 786 787 788 789 790
791 792 793 794 795 796 797 798 799 800
801 802 803 804 805 806 807 808 809 810
811 812 813 814 815 816 817 818 819 820
821 822 823 824 825 826 827 828 829 830
831 832 833 834 835 836 837 838 839 840
841 842 843 844 845 846 847 848 849 850
851 852 853 854 855 856 857 858 859 860
861 862 863 864 865 866 867 868 869 870
871 872 873 874 875 876 877 878 879 880
881 882 883 884 885 886 887 888 889 890
891 892 893 894 895 896 897 898 899 900
901 902 903 904 905 906 907 908 909 910
911 912 913 914 915 916 917 918 919 920
921 922 923 924 925 926 927 928 929 930
931 932 933 934 935 936 937 938 939 940
941 942 943 944 945 946 947 948 949 950
951 952 953 954 955 956 957 958 959 960
961 962 963 964 965 966 967 968 969 970
971 972 973 974 975 976 977 978 979 980
981 982 983 984 985 986 987 988 989 990
991 992 993 994 995 996 997 998 999 1000
1001 1002 1003 1004 1005 1006 1007 1008 1009 1010
1011 1012 1013 1014 1015 1016 1017 1018 1019 1020
1021 1022 1023 1024 1025 1026 1027 1028 1029 1030
1031 1032 1033 1034 1035 1036 1037 1038 1039 1040
1041 1042 1043 1044 1045 1046 1047 1048 1049 1050
1051 1052 1053 1054 1055 1056 1057 1058 1059 1060
1061 1062 1063 1064 1065 1066 1067 1068 1069 1070
1071 1072 1073 1074 1075 1076 1077 1078 1079 1080
1081 1082 1083 1084 1085 1086 1087 1088 1089 1090
1091 1092 1093 1094 1095 1096 1097 1098 1099 1100
1101 1102 1103 1104 1105 1106 1107 1108 1109 1110
1111 1112 1113 1114 1115 1116 1117 1118 1119 1120
1121 1122 1123 1124 1125 1126 1127 1128 1129 1130
1131 1132 1133 1134 1135 1136 1137 1138 1139 1140
1141 1142 1143 1144 1145 1146 1147 1148 1149 1150
1151 1152 1153 1154 1155 1156 1157 1158 1159 1160
1161 1162 1163 1164 1165 1166 1167 1168 1169 1170
1171 1172 1173 1174 1175 1176 1177 1178 1179 1180
1181 1182 1183 1184 1185 1186 1187 1188 1189 1190
1191 1192 1193 1194 1195 1196 1197 1198 1199 1200
1201 1202 1203 1204 1205 1206 1207 1208 1209 1210
1211 1212 1213 1214 1215 1216 1217 1218 1219 1220
1221 1222 1223 1224 1225 1226 1227 1228 1229 1230
1231 1232 1233 1234 1235 1236 1237 1238 1239 1240
1241 1242 1243 1244 1245 1246 1247 1248 1249 1250
1251 1252 1253 1254 1255 1256 1257 1258 1259 1260
1261 1262 1263 1264 1265 1266 1267 1268 1269 1270
1271 1272 1273 1274 1275 1276 1277 1278 1279 1280
1281 1282 1283 1284 1285 1286 1287 1288 1289 1290
1291 1292 1293 1294 1295 1296 1297 1298 1299 1300
1301 1302 1303 1304 1305 1306 1307 1308 1309 1310
1311 1312 1313 1314 1315 1316 1317 1318 1319 1320
1321 1322 1323 1324 1325 1326 1327 1328 1329 1330
1331 1332 1333 1334 1335 1336 1337 1338 1339 1340
1341 1342 1343 1344 1345 1346 1347 1348 1349 1350
1351 1352 1353 1354 1355 1356 1357 1358 1359 1360
1361 1362 1363 1364 1365 1366 1367 1368 1369 1370
1371 1372 1373 1374 1375 1376 1377 1378 1379 1380
1381 1382 1383 1384 1385 1386 1387 1388 1389 1390
1391 1392 1393 1394 1395 1396 1397 1398 1399 1400
1401 1402 1403 1404 1405 1406 1407 1408 1409 1410
1411 1412 1413 1414 1415 1416 1417 1418 1419 1420
1421 1422 1423 1424 1425 1426 1427 1428 1429 1430
1431 1432 1433 1434 1435 1436 1437 1438 1439 1440
1441 1442 1443 1444 1445 1446 1447 1448 1449 1450
1451 1452 1453 1454 1455 1456 1457 1458 1459 1460
1461 1462 1463 1464 1465 1466 1467 1468 1469 1470
1471 1472 1473 1474 1475 1476 1477 1478 1479 1480
1481 1482 1483 1484 1485 1486 1487 1488 1489 1490
1491 1492 1493 1494 1495 1496 1497 1498 1499 1500
1501 1502 1503 1504 1505 1506 1507 1508 1509 1510
1511 1512 1513 1514 1515 1516 1517 1518 1519 1520
1521 1522 1523 1524 1525 1526 1527 1528 1529 1530
1531 1532 1533 1534 1535 1536 1537 1538 1539 1540
1541 1542 1543 1544 1545 1546 1547 1548 1549 1550
1551 1552 1553 1554 1555 1556 1557 1558 1559 1560
1561 1562 1563 1564 1565 1566 1567 1568 1569 1570
1571 1572 1573 1574 1575 1576 1577 1578 1579 1580
1581 1582 1583 1584 1585 1586 1587 1588 1589 1590
1591 1592 1593 1594 1595 1596 1597 1598 1599 
T 1 1600 float
288.442 288.004 287.896 287.549 287.214 286.89 286.576 286.27 285.965 285.651 285.371
285.135 284.942 284.811 284.85 285.005 285.197 285.419 285.671 285.955 286.255
286.555 286.858 287.168 287.485 287.81 288.142 288.479 288.82 289.163 289.493
287.822 285.957 285.322 285.084 285.565 285.832 286.114 286.44 286.833 286.539
284.439 284.489 284.509 284.381 284.269 284.157 284.063 284.002 283.995 284.002
284.011 284.019 284.028 284.043 284.051 284.051 284.048 284.045 284.042 284.058
284.107 284.18 284.269 284.367 284.468 284.567 284.667 284.893 285.002 286.675
287.165 284.395 284.191 284.205 284.214 284.21 284.201 284.193 285.597 285.869
284.038 284.037 284.044 284.013 283.992 283.979 283.977 283.984 283.997 284.009
284.021 284.031 284.04 284.052 284.071 284.074 284.07 284.062 284.053 284.043
284.037 284.037 284.043 284.057 284.077 284.103 284.137 284.217 284.261 285.495
286.661 284.785 284.217 284.225 284.247 284.25 284.23 284.198 285.228 285.524
283.966 283.953 283.957 283.956 283.961 283.97 283.982 283.996 284.01 284.023
284.034 284.044 284.051 284.06 284.09 284.099 284.097 284.089 284.078 284.067
284.055 284.046 284.038 284.033 284.031 284.033 284.04 284.06 284.071 284.882
286.212 285.091 284.256 284.242 284.281 284.305 284.283 284.222 285.059 285.309
283.942 283.932 283.94 283.949 283.961 283.976 283.991 284.007 284.022 284.036
284.047 284.054 284.059 284.067 284.101 284.122 284.122 284.114 284.101 284.087
284.074 284.061 284.05 284.039 284.031 284.025 284.021 284.021 284.019 284.528
285.835 285.263 284.343 284.253 284.312 284.356 284.344 284.221 284.978 285.162
283.931 283.925 283.937 283.951 283.967 283.984 284.002 284.019 284.036 284.05
284.06 284.065 284.067 284.072 284.107 284.142 284.146 284.138 284.123 284.106
284.09 284.075 284.061 284.049 284.037 284.028 284.019 284.012 284.004 284.311
285.524 285.308 284.766 284.259 284.335 284.401 284.413 284.215 284.953 285.053
283.925 283.924 283.938 283.955 283.973 283.993 284.013 284.033 284.051 284.066
284.074 284.075 284.073 284.077 284.109 284.16 284.167 284.159 284.143 284.124
284.105 284.087 284.07 284.056 284.043 284.031 284.02 284.01 284 284.177
285.269 285.29 284.854 284.259 284.346 284.439 284.539 284.658 284.928 284.969
283.921 283.923 283.94 283.96 283.981 284.003 284.026 284.048 284.068 284.083
284.089 284.086 284.08 284.081 284.111 284.174 284.183 284.177 284.161 284.141
284.118 284.097 284.078 284.062 284.047 284.034 284.021 284.009 283.997 284.094
285.064 285.241 284.884 284.25 284.331 284.426 284.546 284.712 284.901 284.902
283.919 283.924 283.943 283.965 283.989 284.014 284.04 284.066 284.088 284.103
284.106 284.098 284.086 284.084 284.113 284.182 284.193 284.189 284.176 284.156
284.131 284.107 284.085 284.067 284.05 284.035 284.021 284.007 283.993 284.043
284.899 285.179 284.882 284.229 284.284 284.354 284.46 284.636 284.868 284.847
283.917 283.924 283.946 283.971 283.998 284.027 284.056 284.085 284.11 284.124
284.124 284.11 284.093 284.086 284.115 284.185 284.199 284.197 284.187 284.168
284.143 284.116 284.092 284.07 284.052 284.035 284.019 284.003 283.987 284.012
284.767 285.116 284.859 284.194 284.211 284.243 284.314 284.474 284.818 284.8
283.915 283.925 283.949 283.977 284.007 284.04 284.074 284.107 284.134 284.147
284.142 284.124 284.1 284.089 284.116 284.186 284.2 284.198 284.193 284.178
284.154 284.125 284.098 284.074 284.053 284.034 284.016 283.998 283.98 283.991
284.66 285.056 284.825 284.143 284.13 284.125 284.138 284.186 284.314 284.761
283.914 283.926 283.952 283.983 284.017 284.054 284.092 284.13 284.159 284.171
284.162 284.137 284.108 284.091 284.116 284.187 284.2 284.194 284.192 284.184
284.163 284.134 284.104 284.077 284.053 284.032 284.012 283.991 283.971 283.975
284.572 285.002 284.791 284.108 284.084 284.079 284.07 284.053 284.038 284.727
283.913 283.926 283.955 283.988 284.026 284.068 284.111 284.153 284.185 284.195
284.181 284.151 284.116 284.094 284.116 284.188 284.198 284.187 284.185 284.184
284.169 284.142 284.11 284.08 284.053 284.029 284.007 283.984 283.961 283.961
284.5 284.953 284.762 284.106 284.097 284.095 284.086 284.067 284.046 284.697
283.912 283.927 283.957 283.993 284.035 284.081 284.13 284.177 284.211 284.217
284.198 284.164 284.125 284.097 284.115 284.189 284.196 284.179 284.174 284.178
284.171 284.148 284.116 284.083 284.053 284.026 284.001 283.976 283.951 283.947
284.439 284.909 284.736 284.11 284.11 284.112 284.104 284.082 284.059 284.672
283.911 283.927 283.958 283.997 284.042 284.093 284.147 284.199 284.235 284.237
284.213 284.176 284.134 284.1 284.114 284.19 284.195 284.17 284.159 284.166
284.168 284.151 284.12 284.086 284.053 284.023 283.994 283.966 283.94 283.933
284.386 284.869 284.714 284.114 284.123 284.13 284.122 284.098 284.073 284.649
283.91 283.926 283.959 284 284.048 284.102 284.162 284.219 284.255 284.251
284.225 284.187 284.143 284.104 284.113 284.191 284.194 284.163 284.144 284.148
284.159 284.15 284.123 284.089 284.053 284.019 283.988 283.957 283.928 283.919
284.339 284.833 284.696 284.12 284.136 284.149 284.14 284.113 284.088 284.629
283.909 283.925 283.959 284.001 284.051 284.109 284.173 284.236 284.27 284.258
284.232 284.195 284.152 284.108 284.112 284.193 284.194 284.158 284.129 284.127
284.145 284.146 284.124 284.09 284.053 284.016 283.981 283.947 283.916 283.906
284.298 284.799 284.68 284.126 284.149 284.168 284.158 284.129 284.103 284.611
283.908 283.924 283.958 284.001 284.052 284.112 284.18 284.25 284.276 284.259
284.234 284.201 284.161 284.113 284.111 284.194 284.195 284.155 284.116 284.105
284.124 284.136 284.122 284.09 284.052 284.012 283.974 283.937 283.904 283.892
284.259 284.767 284.667 284.131 284.162 284.185 284.174 284.144 284.118 284.596
283.906 283.922 283.956 283.999 284.05 284.111 284.181 284.264 284.272 284.253
284.231 284.204 284.169 284.119 284.111 284.196 284.196 284.153 284.105 284.082
284.099 284.122 284.116 284.088 284.05 284.008 283.967 283.927 283.892 283.879
284.223 284.737 284.657 284.136 284.173 284.201 284.19 284.159 284.133 284.581
283.905 283.919 283.952 283.995 284.046 284.107 284.181 284.261 284.26 284.241
284.224 284.204 284.175 284.125 284.11 284.198 284.197 284.153 284.097 284.061
284.071 284.102 284.106 284.083 284.046 284.003 283.959 283.917 283.88 283.866
284.189 284.708 284.648 284.14 284.184 284.216 284.203 284.175 284.148 284.568
283.903 283.917 283.948 283.989 284.04 284.101 284.174 284.238 284.24 284.226
284.213 284.202 284.181 284.131 284.11 284.201 284.199 284.153 284.092 284.043
284.04 284.079 284.091 284.075 284.039 283.996 283.95 283.906 283.868 283.853
284.157 284.68 284.64 284.144 284.194 284.232 284.215 284.189 284.162 284.557
283.902 283.913 283.944 283.982 284.033 284.092 284.163 284.213 284.218 284.208
284.201 284.196 284.186 284.138 284.11 284.203 284.202 284.154 284.089 284.029
284.009 284.05 284.072 284.062 284.029 283.986 283.939 283.893 283.855 283.84
284.126 284.653 284.633 284.148 284.203 284.247 284.225 284.204 284.175 284.546
283.9 283.91 283.938 283.976 284.024 284.081 284.147 284.188 284.194 284.189
284.187 284.19 284.189 284.145 284.11 284.205 284.205 284.155 284.088 284.019
283.981 284.013 284.046 284.043 284.014 283.971 283.924 283.878 283.84 283.827
284.096 284.627 284.626 284.152 284.211 284.26 284.233 284.217 284.188 284.536
283.898 283.907 283.932 283.968 284.014 284.066 284.127 284.162 284.169 284.169
284.173 284.183 284.191 284.152 284.111 284.207 284.209 284.158 284.087 284.013
283.959 283.969 284.014 284.018 283.992 283.951 283.904 283.86 283.824 283.813
284.068 284.603 284.62 284.155 284.218 284.27 284.239 284.23 284.2 284.528
283.897 283.903 283.926 283.96 284.002 284.051 284.105 284.135 284.144 284.148
284.159 284.176 284.192 284.16 284.111 284.209 284.213 284.161 284.088 284.009
283.944 283.926 283.977 283.985 283.961 283.921 283.877 283.836 283.805 283.799
284.043 284.582 284.613 284.158 284.225 284.278 284.245 284.241 284.212 284.52
283.895 283.899 283.921 283.951 283.989 284.034 284.082 284.108 284.119 284.128
284.145 284.169 284.193 284.168 284.111 284.211 284.218 284.166 284.091 284.007
283.934 283.892 283.935 283.942 283.918 283.881 283.842 283.807 283.783 283.783
284.02 284.563 284.606 284.162 284.231 284.282 284.252 284.252 284.224 284.513
283.894 283.895 283.915 283.942 283.975 284.016 284.058 284.082 284.094 284.109
284.132 284.164 284.193 284.175 284.111 284.212 284.223 284.173 284.096 284.009
283.927 283.872 283.883 283.891 283.866 283.832 283.8 283.774 283.759 283.768
284.001 284.548 284.598 284.165 284.237 284.284 284.257 284.262 284.234 284.507
283.892 283.891 283.909 283.932 283.961 283.998 284.034 284.055 284.07 284.091
284.121 284.159 284.195 284.183 284.112 284.214 284.229 284.181 284.105 284.015
283.927 283.857 283.834 283.837 283.807 283.779 283.756 283.741 283.736 283.754
283.986 284.54 284.59 284.17 284.242 284.283 284.262 284.272 284.245 284.503
283.891 283.888 283.903 283.922 283.947 283.979 284.009 284.029 284.048 284.074
284.111 284.156 284.197 284.191 284.112 284.214 284.236 284.191 284.116 284.026
283.933 283.851 283.798 283.789 283.755 283.732 283.717 283.711 283.715 283.743
283.989 284.533 284.58 284.174 284.247 284.28 284.266 284.281 284.255 284.501
283.889 283.884 283.896 283.912 283.933 283.96 283.985 284.004 284.027 284.06
284.104 284.156 284.2 284.2 284.113 284.214 284.243 284.203 284.132 284.043
283.947 283.857 283.786 283.75 283.72 283.7 283.689 283.689 283.701 283.75
284.011 284.528 284.571 284.179 284.252 284.275 284.271 284.291 284.264 284.501
283.897 283.881 283.89 283.902 283.92 283.942 283.962 283.983 284.01 284.05
284.102 284.159 284.206 284.208 284.114 284.213 284.251 284.217 284.151 284.066
283.971 283.878 283.796 283.737 283.706 283.687 283.679 283.682 283.705 283.786
284.046 284.522 284.561 284.184 284.256 284.269 284.275 284.3 284.273 284.501
283.924 283.881 283.885 283.894 283.908 283.925 283.943 283.966 284 284.047
284.106 284.167 284.214 284.216 284.115 284.21 284.258 284.233 284.175 284.096
284.006 283.914 283.829 283.758 283.719 283.701 283.695 283.704 283.743 283.847
284.091 284.517 284.551 284.19 284.257 284.267 284.281 284.31 284.282 284.502
283.97 283.891 283.885 283.89 283.9 283.914 283.931 283.959 284.001 284.056
284.119 284.181 284.225 284.224 284.117 284.204 284.265 284.25 284.202 284.133
284.052 283.967 283.887 283.817 283.768 283.75 283.748 283.765 283.815 283.924
284.143 284.512 284.543 284.196 284.255 284.267 284.289 284.32 284.291 284.502
284.034 283.926 283.903 283.901 283.906 283.917 283.936 283.972 284.021 284.081
284.144 284.202 284.241 284.234 284.119 284.195 284.271 284.268 284.232 284.176
284.108 284.035 283.965 283.904 283.857 283.838 283.84 283.861 283.912 284.012
284.198 284.507 284.538 284.205 284.252 284.268 284.299 284.332 284.299 284.502
284.112 283.995 283.958 283.947 283.947 283.956 283.981 284.02 284.07 284.127
284.184 284.233 284.26 284.245 284.121 284.182 284.274 284.284 284.263 284.222
284.17 284.113 284.059 284.011 283.975 283.955 283.957 283.977 284.021 284.104
284.254 284.502 284.533 284.234 284.254 284.276 284.314 284.344 284.306 284.503
284.199 284.095 284.055 284.04 284.038 284.048 284.072 284.107 284.149 284.194
284.238 284.271 284.283 284.255 284.121 284.161 284.272 284.297 284.292 284.268
284.233 284.194 284.155 284.122 284.096 284.081 284.081 284.097 284.131 284.194
284.308 284.497 284.528 284.283 284.275 284.298 284.336 284.359 284.313 284.503
284.29 284.212 284.18 284.167 284.166 284.177 284.196 284.22 284.247 284.276
284.3 284.313 284.306 284.262 284.118 284.128 284.262 284.302 284.314 284.308
284.292 284.27 284.247 284.226 284.21 284.2 284.199 284.21 284.234 284.278
284.357 284.492 284.523 284.346 284.324 284.341 284.367 284.376 284.318 284.504
284.377 284.33 284.31 284.302 284.304 284.312 284.323 284.335 284.347 284.355
284.357 284.348 284.321 284.261 284.106 284.076 284.238 284.294 284.323 284.335
284.337 284.332 284.324 284.316 284.308 284.303 284.302 284.308 284.323 284.351
284.401 284.487 284.518 284.411 284.392 284.397 284.403 284.39 284.318 284.506
284.45 284.43 284.422 284.42 284.423 284.426 284.426 284.424 284.418 284.407
284.388 284.358 284.312 284.236 284.068 283.986 284.187 284.26 284.303 284.332
284.351 284.364 284.372 284.377 284.38 284.382 284.383 284.386 284.395 284.41
284.436 284.481 284.512 284.464 284.453 284.445 284.428 284.393 284.308 284.492
284.471 284.458 284.448 284.438 284.428 284.417 284.405 284.39 284.373 284.352
284.324 284.287 284.234 284.144 283.945 283.779 284.071 284.163 284.212 284.245
284.269 284.289 284.306 284.321 284.336 284.349 284.363 284.376 284.391 284.407
284.426 284.451 284.484 284.455 284.432 284.408 284.381 284.343 284.267 
alphat 1 1600 float
0 0 0 0 0 0 0 0 0 0 0
0 0 0 0 0 0 0 0 0 0
0 0 0 0 0 0 0 0 0 0
0 0 0 0 0 0 0 0 0 0
0 0 0 0 0 0 0 0 0 0
0 0 0 0 0 0 0 0 0 0
0 0 0 0 0 0 0 0 0 0
0 0 0 0 0 0 0 0 0 0
0 0 0 0 0 0 0 0 0 0
0 0 0 0 0 0 0 0 0 0
0 0 0 0 0 0 0 0 0 0
0 0 0 0 0 0 0 0 0 0
0 0 0 0 0 0 0 0 0 0
0 0 0 0 0 0 0 0 0 0
0 0 0 0 0 0 0 0 0 0
0 0 0 0 0 0 0 0 0 0
0 0 0 0 0 0 0 0 0 0
0 0 0 0 0 0 0 0 0 0
0 0 0 0 0 0 0 0 0 0
0 0 0 0 0 0 0 0 0 0