# vtk DataFile Version 2.0
RBConvection
ASCII
DATASET UNSTRUCTURED_GRID
POINTS 3362 float
0 0 0 0.025 0 0 0.05 0 0 0.075 0
0 0.1 0 0 0.125 0 0 0.15 0 0
0.175 0 0 0.2 0 0 0.225 0 0 0.25
0 0 0.275 0 0 0.3 0 0 0.325 0
0 0.35 0 0 0.375 0 0 0.4 0 0
0.425 0 0 0.45 0 0 0.475 0 0 0.5
0 0 0.525 0 0 0.55 0 0 0.575 0
0 0.6 0 0 0.625 0 0 0.65 0 0
0.675 0 0 0.7 0 0 0.725 0 0 0.75
0 0 0.775 0 0 0.8 0 0 0.825 0
0 0.85 0 0 0.875 0 0 0.9 0 0
0.925 0 0 0.95 0 0 0.975 0 0 1
0 0 0 0.01 0 0.025 0.01 0 0.05 0.01
0 0.075 0.01 0 0.1 0.01 0 0.125 0.01 0
0.15 0.01 0 0.175 0.01 0 0.2 0.01 0 0.225
0.01 0 0.25 0.01 0 0.275 0.01 0 0.3 0.01
0 0.325 0.01 0 0.35 0.01 0 0.375 0.01 0
0.4 0.01 0 0.425 0.01 0 0.45 0.01 0 0.475
0.01 0 0.5 0.01 0 0.525 0.01 0 0.55 0.01
0 0.575 0.01 0 0.6 0.01 0 0.625 0.01 0
0.65 0.01 0 0.675 0.01 0 0.7 0.01 0 0.725
0.01 0 0.75 0.01 0 0.775 0.01 0 0.8 0.01
0 0.825 0.01 0 0.85 0.01 0 0.875 0.01 0
0.9 0.01 0 0.925 0.01 0 0.95 0.01 0 0.975
0.01 0 1 0.01 0 0 0.02 0 0.025 0.02
0 0.05 0.02 0 0.075 0.02 0 0.1 0.02 0
0.125 0.02 0 0.15 0.02 0 0.175 0.02 0 0.2
0.02 0 0.225 0.02 0 0.25 0.02 0 0.275 0.02
0 0.3 0.02 0 0.325 0.02 0 0.35 0.02 0
0.375 0.02 0 0.4 0.02 0 0.425 0.02 0 0.45
0.02 0 0.475 0.02 0 0.5 0.02 0 0.525 0.02
0 0.55 0.02 0 0.575 0.02 0 0.6 0.02 0
0.625 0.02 0 0.65 0.02 0 0.675 0.02 0 0.7
0.02 0 0.725 0.02 0 0.75 0.02 0 0.775 0.02
0 0.8 0.02 0 0.825 0.02 0 0.85 0.02 0
0.875 0.02 0 0.9 0.02 0 0.925 0.02 0 0.95
0.02 0 0.975 0.02 0 1 0.02 0 0 0.03
0 0.025 0.03 0 0.05 0.03 0 0.075 0.03 0
0.1 0.03 0 0.125 0.03 0 0.15 0.03 0 0.175
0.03 0 0.2 0.03 0 0.225 0.03 0 0.25 0.03
0 0.275 0.03 0 0.3 0.03 0 0.325 0.03 0
0.35 0.03 0 0.375 0.03 0 0.4 0.03 0 0.425
0.03 0 0.45 0.03 0 0.475 0.03 0 0.5 0.03
0 0.525 0.03 0 0.55 0.03 0 0.575 0.03 0
0.6 0.03 0 0.625 0.03 0 0.65 0.03 0 0.675
0.03 0 0.7 0.03 0 0.725 0.03 0 0.75 0.03
0 0.775 0.03 0 0.8 0.03 0 0.825 0.03 0
0.85 0.03 0 0.875 0.03 0 0.9 0.03 0 0.925
0.03 0 0.95 0.03 0 0.975 0.03 0 1 0.03
0 0 0.04 0 0.025 0.04 0 0.05 0.04 0
0.075 0.04 0 0.1 0.04 0 0.125 0.04 0 0.15
0.04 0 0.175 0.04 0 0.2 0.04 0 0.225 0.04
0 0.25 0.04 0 0.275 0.04 0 0.3 0.04 0
0.325 0.04 0 0.35 0.04 0 0.375 0.04 0 0.4
0.04 0 0.425 0.04 0 0.45 0.04 0 0.475 0.04
0 0.5 0.04 0 0.525 0.04 0 0.55 0.04 0
0.575 0.04 0 0.6 0.04 0 0.625 0.04 0 0.65
0.04 0 0.675 0.04 0 0.7 0.04 0 0.725 0.04
0 0.75 0.04 0 0.775 0.04 0 0.8 0.04 0
0.825 0.04 0 0.85 0.04 0 0.875 0.04 0 0.9
0.04 0 0.925 0.04 0 0.95 0.04 0 0.975 0.04
0 1 0.04 0 0 0.05 0 0.025 0.05 0
0.05 0.05 0 0.075 0.05 0 0.1 0.05 0 0.125
0.05 0 0.15 0.05 0 0.175 0.05 0 0.2 0.05
0 0.225 0.05 0 0.25 0.05 0 0.275 0.05 0
0.3 0.05 0 0.325 0.05 0 0.35 0.05 0 0.375
0.05 0 0.4 0.05 0 0.425 0.05 0 0.45 0.05
0 0.475 0.05 0 0.5 0.05 0 0.525 0.05 0
0.55 0.05 0 0.575 0.05 0 0.6 0.05 0 0.625
0.05 0 0.65 0.05 0 0.675 0.05 0 0.7 0.05
0 0.725 0.05 0 0.75 0.05 0 0.775 0.05 0
0.8 0.05 0 0.825 0.05 0 0.85 0.05 0 0.875
0.05 0 0.9 0.05 0 0.925 0.05 0 0.95 0.05
0 0.975 0.05 0 1 0.05 0 0 0.06 0
0.025 0.06 0 0.05 0.06 0 0.075 0.06 0 0.1
0.06 0 0.125 0.06 0 0.15 0.06 0 0.175 0.06
0 0.2 0.06 0 0.225 0.06 0 0.25 0.06 0
0.275 0.06 0 0.3 0.06 0 0.325 0.06 0 0.35
0.06 0 0.375 0.06 0 0.4 0.06 0 0.425 0.06
0 0.45 0.06 0 0.475 0.06 0 0.5 0.06 0
0.525 0.06 0 0.55 0.06 0 0.575 0.06 0 0.6
0.06 0 0.625 0.06 0 0.65 0.06 0 0.675 0.06
0 0.7 0.06 0 0.725 0.06 0 0.75 0.06 0
0.775 0.06 0 0.8 0.06 0 0.825 0.06 0 0.85
0.06 0 0.875 0.06 0 0.9 0.06 0 0.925 0.06
0 0.95 0.06 0 0.975 0.06 0 1 0.06 0
0 0.07 0 0.025 0.07 0 0.05 0.07 0 0.075
0.07 0 0.1 0.07 0 0.125 0.07 0 0.15 0.07
0 0.175 0.07 0 0.2 0.07 0 0.225 0.07 0
0.25 0.07 0 0.275 0.07 0 0.3 0.07 0 0.325
0.07 0 0.35 0.07 0 0.375 0.07 0 0.4 0.07
0 0.425 0.07 0 0.45 0.07 0 0.475 0.07 0
0.5 0.07 0 0.525 0.07 0 0.55 0.07 0 0.575
0.07 0 0.6 0.07 0 0.625 0.07 0 0.65 0.07
0 0.675 0.07 0 0.7 0.07 0 0.725 0.07 0
0.75 0.07 0 0.775 0.07 0 0.8 0.07 0 0.825
0.07 0 0.85 0.07 0 0.875 0.07 0 0.9 0.07
0 0.925 0.07 0 0.95 0.07 0 0.975 0.07 0
1 0.07 0 0 0.08 0 0.025 0.08 0 0.05
0.08 0 0.075 0.08 0 0.1 0.08 0 0.125 0.08
0 0.15 0.08 0 0.175 0.08 0 0.2 0.08 0
0.225 0.08 0 0.25 0.08 0 0.275 0.08 0 0.3
0.08 0 0.325 0.08 0 0.35 0.08 0 0.375 0.08
0 0.4 0.08 0 0.425 0.08 0 0.45 0.08 0
0.475 0.08 0 0.5 0.08 0 0.525 0.08 0 0.55
0.08 0 0.575 0.08 0 0.6 0.08 0 0.625 0.08
0 0.65 0.08 0 0.675 0.08 0 0.7 0.08 0
0.725 0.08 0 0.75 0.08 0 0.775 0.08 0 0.8
0.08 0 0.825 0.08 0 0.85 0.08 0 0.875 0.08
0 0.9 0.08 0 0.925 0.08 0 0.95 0.08 0
0.975 0.08 0 1 0.08 0 0 0.09 0 0.025
0.09 0 0.05 0.09 0 0.075 0.09 0 0.1 0.09
0 0.125 0.09 0 0.15 0.09 0 0.175 0.09 0
0.2 0.09 0 0.225 0.09 0 0.25 0.09 0 0.275
0.09 0 0.3 0.09 0 0.325 0.09 0 0.35 0.09
0 0.375 0.09 0 0.4 0.09 0 0.425 0.09 0
0.45 0.09 0 0.475 0.09 0 0.5 0.09 0 0.525
0.09 0 0.55 0.09 0 0.575 0.09 0 0.6 0.09
0 0.625 0.09 0 0.65 0.09 0 0.675 0.09 0
0.7 0.09 0 0.725 0.09 0 0.75 0.09 0 0.775
0.09 0 0.8 0.09 0 0.825 0.09 0 0.85 0.09
0 0.875 0.09 0 0.9 0.09 0 0.925 0.09 0
0.95 0.09 0 0.975 0.09 0 1 0.09 0 0
0.1 0 0.025 0.1 0 0.05 0.1 0 0.075 0.1
0 0.1 0.1 0 0.125 0.1 0 0.15 0.1 0
0.175 0.1 0 0.2 0.1 0 0.225 0.1 0 0.25
0.1 0 0.275 0.1 0 0.3 0.1 0 0.325 0.1
0 0.35 0.1 0 0.375 0.1 0 0.4 0.1 0
0.425 0.1 0 0.45 0.1 0 0.475 0.1 0 0.5
0.1 0 0.525 0.1 0 0.55 0.1 0 0.575 0.1
0 0.6 0.1 0 0.625 0.1 0 0.65 0.1 0
0.675 0.1 0 0.7 0.1 0 0.725 0.1 0 0.75
0.1 0 0.775 0.1 0 0.8 0.1 0 0.825 0.1
0 0.85 0.1 0 0.875 0.1 0 0.9 0.1 0
0.925 0.1 0 0.95 0.1 0 0.975 0.1 0 1
0.1 0 0 0.11 0 0.025 0.11 0 0.05 0.11
0 0.075 0.11 0 0.1 0.11 0 0.125 0.11 0
0.15 0.11 0 0.175 0.11 0 0.2 0.11 0 0.225
0.11 0 0.25 0.11 0 0.275 0.11 0 0.3 0.11
0 0.325 0.11 0 0.35 0.11 0 0.375 0.11 0
0.4 0.11 0 0.425 0.11 0 0.45 0.11 0 0.475
0.11 0 0.5 0.11 0 0.525 0.11 0 0.55 0.11
0 0.575 0.11 0 0.6 0.11 0 0.625 0.11 0
0.65 0.11 0 0.675 0.11 0 0.7 0.11 0 0.725
0.11 0 0.75 0.11 0 0.775 0.11 0 0.8 0.11
0 0.825 0.11 0 0.85 0.11 0 0.875 0.11 0
0.9 0.11 0 0.925 0.11 0 0.95 0.11 0 0.975
0.11 0 1 0.11 0 0 0.12 0 0.025 0.12
0 0.05 0.12 0 0.075 0.12 0 0.1 0.12 0
0.125 0.12 0 0.15 0.12 0 0.175 0.12 0 0.2
0.12 0 0.225 0.12 0 0.25 0.12 0 0.275 0.12
0 0.3 0.12 0 0.325 0.12 0 0.35 0.12 0
0.375 0.12 0 0.4 0.12 0 0.425 0.12 0 0.45
0.12 0 0.475 0.12 0 0.5 0.12 0 0.525 0.12
0 0.55 0.12 0 0.575 0.12 0 0.6 0.12 0
0.625 0.12 0 0.65 0.12 0 0.675 0.12 0 0.7
0.12 0 0.725 0.12 0 0.75 0.12 0 0.775 0.12
0 0.8 0.12 0 0.825 0.12 0 0.85 0.12 0
0.875 0.12 0 0.9 0.12 0 0.925 0.12 0 0.95
0.12 0 0.975 0.12 0 1 0.12 0 0 0.13
0 0.025 0.13 0 0.05 0.13 0 0.075 0.13 0
0.1 0.13 0 0.125 0.13 0 0.15 0.13 0 0.175
0.13 0 0.2 0.13 0 0.225 0.13 0 0.25 0.13
0 0.275 0.13 0 0.3 0.13 0 0.325 0.13 0
0.35 0.13 0 0.375 0.13 0 0.4 0.13 0 0.425
0.13 0 0.45 0.13 0 0.475 0.13 0 0.5 0.13
0 0.525 0.13 0 0.55 0.13 0 0.575 0.13 0
0.6 0.13 0 0.625 0.13 0 0.65 0.13 0 0.675
0.13 0 0.7 0.13 0 0.725 0.13 0 0.75 0.13
0 0.775 0.13 0 0.8 0.13 0 0.825 0.13 0
0.85 0.13 0 0.875 0.13 0 0.9 0.13 0 0.925
0.13 0 0.95 0.13 0 0.975 0.13 0 1 0.13
0 0 0.14 0 0.025 0.14 0 0.05 0.14 0
0.075 0.14 0 0.1 0.14 0 0.125 0.14 0 0.15
0.14 0 0.175 0.14 0 0.2 0.14 0 0.225 0.14
0 0.25 0.14 0 0.275 0.14 0 0.3 0.14 0
0.325 0.14 0 0.35 0.14 0 0.375 0.14 0 0.4
0.14 0 0.425 0.14 0 0.45 0.14 0 0.475 0.14
0 0.5 0.14 0 0.525 0.14 0 0.55 0.14 0
0.575 0.14 0 0.6 0.14 0 0.625 0.14 0 0.65
0.14 0 0.675 0.14 0 0.7 0.14 0 0.725 0.14
0 0.75 0.14 0 0.775 0.14 0 0.8 0.14 0
0.825 0.14 0 0.85 0.14 0 0.875 0.14 0 0.9
0.14 0 0.925 0.14 0 0.95 0.14 0 0.975 0.14
0 1 0.14 0 0 0.15 0 0.025 0.15 0
0.05 0.15 0 0.075 0.15 0 0.1 0.15 0 0.125
0.15 0 0.15 0.15 0 0.175 0.15 0 0.2 0.15
0 0.225 0.15 0 0.25 0.15 0 0.275 0.15 0
0.3 0.15 0 0.325 0.15 0 0.35 0.15 0 0.375
0.15 0 0.4 0.15 0 0.425 0.15 0 0.45 0.15
0 0.475 0.15 0 0.5 0.15 0 0.525 0.15 0
0.55 0.15 0 0.575 0.15 0 0.6 0.15 0 0.625
0.15 0 0.65 0.15 0 0.675 0.15 0 0.7 0.15
0 0.725 0.15 0 0.75 0.15 0 0.775 0.15 0
0.8 0.15 0 0.825 0.15 0 0.85 0.15 0 0.875
0.15 0 0.9 0.15 0 0.925 0.15 0 0.95 0.15
0 0.975 0.15 0 1 0.15 0 0 0.16 0
0.025 0.16 0 0.05 0.16 0 0.075 0.16 0 0.1
0.16 0 0.125 0.16 0 0.15 0.16 0 0.175 0.16
0 0.2 0.16 0 0.225 0.16 0 0.25 0.16 0
0.275 0.16 0 0.3 0.16 0 0.325 0.16 0 0.35
0.16 0 0.375 0.16 0 0.4 0.16 0 0.425 0.16
0 0.45 0.16 0 0.475 0.16 0 0.5 0.16 0
0.525 0.16 0 0.55 0.16 0 0.575 0.16 0 0.6
0.16 0 0.625 0.16 0 0.65 0.16 0 0.675 0.16
0 0.7 0.16 0 0.725 0.16 0 0.75 0.16 0
0.775 0.16 0 0.8 0.16 0 0.825 0.16 0 0.85
0.16 0 0.875 0.16 0 0.9 0.16 0 0.925 0.16
0 0.95 0.16 0 0.975 0.16 0 1 0.16 0
0 0.17 0 0.025 0.17 0 0.05 0.17 0 0.075
0.17 0 0.1 0.17 0 0.125 0.17 0 0.15 0.17
0 0.175 0.17 0 0.2 0.17 0 0.225 0.17 0
0.25 0.17 0 0.275 0.17 0 0.3 0.17 0 0.325
0.17 0 0.35 0.17 0 0.375 0.17 0 0.4 0.17
0 0.425 0.17 0 0.45 0.17 0 0.475 0.17 0
0.5 0.17 0 0.525 0.17 0 0.55 0.17 0 0.575
0.17 0 0.6 0.17 0 0.625 0.17 0 0.65 0.17
0 0.675 0.17 0 0.7 0.17 0 0.725 0.17 0
0.75 0.17 0 0.775 0.17 0 0.8 0.17 0 0.825
0.17 0 0.85 0.17 0 0.875 0.17 0 0.9 0.17
0 0.925 0.17 0 0.95 0.17 0 0.975 0.17 0
1 0.17 0 0 0.18 0 0.025 0.18 0 0.05
0.18 0 0.075 0.18 0 0.1 0.18 0 0.125 0.18
0 0.15 0.18 0 0.175 0.18 0 0.2 0.18 0
0.225 0.18 0 0.25 0.18 0 0.275 0.18 0 0.3
0.18 0 0.325 0.18 0 0.35 0.18 0 0.375 0.18
0 0.4 0.18 0 0.425 0.18 0 0.45 0.18 0
0.475 0.18 0 0.5 0.18 0 0.525 0.18 0 0.55
0.18 0 0.575 0.18 0 0.6 0.18 0 0.625 0.18
0 0.65 0.18 0 0.675 0.18 0 0.7 0.18 0
0.725 0.18 0 0.75 0.18 0 0.775 0.18 0 0.8
0.18 0 0.825 0.18 0 0.85 0.18 0 0.875 0.18
0 0.9 0.18 0 0.925 0.18 0 0.95 0.18 0
0.975 0.18 0 1 0.18 0 0 0.19 0 0.025
0.19 0 0.05 0.19 0 0.075 0.19 0 0.1 0.19
0 0.125 0.19 0 0.15 0.19 0 0.175 0.19 0
0.2 0.19 0 0.225 0.19 0 0.25 0.19 0 0.275
0.19 0 0.3 0.19 0 0.325 0.19 0 0.35 0.19
0 0.375 0.19 0 0.4 0.19 0 0.425 0.19 0
0.45 0.19 0 0.475 0.19 0 0.5 0.19 0 0.525
0.19 0 0.55 0.19 0 0.575 0.19 0 0.6 0.19
0 0.625 0.19 0 0.65 0.19 0 0.675 0.19 0
0.7 0.19 0 0.725 0.19 0 0.75 0.19 0 0.775
0.19 0 0.8 0.19 0 0.825 0.19 0 0.85 0.19
0 0.875 0.19 0 0.9 0.19 0 0.925 0.19 0
0.95 0.19 0 0.975 0.19 0 1 0.19 0 0
0.2 0 0.025 0.2 0 0.05 0.2 0 0.075 0.2
0 0.1 0.2 0 0.125 0.2 0 0.15 0.2 0
0.175 0.2 0 0.2 0.2 0 0.225 0.2 0 0.25
[...]
CELL_DATA 1600
FIELD attributes 6
cellID 1 1600 int
0 1 2 3 4 5 6 7 8 9 10
11 12 13 14 15 16 17 18 19 20
21 22 23 24 25 26 27 28 29 30
31 32 33 34 35 36 37 38 39 40
41 42 43 44 45 46 47 48 49 50
51 52 53 54 55 56 57 58 59 60
61 62 63 64 65 66 67 68 69 70
71 72 73 74 75 76 77 78 79 80
81 82 83 84 85 86 87 88 89 90
91 92 93 94 95 96 97 98 99 100
101 102 103 104 105 106 107 108 109 110
111 112 113 114 115 116 117 118 119 120
121 122 123 124 125 126 127 128 129 130
131 132 133 134 135 136 137 138 139 140
141 142 143 144 145 146 147 148 149 150
151 152 153 154 155 156 157 158 159 160
161 162 163 164 165 166 167 168 169 170
171 172 173 174 175 176 177 178 179 180
181 182 183 184 185 186 187 188 189 190
191 192 193 194 195 196 197 198 199 200
201 202 203 204 205 206 207 208 209 210
211 212 213 214 215 216 217 218 219 220
221 222 223 224 225 226 227 228 229 230
231 232 233 234 235 236 237 238 239 240
241 242 243 244 245 246 247 248 249 250
251 252 253 254 255 256 257 258 259 260
261 262 263 264 265 266 267 268 269 270
271 272 273 274 275 276 277 278 279 280
281 282 283 284 285 286 287 288 289 290
291 292 293 294 295 296 297 298 299 300
301 302 303 304 305 306 307 308 309 310
311 312 313 314 315 316 317 318 319 320
321 322 323 324 325 326 327 328 329 330
331 332 333 334 335 336 337 338 339 340
341 342 343 344 345 346 347 348 349 350
351 352 353 354 355 356 357 358 359 360
361 362 363 364 365 366 367 368 369 370
371 372 373 374 375 376 377 378 379 380
381 382 383 384 385 386 387 388 389 390
391 392 393 394 395 396 397 398 399 400
401 402 403 404 405 406 407 408 409 410
411 412 413 414 415 416 417 418 419 420
421 422 423 424 425 426 427 428 429 430
431 432 433 434 435 436 437 438 439 440
441 442 443 444 445 446 447 448 449 450
451 452 453 454 455 456 457 458 459 460
461 462 463 464 465 466 467 468 469 470
471 472 473 474 475 476 477 478 479 480
481 482 483 484 485 486 487 488 489 490
491 492 493 494 495 496 497 498 499 500
501 502 503 504 505 506 507 508 509 510
511 512 513 514 515 516 517 518 519 520
521 522 523 524 525 526 527 528 529 530
531 532 533 534 535 536 537 538 539 540
541 542 543 544 545 546 547 548 549 550
551 552 553 554 555 556 557 558 559 560
561 562 563 564 565 566 567 568 569 570
571 572 573 574 575 576 577 578 579 580
581 582 583 584 585 586 587 588 589 590
591 592 593 594 595 596 597 598 599 600
601 602 603 604 605 606 607 608 609 610
611 612 613 614 615 616 617 618 619 620
621 622 623 624 625 626 627 628 629 630
631 632 633 634 635 636 637 638 639 640
641 642 643 644 645 646 647 648 649 650
651 652 653 654 655 656 657 658 659 660
661 662 663 664 665 666 667 668 669 670
671 672 673 674 675 676 677 678 679 680
681 682 683 684 685 686 687 688 689 690
691 692 693 694 695 696 697 698 699 700
701 702 703 704 705 706 707 708 709 710
711 712 713 714 715 716 717 718 719 720
721 722 723 724 725 726 727 728 729 730
731 732 733 734 735 736 737 738 739 740
741 742 743 744 745 746 747 748 749 750
751 752 753 754 755 756 757 758 759 760
761 762 763 764 765 766 767 768 769 770
771 772 773 774 775 776 777 778 779 780
781 782 783 784 785 786 787 788 789 790
791 792 793 794 795 796 797 798 799 800
801 802 803 804 805 806 807 808 809 810
811 812 813 814 815 816 817 818 819 820
821 822 823 824 825 826 827 828 829 830
831 832 833 834 835 836 837 838 839 840
841 842 843 844 845 846 847 848 849 850
851 852 853 854 855 856 857 858 859 860
861 862 863 864 865 866 867 868 869 870
871 872 873 874 875 876 877 878 879 880
881 882 883 884 885 886 887 888 889 890
891 892 893 894 895 896 897 898 899 900
901 902 903 904 905 906 907 908 909 910
911 912 913 914 915 916 917 918 919 920
921 922 923 924 925 926 927 928 929 930
931 932 933 934 935 936 937 938 939 940
941 942 943 944 945 946 947 948 949 950
951 952 953 954 955 956 957 958 959 960
961 962 963 964 965 966 967 968 969 970
971 972 973 974 975 976 977 978 979 980
981 982 983 984 985 986 987 988 989 990
991 992 993 994 995 996 997 998 999 1000
1001 1002 1003 1004 1005 1006 1007 1008 1009 1010
1011 1012 1013 1014 1015 1016 1017 1018 1019 1020
1021 1022 1023 1024 1025 1026 1027 1028 1029 1030
1031 1032 1033 1034 1035 1036 1037 1038 1039 1040
1041 1042 1043 1044 1045 1046 1047 1048 1049 1050
1051 1052 1053 1054 1055 1056 1057 1058 1059 1060
1061 1062 1063 1064 1065 1066 1067 1068 1069 1070
1071 1072 1073 1074 1075 1076 1077 1078 1079 1080
1081 1082 1083 1084 1085 1086 1087 1088 1089 1090
1091 1092 1093 1094 1095 1096 1097 1098 1099 1100
1101 1102 1103 1104 1105 1106 1107 1108 1109 1110
1111 1112 1113 1114 1115 1116 1117 1118 1119 1120
1121 1122 1123 1124 1125 1126 1127 1128 1129 1130
1131 1132 1133 1134 1135 1136 1137 1138 1139 1140
1141 1142 1143 1144 1145 1146 1147 1148 1149 1150
1151 1152 1153 1154 1155 1156 1157 1158 1159 1160
1161 1162 1163 1164 1165 1166 1167 1168 1169 1170
1171 1172 1173 1174 1175 1176 1177 1178 1179 1180
1181 1182 1183 1184 1185 1186 1187 1188 1189 1190
1191 1192 1193 1194 1195 1196 1197 1198 1199 1200
1201 1202 1203 1204 1205 1206 1207 1208 1209 1210
1211 1212 1213 1214 1215 1216 1217 1218 1219 1220
1221 1222 1223 1224 1225 1226 1227 1228 1229 1230
1231 1232 1233 1234 1235 1236 1237 1238 1239 1240
1241 1242 1243 1244 1245 1246 1247 1248 1249 1250
1251 1252 1253 1254 1255 1256 1257 1258 1259 1260
1261 1262 1263 1264 1265 1266 1267 1268 1269 1270
1271 1272 1273 1274 1275 1276 1277 1278 1279 1280
1281 1282 1283 1284 1285 1286 1287 1288 1289 1290
1291 1292 1293 1294 1295 1296 1297 1298 1299 1300
1301 1302 1303 1304 1305 1306 1307 1308 1309 1310
1311 1312 1313 1314 1315 1316 1317 1318 1319 1320
1321 1322 1323 1324 1325 1326 1327 1328 1329 1330
1331 1332 1333 1334 1335 1336 1337 1338 1339 1340
1341 1342 1343 1344 1345 1346 1347 1348 1349 1350
1351 1352 1353 1354 1355 1356 1357 1358 1359 1360
1361 1362 1363 1364 1365 1366 1367 1368 1369 1370
1371 1372 1373 1374 1375 1376 1377 1378 1379 1380
1381 1382 1383 1384 1385 1386 1387 1388 1389 1390
1391 1392 1393 1394 1395 1396 1397 1398 1399 1400
1401 1402 1403 1404 1405 1406 1407 1408 1409 1410
1411 1412 1413 1414 1415 1416 1417 1418 1419 1420
1421 1422 1423 1424 1425 1426 1427 1428 1429 1430
1431 1432 1433 1434 1435 1436 1437 1438 1439 1440
1441 1442 1443 1444 1445 1446 1447 1448 1449 1450
1451 1452 1453 1454 1455 1456 1457 1458 1459 1460
1461 1462 1463 1464 1465 1466 1467 1468 1469 1470
1471 1472 1473 1474 1475 1476 1477 1478 1479 1480
1481 1482 1483 1484 1485 1486 1487 1488 1489 1490
1491 1492 1493 1494 1495 1496 1497 1498 1499 1500
1501 1502 1503 1504 1505 1506 1507 1508 1509 1510
1511 1512 1513 1514 1515 1516 1517 1518 1519 1520
1521 1522 1523 1524 1525 1526 1527 1528 1529 1530
1531 1532 1533 1534 1535 1536 1537 1538 1539 1540
1541 1542 1543 1544 1545 1546 1547 1548 1549 1550
1551 1552 1553 1554 1555 1556 1557 1558 1559 1560
1561 1562 1563 1564 1565 1566 1567 1568 1569 1570
1571 1572 1573 1574 1575 1576 1577 1578 1579 1580
1581 1582 1583 1584 1585 1586 1587 1588 1589 1590
1591 1592 1593 1594 1595 1596 1597 1598 1599 
T 1 1600 float
286.244 285.839 285.55 285.292 285.042 284.858 284.762 284.729 284.736 284.785 285.15
285.475 285.788 286.118 286.493 286.849 286.897 286.958 287.702 288.291 288.204
285.653 285.017 284.66 284.626 284.699 284.994 285.381 285.537 285.542 285.472
285.403 285.387 285.451 285.611 285.872 286.153 286.437 286.738 287.124 285.257
284.218 283.736 283.546 283.503 283.504 283.493 283.473 283.447 283.416 283.391
283.375 283.365 283.359 283.359 283.361 283.361 283.416 284.341 284.53 286.539
285.14 283.523 283.434 283.438 283.435 283.434 283.432 283.448 283.472 283.495
283.512 283.524 283.529 283.526 283.517 283.603 283.799 284.343 285.76 284.844
283.837 283.577 283.55 283.566 283.568 283.551 283.521 283.484 283.445 283.414
283.385 283.36 283.34 283.323 283.31 283.3 283.301 283.612 283.592 285.459
285.146 283.545 283.455 283.464 283.467 283.471 283.481 283.504 283.532 283.549
283.561 283.572 283.578 283.578 283.567 283.555 283.583 283.854 285.209 284.623
283.716 283.583 283.603 283.626 283.624 283.596 283.556 283.512 283.476 283.443
283.411 283.382 283.355 283.332 283.314 283.3 283.29 283.361 283.351 284.642
285.016 283.81 283.475 283.489 283.5 283.514 283.531 283.548 283.56 283.563
283.57 283.583 283.595 283.603 283.601 283.586 283.573 283.706 284.916 284.49
283.672 283.609 283.648 283.675 283.665 283.625 283.575 283.531 283.494 283.46
283.429 283.398 283.369 283.342 283.319 283.3 283.286 283.293 283.288 284.031
284.774 284.007 283.497 283.505 283.523 283.54 283.553 283.557 283.552 283.544
283.552 283.57 283.591 283.608 283.614 283.604 283.583 283.649 284.734 284.402
283.655 283.633 283.682 283.712 283.692 283.64 283.586 283.54 283.5 283.466
283.435 283.406 283.378 283.35 283.324 283.301 283.283 283.275 283.268 283.629
284.512 284.118 283.538 283.514 283.536 283.55 283.553 283.543 283.525 283.512
283.523 283.549 283.58 283.605 283.618 283.614 283.592 283.623 284.611 284.342
283.648 283.65 283.706 283.741 283.708 283.648 283.59 283.539 283.497 283.462
283.432 283.405 283.379 283.352 283.326 283.301 283.28 283.266 283.258 283.409
284.273 284.138 283.679 283.518 283.54 283.547 283.537 283.514 283.489 283.475
283.491 283.526 283.565 283.599 283.619 283.62 283.599 283.61 284.521 284.3
283.645 283.662 283.725 283.76 283.715 283.652 283.587 283.531 283.486 283.45
283.421 283.397 283.373 283.349 283.324 283.299 283.277 283.26 283.25 283.306
284.07 284.112 283.741 283.518 283.537 283.535 283.512 283.478 283.447 283.435
283.459 283.503 283.55 283.592 283.618 283.623 283.604 283.603 284.452 284.27
283.642 283.665 283.749 283.769 283.72 283.649 283.578 283.517 283.469 283.433
283.405 283.382 283.361 283.341 283.318 283.294 283.272 283.254 283.243 283.262
283.903 284.064 283.778 283.517 283.53 283.517 283.481 283.438 283.404 283.396
283.428 283.481 283.535 283.586 283.617 283.626 283.608 283.598 284.398 284.248
283.638 283.656 283.772 283.777 283.719 283.639 283.562 283.498 283.448 283.41
283.383 283.363 283.345 283.328 283.308 283.287 283.266 283.248 283.235 283.241
283.768 284.009 283.8 283.514 283.519 283.494 283.447 283.396 283.362 283.359
283.399 283.461 283.521 283.579 283.616 283.627 283.61 283.594 284.353 284.236
283.634 283.643 283.786 283.783 283.713 283.624 283.541 283.473 283.422 283.385
283.359 283.34 283.326 283.312 283.296 283.277 283.258 283.241 283.228 283.228
283.659 283.952 283.812 283.509 283.505 283.469 283.411 283.356 283.323 283.324
283.375 283.445 283.51 283.572 283.614 283.628 283.612 283.591 284.316 284.232
283.632 283.649 283.804 283.786 283.7 283.601 283.514 283.445 283.394 283.357
283.332 283.316 283.304 283.293 283.281 283.266 283.249 283.233 283.22 283.218
283.572 283.897 283.816 283.504 283.49 283.443 283.376 283.318 283.287 283.294
283.354 283.432 283.501 283.566 283.612 283.628 283.613 283.589 284.285 284.231
283.66 283.717 283.835 283.785 283.679 283.572 283.483 283.415 283.364 283.329
283.305 283.289 283.28 283.273 283.265 283.253 283.239 283.224 283.213 283.21
283.502 283.846 283.816 283.498 283.475 283.417 283.343 283.284 283.257 283.268
283.339 283.424 283.495 283.562 283.611 283.629 283.613 283.586 284.258 284.231
283.727 283.842 283.869 283.773 283.647 283.535 283.448 283.382 283.334 283.299
283.276 283.262 283.256 283.252 283.247 283.239 283.227 283.215 283.205 283.202
283.446 283.801 283.812 283.492 283.458 283.389 283.312 283.255 283.232 283.248
283.329 283.419 283.493 283.559 283.61 283.629 283.613 283.584 284.234 284.231
283.829 283.928 283.878 283.743 283.605 283.494 283.411 283.35 283.304 283.271
283.248 283.235 283.23 283.229 283.227 283.223 283.215 283.205 283.197 283.195
283.402 283.762 283.807 283.486 283.443 283.365 283.285 283.232 283.213 283.234
283.324 283.42 283.495 283.559 283.612 283.63 283.613 283.581 284.213 284.23
283.955 283.985 283.858 283.693 283.553 283.45 283.375 283.318 283.275 283.243
283.221 283.208 283.204 283.205 283.207 283.207 283.202 283.195 283.189 283.188
283.366 283.728 283.8 283.48 283.427 283.343 283.264 283.215 283.2 283.225
283.323 283.425 283.5 283.561 283.615 283.631 283.612 283.579 284.195 284.23
284.082 283.996 283.803 283.625 283.497 283.407 283.34 283.288 283.247 283.217
283.196 283.183 283.178 283.18 283.185 283.189 283.189 283.185 283.18 283.181
283.338 283.699 283.793 283.474 283.413 283.324 283.247 283.205 283.193 283.223
283.328 283.435 283.511 283.567 283.619 283.634 283.612 283.576 284.178 284.23
284.159 283.94 283.712 283.548 283.442 283.367 283.308 283.26 283.223 283.195
283.175 283.162 283.156 283.157 283.164 283.171 283.174 283.174 283.172 283.175
283.315 283.675 283.786 283.467 283.4 283.309 283.237 283.2 283.192 283.224
283.336 283.449 283.525 283.575 283.625 283.636 283.611 283.573 284.164 284.229
284.089 283.808 283.6 283.475 283.395 283.333 283.28 283.236 283.203 283.179
283.161 283.147 283.138 283.137 283.144 283.153 283.16 283.163 283.164 283.169
283.297 283.656 283.779 283.461 283.388 283.297 283.232 283.201 283.196 283.23
283.349 283.469 283.543 283.587 283.631 283.638 283.609 283.57 284.151 284.208
283.905 283.641 283.496 283.418 283.359 283.304 283.255 283.216 283.189 283.17
283.155 283.14 283.127 283.122 283.126 283.136 283.146 283.152 283.156 283.163
283.283 283.642 283.773 283.454 283.378 283.289 283.233 283.206 283.204 283.238
283.367 283.492 283.565 283.602 283.639 283.64 283.607 283.566 284.139 283.96
283.628 283.487 283.427 283.382 283.332 283.28 283.235 283.203 283.183 283.172
283.16 283.144 283.125 283.114 283.114 283.122 283.133 283.142 283.148 283.158
283.272 283.632 283.766 283.448 283.37 283.285 283.238 283.215 283.216 283.249
283.388 283.52 283.591 283.62 283.648 283.642 283.605 283.562 284.128 283.471
283.436 283.426 283.402 283.36 283.308 283.258 283.219 283.197 283.189 283.186
283.179 283.163 283.137 283.115 283.107 283.112 283.122 283.132 283.141 283.153
283.263 283.627 283.759 283.442 283.363 283.285 283.245 283.228 283.232 283.262
283.413 283.551 283.619 283.64 283.658 283.643 283.602 283.558 284.119 283.425
283.433 283.421 283.388 283.339 283.286 283.241 283.212 283.203 283.207 283.215
283.214 283.198 283.163 283.128 283.109 283.106 283.114 283.125 283.135 283.149
283.257 283.628 283.751 283.437 283.359 283.288 283.255 283.245 283.251 283.275
283.442 283.584 283.648 283.662 283.669 283.645 283.598 283.554 284.11 283.427
283.433 283.412 283.37 283.318 283.268 283.231 283.216 283.222 283.241 283.259
283.265 283.25 283.208 283.156 283.12 283.107 283.11 283.12 283.131 283.146
283.254 283.635 283.742 283.432 283.356 283.293 283.266 283.267 283.272 283.29
283.474 283.62 283.677 283.684 283.681 283.646 283.593 283.549 284.102 283.427
283.43 283.399 283.352 283.3 283.255 283.23 283.232 283.255 283.288 283.316
283.327 283.314 283.271 283.2 283.145 283.117 283.112 283.118 283.129 283.145
283.258 283.646 283.732 283.427 283.355 283.301 283.279 283.292 283.295 283.306
283.508 283.655 283.704 283.704 283.691 283.646 283.589 283.545 284.095 283.426
283.425 283.386 283.336 283.286 283.251 283.242 283.261 283.303 283.347 283.382
283.394 283.381 283.341 283.265 283.185 283.137 283.12 283.121 283.129 283.145
283.275 283.657 283.721 283.423 283.356 283.31 283.296 283.321 283.319 283.324
283.546 283.69 283.726 283.719 283.699 283.647 283.584 283.54 284.089 283.424
283.418 283.373 283.322 283.279 283.257 283.266 283.304 283.36 283.411 283.445
283.455 283.44 283.397 283.324 283.237 283.169 283.136 283.127 283.132 283.15
283.303 283.667 283.709 283.42 283.357 283.32 283.319 283.353 283.344 283.343
283.584 283.721 283.742 283.73 283.704 283.648 283.58 283.536 284.084 283.422
283.41 283.362 283.314 283.28 283.274 283.302 283.356 283.418 283.47 283.501
283.508 283.488 283.443 283.371 283.286 283.208 283.16 283.14 283.139 283.167
283.337 283.675 283.697 283.417 283.358 283.324 283.347 283.385 283.367 283.363
283.624 283.745 283.753 283.737 283.708 283.651 283.575 283.531 284.081 283.419
283.403 283.354 283.312 283.29 283.302 283.345 283.407 283.471 283.521 283.549
283.551 283.527 283.479 283.41 283.329 283.249 283.19 283.159 283.154 283.195
283.375 283.683 283.686 283.414 283.358 283.318 283.38 283.418 283.391 283.386
283.663 283.762 283.76 283.741 283.711 283.653 283.572 283.53 284.078 283.416
283.395 283.349 283.316 283.309 283.334 283.387 283.453 283.517 283.564 283.587
283.586 283.56 283.512 283.445 283.366 283.289 283.225 283.186 283.181 283.235
283.414 283.689 283.675 283.412 283.358 283.333 283.415 283.45 283.412 283.41
283.698 283.775 283.766 283.743 283.712 283.656 283.569 283.538 284.076 283.413
283.389 283.348 283.326 283.33 283.365 283.424 283.491 283.552 283.596 283.617
283.615 283.589 283.543 283.479 283.404 283.33 283.265 283.224 283.221 283.283
283.452 283.693 283.666 283.411 283.359 283.376 283.454 283.482 283.432 283.438
283.726 283.787 283.768 283.741 283.712 283.658 283.569 283.557 284.073 283.409
283.386 283.351 283.337 283.351 283.392 283.452 283.517 283.575 283.617 283.639
283.639 283.618 283.576 283.516 283.446 283.376 283.314 283.275 283.274 283.336
283.49 283.697 283.66 283.412 283.368 283.418 283.491 283.512 283.449 283.467
283.75 283.798 283.77 283.736 283.706 283.657 283.572 283.588 284.071 283.406
283.384 283.355 283.348 283.367 283.41 283.469 283.531 283.586 283.627 283.651
283.657 283.643 283.61 283.559 283.495 283.43 283.373 283.336 283.336 283.392
283.525 283.701 283.657 283.419 283.392 283.46 283.528 283.539 283.464 283.496
283.772 283.808 283.771 283.727 283.694 283.651 283.583 283.631 284.068 283.403
283.383 283.359 283.356 283.376 283.418 283.472 283.529 283.58 283.622 283.651
283.665 283.663 283.642 283.603 283.55 283.49 283.439 283.405 283.402 283.448
283.557 283.704 283.654 283.447 283.435 283.505 283.564 283.564 283.475 283.525
283.792 283.82 283.777 283.722 283.68 283.645 283.609 283.685 284.065 283.4
283.382 283.361 283.359 283.378 283.413 283.46 283.511 283.558 283.6 283.634
283.659 283.671 283.666 283.643 283.603 283.554 283.508 283.477 283.47 283.503
283.588 283.709 283.651 283.493 283.493 283.554 283.599 283.585 283.481 283.553
283.812 283.836 283.791 283.731 283.682 283.658 283.657 283.746 284.063 283.396
283.381 283.361 283.358 283.371 283.398 283.435 283.477 283.519 283.56 283.599
283.634 283.661 283.676 283.672 283.651 283.615 283.577 283.547 283.537 283.556
283.617 283.716 283.649 283.55 283.558 283.605 283.633 283.602 283.483 283.58
283.831 283.858 283.82 283.767 283.722 283.707 283.727 283.813 284.06 283.39
283.377 283.357 283.352 283.358 283.375 283.4 283.43 283.464 283.501 283.542
283.586 283.629 283.663 283.683 283.684 283.667 283.64 283.615 283.6 283.607
283.646 283.724 283.655 283.607 283.621 283.653 283.661 283.612 283.477 283.606
283.85 283.884 283.862 283.827 283.797 283.788 283.812 283.881 284.057 283.38
283.369 283.348 283.339 283.34 283.347 283.359 283.376 283.399 283.428 283.466
283.513 283.566 283.618 283.663 283.692 283.7 283.691 283.675 283.66 283.658
283.677 283.734 283.676 283.662 283.679 283.696 283.681 283.609 283.462 283.629
283.864 283.911 283.91 283.897 283.884 283.881 283.899 283.944 284.053 283.353
283.348 283.326 283.314 283.311 283.312 283.315 283.32 283.328 283.343 283.369
283.408 283.462 283.524 283.589 283.647 283.69 283.712 283.716 283.712 283.708
283.713 283.75 283.717 283.719 283.73 283.721 283.676 283.582 283.43 283.643
283.867 283.925 283.945 283.954 283.958 283.962 283.972 283.995 284.048 283.085
283.246 283.258 283.236 283.22 283.209 283.201 283.195 283.192 283.193 283.202
283.223 283.259 283.31 283.373 283.442 283.511 283.575 283.628 283.667 283.693
283.715 283.752 283.733 283.717 283.689 283.644 283.58 283.488 283.366 283.628
283.827 283.886 283.913 283.931 283.947 283.962 283.979 283.998 284.023 
alphat 1 1600 float
0 0 0 0 0 0 0 0 0 0 0
0 0 0 0 0 0 0 0 0 0
0 0 0 0 0 0 0 0 0 0
0 0 0 0 0 0 0 0 0 0
0 0 0 0 0 0 0 0 0 0
0 0 0 0 0 0 0 0 0 0
0 0 0 0 0 0 0 0 0 0
0 0 0 0 0 0 0 0 0 0
0 0 0 0 0 0 0 0 0 0
0 0 0 0 0 0 0 0 0 0
0 0 0 0 0 0 0 0 0 0
0 0 0 0 0 0 0 0 0 0
0 0 0 0 0 0 0 0 0 0
0 0 0 0 0 0 0 0 0 0
0 0 0 0 0 0 0 0 0 0
0 0 0 0 0 0 0 0 0 0
0 0 0 0 0 0 0 0 0 0
0 0 0 0 0 0 0 0 0 0
0 0 0 0 0 0 0 0 0 0
0 0 0 0 0 0 0 0 0 0