# vtk DataFile Version 2.0
RBConvection
ASCII
DATASET UNSTRUCTURED_GRID
POINTS 3362 float
0 0 0 0.025 0 0 0.05 0 0 0.075 0
0 0.1 0 0 0.125 0 0 0.15 0 0
0.175 0 0 0.2 0 0 0.225 0 0 0.25
0 0 0.275 0 0 0.3 0 0 0.325 0
0 0.35 0 0 0.375 0 0 0.4 0 0
0.425 0 0 0.45 0 0 0.475 0 0 0.5
0 0 0.525 0 0 0.55 0 0 0.575 0
0 0.6 0 0 0.625 0 0 0.65 0 0
0.675 0 0 0.7 0 0 0.725 0 0 0.75
0 0 0.775 0 0 0.8 0 0 0.825 0
0 0.85 0 0 0.875 0 0 0.9 0 0
0.925 0 0 0.95 0 0 0.975 0 0 1
0 0 0 0.01 0 0.025 0.01 0 0.05 0.01
0 0.075 0.01 0 0.1 0.01 0 0.125 0.01 0
0.15 0.01 0 0.175 0.01 0 0.2 0.01 0 0.225
0.01 0 0.25 0.01 0 0.275 0.01 0 0.3 0.01
0 0.325 0.01 0 0.35 0.01 0 0.375 0.01 0
0.4 0.01 0 0.425 0.01 0 0.45 0.01 0 0.475
0.01 0 0.5 0.01 0 0.525 0.01 0 0.55 0.01
0 0.575 0.01 0 0.6 0.01 0 0.625 0.01 0
0.65 0.01 0 0.675 0.01 0 0.7 0.01 0 0.725
0.01 0 0.75 0.01 0 0.775 0.01 0 0.8 0.01
0 0.825 0.01 0 0.85 0.01 0 0.875 0.01 0
0.9 0.01 0 0.925 0.01 0 0.95 0.01 0 0.975
0.01 0 1 0.01 0 0 0.02 0 0.025 0.02
0 0.05 0.02 0 0.075 0.02 0 0.1 0.02 0
0.125 0.02 0 0.15 0.02 0 0.175 0.02 0 0.2
0.02 0 0.225 0.02 0 0.25 0.02 0 0.275 0.02
0 0.3 0.02 0 0.325 0.02 0 0.35 0.02 0
0.375 0.02 0 0.4 0.02 0 0.425 0.02 0 0.45
0.02 0 0.475 0.02 0 0.5 0.02 0 0.525 0.02
0 0.55 0.02 0 0.575 0.02 0 0.6 0.02 0
0.625 0.02 0 0.65 0.02 0 0.675 0.02 0 0.7
0.02 0 0.725 0.02 0 0.75 0.02 0 0.775 0.02
0 0.8 0.02 0 0.825 0.02 0 0.85 0.02 0
0.875 0.02 0 0.9 0.02 0 0.925 0.02 0 0.95
0.02 0 0.975 0.02 0 1 0.02 0 0 0.03
0 0.025 0.03 0 0.05 0.03 0 0.075 0.03 0
0.1 0.03 0 0.125 0.03 0 0.15 0.03 0 0.175
0.03 0 0.2 0.03 0 0.225 0.03 0 0.25 0.03
0 0.275 0.03 0 0.3 0.03 0 0.325 0.03 0
0.35 0.03 0 0.375 0.03 0 0.4 0.03 0 0.425
0.03 0 0.45 0.03 0 0.475 0.03 0 0.5 0.03
0 0.525 0.03 0 0.55 0.03 0 0.575 0.03 0
0.6 0.03 0 0.625 0.03 0 0.65 0.03 0 0.675
0.03 0 0.7 0.03 0 0.725 0.03 0 0.75 0.03
0 0.775 0.03 0 0.8 0.03 0 0.825 0.03 0
0.85 0.03 0 0.875 0.03 0 0.9 0.03 0 0.925
0.03 0 0.95 0.03 0 0.975 0.03 0 1 0.03
0 0 0.04 0 0.025 0.04 0 0.05 0.04 0
0.075 0.04 0 0.1 0.04 0 0.125 0.04 0 0.15
0.04 0 0.175 0.04 0 0.2 0.04 0 0.225 0.04
0 0.25 0.04 0 0.275 0.04 0 0.3 0.04 0
0.325 0.04 0 0.35 0.04 0 0.375 0.04 0 0.4
0.04 0 0.425 0.04 0 0.45 0.04 0 0.475 0.04
0 0.5 0.04 0 0.525 0.04 0 0.55 0.04 0
0.575 0.04 0 0.6 0.04 0 0.625 0.04 0 0.65
0.04 0 0.675 0.04 0 0.7 0.04 0 0.725 0.04
0 0.75 0.04 0 0.775 0.04 0 0.8 0.04 0
0.825 0.04 0 0.85 0.04 0 0.875 0.04 0 0.9
0.04 0 0.925 0.04 0 0.95 0.04 0 0.975 0.04
0 1 0.04 0 0 0.05 0 0.025 0.05 0
0.05 0.05 0 0.075 0.05 0 0.1 0.05 0 0.125
0.05 0 0.15 0.05 0 0.175 0.05 0 0.2 0.05
0 0.225 0.05 0 0.25 0.05 0 0.275 0.05 0
0.3 0.05 0 0.325 0.05 0 0.35 0.05 0 0.375
0.05 0 0.4 0.05 0 0.425 0.05 0 0.45 0.05
0 0.475 0.05 0 0.5 0.05 0 0.525 0.05 0
0.55 0.05 0 0.575 0.05 0 0.6 0.05 0 0.625
0.05 0 0.65 0.05 0 0.675 0.05 0 0.7 0.05
0 0.725 0.05 0 0.75 0.05 0 0.775 0.05 0
0.8 0.05 0 0.825 0.05 0 0.85 0.05 0 0.875
0.05 0 0.9 0.05 0 0.925 0.05 0 0.95 0.05
0 0.975 0.05 0 1 0.05 0 0 0.06 0
0.025 0.06 0 0.05 0.06 0 0.075 0.06 0 0.1
0.06 0 0.125 0.06 0 0.15 0.06 0 0.175 0.06
0 0.2 0.06 0 0.225 0.06 0 0.25 0.06 0
0.275 0.06 0 0.3 0.06 0 0.325 0.06 0 0.35
0.06 0 0.375 0.06 0 0.4 0.06 0 0.425 0.06
0 0.45 0.06 0 0.475 0.06 0 0.5 0.06 0
0.525 0.06 0 0.55 0.06 0 0.575 0.06 0 0.6
0.06 0 0.625 0.06 0 0.65 0.06 0 0.675 0.06
0 0.7 0.06 0 0.725 0.06 0 0.75 0.06 0
0.775 0.06 0 0.8 0.06 0 0.825 0.06 0 0.85
0.06 0 0.875 0.06 0 0.9 0.06 0 0.925 0.06
0 0.95 0.06 0 0.975 0.06 0 1 0.06 0
0 0.07 0 0.025 0.07 0 0.05 0.07 0 0.075
0.07 0 0.1 0.07 0 0.125 0.07 0 0.15 0.07
0 0.175 0.07 0 0.2 0.07 0 0.225 0.07 0
0.25 0.07 0 0.275 0.07 0 0.3 0.07 0 0.325
0.07 0 0.35 0.07 0 0.375 0.07 0 0.4 0.07
0 0.425 0.07 0 0.45 0.07 0 0.475 0.07 0
0.5 0.07 0 0.525 0.07 0 0.55 0.07 0 0.575
0.07 0 0.6 0.07 0 0.625 0.07 0 0.65 0.07
0 0.675 0.07 0 0.7 0.07 0 0.725 0.07 0
0.75 0.07 0 0.775 0.07 0 0.8 0.07 0 0.825
0.07 0 0.85 0.07 0 0.875 0.07 0 0.9 0.07
0 0.925 0.07 0 0.95 0.07 0 0.975 0.07 0
1 0.07 0 0 0.08 0 0.025 0.08 0 0.05
0.08 0 0.075 0.08 0 0.1 0.08 0 0.125 0.08
0 0.15 0.08 0 0.175 0.08 0 0.2 0.08 0
0.225 0.08 0 0.25 0.08 0 0.275 0.08 0 0.3
0.08 0 0.325 0.08 0 0.35 0.08 0 0.375 0.08
0 0.4 0.08 0 0.425 0.08 0 0.45 0.08 0
0.475 0.08 0 0.5 0.08 0 0.525 0.08 0 0.55
0.08 0 0.575 0.08 0 0.6 0.08 0 0.625 0.08
0 0.65 0.08 0 0.675 0.08 0 0.7 0.08 0
0.725 0.08 0 0.75 0.08 0 0.775 0.08 0 0.8
0.08 0 0.825 0.08 0 0.85 0.08 0 0.875 0.08
0 0.9 0.08 0 0.925 0.08 0 0.95 0.08 0
0.975 0.08 0 1 0.08 0 0 0.09 0 0.025
0.09 0 0.05 0.09 0 0.075 0.09 0 0.1 0.09
0 0.125 0.09 0 0.15 0.09 0 0.175 0.09 0
0.2 0.09 0 0.225 0.09 0 0.25 0.09 0 0.275
0.09 0 0.3 0.09 0 0.325 0.09 0 0.35 0.09
0 0.375 0.09 0 0.4 0.09 0 0.425 0.09 0
0.45 0.09 0 0.475 0.09 0 0.5 0.09 0 0.525
0.09 0 0.55 0.09 0 0.575 0.09 0 0.6 0.09
0 0.625 0.09 0 0.65 0.09 0 0.675 0.09 0
0.7 0.09 0 0.725 0.09 0 0.75 0.09 0 0.775
0.09 0 0.8 0.09 0 0.825 0.09 0 0.85 0.09
0 0.875 0.09 0 0.9 0.09 0 0.925 0.09 0
0.95 0.09 0 0.975 0.09 0 1 0.09 0 0
0.1 0 0.025 0.1 0 0.05 0.1 0 0.075 0.1
0 0.1 0.1 0 0.125 0.1 0 0.15 0.1 0
0.175 0.1 0 0.2 0.1 0 0.225 0.1 0 0.25
0.1 0 0.275 0.1 0 0.3 0.1 0 0.325 0.1
0 0.35 0.1 0 0.375 0.1 0 0.4 0.1 0
0.425 0.1 0 0.45 0.1 0 0.475 0.1 0 0.5
0.1 0 0.525 0.1 0 0.55 0.1 0 0.575 0.1
0 0.6 0.1 0 0.625 0.1 0 0.65 0.1 0
0.675 0.1 0 0.7 0.1 0 0.725 0.1 0 0.75
0.1 0 0.775 0.1 0 0.8 0.1 0 0.825 0.1
0 0.85 0.1 0 0.875 0.1 0 0.9 0.1 0
0.925 0.1 0 0.95 0.1 0 0.975 0.1 0 1
0.1 0 0 0.11 0 0.025 0.11 0 0.05 0.11
0 0.075 0.11 0 0.1 0.11 0 0.125 0.11 0
0.15 0.11 0 0.175 0.11 0 0.2 0.11 0 0.225
0.11 0 0.25 0.11 0 0.275 0.11 0 0.3 0.11
0 0.325 0.11 0 0.35 0.11 0 0.375 0.11 0
0.4 0.11 0 0.425 0.11 0 0.45 0.11 0 0.475
0.11 0 0.5 0.11 0 0.525 0.11 0 0.55 0.11
0 0.575 0.11 0 0.6 0.11 0 0.625 0.11 0
0.65 0.11 0 0.675 0.11 0 0.7 0.11 0 0.725
0.11 0 0.75 0.11 0 0.775 0.11 0 0.8 0.11
0 0.825 0.11 0 0.85 0.11 0 0.875 0.11 0
0.9 0.11 0 0.925 0.11 0 0.95 0.11 0 0.975
0.11 0 1 0.11 0 0 0.12 0 0.025 0.12
0 0.05 0.12 0 0.075 0.12 0 0.1 0.12 0
0.125 0.12 0 0.15 0.12 0 0.175 0.12 0 0.2
0.12 0 0.225 0.12 0 0.25 0.12 0 0.275 0.12
0 0.3 0.12 0 0.325 0.12 0 0.35 0.12 0
0.375 0.12 0 0.4 0.12 0 0.425 0.12 0 0.45
0.12 0 0.475 0.12 0 0.5 0.12 0 0.525 0.12
0 0.55 0.12 0 0.575 0.12 0 0.6 0.12 0
0.625 0.12 0 0.65 0.12 0 0.675 0.12 0 0.7
0.12 0 0.725 0.12 0 0.75 0.12 0 0.775 0.12
0 0.8 0.12 0 0.825 0.12 0 0.85 0.12 0
0.875 0.12 0 0.9 0.12 0 0.925 0.12 0 0.95
0.12 0 0.975 0.12 0 1 0.12 0 0 0.13
0 0.025 0.13 0 0.05 0.13 0 0.075 0.13 0
0.1 0.13 0 0.125 0.13 0 0.15 0.13 0 0.175
0.13 0 0.2 0.13 0 0.225 0.13 0 0.25 0.13
0 0.275 0.13 0 0.3 0.13 0 0.325 0.13 0
0.35 0.13 0 0.375 0.13 0 0.4 0.13 0 0.425
0.13 0 0.45 0.13 0 0.475 0.13 0 0.5 0.13
0 0.525 0.13 0 0.55 0.13 0 0.575 0.13 0
0.6 0.13 0 0.625 0.13 0 0.65 0.13 0 0.675
0.13 0 0.7 0.13 0 0.725 0.13 0 0.75 0.13
0 0.775 0.13 0 0.8 0.13 0 0.825 0.13 0
0.85 0.13 0 0.875 0.13 0 0.9 0.13 0 0.925
0.13 0 0.95 0.13 0 0.975 0.13 0 1 0.13
0 0 0.14 0 0.025 0.14 0 0.05 0.14 0
0.075 0.14 0 0.1 0.14 0 0.125 0.14 0 0.15
0.14 0 0.175 0.14 0 0.2 0.14 0 0.225 0.14
0 0.25 0.14 0 0.275 0.14 0 0.3 0.14 0
0.325 0.14 0 0.35 0.14 0 0.375 0.14 0 0.4
0.14 0 0.425 0.14 0 0.45 0.14 0 0.475 0.14
0 0.5 0.14 0 0.525 0.14 0 0.55 0.14 0
0.575 0.14 0 0.6 0.14 0 0.625 0.14 0 0.65
0.14 0 0.675 0.14 0 0.7 0.14 0 0.725 0.14
0 0.75 0.14 0 0.775 0.14 0 0.8 0.14 0
0.825 0.14 0 0.85 0.14 0 0.875 0.14 0 0.9
0.14 0 0.925 0.14 0 0.95 0.14 0 0.975 0.14
0 1 0.14 0 0 0.15 0 0.025 0.15 0
0.05 0.15 0 0.075 0.15 0 0.1 0.15 0 0.125
0.15 0 0.15 0.15 0 0.175 0.15 0 0.2 0.15
0 0.225 0.15 0 0.25 0.15 0 0.275 0.15 0
0.3 0.15 0 0.325 0.15 0 0.35 0.15 0 0.375
0.15 0 0.4 0.15 0 0.425 0.15 0 0.45 0.15
0 0.475 0.15 0 0.5 0.15 0 0.525 0.15 0
0.55 0.15 0 0.575 0.15 0 0.6 0.15 0 0.625
0.15 0 0.65 0.15 0 0.675 0.15 0 0.7 0.15
0 0.725 0.15 0 0.75 0.15 0 0.775 0.15 0
0.8 0.15 0 0.825 0.15 0 0.85 0.15 0 0.875
0.15 0 0.9 0.15 0 0.925 0.15 0 0.95 0.15
0 0.975 0.15 0 1 0.15 0 0 0.16 0
0.025 0.16 0 0.05 0.16 0 0.075 0.16 0 0.1
0.16 0 0.125 0.16 0 0.15 0.16 0 0.175 0.16
0 0.2 0.16 0 0.225 0.16 0 0.25 0.16 0
0.275 0.16 0 0.3 0.16 0 0.325 0.16 0 0.35
0.16 0 0.375 0.16 0 0.4 0.16 0 0.425 0.16
0 0.45 0.16 0 0.475 0.16 0 0.5 0.16 0
0.525 0.16 0 0.55 0.16 0 0.575 0.16 0 0.6
0.16 0 0.625 0.16 0 0.65 0.16 0 0.675 0.16
0 0.7 0.16 0 0.725 0.16 0 0.75 0.16 0
0.775 0.16 0 0.8 0.16 0 0.825 0.16 0 0.85
0.16 0 0.875 0.16 0 0.9 0.16 0 0.925 0.16
0 0.95 0.16 0 0.975 0.16 0 1 0.16 0
0 0.17 0 0.025 0.17 0 0.05 0.17 0 0.075
0.17 0 0.1 0.17 0 0.125 0.17 0 0.15 0.17
0 0.175 0.17 0 0.2 0.17 0 0.225 0.17 0
0.25 0.17 0 0.275 0.17 0 0.3 0.17 0 0.325
0.17 0 0.35 0.17 0 0.375 0.17 0 0.4 0.17
0 0.425 0.17 0 0.45 0.17 0 0.475 0.17 0
0.5 0.17 0 0.525 0.17 0 0.55 0.17 0 0.575
0.17 0 0.6 0.17 0 0.625 0.17 0 0.65 0.17
0 0.675 0.17 0 0.7 0.17 0 0.725 0.17 0
0.75 0.17 0 0.775 0.17 0 0.8 0.17 0 0.825
0.17 0 0.85 0.17 0 0.875 0.17 0 0.9 0.17
0 0.925 0.17 0 0.95 0.17 0 0.975 0.17 0
1 0.17 0 0 0.18 0 0.025 0.18 0 0.05
0.18 0 0.075 0.18 0 0.1 0.18 0 0.125 0.18
0 0.15 0.18 0 0.175 0.18 0 0.2 0.18 0
0.225 0.18 0 0.25 0.18 0 0.275 0.18 0 0.3
0.18 0 0.325 0.18 0 0.35 0.18 0 0.375 0.18
0 0.4 0.18 0 0.425 0.18 0 0.45 0.18 0
0.475 0.18 0 0.5 0.18 0 0.525 0.18 0 0.55
0.18 0 0.575 0.18 0 0.6 0.18 0 0.625 0.18
0 0.65 0.18 0 0.675 0.18 0 0.7 0.18 0
0.725 0.18 0 0.75 0.18 0 0.775 0.18 0 0.8
0.18 0 0.825 0.18 0 0.85 0.18 0 0.875 0.18
0 0.9 0.18 0 0.925 0.18 0 0.95 0.18 0
0.975 0.18 0 1 0.18 0 0 0.19 0 0.025
0.19 0 0.05 0.19 0 0.075 0.19 0 0.1 0.19
0 0.125 0.19 0 0.15 0.19 0 0.175 0.19 0
0.2 0.19 0 0.225 0.19 0 0.25 0.19 0 0.275
0.19 0 0.3 0.19 0 0.325 0.19 0 0.35 0.19
0 0.375 0.19 0 0.4 0.19 0 0.425 0.19 0
0.45 0.19 0 0.475 0.19 0 0.5 0.19 0 0.525
0.19 0 0.55 0.19 0 0.575 0.19 0 0.6 0.19
0 0.625 0.19 0 0.65 0.19 0 0.675 0.19 0
0.7 0.19 0 0.725 0.19 0 0.75 0.19 0 0.775
0.19 0 0.8 0.19 0 0.825 0.19 0 0.85 0.19
0 0.875 0.19 0 0.9 0.19 0 0.925 0.19 0
0.95 0.19 0 0.975 0.19 0 1 0.19 0 0
0.2 0 0.025 0.2 0 0.05 0.2 0 0.075 0.2
0 0.1 0.2 0 0.125 0.2 0 0.15 0.2 0
0.175 0.2 0 0.2 0.2 0 0.225 0.2 0 0.25
[...]
CELL_DATA 1600
FIELD attributes 6
cellID 1 1600 int
0 1 2 3 4 5 6 7 8 9 10
11 12 13 14 15 16 17 18 19 20
21 22 23 24 25 26 27 28 29 30
31 32 33 34 35 36 37 38 39 40
41 42 43 44 45 46 47 48 49 50
51 52 53 54 55 56 57 58 59 60
61 62 63 64 65 66 67 68 69 70
71 72 73 74 75 76 77 78 79 80
81 82 83 84 85 86 87 88 89 90
91 92 93 94 95 96 97 98 99 100
101 102 103 104 105 106 107 108 109 110
111 112 113 114 115 116 117 118 119 120
121 122 123 124 125 126 127 128 129 130
131 132 133 134 135 136 137 138 139 140
141 142 143 144 145 146 147 148 149 150
151 152 153 154 155 156 157 158 159 160
161 162 163 164 165 166 167 168 169 170
171 172 173 174 175 176 177 178 179 180
181 182 183 184 185 186 187 188 189 190
191 192 193 194 195 196 197 198 199 200
201 202 203 204 205 206 207 208 209 210
211 212 213 214 215 216 217 218 219 220
221 222 223 224 225 226 227 228 229 230
231 232 233 234 235 236 237 238 239 240
241 242 243 244 245 246 247 248 249 250
251 252 253 254 255 256 257 258 259 260
261 262 263 264 265 266 267 268 269 270
271 272 273 274 275 276 277 278 279 280
281 282 283 284 285 286 287 288 289 290
291 292 293 294 295 296 297 298 299 300
301 302 303 304 305 306 307 308 309 310
311 312 313 314 315 316 317 318 319 320
321 322 323 324 325 326 327 328 329 330
331 332 333 334 335 336 337 338 339 340
341 342 343 344 345 346 347 348 349 350
351 352 353 354 355 356 357 358 359 360
361 362 363 364 365 366 367 368 369 370
371 372 373 374 375 376 377 378 379 380
381 382 383 384 385 386 387 388 389 390
391 392 393 394 395 396 397 398 399 400
401 402 403 404 405 406 407 408 409 410
411 412 413 414 415 416 417 418 419 420
421 422 423 424 425 426 427 428 429 430
431 432 433 434 435 436 437 438 439 440
441 442 443 444 445 446 447 448 449 450
451 452 453 454 455 456 457 458 459 460
461 462 463 464 465 466 467 468 469 470
471 472 473 474 475 476 477 478 479 480
481 482 483 484 485 486 487 488 489 490
491 492 493 494 495 496 497 498 499 500
501 502 503 504 505 506 507 508 509 510
511 512 513 514 515 516 517 518 519 520
521 522 523 524 525 526 527 528 529 530
531 532 533 534 535 536 537 538 539 540
541 542 543 544 545 546 547 548 549 550
551 552 553 554 555 556 557 558 559 560
561 562 563 564 565 566 567 568 569 570
571 572 573 574 575 576 577 578 579 580
581 582 583 584 585 586 587 588 589 590
591 592 593 594 595 596 597 598 599 600
601 602 603 604 605 606 607 608 609 610
611 612 613 614 615 616 617 618 619 620
621 622 623 624 625 626 627 628 629 630
631 632 633 634 635 636 637 638 639 640
641 642 643 644 645 646 647 648 649 650
651 652 653 654 655 656 657 658 659 660
661 662 663 664 665 666 667 668 669 670
671 672 673 674 675 676 677 678 679 680
681 682 683 684 685 686 687 688 689 690
691 692 693 694 695 696 697 698 699 700
701 702 703 704 705 706 707 708 709 710
711 712 713 714 715 716 717 718 719 720
721 722 723 724 725 726 727 728 729 730
731 732 733 734 735 736 737 738 739 740
741 742 743 744 745 746 747 748 749 750
751 752 753 754 755 756 757 758 759 760
761 762 763 764 765 766 767 768 769 770
771 772 773 774 775 776 777 778 779 780
781 782 783 784 785 786 787 788 789 790
791 792 793 794 795 796 797 798 799 800
801 802 803 804 805 806 807 808 809 810
811 812 813 814 815 816 817 818 819 820
821 822 823 824 825 826 827 828 829 830
831 832 833 834 835 836 837 838 839 840
841 842 843 844 845 846 847 848 849 850
851 852 853 854 855 856 857 858 859 860
861 862 863 864 865 866 867 868 869 870
871 872 873 874 875 876 877 878 879 880
881 882 883 884 885 886 887 888 889 890
891 892 893 894 895 896 897 898 899 900
901 902 903 904 905 906 907 908 909 910
911 912 913 914 915 916 917 918 919 920
921 922 923 924 925 926 927 928 929 930
931 932 933 934 935 936 937 938 939 940
941 942 943 944 945 946 947 948 949 950
951 952 953 954 955 956 957 958 959 960
961 962 963 964 965 966 967 968 969 970
971 972 973 974 975 976 977 978 979 980
981 982 983 984 985 986 987 988 989 990
991 992 993 994 995 996 997 998 999 1000
1001 1002 1003 1004 1005 1006 1007 1008 1009 1010
1011 1012 1013 1014 1015 1016 1017 1018 1019 1020
1021 1022 1023 1024 1025 1026 1027 1028 1029 1030
1031 1032 1033 1034 1035 1036 1037 1038 1039 1040
1041 1042 1043 1044 1045 1046 1047 1048 1049 1050
1051 1052 1053 1054 1055 1056 1057 1058 1059 1060
1061 1062 1063 1064 1065 1066 1067 1068 1069 1070
1071 1072 1073 1074 1075 1076 1077 1078 1079 1080
1081 1082 1083 1084 1085 1086 1087 1088 1089 1090
1091 1092 1093 1094 1095 1096 1097 1098 1099 1100
1101 1102 1103 1104 1105 1106 1107 1108 1109 1110
1111 1112 1113 1114 1115 1116 1117 1118 1119 1120
1121 1122 1123 1124 1125 1126 1127 1128 1129 1130
1131 1132 1133 1134 1135 1136 1137 1138 1139 1140
1141 1142 1143 1144 1145 1146 1147 1148 1149 1150
1151 1152 1153 1154 1155 1156 1157 1158 1159 1160
1161 1162 1163 1164 1165 1166 1167 1168 1169 1170
1171 1172 1173 1174 1175 1176 1177 1178 1179 1180
1181 1182 1183 1184 1185 1186 1187 1188 1189 1190
1191 1192 1193 1194 1195 1196 1197 1198 1199 1200
1201 1202 1203 1204 1205 1206 1207 1208 1209 1210
1211 1212 1213 1214 1215 1216 1217 1218 1219 1220
1221 1222 1223 1224 1225 1226 1227 1228 1229 1230
1231 1232 1233 1234 1235 1236 1237 1238 1239 1240
1241 1242 1243 1244 1245 1246 1247 1248 1249 1250
1251 1252 1253 1254 1255 1256 1257 1258 1259 1260
1261 1262 1263 1264 1265 1266 1267 1268 1269 1270
1271 1272 1273 1274 1275 1276 1277 1278 1279 1280
1281 1282 1283 1284 1285 1286 1287 1288 1289 1290
1291 1292 1293 1294 1295 1296 1297 1298 1299 1300
1301 1302 1303 1304 1305 1306 1307 1308 1309 1310
1311 1312 1313 1314 1315 1316 1317 1318 1319 1320
1321 1322 1323 1324 1325 1326 1327 1328 1329 1330
1331 1332 1333 1334 1335 1336 1337 1338 1339 1340
1341 1342 1343 1344 1345 1346 1347 1348 1349 1350
1351 1352 1353 1354 1355 1356 1357 1358 1359 1360
1361 1362 1363 1364 1365 1366 1367 1368 1369 1370
1371 1372 1373 1374 1375 1376 1377 1378 1379 1380
1381 1382 1383 1384 1385 1386 1387 1388 1389 1390
1391 1392 1393 1394 1395 1396 1397 1398 1399 1400
1401 1402 1403 1404 1405 1406 1407 1408 1409 1410
1411 1412 1413 1414 1415 1416 1417 1418 1419 1420
1421 1422 1423 1424 1425 1426 1427 1428 1429 1430
1431 1432 1433 1434 1435 1436 1437 1438 1439 1440
1441 1442 1443 1444 1445 1446 1447 1448 1449 1450
1451 1452 1453 1454 1455 1456 1457 1458 1459 1460
1461 1462 1463 1464 1465 1466 1467 1468 1469 1470
1471 1472 1473 1474 1475 1476 1477 1478 1479 1480
1481 1482 1483 1484 1485 1486 1487 1488 1489 1490
1491 1492 1493 1494 1495 1496 1497 1498 1499 1500
1501 1502 1503 1504 1505 1506 1507 1508 1509 1510
1511 1512 1513 1514 1515 1516 1517 1518 1519 1520
1521 1522 1523 1524 1525 1526 1527 1528 1529 1530
1531 1532 1533 1534 1535 1536 1537 1538 1539 1540
1541 1542 1543 1544 1545 1546 1547 1548 1549 1550
1551 1552 1553 1554 1555 1556 1557 1558 1559 1560
1561 1562 1563 1564 1565 1566 1567 1568 1569 1570
1571 1572 1573 1574 1575 1576 1577 1578 1579 1580
1581 1582 1583 1584 1585 1586 1587 1588 1589 1590
1591 1592 1593 1594 1595 1596 1597 1598 1599 
T 1 1600 float
283.634 282.798 282.953 283.843 284.004 284.068 284.15 284.236 284.32 284.409 284.521
284.673 284.824 284.971 285.124 285.291 285.48 285.696 285.943 286.227 286.099
286.52 286.639 286.216 285.919 285.663 285.283 284.912 284.532 284.178 283.868
283.591 283.333 283.085 282.965 283.132 283.449 283.849 284.304 284.81 282.937
281.811 281.8 281.785 281.78 281.778 281.78 281.783 281.788 281.794 281.8
281.809 281.861 281.964 282.109 282.282 282.473 282.673 282.942 283.156 282.811
284.494 284.679 282.375 282.228 282.192 282.043 282.039 282.034 282.035 282.037
282.041 282.046 282.052 282.056 282.058 282.058 282.058 282.353 283.689 282.717
281.851 281.839 281.806 281.79 281.781 281.777 281.776 281.777 281.778 281.778
281.778 281.779 281.792 281.823 281.876 281.953 282.049 282.186 282.277 282.116
283.643 284.051 282.072 282.004 282.008 281.999 282.007 282.017 282.026 282.035
282.044 282.052 282.058 282.059 282.058 282.06 282.054 282.137 283.278 282.611
281.888 281.882 281.852 281.835 281.826 281.823 281.824 281.827 281.828 281.826
281.819 281.809 281.803 281.804 281.816 281.842 281.884 281.946 281.986 281.937
283.181 283.731 282.025 281.989 281.998 282.006 282.016 282.026 282.036 282.046
282.055 282.062 282.066 282.064 282.055 282.066 282.062 282.092 283.066 282.55
281.917 281.918 281.898 281.885 281.881 281.884 281.892 281.9 281.906 281.904
281.894 281.874 281.854 281.837 281.828 281.829 281.842 281.867 281.885 281.869
282.898 283.53 282.009 281.99 282.001 282.013 282.024 282.035 282.045 282.056
282.065 282.072 282.074 282.067 282.049 282.072 282.069 282.08 282.936 282.511
281.94 281.951 281.942 281.936 281.941 281.953 281.969 281.983 281.993 281.994
281.984 281.959 281.926 281.894 281.867 281.85 281.844 281.847 281.85 281.842
282.724 283.385 282.003 281.994 282.006 282.019 282.031 282.042 282.054 282.065
282.075 282.082 282.081 282.07 282.042 282.08 282.077 282.077 282.848 282.486
281.96 281.979 281.984 281.986 282 282.021 282.042 282.06 282.071 282.073
282.065 282.043 282.004 281.96 281.918 281.885 281.863 281.851 281.842 281.832
282.627 283.267 282 281.997 282.011 282.024 282.037 282.049 282.062 282.075
282.085 282.092 282.089 282.073 282.037 282.091 282.086 282.078 282.785 282.468
281.977 282.005 282.021 282.032 282.054 282.079 282.101 282.118 282.127 282.128
282.121 282.103 282.068 282.02 281.969 281.923 281.888 281.863 281.845 281.83
282.581 283.164 281.999 282 282.015 282.029 282.042 282.056 282.07 282.084
282.096 282.102 282.098 282.077 282.034 282.103 282.097 282.081 282.737 282.454
281.992 282.028 282.053 282.071 282.097 282.12 282.14 282.154 282.161 282.16
282.152 282.139 282.111 282.067 282.013 281.96 281.914 281.879 281.852 281.831
282.57 283.07 281.998 282.003 282.018 282.033 282.047 282.062 282.077 282.093
282.106 282.112 282.106 282.082 282.032 282.111 282.107 282.085 282.7 282.443
282.005 282.049 282.079 282.101 282.125 282.146 282.163 282.176 282.183 282.181
282.17 282.156 282.135 282.098 282.047 281.991 281.938 281.895 281.86 281.835
282.582 282.982 281.999 282.006 282.021 282.036 282.051 282.066 282.084 282.101
282.115 282.122 282.114 282.088 282.032 282.112 282.116 282.089 282.67 282.434
282.016 282.065 282.098 282.122 282.144 282.163 282.179 282.193 282.2 282.197
282.184 282.165 282.146 282.116 282.071 282.015 281.959 281.909 281.867 281.858
282.605 282.898 281.999 282.008 282.023 282.038 282.053 282.07 282.089 282.108
282.123 282.13 282.121 282.093 282.034 282.106 282.122 282.093 282.646 282.426
282.025 282.078 282.112 282.136 282.157 282.176 282.193 282.207 282.215 282.212
282.196 282.17 282.151 282.126 282.086 282.033 281.975 281.921 281.874 281.915
282.622 282.818 282 282.01 282.025 282.04 282.055 282.072 282.092 282.112
282.129 282.135 282.126 282.096 282.037 282.096 282.125 282.097 282.625 282.419
282.033 282.088 282.121 282.145 282.167 282.186 282.204 282.219 282.228 282.226
282.208 282.175 282.151 282.13 282.096 282.045 281.987 281.93 281.878 281.986
282.632 282.742 282.001 282.011 282.026 282.04 282.055 282.072 282.093 282.115
282.131 282.138 282.128 282.098 282.04 282.084 282.125 282.1 282.606 282.413
282.039 282.095 282.128 282.152 282.174 282.195 282.214 282.229 282.238 282.236
282.219 282.18 282.148 282.13 282.1 282.053 281.995 281.936 281.882 282.064
282.635 282.67 282.001 282.012 282.026 282.039 282.052 282.069 282.091 282.114
282.13 282.136 282.127 282.099 282.043 282.074 282.123 282.103 282.589 282.407
282.044 282.1 282.132 282.156 282.179 282.201 282.221 282.237 282.246 282.244
282.228 282.188 282.134 282.123 282.1 282.057 282 281.94 281.891 282.141
282.631 282.601 282.001 282.011 282.024 282.035 282.048 282.065 282.087 282.11
282.126 282.132 282.123 282.097 282.045 282.066 282.119 282.105 282.574 282.4
282.047 282.103 282.134 282.158 282.181 282.204 282.225 282.242 282.251 282.25
282.233 282.197 282.126 282.114 282.097 282.058 282.003 281.941 281.916 282.208
282.62 282.535 282.001 282.01 282.021 282.03 282.041 282.058 282.081 282.102
282.119 282.124 282.117 282.093 282.046 282.06 282.115 282.106 282.56 282.393
282.05 282.104 282.134 282.157 282.181 282.204 282.226 282.244 282.254 282.254
282.237 282.2 282.143 282.104 282.091 282.056 282.003 281.942 281.957 282.264
282.603 282.473 282 282.007 282.015 282.022 282.031 282.049 282.071 282.092
282.109 282.115 282.11 282.087 282.044 282.056 282.112 282.107 282.547 282.386
282.051 282.104 282.132 282.154 282.177 282.201 282.224 282.243 282.256 282.258
282.242 282.206 282.15 282.082 282.081 282.051 282.001 281.943 282.008 282.31
282.58 282.414 281.997 282.002 282.006 282.011 282.019 282.036 282.059 282.08
282.098 282.105 282.101 282.079 282.042 282.053 282.11 282.108 282.535 282.379
282.052 282.102 282.128 282.149 282.171 282.195 282.218 282.24 282.255 282.26
282.248 282.212 282.153 282.072 282.07 282.045 281.997 281.951 282.061 282.345
282.553 282.359 281.993 281.993 281.994 281.996 282.004 282.022 282.044 282.067
282.086 282.095 282.091 282.07 282.039 282.05 282.112 282.109 282.524 282.371
282.051 282.098 282.121 282.14 282.161 282.185 282.21 282.234 282.252 282.261
282.253 282.221 282.162 282.092 282.058 282.036 281.993 281.971 282.111 282.37
282.522 282.306 281.985 281.98 281.975 281.975 281.985 282.005 282.029 282.054
282.074 282.085 282.082 282.061 282.035 282.049 282.118 282.112 282.513 282.363
282.05 282.093 282.113 282.128 282.148 282.172 282.199 282.225 282.247 282.261
282.258 282.231 282.175 282.101 282.048 282.028 281.99 282 282.158 282.387
282.487 282.256 281.973 281.962 281.953 281.952 281.966 281.989 282.015 282.043
282.065 282.077 282.072 282.051 282.031 282.049 282.126 282.115 282.504 282.355
282.046 282.086 282.101 282.113 282.131 282.155 282.184 282.213 282.24 282.258
282.263 282.242 282.19 282.113 282.043 282.02 281.995 282.037 282.198 282.395
282.45 282.207 281.958 281.939 281.927 281.928 281.948 281.975 282.004 282.034
282.057 282.07 282.062 282.042 282.028 282.05 282.134 282.119 282.496 282.346
282.041 282.076 282.088 282.095 282.11 282.135 282.166 282.199 282.229 282.253
282.265 282.253 282.208 282.132 282.051 282.021 282.013 282.076 282.232 282.397
282.412 282.161 281.938 281.913 281.9 281.908 281.936 281.967 281.998 282.029
282.052 282.064 282.053 282.032 282.027 282.054 282.141 282.124 282.488 282.337
282.034 282.064 282.07 282.073 282.085 282.11 282.145 282.181 282.216 282.246
282.265 282.263 282.228 282.158 282.074 282.035 282.04 282.115 282.26 282.392
282.372 282.116 281.915 281.886 281.877 281.897 281.931 281.965 281.997 282.027
282.05 282.059 282.044 282.024 282.027 282.06 282.146 282.129 282.482 282.328
282.025 282.05 282.049 282.047 282.054 282.081 282.119 282.16 282.199 282.234
282.261 282.271 282.248 282.188 282.11 282.063 282.074 282.151 282.28 282.383
282.332 282.073 281.892 281.863 281.864 281.896 281.935 281.97 282.002 282.029
282.05 282.056 282.035 282.018 282.032 282.071 282.153 282.134 282.477 282.32
282.015 282.036 282.027 282.017 282.018 282.045 282.09 282.136 282.18 282.22
282.254 282.274 282.265 282.219 282.151 282.1 282.111 282.183 282.295 282.37
282.293 282.035 281.871 281.848 281.863 281.908 281.948 281.982 282.01 282.034
282.052 282.053 282.026 282.014 282.041 282.087 282.161 282.139 282.473 282.312
282.005 282.021 282.004 281.983 281.976 282.004 282.055 282.109 282.159 282.204
282.243 282.272 282.278 282.247 282.189 282.141 282.147 282.211 282.305 282.354
282.257 282.002 281.856 281.843 281.875 281.929 281.969 281.999 282.022 282.042
282.056 282.05 282.017 282.015 282.057 282.109 282.173 282.145 282.47 282.305
281.993 282.006 281.98 281.944 281.928 281.956 282.016 282.078 282.136 282.186
282.229 282.265 282.285 282.27 282.223 282.18 282.181 282.234 282.31 282.338
282.226 281.976 281.848 281.846 281.898 281.956 281.994 282.019 282.037 282.052
282.061 282.047 282.009 282.02 282.081 282.14 282.189 282.151 282.469 282.299
281.981 281.992 281.958 281.905 281.877 281.902 281.972 282.045 282.113 282.168
282.213 282.254 282.286 282.288 282.253 282.214 282.211 282.252 282.312 282.323
282.201 281.958 281.846 281.857 281.934 281.986 282.02 282.042 282.055 282.063
282.066 282.042 282.002 282.033 282.115 282.179 282.211 282.155 282.47 282.295
281.969 281.98 281.943 281.875 281.827 281.846 281.924 282.01 282.089 282.15
282.197 282.239 282.28 282.299 282.278 282.243 282.236 282.267 282.312 282.31
282.186 281.949 281.855 281.886 281.959 282.013 282.047 282.065 282.073 282.075
282.071 282.036 281.997 282.055 282.158 282.224 282.234 282.163 282.471 282.293
281.955 281.968 281.936 281.86 281.785 281.795 281.877 281.975 282.066 282.135
282.183 282.223 282.267 282.302 282.298 282.268 282.257 282.278 282.311 282.301
282.178 281.953 281.886 281.922 281.989 282.043 282.075 282.089 282.091 282.087
282.074 282.028 281.996 282.088 282.208 282.265 282.248 282.177 282.472 282.294
281.941 281.953 281.93 281.867 281.769 281.762 281.838 281.944 282.045 282.121
282.171 282.207 282.251 282.297 282.311 282.288 282.274 282.286 282.31 282.298
282.17 281.983 281.934 281.967 282.026 282.075 282.104 282.113 282.109 282.097
282.077 282.018 282.002 282.133 282.258 282.282 282.256 282.197 282.473 282.295
281.944 281.933 281.918 281.867 281.795 281.763 281.819 281.925 282.031 282.112
282.162 282.193 282.231 282.284 282.317 282.306 282.289 282.294 282.31 282.295
282.172 282.031 281.996 282.023 282.071 282.111 282.133 282.136 282.125 282.105
282.077 282.005 282.018 282.189 282.291 282.297 282.263 282.224 282.474 282.296
281.97 281.916 281.899 281.858 281.81 281.794 281.838 281.927 282.027 282.108
282.157 282.182 282.212 282.263 282.314 282.32 282.303 282.301 282.312 282.292
282.185 282.087 282.063 282.084 282.121 282.149 282.161 282.156 282.137 282.111
282.073 281.99 282.049 282.238 282.319 282.315 282.278 282.258 282.475 282.297
282.016 281.925 281.889 281.853 281.823 281.834 281.886 281.963 282.043 282.11
282.156 282.175 282.195 282.239 282.299 282.329 282.316 282.309 282.314 282.292
282.207 282.144 282.13 282.146 282.17 282.186 282.187 282.173 282.146 282.113
282.066 281.975 282.092 282.276 282.347 282.34 282.306 282.299 282.476 282.298
282.075 281.98 281.929 281.896 281.886 281.91 281.958 282.019 282.079 282.128
282.159 282.172 282.18 282.213 282.272 282.326 282.327 282.318 282.318 282.295
282.235 282.197 282.191 282.202 282.214 282.217 282.207 282.183 282.149 282.109
282.053 281.965 282.134 282.309 282.374 282.372 282.345 282.344 282.477 282.299
282.14 282.066 282.022 281.999 282.001 282.02 282.052 282.09 282.127 282.155
282.17 282.17 282.166 282.187 282.236 282.304 282.333 282.327 282.322 282.302
282.265 282.245 282.242 282.247 282.248 282.238 282.217 282.185 282.145 282.099
282.034 281.962 282.168 282.336 282.401 282.407 282.39 282.39 282.477 282.299
282.203 282.159 282.132 282.12 282.123 282.133 282.147 282.162 282.175 282.182
282.181 282.169 282.152 282.161 282.198 282.264 282.324 282.333 282.328 282.313
282.292 282.282 282.278 282.274 282.263 282.242 282.211 282.172 282.128 282.08
282.002 281.962 282.192 282.354 282.423 282.439 282.432 282.431 282.479 282.3
282.257 282.237 282.226 282.221 282.22 282.219 282.217 282.214 282.207 282.197
282.182 282.159 282.126 282.121 282.15 282.213 282.285 282.318 282.321 282.313
282.302 282.293 282.283 282.268 282.244 282.213 282.176 282.135 282.092 282.046
281.951 281.957 282.195 282.354 282.43 282.459 282.464 282.463 282.48 282.288
282.271 282.26 282.249 282.24 282.231 282.221 282.211 282.2 282.187 282.171
282.15 282.119 282.057 282.01 282.007 282.064 282.157 282.209 282.229 282.228
282.216 282.199 282.177 282.15 282.124 282.098 282.071 282.045 282.018 281.985
281.859 281.916 282.149 282.303 282.383 282.425 282.447 282.46 282.47 
alphat 1 1600 float
0 0 0 0 0 0 0 0 0 0 0
0 0 0 0 0 0 0 0 0 0
0 0 0 0 0 0 0 0 0 0
0 0 0 0 0 0 0 0 0 0
0 0 0 0 0 0 0 0 0 0
0 0 0 0 0 0 0 0 0 0
0 0 0 0 0 0 0 0 0 0
0 0 0 0 0 0 0 0 0 0
0 0 0 0 0 0 0 0 0 0
0 0 0 0 0 0 0 0 0 0
0 0 0 0 0 0 0 0 0 0
0 0 0 0 0 0 0 0 0 0
0 0 0 0 0 0 0 0 0 0
0 0 0 0 0 0 0 0 0 0
0 0 0 0 0 0 0 0 0 0
0 0 0 0 0 0 0 0 0 0
0 0 0 0 0 0 0 0 0 0
0 0 0 0 0 0 0 0 0 0
0 0 0 0 0 0 0 0 0 0
0 0 0 0 0 0 0 0 0 0
0 0 0 0 0 0 0 0 0 0