# vtk DataFile Version 2.0
RBConvection
ASCII
DATASET UNSTRUCTURED_GRID
POINTS 3362 float
0 0 0 0.025 0 0 0.05 0 0 0.075 0
0 0.1 0 0 0.125 0 0 0.15 0 0
0.175 0 0 0.2 0 0 0.225 0 0 0.25
0 0 0.275 0 0 0.3 0 0 0.325 0
0 0.35 0 0 0.375 0 0 0.4 0 0
0.425 0 0 0.45 0 0 0.475 0 0 0.5
0 0 0.525 0 0 0.55 0 0 0.575 0
0 0.6 0 0 0.625 0 0 0.65 0 0
0.675 0 0 0.7 0 0 0.725 0 0 0.75
0 0 0.775 0 0 0.8 0 0 0.825 0
0 0.85 0 0 0.875 0 0 0.9 0 0
0.925 0 0 0.95 0 0 0.975 0 0 1
0 0 0 0.01 0 0.025 0.01 0 0.05 0.01
0 0.075 0.01 0 0.1 0.01 0 0.125 0.01 0
0.15 0.01 0 0.175 0.01 0 0.2 0.01 0 0.225
0.01 0 0.25 0.01 0 0.275 0.01 0 0.3 0.01
0 0.325 0.01 0 0.35 0.01 0 0.375 0.01 0
0.4 0.01 0 0.425 0.01 0 0.45 0.01 0 0.475
0.01 0 0.5 0.01 0 0.525 0.01 0 0.55 0.01
0 0.575 0.01 0 0.6 0.01 0 0.625 0.01 0
0.65 0.01 0 0.675 0.01 0 0.7 0.01 0 0.725
0.01 0 0.75 0.01 0 0.775 0.01 0 0.8 0.01
0 0.825 0.01 0 0.85 0.01 0 0.875 0.01 0
0.9 0.01 0 0.925 0.01 0 0.95 0.01 0 0.975
0.01 0 1 0.01 0 0 0.02 0 0.025 0.02
0 0.05 0.02 0 0.075 0.02 0 0.1 0.02 0
0.125 0.02 0 0.15 0.02 0 0.175 0.02 0 0.2
0.02 0 0.225 0.02 0 0.25 0.02 0 0.275 0.02
0 0.3 0.02 0 0.325 0.02 0 0.35 0.02 0
0.375 0.02 0 0.4 0.02 0 0.425 0.02 0 0.45
0.02 0 0.475 0.02 0 0.5 0.02 0 0.525 0.02
0 0.55 0.02 0 0.575 0.02 0 0.6 0.02 0
0.625 0.02 0 0.65 0.02 0 0.675 0.02 0 0.7
0.02 0 0.725 0.02 0 0.75 0.02 0 0.775 0.02
0 0.8 0.02 0 0.825 0.02 0 0.85 0.02 0
0.875 0.02 0 0.9 0.02 0 0.925 0.02 0 0.95
0.02 0 0.975 0.02 0 1 0.02 0 0 0.03
0 0.025 0.03 0 0.05 0.03 0 0.075 0.03 0
0.1 0.03 0 0.125 0.03 0 0.15 0.03 0 0.175
0.03 0 0.2 0.03 0 0.225 0.03 0 0.25 0.03
0 0.275 0.03 0 0.3 0.03 0 0.325 0.03 0
0.35 0.03 0 0.375 0.03 0 0.4 0.03 0 0.425
0.03 0 0.45 0.03 0 0.475 0.03 0 0.5 0.03
0 0.525 0.03 0 0.55 0.03 0 0.575 0.03 0
0.6 0.03 0 0.625 0.03 0 0.65 0.03 0 0.675
0.03 0 0.7 0.03 0 0.725 0.03 0 0.75 0.03
0 0.775 0.03 0 0.8 0.03 0 0.825 0.03 0
0.85 0.03 0 0.875 0.03 0 0.9 0.03 0 0.925
0.03 0 0.95 0.03 0 0.975 0.03 0 1 0.03
0 0 0.04 0 0.025 0.04 0 0.05 0.04 0
0.075 0.04 0 0.1 0.04 0 0.125 0.04 0 0.15
0.04 0 0.175 0.04 0 0.2 0.04 0 0.225 0.04
0 0.25 0.04 0 0.275 0.04 0 0.3 0.04 0
0.325 0.04 0 0.35 0.04 0 0.375 0.04 0 0.4
0.04 0 0.425 0.04 0 0.45 0.04 0 0.475 0.04
0 0.5 0.04 0 0.525 0.04 0 0.55 0.04 0
0.575 0.04 0 0.6 0.04 0 0.625 0.04 0 0.65
0.04 0 0.675 0.04 0 0.7 0.04 0 0.725 0.04
0 0.75 0.04 0 0.775 0.04 0 0.8 0.04 0
0.825 0.04 0 0.85 0.04 0 0.875 0.04 0 0.9
0.04 0 0.925 0.04 0 0.95 0.04 0 0.975 0.04
0 1 0.04 0 0 0.05 0 0.025 0.05 0
0.05 0.05 0 0.075 0.05 0 0.1 0.05 0 0.125
0.05 0 0.15 0.05 0 0.175 0.05 0 0.2 0.05
0 0.225 0.05 0 0.25 0.05 0 0.275 0.05 0
0.3 0.05 0 0.325 0.05 0 0.35 0.05 0 0.375
0.05 0 0.4 0.05 0 0.425 0.05 0 0.45 0.05
0 0.475 0.05 0 0.5 0.05 0 0.525 0.05 0
0.55 0.05 0 0.575 0.05 0 0.6 0.05 0 0.625
0.05 0 0.65 0.05 0 0.675 0.05 0 0.7 0.05
0 0.725 0.05 0 0.75 0.05 0 0.775 0.05 0
0.8 0.05 0 0.825 0.05 0 0.85 0.05 0 0.875
0.05 0 0.9 0.05 0 0.925 0.05 0 0.95 0.05
0 0.975 0.05 0 1 0.05 0 0 0.06 0
0.025 0.06 0 0.05 0.06 0 0.075 0.06 0 0.1
0.06 0 0.125 0.06 0 0.15 0.06 0 0.175 0.06
0 0.2 0.06 0 0.225 0.06 0 0.25 0.06 0
0.275 0.06 0 0.3 0.06 0 0.325 0.06 0 0.35
0.06 0 0.375 0.06 0 0.4 0.06 0 0.425 0.06
0 0.45 0.06 0 0.475 0.06 0 0.5 0.06 0
0.525 0.06 0 0.55 0.06 0 0.575 0.06 0 0.6
0.06 0 0.625 0.06 0 0.65 0.06 0 0.675 0.06
0 0.7 0.06 0 0.725 0.06 0 0.75 0.06 0
0.775 0.06 0 0.8 0.06 0 0.825 0.06 0 0.85
0.06 0 0.875 0.06 0 0.9 0.06 0 0.925 0.06
0 0.95 0.06 0 0.975 0.06 0 1 0.06 0
0 0.07 0 0.025 0.07 0 0.05 0.07 0 0.075
0.07 0 0.1 0.07 0 0.125 0.07 0 0.15 0.07
0 0.175 0.07 0 0.2 0.07 0 0.225 0.07 0
0.25 0.07 0 0.275 0.07 0 0.3 0.07 0 0.325
0.07 0 0.35 0.07 0 0.375 0.07 0 0.4 0.07
0 0.425 0.07 0 0.45 0.07 0 0.475 0.07 0
0.5 0.07 0 0.525 0.07 0 0.55 0.07 0 0.575
0.07 0 0.6 0.07 0 0.625 0.07 0 0.65 0.07
0 0.675 0.07 0 0.7 0.07 0 0.725 0.07 0
0.75 0.07 0 0.775 0.07 0 0.8 0.07 0 0.825
0.07 0 0.85 0.07 0 0.875 0.07 0 0.9 0.07
0 0.925 0.07 0 0.95 0.07 0 0.975 0.07 0
1 0.07 0 0 0.08 0 0.025 0.08 0 0.05
0.08 0 0.075 0.08 0 0.1 0.08 0 0.125 0.08
0 0.15 0.08 0 0.175 0.08 0 0.2 0.08 0
0.225 0.08 0 0.25 0.08 0 0.275 0.08 0 0.3
0.08 0 0.325 0.08 0 0.35 0.08 0 0.375 0.08
0 0.4 0.08 0 0.425 0.08 0 0.45 0.08 0
0.475 0.08 0 0.5 0.08 0 0.525 0.08 0 0.55
0.08 0 0.575 0.08 0 0.6 0.08 0 0.625 0.08
0 0.65 0.08 0 0.675 0.08 0 0.7 0.08 0
0.725 0.08 0 0.75 0.08 0 0.775 0.08 0 0.8
0.08 0 0.825 0.08 0 0.85 0.08 0 0.875 0.08
0 0.9 0.08 0 0.925 0.08 0 0.95 0.08 0
0.975 0.08 0 1 0.08 0 0 0.09 0 0.025
0.09 0 0.05 0.09 0 0.075 0.09 0 0.1 0.09
0 0.125 0.09 0 0.15 0.09 0 0.175 0.09 0
0.2 0.09 0 0.225 0.09 0 0.25 0.09 0 0.275
0.09 0 0.3 0.09 0 0.325 0.09 0 0.35 0.09
0 0.375 0.09 0 0.4 0.09 0 0.425 0.09 0
0.45 0.09 0 0.475 0.09 0 0.5 0.09 0 0.525
0.09 0 0.55 0.09 0 0.575 0.09 0 0.6 0.09
0 0.625 0.09 0 0.65 0.09 0 0.675 0.09 0
0.7 0.09 0 0.725 0.09 0 0.75 0.09 0 0.775
0.09 0 0.8 0.09 0 0.825 0.09 0 0.85 0.09
0 0.875 0.09 0 0.9 0.09 0 0.925 0.09 0
0.95 0.09 0 0.975 0.09 0 1 0.09 0 0
0.1 0 0.025 0.1 0 0.05 0.1 0 0.075 0.1
0 0.1 0.1 0 0.125 0.1 0 0.15 0.1 0
0.175 0.1 0 0.2 0.1 0 0.225 0.1 0 0.25
0.1 0 0.275 0.1 0 0.3 0.1 0 0.325 0.1
0 0.35 0.1 0 0.375 0.1 0 0.4 0.1 0
0.425 0.1 0 0.45 0.1 0 0.475 0.1 0 0.5
0.1 0 0.525 0.1 0 0.55 0.1 0 0.575 0.1
0 0.6 0.1 0 0.625 0.1 0 0.65 0.1 0
0.675 0.1 0 0.7 0.1 0 0.725 0.1 0 0.75
0.1 0 0.775 0.1 0 0.8 0.1 0 0.825 0.1
0 0.85 0.1 0 0.875 0.1 0 0.9 0.1 0
0.925 0.1 0 0.95 0.1 0 0.975 0.1 0 1
0.1 0 0 0.11 0 0.025 0.11 0 0.05 0.11
0 0.075 0.11 0 0.1 0.11 0 0.125 0.11 0
0.15 0.11 0 0.175 0.11 0 0.2 0.11 0 0.225
0.11 0 0.25 0.11 0 0.275 0.11 0 0.3 0.11
0 0.325 0.11 0 0.35 0.11 0 0.375 0.11 0
0.4 0.11 0 0.425 0.11 0 0.45 0.11 0 0.475
0.11 0 0.5 0.11 0 0.525 0.11 0 0.55 0.11
0 0.575 0.11 0 0.6 0.11 0 0.625 0.11 0
0.65 0.11 0 0.675 0.11 0 0.7 0.11 0 0.725
0.11 0 0.75 0.11 0 0.775 0.11 0 0.8 0.11
0 0.825 0.11 0 0.85 0.11 0 0.875 0.11 0
0.9 0.11 0 0.925 0.11 0 0.95 0.11 0 0.975
0.11 0 1 0.11 0 0 0.12 0 0.025 0.12
0 0.05 0.12 0 0.075 0.12 0 0.1 0.12 0
0.125 0.12 0 0.15 0.12 0 0.175 0.12 0 0.2
0.12 0 0.225 0.12 0 0.25 0.12 0 0.275 0.12
0 0.3 0.12 0 0.325 0.12 0 0.35 0.12 0
0.375 0.12 0 0.4 0.12 0 0.425 0.12 0 0.45
0.12 0 0.475 0.12 0 0.5 0.12 0 0.525 0.12
0 0.55 0.12 0 0.575 0.12 0 0.6 0.12 0
0.625 0.12 0 0.65 0.12 0 0.675 0.12 0 0.7
0.12 0 0.725 0.12 0 0.75 0.12 0 0.775 0.12
0 0.8 0.12 0 0.825 0.12 0 0.85 0.12 0
0.875 0.12 0 0.9 0.12 0 0.925 0.12 0 0.95
0.12 0 0.975 0.12 0 1 0.12 0 0 0.13
0 0.025 0.13 0 0.05 0.13 0 0.075 0.13 0
0.1 0.13 0 0.125 0.13 0 0.15 0.13 0 0.175
0.13 0 0.2 0.13 0 0.225 0.13 0 0.25 0.13
0 0.275 0.13 0 0.3 0.13 0 0.325 0.13 0
0.35 0.13 0 0.375 0.13 0 0.4 0.13 0 0.425
0.13 0 0.45 0.13 0 0.475 0.13 0 0.5 0.13
0 0.525 0.13 0 0.55 0.13 0 0.575 0.13 0
0.6 0.13 0 0.625 0.13 0 0.65 0.13 0 0.675
0.13 0 0.7 0.13 0 0.725 0.13 0 0.75 0.13
0 0.775 0.13 0 0.8 0.13 0 0.825 0.13 0
0.85 0.13 0 0.875 0.13 0 0.9 0.13 0 0.925
0.13 0 0.95 0.13 0 0.975 0.13 0 1 0.13
0 0 0.14 0 0.025 0.14 0 0.05 0.14 0
0.075 0.14 0 0.1 0.14 0 0.125 0.14 0 0.15
0.14 0 0.175 0.14 0 0.2 0.14 0 0.225 0.14
0 0.25 0.14 0 0.275 0.14 0 0.3 0.14 0
0.325 0.14 0 0.35 0.14 0 0.375 0.14 0 0.4
0.14 0 0.425 0.14 0 0.45 0.14 0 0.475 0.14
0 0.5 0.14 0 0.525 0.14 0 0.55 0.14 0
0.575 0.14 0 0.6 0.14 0 0.625 0.14 0 0.65
0.14 0 0.675 0.14 0 0.7 0.14 0 0.725 0.14
0 0.75 0.14 0 0.775 0.14 0 0.8 0.14 0
0.825 0.14 0 0.85 0.14 0 0.875 0.14 0 0.9
0.14 0 0.925 0.14 0 0.95 0.14 0 0.975 0.14
0 1 0.14 0 0 0.15 0 0.025 0.15 0
0.05 0.15 0 0.075 0.15 0 0.1 0.15 0 0.125
0.15 0 0.15 0.15 0 0.175 0.15 0 0.2 0.15
0 0.225 0.15 0 0.25 0.15 0 0.275 0.15 0
0.3 0.15 0 0.325 0.15 0 0.35 0.15 0 0.375
0.15 0 0.4 0.15 0 0.425 0.15 0 0.45 0.15
0 0.475 0.15 0 0.5 0.15 0 0.525 0.15 0
0.55 0.15 0 0.575 0.15 0 0.6 0.15 0 0.625
0.15 0 0.65 0.15 0 0.675 0.15 0 0.7 0.15
0 0.725 0.15 0 0.75 0.15 0 0.775 0.15 0
0.8 0.15 0 0.825 0.15 0 0.85 0.15 0 0.875
0.15 0 0.9 0.15 0 0.925 0.15 0 0.95 0.15
0 0.975 0.15 0 1 0.15 0 0 0.16 0
0.025 0.16 0 0.05 0.16 0 0.075 0.16 0 0.1
0.16 0 0.125 0.16 0 0.15 0.16 0 0.175 0.16
0 0.2 0.16 0 0.225 0.16 0 0.25 0.16 0
0.275 0.16 0 0.3 0.16 0 0.325 0.16 0 0.35
0.16 0 0.375 0.16 0 0.4 0.16 0 0.425 0.16
0 0.45 0.16 0 0.475 0.16 0 0.5 0.16 0
0.525 0.16 0 0.55 0.16 0 0.575 0.16 0 0.6
0.16 0 0.625 0.16 0 0.65 0.16 0 0.675 0.16
0 0.7 0.16 0 0.725 0.16 0 0.75 0.16 0
0.775 0.16 0 0.8 0.16 0 0.825 0.16 0 0.85
0.16 0 0.875 0.16 0 0.9 0.16 0 0.925 0.16
0 0.95 0.16 0 0.975 0.16 0 1 0.16 0
0 0.17 0 0.025 0.17 0 0.05 0.17 0 0.075
0.17 0 0.1 0.17 0 0.125 0.17 0 0.15 0.17
0 0.175 0.17 0 0.2 0.17 0 0.225 0.17 0
0.25 0.17 0 0.275 0.17 0 0.3 0.17 0 0.325
0.17 0 0.35 0.17 0 0.375 0.17 0 0.4 0.17
0 0.425 0.17 0 0.45 0.17 0 0.475 0.17 0
0.5 0.17 0 0.525 0.17 0 0.55 0.17 0 0.575
0.17 0 0.6 0.17 0 0.625 0.17 0 0.65 0.17
0 0.675 0.17 0 0.7 0.17 0 0.725 0.17 0
0.75 0.17 0 0.775 0.17 0 0.8 0.17 0 0.825
0.17 0 0.85 0.17 0 0.875 0.17 0 0.9 0.17
0 0.925 0.17 0 0.95 0.17 0 0.975 0.17 0
1 0.17 0 0 0.18 0 0.025 0.18 0 0.05
0.18 0 0.075 0.18 0 0.1 0.18 0 0.125 0.18
0 0.15 0.18 0 0.175 0.18 0 0.2 0.18 0
0.225 0.18 0 0.25 0.18 0 0.275 0.18 0 0.3
0.18 0 0.325 0.18 0 0.35 0.18 0 0.375 0.18
0 0.4 0.18 0 0.425 0.18 0 0.45 0.18 0
0.475 0.18 0 0.5 0.18 0 0.525 0.18 0 0.55
0.18 0 0.575 0.18 0 0.6 0.18 0 0.625 0.18
0 0.65 0.18 0 0.675 0.18 0 0.7 0.18 0
0.725 0.18 0 0.75 0.18 0 0.775 0.18 0 0.8
0.18 0 0.825 0.18 0 0.85 0.18 0 0.875 0.18
0 0.9 0.18 0 0.925 0.18 0 0.95 0.18 0
0.975 0.18 0 1 0.18 0 0 0.19 0 0.025
0.19 0 0.05 0.19 0 0.075 0.19 0 0.1 0.19
0 0.125 0.19 0 0.15 0.19 0 0.175 0.19 0
0.2 0.19 0 0.225 0.19 0 0.25 0.19 0 0.275
0.19 0 0.3 0.19 0 0.325 0.19 0 0.35 0.19
0 0.375 0.19 0 0.4 0.19 0 0.425 0.19 0
0.45 0.19 0 0.475 0.19 0 0.5 0.19 0 0.525
0.19 0 0.55 0.19 0 0.575 0.19 0 0.6 0.19
0 0.625 0.19 0 0.65 0.19 0 0.675 0.19 0
0.7 0.19 0 0.725 0.19 0 0.75 0.19 0 0.775
0.19 0 0.8 0.19 0 0.825 0.19 0 0.85 0.19
0 0.875 0.19 0 0.9 0.19 0 0.925 0.19 0
0.95 0.19 0 0.975 0.19 0 1 0.19 0 0
0.2 0 0.025 0.2 0 0.05 0.2 0 0.075 0.2
0 0.1 0.2 0 0.125 0.2 0 0.15 0.2 0
0.175 0.2 0 0.2 0.2 0 0.225 0.2 0 0.25
[...]
CELL_DATA 1600
FIELD attributes 6
cellID 1 1600 int
0 1 2 3 4 5 6 7 8 9 10
11 12 13 14 15 16 17 18 19 20
21 22 23 24 25 26 27 28 29 30
31 32 33 34 35 36 37 38 39 40
41 42 43 44 45 46 47 48 49 50
51 52 53 54 55 56 57 58 59 60
61 62 63 64 65 66 67 68 69 70
71 72 73 74 75 76 77 78 79 80
81 82 83 84 85 86 87 88 89 90
91 92 93 94 95 96 97 98 99 100
101 102 103 104 105 106 107 108 109 110
111 112 113 114 115 116 117 118 119 120
121 122 123 124 125 126 127 128 129 130
131 132 133 134 135 136 137 138 139 140
141 142 143 144 145 146 147 148 149 150
151 152 153 154 155 156 157 158 159 160
161 162 163 164 165 166 167 168 169 170
171 172 173 174 175 176 177 178 179 180
181 182 183 184 185 186 187 188 189 190
191 192 193 194 195 196 197 198 199 200
201 202 203 204 205 206 207 208 209 210
211 212 213 214 215 216 217 218 219 220
221 222 223 224 225 226 227 228 229 230
231 232 233 234 235 236 237 238 239 240
241 242 243 244 245 246 247 248 249 250
251 252 253 254 255 256 257 258 259 260
261 262 263 264 265 266 267 268 269 270
271 272 273 274 275 276 277 278 279 280
281 282 283 284 285 286 287 288 289 290
291 292 293 294 295 296 297 298 299 300
301 302 303 304 305 306 307 308 309 310
311 312 313 314 315 316 317 318 319 320
321 322 323 324 325 326 327 328 329 330
331 332 333 334 335 336 337 338 339 340
341 342 343 344 345 346 347 348 349 350
351 352 353 354 355 356 357 358 359 360
361 362 363 364 365 366 367 368 369 370
371 372 373 374 375 376 377 378 379 380
381 382 383 384 385 386 387 388 389 390
391 392 393 394 395 396 397 398 399 400
401 402 403 404 405 406 407 408 409 410
411 412 413 414 415 416 417 418 419 420
421 422 423 424 425 426 427 428 429 430
431 432 433 434 435 436 437 438 439 440
441 442 443 444 445 446 447 448 449 450
451 452 453 454 455 456 457 458 459 460
461 462 463 464 465 466 467 468 469 470
471 472 473 474 475 476 477 478 479 480
481 482 483 484 485 486 487 488 489 490
491 492 493 494 495 496 497 498 499 500
501 502 503 504 505 506 507 508 509 510
511 512 513 514 515 516 517 518 519 520
521 522 523 524 525 526 527 528 529 530
531 532 533 534 535 536 537 538 539 540
541 542 543 544 545 546 547 548 549 550
551 552 553 554 555 556 557 558 559 560
561 562 563 564 565 566 567 568 569 570
571 572 573 574 575 576 577 578 579 580
581 582 583 584 585 586 587 588 589 590
591 592 593 594 595 596 597 598 599 600
601 602 603 604 605 606 607 608 609 610
611 612 613 614 615 616 617 618 619 620
621 622 623 624 625 626 627 628 629 630
631 632 633 634 635 636 637 638 639 640
641 642 643 644 645 646 647 648 649 650
651 652 653 654 655 656 657 658 659 660
661 662 663 664 665 666 667 668 669 670
671 672 673 674 675 676 677 678 679 680
681 682 683 684 685 686 687 688 689 690
691 692 693 694 695 696 697 698 699 700
701 702 703 704 705 706 707 708 709 710
711 712 713 714 715 716 717 718 719 720
721 722 723 724 725 726 727 728 729 730
731 732 733 734 735 736 737 738 739 740
741 742 743 744 745 746 747 748 749 750
751 752 753 754 755 756 757 758 759 760
761 762 763 764 765 766 767 768 769 770
771 772 773 774 775 776 777 778 779 780
781 782 783 784 785 786 787 788 789 790
791 792 793 794 795 796 797 798 799 800
801 802 803 804 805 806 807 808 809 810
811 812 813 814 815 816 817 818 819 820
821 822 823 824 825 826 827 828 829 830
831 832 833 834 835 836 837 838 839 840
841 842 843 844 845 846 847 848 849 850
851 852 853 854 855 856 857 858 859 860
861 862 863 864 865 866 867 868 869 870
871 872 873 874 875 876 877 878 879 880
881 882 883 884 885 886 887 888 889 890
891 892 893 894 895 896 897 898 899 900
901 902 903 904 905 906 907 908 909 910
911 912 913 914 915 916 917 918 919 920
921 922 923 924 925 926 927 928 929 930
931 932 933 934 935 936 937 938 939 940
941 942 943 944 945 946 947 948 949 950
951 952 953 954 955 956 957 958 959 960
961 962 963 964 965 966 967 968 969 970
971 972 973 974 975 976 977 978 979 980
981 982 983 984 985 986 987 988 989 990
991 992 993 994 995 996 997 998 999 1000
1001 1002 1003 1004 1005 1006 1007 1008 1009 1010
1011 1012 1013 1014 1015 1016 1017 1018 1019 1020
1021 1022 1023 1024 1025 1026 1027 1028 1029 1030
1031 1032 1033 1034 1035 1036 1037 1038 1039 1040
1041 1042 1043 1044 1045 1046 1047 1048 1049 1050
1051 1052 1053 1054 1055 1056 1057 1058 1059 1060
1061 1062 1063 1064 1065 1066 1067 1068 1069 1070
1071 1072 1073 1074 1075 1076 1077 1078 1079 1080
1081 1082 1083 1084 1085 1086 1087 1088 1089 1090
1091 1092 1093 1094 1095 1096 1097 1098 1099 1100
1101 1102 1103 1104 1105 1106 1107 1108 1109 1110
1111 1112 1113 1114 1115 1116 1117 1118 1119 1120
1121 1122 1123 1124 1125 1126 1127 1128 1129 1130
1131 1132 1133 1134 1135 1136 1137 1138 1139 1140
1141 1142 1143 1144 1145 1146 1147 1148 1149 1150
1151 1152 1153 1154 1155 1156 1157 1158 1159 1160
1161 1162 1163 1164 1165 1166 1167 1168 1169 1170
1171 1172 1173 1174 1175 1176 1177 1178 1179 1180
1181 1182 1183 1184 1185 1186 1187 1188 1189 1190
1191 1192 1193 1194 1195 1196 1197 1198 1199 1200
1201 1202 1203 1204 1205 1206 1207 1208 1209 1210
1211 1212 1213 1214 1215 1216 1217 1218 1219 1220
1221 1222 1223 1224 1225 1226 1227 1228 1229 1230
1231 1232 1233 1234 1235 1236 1237 1238 1239 1240
1241 1242 1243 1244 1245 1246 1247 1248 1249 1250
1251 1252 1253 1254 1255 1256 1257 1258 1259 1260
1261 1262 1263 1264 1265 1266 1267 1268 1269 1270
1271 1272 1273 1274 1275 1276 1277 1278 1279 1280
1281 1282 1283 1284 1285 1286 1287 1288 1289 1290
1291 1292 1293 1294 1295 1296 1297 1298 1299 1300
1301 1302 1303 1304 1305 1306 1307 1308 1309 1310
1311 1312 1313 1314 1315 1316 1317 1318 1319 1320
1321 1322 1323 1324 1325 1326 1327 1328 1329 1330
1331 1332 1333 1334 1335 1336 1337 1338 1339 1340
1341 1342 1343 1344 1345 1346 1347 1348 1349 1350
1351 1352 1353 1354 1355 1356 1357 1358 1359 1360
1361 1362 1363 1364 1365 1366 1367 1368 1369 1370
1371 1372 1373 1374 1375 1376 1377 1378 1379 1380
1381 1382 1383 1384 1385 1386 1387 1388 1389 1390
1391 1392 1393 1394 1395 1396 1397 1398 1399 1400
1401 1402 1403 1404 1405 1406 1407 1408 1409 1410
1411 1412 1413 1414 1415 1416 1417 1418 1419 1420
1421 1422 1423 1424 1425 1426 1427 1428 1429 1430
1431 1432 1433 1434 1435 1436 1437 1438 1439 1440
1441 1442 1443 1444 1445 1446 1447 1448 1449 1450
1451 1452 1453 1454 1455 1456 1457 1458 1459 1460
1461 1462 1463 1464 1465 1466 1467 1468 1469 1470
1471 1472 1473 1474 1475 1476 1477 1478 1479 1480
1481 1482 1483 1484 1485 1486 1487 1488 1489 1490
1491 1492 1493 1494 1495 1496 1497 1498 1499 1500
1501 1502 1503 1504 1505 1506 1507 1508 1509 1510
1511 1512 1513 1514 1515 1516 1517 1518 1519 1520
1521 1522 1523 1524 1525 1526 1527 1528 1529 1530
1531 1532 1533 1534 1535 1536 1537 1538 1539 1540
1541 1542 1543 1544 1545 1546 1547 1548 1549 1550
1551 1552 1553 1554 1555 1556 1557 1558 1559 1560
1561 1562 1563 1564 1565 1566 1567 1568 1569 1570
1571 1572 1573 1574 1575 1576 1577 1578 1579 1580
1581 1582 1583 1584 1585 1586 1587 1588 1589 1590
1591 1592 1593 1594 1595 1596 1597 1598 1599 
T 1 1600 float
286.506 285.964 286.645 286.846 286.511 286.103 285.747 286.219 286.664 286.256 285.923
285.798 285.806 285.906 286.066 286.272 286.514 286.785 287.073 287.331 287.559
287.761 287.932 288.03 287.859 287.5 287.521 287.897 288.395 288.53 288.068
288.163 287.896 287.461 286.739 285.846 285.693 285.562 284.97 285.741 285.188
283.589 283.602 283.641 283.596 283.592 283.592 283.599 283.606 283.615 283.625
283.623 283.613 283.6 283.586 283.575 283.567 283.562 283.562 283.598 283.647
283.689 283.703 283.657 283.611 283.59 283.708 284.882 286.836 284.978 284.01
284.268 284.316 284.114 283.79 283.753 283.746 283.735 283.725 284.912 284.787
283.562 283.56 283.561 283.567 283.577 283.592 283.61 283.634 283.663 283.686
283.686 283.669 283.645 283.617 283.588 283.561 283.537 283.518 283.503 283.493
283.486 283.479 283.472 283.466 283.467 283.551 284.312 286.138 284.651 283.779
283.818 283.816 283.773 283.75 283.751 283.746 283.734 283.723 284.647 284.586
283.57 283.571 283.577 283.589 283.607 283.634 283.666 283.702 283.735 283.758
283.759 283.74 283.713 283.681 283.646 283.61 283.575 283.543 283.517 283.495
283.478 283.465 283.454 283.446 283.445 283.515 284.107 285.711 284.65 283.763
283.768 283.768 283.766 283.768 283.766 283.757 283.742 283.726 284.515 284.464
283.579 283.585 283.597 283.616 283.645 283.681 283.722 283.759 283.788 283.805
283.806 283.788 283.765 283.736 283.7 283.661 283.62 283.58 283.543 283.512
283.486 283.465 283.448 283.435 283.431 283.496 284.006 285.414 284.646 283.792
283.771 283.776 283.781 283.783 283.777 283.765 283.747 283.728 284.434 284.381
283.587 283.6 283.62 283.648 283.685 283.728 283.769 283.802 283.823 283.832
283.832 283.816 283.798 283.774 283.743 283.706 283.663 283.619 283.575 283.535
283.501 283.472 283.448 283.429 283.422 283.483 283.946 285.192 284.615 283.829
283.782 283.791 283.797 283.797 283.788 283.771 283.749 283.728 284.381 284.321
283.598 283.619 283.645 283.68 283.724 283.768 283.806 283.831 283.844 283.848
283.844 283.83 283.817 283.799 283.774 283.741 283.7 283.655 283.608 283.562
283.521 283.484 283.453 283.428 283.416 283.475 283.907 285.017 284.566 283.856
283.795 283.807 283.813 283.811 283.798 283.776 283.751 283.729 284.343 284.275
283.609 283.637 283.67 283.712 283.759 283.801 283.832 283.85 283.858 283.857
283.851 283.837 283.827 283.814 283.793 283.765 283.729 283.686 283.639 283.589
283.542 283.499 283.461 283.43 283.413 283.469 283.88 284.875 284.51 283.874
283.808 283.823 283.83 283.827 283.809 283.781 283.752 283.729 284.315 284.238
283.62 283.654 283.695 283.742 283.788 283.827 283.852 283.864 283.867 283.863
283.854 283.841 283.831 283.821 283.805 283.781 283.75 283.711 283.664 283.614
283.563 283.514 283.47 283.433 283.412 283.466 283.859 284.757 284.453 283.886
283.822 283.839 283.848 283.843 283.821 283.787 283.753 283.729 284.294 284.208
283.63 283.672 283.719 283.768 283.813 283.846 283.866 283.873 283.873 283.867
283.856 283.842 283.833 283.824 283.809 283.789 283.763 283.727 283.684 283.634
283.581 283.529 283.48 283.438 283.412 283.463 283.842 284.657 284.397 283.893
283.835 283.857 283.867 283.861 283.832 283.793 283.755 283.728 284.278 284.181
283.64 283.689 283.74 283.79 283.833 283.861 283.876 283.881 283.878 283.871
283.858 283.843 283.832 283.824 283.809 283.791 283.768 283.737 283.697 283.649
283.596 283.541 283.488 283.441 283.412 283.461 283.828 284.572 284.345 283.897
283.848 283.875 283.888 283.878 283.844 283.799 283.756 283.728 284.265 284.158
283.65 283.705 283.759 283.81 283.849 283.873 283.884 283.886 283.882 283.874
283.86 283.843 283.832 283.823 283.806 283.787 283.766 283.739 283.704 283.659
283.606 283.55 283.494 283.444 283.412 283.46 283.816 284.499 284.298 283.9
283.862 283.893 283.908 283.893 283.854 283.805 283.758 283.728 284.256 284.138
283.659 283.719 283.777 283.826 283.862 283.883 283.891 283.891 283.886 283.877
283.862 283.844 283.831 283.821 283.801 283.779 283.758 283.734 283.703 283.662
283.611 283.555 283.498 283.445 283.411 283.458 283.806 284.437 284.257 283.903
283.875 283.911 283.928 283.906 283.863 283.81 283.76 283.728 284.249 284.12
283.668 283.732 283.792 283.84 283.873 283.891 283.896 283.894 283.888 283.879
283.864 283.845 283.83 283.819 283.795 283.768 283.745 283.722 283.695 283.658
283.611 283.556 283.498 283.444 283.409 283.457 283.798 284.385 284.22 283.905
283.888 283.929 283.944 283.915 283.869 283.815 283.762 283.727 284.244 284.104
283.676 283.744 283.805 283.852 283.882 283.896 283.899 283.896 283.89 283.882
283.867 283.846 283.83 283.818 283.79 283.757 283.729 283.705 283.68 283.647
283.604 283.551 283.494 283.44 283.405 283.456 283.792 284.341 284.187 283.908
283.9 283.944 283.951 283.919 283.874 283.819 283.764 283.727 284.24 284.09
283.683 283.755 283.816 283.861 283.889 283.901 283.901 283.895 283.89 283.884
283.869 283.847 283.83 283.818 283.786 283.747 283.712 283.683 283.658 283.629
283.59 283.54 283.485 283.433 283.401 283.455 283.788 284.305 284.159 283.911
283.912 283.954 283.952 283.921 283.877 283.822 283.766 283.726 284.237 284.077
283.69 283.764 283.825 283.869 283.894 283.903 283.9 283.893 283.889 283.885
283.872 283.849 283.83 283.818 283.785 283.74 283.696 283.661 283.632 283.604
283.57 283.524 283.473 283.423 283.395 283.454 283.787 284.276 284.135 283.915
283.922 283.959 283.951 283.92 283.877 283.823 283.767 283.726 284.235 284.066
283.695 283.771 283.833 283.876 283.898 283.903 283.896 283.888 283.887 283.886
283.875 283.851 283.831 283.819 283.786 283.736 283.685 283.639 283.604 283.574
283.543 283.502 283.455 283.411 283.387 283.454 283.789 284.255 284.113 283.919
283.931 283.959 283.946 283.918 283.876 283.823 283.767 283.725 284.234 284.056
283.7 283.778 283.84 283.881 283.9 283.901 283.89 283.881 283.882 283.885
283.877 283.853 283.832 283.82 283.789 283.737 283.678 283.622 283.575 283.54
283.51 283.474 283.434 283.395 283.38 283.455 283.795 284.24 284.094 283.923
283.938 283.955 283.941 283.914 283.874 283.822 283.766 283.724 284.232 284.047
283.704 283.783 283.845 283.884 283.901 283.897 283.88 283.871 283.875 283.884
283.88 283.856 283.834 283.823 283.793 283.741 283.678 283.612 283.551 283.505
283.473 283.442 283.409 283.378 283.372 283.459 283.806 284.232 284.077 283.928
283.943 283.951 283.935 283.909 283.871 283.82 283.765 283.722 284.229 284.039
283.707 283.787 283.848 283.887 283.9 283.891 283.869 283.858 283.866 283.881
283.882 283.859 283.836 283.827 283.798 283.749 283.684 283.61 283.536 283.474
283.435 283.408 283.382 283.361 283.365 283.465 283.826 284.227 284.063 283.934
283.945 283.945 283.929 283.904 283.867 283.817 283.763 283.721 284.226 284.032
283.709 283.789 283.851 283.888 283.898 283.883 283.855 283.845 283.855 283.876
283.884 283.862 283.837 283.831 283.805 283.759 283.696 283.618 283.532 283.452
283.401 283.375 283.356 283.345 283.36 283.476 283.862 284.22 284.051 283.94
283.947 283.941 283.924 283.899 283.862 283.813 283.76 283.719 284.221 284.026
283.709 283.79 283.852 283.888 283.896 283.875 283.842 283.831 283.843 283.87
283.885 283.865 283.839 283.836 283.813 283.77 283.711 283.635 283.542 283.446
283.375 283.346 283.334 283.333 283.36 283.512 283.903 284.212 284.041 283.946
283.947 283.936 283.919 283.894 283.856 283.808 283.756 283.717 284.215 284.021
283.709 283.79 283.852 283.888 283.894 283.868 283.832 283.819 283.83 283.862
283.885 283.868 283.841 283.841 283.823 283.784 283.728 283.657 283.566 283.461
283.364 283.327 283.32 283.327 283.375 283.573 283.942 284.202 284.034 283.952
283.946 283.932 283.914 283.887 283.849 283.801 283.751 283.714 284.207 284.016
283.708 283.788 283.851 283.887 283.893 283.862 283.827 283.811 283.818 283.852
283.884 283.871 283.843 283.846 283.833 283.8 283.75 283.682 283.597 283.497
283.377 283.322 283.319 283.339 283.429 283.644 283.979 284.192 284.028 283.957
283.945 283.928 283.908 283.88 283.84 283.793 283.746 283.71 284.197 284.012
283.706 283.785 283.848 283.886 283.893 283.859 283.828 283.806 283.807 283.842
283.882 283.874 283.844 283.85 283.844 283.818 283.774 283.714 283.634 283.538
283.435 283.353 283.351 283.392 283.504 283.719 284.013 284.181 284.022 283.96
283.942 283.924 283.9 283.87 283.83 283.783 283.739 283.707 284.185 284.009
283.703 283.782 283.845 283.882 283.89 283.862 283.83 283.804 283.8 283.831
283.878 283.878 283.845 283.854 283.855 283.836 283.802 283.75 283.68 283.594
283.502 283.429 283.422 283.473 283.591 283.792 284.043 284.169 284.017 283.959
283.938 283.916 283.89 283.857 283.816 283.772 283.73 283.702 284.171 284.007
283.7 283.778 283.839 283.877 283.886 283.863 283.832 283.804 283.795 283.821
283.873 283.881 283.845 283.857 283.865 283.855 283.83 283.79 283.732 283.66
283.585 283.526 283.518 283.568 283.682 283.86 284.067 284.156 284.01 283.954
283.931 283.905 283.875 283.84 283.8 283.758 283.721 283.696 284.156 284.006
283.697 283.773 283.832 283.869 283.879 283.861 283.831 283.802 283.792 283.815
283.866 283.884 283.845 283.858 283.874 283.872 283.858 283.83 283.787 283.732
283.674 283.63 283.622 283.669 283.77 283.922 284.087 284.143 283.999 283.945
283.918 283.888 283.856 283.821 283.783 283.744 283.711 283.69 284.14 284.006
283.698 283.767 283.823 283.859 283.869 283.854 283.827 283.799 283.789 283.81
283.86 283.887 283.845 283.858 283.881 283.888 283.884 283.869 283.841 283.803
283.762 283.731 283.726 283.765 283.851 283.975 284.101 284.13 283.98 283.933
283.898 283.865 283.834 283.801 283.766 283.73 283.7 283.686 284.126 284.005
283.704 283.761 283.812 283.846 283.856 283.844 283.82 283.794 283.785 283.807
283.854 283.889 283.844 283.856 283.886 283.9 283.907 283.904 283.891 283.869
283.843 283.823 283.821 283.853 283.922 284.019 284.111 284.119 283.952 283.907
283.871 283.842 283.815 283.786 283.752 283.717 283.69 283.682 284.116 284.005
283.718 283.754 283.8 283.83 283.839 283.83 283.808 283.787 283.782 283.806
283.851 283.89 283.844 283.852 283.888 283.909 283.924 283.932 283.932 283.924
283.912 283.902 283.903 283.928 283.982 284.053 284.116 284.11 283.926 283.877
283.847 283.827 283.807 283.781 283.744 283.708 283.685 283.679 284.11 284.004
283.739 283.748 283.785 283.812 283.82 283.812 283.794 283.778 283.78 283.807
283.851 283.891 283.845 283.846 283.887 283.913 283.934 283.952 283.963 283.967
283.966 283.964 283.968 283.988 284.027 284.076 284.113 284.094 283.878 283.849
283.838 283.833 283.819 283.789 283.743 283.7 283.68 283.68 284.111 284.004
283.768 283.749 283.771 283.791 283.797 283.791 283.778 283.77 283.78 283.811
283.853 283.891 283.847 283.837 283.883 283.912 283.938 283.961 283.981 283.995
284.004 284.008 284.014 284.03 284.056 284.085 284.097 284.048 283.875 283.861
283.866 283.867 283.848 283.807 283.745 283.685 283.68 283.726 284.113 284.003
283.804 283.761 283.764 283.774 283.777 283.771 283.765 283.768 283.787 283.82
283.858 283.89 283.85 283.826 283.875 283.907 283.934 283.96 283.985 284.006
284.021 284.032 284.04 284.051 284.066 284.076 284.061 283.931 283.885 283.904
283.918 283.912 283.881 283.83 283.767 283.724 283.727 283.797 284.115 284.003
283.845 283.792 283.775 283.771 283.768 283.764 283.766 283.779 283.804 283.836
283.867 283.891 283.855 283.811 283.862 283.897 283.924 283.949 283.974 283.998
284.018 284.033 284.043 284.051 284.056 284.052 284.02 283.909 283.952 283.969
283.969 283.954 283.925 283.884 283.841 283.811 283.813 283.877 284.117 284.003
283.889 283.839 283.813 283.798 283.79 283.787 283.794 283.811 283.834 283.859
283.879 283.891 283.859 283.792 283.845 283.883 283.91 283.932 283.953 283.973
283.993 284.009 284.021 284.027 284.027 284.017 283.99 283.986 284.009 284.019
284.019 284.008 283.988 283.961 283.934 283.914 283.915 283.958 284.12 284.002
283.931 283.896 283.873 283.857 283.848 283.846 283.853 283.864 283.876 283.886
283.89 283.889 283.861 283.768 283.818 283.861 283.891 283.913 283.93 283.946
283.96 283.974 283.986 283.993 283.996 283.994 283.998 284.033 284.049 284.06
284.065 284.064 284.055 284.042 284.027 284.014 284.012 284.034 284.124 284.002
283.968 283.951 283.937 283.927 283.922 283.921 283.919 283.915 283.909 283.9
283.887 283.873 283.848 283.737 283.772 283.819 283.856 283.885 283.91 283.931
283.949 283.962 283.972 283.981 283.99 284.001 284.018 284.039 284.053 284.071
284.086 284.096 284.102 284.103 284.101 284.095 284.09 284.095 284.129 283.979
283.96 283.944 283.93 283.917 283.904 283.893 283.881 283.87 283.857 283.844
283.828 283.808 283.773 283.672 283.673 283.706 283.731 283.752 283.772 283.791
283.809 283.827 283.845 283.86 283.871 283.878 283.886 283.904 283.943 283.977
284.005 284.027 284.045 284.06 284.072 284.082 284.092 284.102 284.116 
alphat 1 1600 float
0 0 0 0 0 0 0 0 0 0 0
0 0 0 0 0 0 0 0 0 0
0 0 0 0 0 0 0 0 0 0
0 0 0 0 0 0 0 0 0 0
0 0 0 0 0 0 0 0 0 0
0 0 0 0 0 0 0 0 0 0
0 0 0 0 0 0 0 0 0 0
0 0 0 0 0 0 0 0 0 0
0 0 0 0 0 0 0 0 0 0
0 0 0 0 0 0 0 0 0 0
0 0 0 0 0 0 0 0 0 0
0 0 0 0 0 0 0 0 0 0
0 0 0 0 0 0 0 0 0 0
0 0 0 0 0 0 0 0 0 0
0 0 0 0 0 0 0 0 0 0
0 0 0 0 0 0 0 0 0 0
0 0 0 0 0 0 0 0 0 0
0 0 0 0 0 0 0 0 0 0
0 0 0 0 0 0 0 0 0 0
0 0 0 0 0 0 0 0 0 0