# vtk DataFile Version 2.0
RBConvection
ASCII
DATASET UNSTRUCTURED_GRID
POINTS 3362 float
0 0 0 0.025 0 0 0.05 0 0 0.075 0
0 0.1 0 0 0.125 0 0 0.15 0 0
0.175 0 0 0.2 0 0 0.225 0 0 0.25
0 0 0.275 0 0 0.3 0 0 0.325 0
0 0.35 0 0 0.375 0 0 0.4 0 0
0.425 0 0 0.45 0 0 0.475 0 0 0.5
0 0 0.525 0 0 0.55 0 0 0.575 0
0 0.6 0 0 0.625 0 0 0.65 0 0
0.675 0 0 0.7 0 0 0.725 0 0 0.75
0 0 0.775 0 0 0.8 0 0 0.825 0
0 0.85 0 0 0.875 0 0 0.9 0 0
0.925 0 0 0.95 0 0 0.975 0 0 1
0 0 0 0.01 0 0.025 0.01 0 0.05 0.01
0 0.075 0.01 0 0.1 0.01 0 0.125 0.01 0
0.15 0.01 0 0.175 0.01 0 0.2 0.01 0 0.225
0.01 0 0.25 0.01 0 0.275 0.01 0 0.3 0.01
0 0.325 0.01 0 0.35 0.01 0 0.375 0.01 0
0.4 0.01 0 0.425 0.01 0 0.45 0.01 0 0.475
0.01 0 0.5 0.01 0 0.525 0.01 0 0.55 0.01
0 0.575 0.01 0 0.6 0.01 0 0.625 0.01 0
0.65 0.01 0 0.675 0.01 0 0.7 0.01 0 0.725
0.01 0 0.75 0.01 0 0.775 0.01 0 0.8 0.01
0 0.825 0.01 0 0.85 0.01 0 0.875 0.01 0
0.9 0.01 0 0.925 0.01 0 0.95 0.01 0 0.975
0.01 0 1 0.01 0 0 0.02 0 0.025 0.02
0 0.05 0.02 0 0.075 0.02 0 0.1 0.02 0
0.125 0.02 0 0.15 0.02 0 0.175 0.02 0 0.2
0.02 0 0.225 0.02 0 0.25 0.02 0 0.275 0.02
0 0.3 0.02 0 0.325 0.02 0 0.35 0.02 0
0.375 0.02 0 0.4 0.02 0 0.425 0.02 0 0.45
0.02 0 0.475 0.02 0 0.5 0.02 0 0.525 0.02
0 0.55 0.02 0 0.575 0.02 0 0.6 0.02 0
0.625 0.02 0 0.65 0.02 0 0.675 0.02 0 0.7
0.02 0 0.725 0.02 0 0.75 0.02 0 0.775 0.02
0 0.8 0.02 0 0.825 0.02 0 0.85 0.02 0
0.875 0.02 0 0.9 0.02 0 0.925 0.02 0 0.95
0.02 0 0.975 0.02 0 1 0.02 0 0 0.03
0 0.025 0.03 0 0.05 0.03 0 0.075 0.03 0
0.1 0.03 0 0.125 0.03 0 0.15 0.03 0 0.175
0.03 0 0.2 0.03 0 0.225 0.03 0 0.25 0.03
0 0.275 0.03 0 0.3 0.03 0 0.325 0.03 0
0.35 0.03 0 0.375 0.03 0 0.4 0.03 0 0.425
0.03 0 0.45 0.03 0 0.475 0.03 0 0.5 0.03
0 0.525 0.03 0 0.55 0.03 0 0.575 0.03 0
0.6 0.03 0 0.625 0.03 0 0.65 0.03 0 0.675
0.03 0 0.7 0.03 0 0.725 0.03 0 0.75 0.03
0 0.775 0.03 0 0.8 0.03 0 0.825 0.03 0
0.85 0.03 0 0.875 0.03 0 0.9 0.03 0 0.925
0.03 0 0.95 0.03 0 0.975 0.03 0 1 0.03
0 0 0.04 0 0.025 0.04 0 0.05 0.04 0
0.075 0.04 0 0.1 0.04 0 0.125 0.04 0 0.15
0.04 0 0.175 0.04 0 0.2 0.04 0 0.225 0.04
0 0.25 0.04 0 0.275 0.04 0 0.3 0.04 0
0.325 0.04 0 0.35 0.04 0 0.375 0.04 0 0.4
0.04 0 0.425 0.04 0 0.45 0.04 0 0.475 0.04
0 0.5 0.04 0 0.525 0.04 0 0.55 0.04 0
0.575 0.04 0 0.6 0.04 0 0.625 0.04 0 0.65
0.04 0 0.675 0.04 0 0.7 0.04 0 0.725 0.04
0 0.75 0.04 0 0.775 0.04 0 0.8 0.04 0
0.825 0.04 0 0.85 0.04 0 0.875 0.04 0 0.9
0.04 0 0.925 0.04 0 0.95 0.04 0 0.975 0.04
0 1 0.04 0 0 0.05 0 0.025 0.05 0
0.05 0.05 0 0.075 0.05 0 0.1 0.05 0 0.125
0.05 0 0.15 0.05 0 0.175 0.05 0 0.2 0.05
0 0.225 0.05 0 0.25 0.05 0 0.275 0.05 0
0.3 0.05 0 0.325 0.05 0 0.35 0.05 0 0.375
0.05 0 0.4 0.05 0 0.425 0.05 0 0.45 0.05
0 0.475 0.05 0 0.5 0.05 0 0.525 0.05 0
0.55 0.05 0 0.575 0.05 0 0.6 0.05 0 0.625
0.05 0 0.65 0.05 0 0.675 0.05 0 0.7 0.05
0 0.725 0.05 0 0.75 0.05 0 0.775 0.05 0
0.8 0.05 0 0.825 0.05 0 0.85 0.05 0 0.875
0.05 0 0.9 0.05 0 0.925 0.05 0 0.95 0.05
0 0.975 0.05 0 1 0.05 0 0 0.06 0
0.025 0.06 0 0.05 0.06 0 0.075 0.06 0 0.1
0.06 0 0.125 0.06 0 0.15 0.06 0 0.175 0.06
0 0.2 0.06 0 0.225 0.06 0 0.25 0.06 0
0.275 0.06 0 0.3 0.06 0 0.325 0.06 0 0.35
0.06 0 0.375 0.06 0 0.4 0.06 0 0.425 0.06
0 0.45 0.06 0 0.475 0.06 0 0.5 0.06 0
0.525 0.06 0 0.55 0.06 0 0.575 0.06 0 0.6
0.06 0 0.625 0.06 0 0.65 0.06 0 0.675 0.06
0 0.7 0.06 0 0.725 0.06 0 0.75 0.06 0
0.775 0.06 0 0.8 0.06 0 0.825 0.06 0 0.85
0.06 0 0.875 0.06 0 0.9 0.06 0 0.925 0.06
0 0.95 0.06 0 0.975 0.06 0 1 0.06 0
0 0.07 0 0.025 0.07 0 0.05 0.07 0 0.075
0.07 0 0.1 0.07 0 0.125 0.07 0 0.15 0.07
0 0.175 0.07 0 0.2 0.07 0 0.225 0.07 0
0.25 0.07 0 0.275 0.07 0 0.3 0.07 0 0.325
0.07 0 0.35 0.07 0 0.375 0.07 0 0.4 0.07
0 0.425 0.07 0 0.45 0.07 0 0.475 0.07 0
0.5 0.07 0 0.525 0.07 0 0.55 0.07 0 0.575
0.07 0 0.6 0.07 0 0.625 0.07 0 0.65 0.07
0 0.675 0.07 0 0.7 0.07 0 0.725 0.07 0
0.75 0.07 0 0.775 0.07 0 0.8 0.07 0 0.825
0.07 0 0.85 0.07 0 0.875 0.07 0 0.9 0.07
0 0.925 0.07 0 0.95 0.07 0 0.975 0.07 0
1 0.07 0 0 0.08 0 0.025 0.08 0 0.05
0.08 0 0.075 0.08 0 0.1 0.08 0 0.125 0.08
0 0.15 0.08 0 0.175 0.08 0 0.2 0.08 0
0.225 0.08 0 0.25 0.08 0 0.275 0.08 0 0.3
0.08 0 0.325 0.08 0 0.35 0.08 0 0.375 0.08
0 0.4 0.08 0 0.425 0.08 0 0.45 0.08 0
0.475 0.08 0 0.5 0.08 0 0.525 0.08 0 0.55
0.08 0 0.575 0.08 0 0.6 0.08 0 0.625 0.08
0 0.65 0.08 0 0.675 0.08 0 0.7 0.08 0
0.725 0.08 0 0.75 0.08 0 0.775 0.08 0 0.8
0.08 0 0.825 0.08 0 0.85 0.08 0 0.875 0.08
0 0.9 0.08 0 0.925 0.08 0 0.95 0.08 0
0.975 0.08 0 1 0.08 0 0 0.09 0 0.025
0.09 0 0.05 0.09 0 0.075 0.09 0 0.1 0.09
0 0.125 0.09 0 0.15 0.09 0 0.175 0.09 0
0.2 0.09 0 0.225 0.09 0 0.25 0.09 0 0.275
0.09 0 0.3 0.09 0 0.325 0.09 0 0.35 0.09
0 0.375 0.09 0 0.4 0.09 0 0.425 0.09 0
0.45 0.09 0 0.475 0.09 0 0.5 0.09 0 0.525
0.09 0 0.55 0.09 0 0.575 0.09 0 0.6 0.09
0 0.625 0.09 0 0.65 0.09 0 0.675 0.09 0
0.7 0.09 0 0.725 0.09 0 0.75 0.09 0 0.775
0.09 0 0.8 0.09 0 0.825 0.09 0 0.85 0.09
0 0.875 0.09 0 0.9 0.09 0 0.925 0.09 0
0.95 0.09 0 0.975 0.09 0 1 0.09 0 0
0.1 0 0.025 0.1 0 0.05 0.1 0 0.075 0.1
0 0.1 0.1 0 0.125 0.1 0 0.15 0.1 0
0.175 0.1 0 0.2 0.1 0 0.225 0.1 0 0.25
0.1 0 0.275 0.1 0 0.3 0.1 0 0.325 0.1
0 0.35 0.1 0 0.375 0.1 0 0.4 0.1 0
0.425 0.1 0 0.45 0.1 0 0.475 0.1 0 0.5
0.1 0 0.525 0.1 0 0.55 0.1 0 0.575 0.1
0 0.6 0.1 0 0.625 0.1 0 0.65 0.1 0
0.675 0.1 0 0.7 0.1 0 0.725 0.1 0 0.75
0.1 0 0.775 0.1 0 0.8 0.1 0 0.825 0.1
0 0.85 0.1 0 0.875 0.1 0 0.9 0.1 0
0.925 0.1 0 0.95 0.1 0 0.975 0.1 0 1
0.1 0 0 0.11 0 0.025 0.11 0 0.05 0.11
0 0.075 0.11 0 0.1 0.11 0 0.125 0.11 0
0.15 0.11 0 0.175 0.11 0 0.2 0.11 0 0.225
0.11 0 0.25 0.11 0 0.275 0.11 0 0.3 0.11
0 0.325 0.11 0 0.35 0.11 0 0.375 0.11 0
0.4 0.11 0 0.425 0.11 0 0.45 0.11 0 0.475
0.11 0 0.5 0.11 0 0.525 0.11 0 0.55 0.11
0 0.575 0.11 0 0.6 0.11 0 0.625 0.11 0
0.65 0.11 0 0.675 0.11 0 0.7 0.11 0 0.725
0.11 0 0.75 0.11 0 0.775 0.11 0 0.8 0.11
0 0.825 0.11 0 0.85 0.11 0 0.875 0.11 0
0.9 0.11 0 0.925 0.11 0 0.95 0.11 0 0.975
0.11 0 1 0.11 0 0 0.12 0 0.025 0.12
0 0.05 0.12 0 0.075 0.12 0 0.1 0.12 0
0.125 0.12 0 0.15 0.12 0 0.175 0.12 0 0.2
0.12 0 0.225 0.12 0 0.25 0.12 0 0.275 0.12
0 0.3 0.12 0 0.325 0.12 0 0.35 0.12 0
0.375 0.12 0 0.4 0.12 0 0.425 0.12 0 0.45
0.12 0 0.475 0.12 0 0.5 0.12 0 0.525 0.12
0 0.55 0.12 0 0.575 0.12 0 0.6 0.12 0
0.625 0.12 0 0.65 0.12 0 0.675 0.12 0 0.7
0.12 0 0.725 0.12 0 0.75 0.12 0 0.775 0.12
0 0.8 0.12 0 0.825 0.12 0 0.85 0.12 0
0.875 0.12 0 0.9 0.12 0 0.925 0.12 0 0.95
0.12 0 0.975 0.12 0 1 0.12 0 0 0.13
0 0.025 0.13 0 0.05 0.13 0 0.075 0.13 0
0.1 0.13 0 0.125 0.13 0 0.15 0.13 0 0.175
0.13 0 0.2 0.13 0 0.225 0.13 0 0.25 0.13
0 0.275 0.13 0 0.3 0.13 0 0.325 0.13 0
0.35 0.13 0 0.375 0.13 0 0.4 0.13 0 0.425
0.13 0 0.45 0.13 0 0.475 0.13 0 0.5 0.13
0 0.525 0.13 0 0.55 0.13 0 0.575 0.13 0
0.6 0.13 0 0.625 0.13 0 0.65 0.13 0 0.675
0.13 0 0.7 0.13 0 0.725 0.13 0 0.75 0.13
0 0.775 0.13 0 0.8 0.13 0 0.825 0.13 0
0.85 0.13 0 0.875 0.13 0 0.9 0.13 0 0.925
0.13 0 0.95 0.13 0 0.975 0.13 0 1 0.13
0 0 0.14 0 0.025 0.14 0 0.05 0.14 0
0.075 0.14 0 0.1 0.14 0 0.125 0.14 0 0.15
0.14 0 0.175 0.14 0 0.2 0.14 0 0.225 0.14
0 0.25 0.14 0 0.275 0.14 0 0.3 0.14 0
0.325 0.14 0 0.35 0.14 0 0.375 0.14 0 0.4
0.14 0 0.425 0.14 0 0.45 0.14 0 0.475 0.14
0 0.5 0.14 0 0.525 0.14 0 0.55 0.14 0
0.575 0.14 0 0.6 0.14 0 0.625 0.14 0 0.65
0.14 0 0.675 0.14 0 0.7 0.14 0 0.725 0.14
0 0.75 0.14 0 0.775 0.14 0 0.8 0.14 0
0.825 0.14 0 0.85 0.14 0 0.875 0.14 0 0.9
0.14 0 0.925 0.14 0 0.95 0.14 0 0.975 0.14
0 1 0.14 0 0 0.15 0 0.025 0.15 0
0.05 0.15 0 0.075 0.15 0 0.1 0.15 0 0.125
0.15 0 0.15 0.15 0 0.175 0.15 0 0.2 0.15
0 0.225 0.15 0 0.25 0.15 0 0.275 0.15 0
0.3 0.15 0 0.325 0.15 0 0.35 0.15 0 0.375
0.15 0 0.4 0.15 0 0.425 0.15 0 0.45 0.15
0 0.475 0.15 0 0.5 0.15 0 0.525 0.15 0
0.55 0.15 0 0.575 0.15 0 0.6 0.15 0 0.625
0.15 0 0.65 0.15 0 0.675 0.15 0 0.7 0.15
0 0.725 0.15 0 0.75 0.15 0 0.775 0.15 0
0.8 0.15 0 0.825 0.15 0 0.85 0.15 0 0.875
0.15 0 0.9 0.15 0 0.925 0.15 0 0.95 0.15
0 0.975 0.15 0 1 0.15 0 0 0.16 0
0.025 0.16 0 0.05 0.16 0 0.075 0.16 0 0.1
0.16 0 0.125 0.16 0 0.15 0.16 0 0.175 0.16
0 0.2 0.16 0 0.225 0.16 0 0.25 0.16 0
0.275 0.16 0 0.3 0.16 0 0.325 0.16 0 0.35
0.16 0 0.375 0.16 0 0.4 0.16 0 0.425 0.16
0 0.45 0.16 0 0.475 0.16 0 0.5 0.16 0
0.525 0.16 0 0.55 0.16 0 0.575 0.16 0 0.6
0.16 0 0.625 0.16 0 0.65 0.16 0 0.675 0.16
0 0.7 0.16 0 0.725 0.16 0 0.75 0.16 0
0.775 0.16 0 0.8 0.16 0 0.825 0.16 0 0.85
0.16 0 0.875 0.16 0 0.9 0.16 0 0.925 0.16
0 0.95 0.16 0 0.975 0.16 0 1 0.16 0
0 0.17 0 0.025 0.17 0 0.05 0.17 0 0.075
0.17 0 0.1 0.17 0 0.125 0.17 0 0.15 0.17
0 0.175 0.17 0 0.2 0.17 0 0.225 0.17 0
0.25 0.17 0 0.275 0.17 0 0.3 0.17 0 0.325
0.17 0 0.35 0.17 0 0.375 0.17 0 0.4 0.17
0 0.425 0.17 0 0.45 0.17 0 0.475 0.17 0
0.5 0.17 0 0.525 0.17 0 0.55 0.17 0 0.575
0.17 0 0.6 0.17 0 0.625 0.17 0 0.65 0.17
0 0.675 0.17 0 0.7 0.17 0 0.725 0.17 0
0.75 0.17 0 0.775 0.17 0 0.8 0.17 0 0.825
0.17 0 0.85 0.17 0 0.875 0.17 0 0.9 0.17
0 0.925 0.17 0 0.95 0.17 0 0.975 0.17 0
1 0.17 0 0 0.18 0 0.025 0.18 0 0.05
0.18 0 0.075 0.18 0 0.1 0.18 0 0.125 0.18
0 0.15 0.18 0 0.175 0.18 0 0.2 0.18 0
0.225 0.18 0 0.25 0.18 0 0.275 0.18 0 0.3
0.18 0 0.325 0.18 0 0.35 0.18 0 0.375 0.18
0 0.4 0.18 0 0.425 0.18 0 0.45 0.18 0
0.475 0.18 0 0.5 0.18 0 0.525 0.18 0 0.55
0.18 0 0.575 0.18 0 0.6 0.18 0 0.625 0.18
0 0.65 0.18 0 0.675 0.18 0 0.7 0.18 0
0.725 0.18 0 0.75 0.18 0 0.775 0.18 0 0.8
0.18 0 0.825 0.18 0 0.85 0.18 0 0.875 0.18
0 0.9 0.18 0 0.925 0.18 0 0.95 0.18 0
0.975 0.18 0 1 0.18 0 0 0.19 0 0.025
0.19 0 0.05 0.19 0 0.075 0.19 0 0.1 0.19
0 0.125 0.19 0 0.15 0.19 0 0.175 0.19 0
0.2 0.19 0 0.225 0.19 0 0.25 0.19 0 0.275
0.19 0 0.3 0.19 0 0.325 0.19 0 0.35 0.19
0 0.375 0.19 0 0.4 0.19 0 0.425 0.19 0
0.45 0.19 0 0.475 0.19 0 0.5 0.19 0 0.525
0.19 0 0.55 0.19 0 0.575 0.19 0 0.6 0.19
0 0.625 0.19 0 0.65 0.19 0 0.675 0.19 0
0.7 0.19 0 0.725 0.19 0 0.75 0.19 0 0.775
0.19 0 0.8 0.19 0 0.825 0.19 0 0.85 0.19
0 0.875 0.19 0 0.9 0.19 0 0.925 0.19 0
0.95 0.19 0 0.975 0.19 0 1 0.19 0 0
0.2 0 0.025 0.2 0 0.05 0.2 0 0.075 0.2
0 0.1 0.2 0 0.125 0.2 0 0.15 0.2 0
0.175 0.2 0 0.2 0.2 0 0.225 0.2 0 0.25
[...]
CELL_DATA 1600
FIELD attributes 6
cellID 1 1600 int
0 1 2 3 4 5 6 7 8 9 10
11 12 13 14 15 16 17 18 19 20
21 22 23 24 25 26 27 28 29 30
31 32 33 34 35 36 37 38 39 40
41 42 43 44 45 46 47 48 49 50
51 52 53 54 55 56 57 58 59 60
61 62 63 64 65 66 67 68 69 70
71 72 73 74 75 76 77 78 79 80
81 82 83 84 85 86 87 88 89 90
91 92 93 94 95 96 97 98 99 100
101 102 103 104 105 106 107 108 109 110
111 112 113 114 115 116 117 118 119 120
121 122 123 124 125 126 127 128 129 130
131 132 133 134 135 136 137 138 139 140
141 142 143 144 145 146 147 148 149 150
151 152 153 154 155 156 157 158 159 160
161 162 163 164 165 166 167 168 169 170
171 172 173 174 175 176 177 178 179 180
181 182 183 184 185 186 187 188 189 190
191 192 193 194 195 196 197 198 199 200
201 202 203 204 205 206 207 208 209 210
211 212 213 214 215 216 217 218 219 220
221 222 223 224 225 226 227 228 229 230
231 232 233 234 235 236 237 238 239 240
241 242 243 244 245 246 247 248 249 250
251 252 253 254 255 256 257 258 259 260
261 262 263 264 265 266 267 268 269 270
271 272 273 274 275 276 277 278 279 280
281 282 283 284 285 286 287 288 289 290
291 292 293 294 295 296 297 298 299 300
301 302 303 304 305 306 307 308 309 310
311 312 313 314 315 316 317 318 319 320
321 322 323 324 325 326 327 328 329 330
331 332 333 334 335 336 337 338 339 340
341 342 343 344 345 346 347 348 349 350
351 352 353 354 355 356 357 358 359 360
361 362 363 364 365 366 367 368 369 370
371 372 373 374 375 376 377 378 379 380
381 382 383 384 385 386 387 388 389 390
391 392 393 394 395 396 397 398 399 400
401 402 403 404 405 406 407 408 409 410
411 412 413 414 415 416 417 418 419 420
421 422 423 424 425 426 427 428 429 430
431 432 433 434 435 436 437 438 439 440
441 442 443 444 445 446 447 448 449 450
451 452 453 454 455 456 457 458 459 460
461 462 463 464 465 466 467 468 469 470
471 472 473 474 475 476 477 478 479 480
481 482 483 484 485 486 487 488 489 490
491 492 493 494 495 496 497 498 499 500
501 502 503 504 505 506 507 508 509 510
511 512 513 514 515 516 517 518 519 520
521 522 523 524 525 526 527 528 529 530
531 532 533 534 535 536 537 538 539 540
541 542 543 544 545 546 547 548 549 550
551 552 553 554 555 556 557 558 559 560
561 562 563 564 565 566 567 568 569 570
571 572 573 574 575 576 577 578 579 580
581 582 583 584 585 586 587 588 589 590
591 592 593 594 595 596 597 598 599 600
601 602 603 604 605 606 607 608 609 610
611 612 613 614 615 616 617 618 619 620
621 622 623 624 625 626 627 628 629 630
631 632 633 634 635 636 637 638 639 640
641 642 643 644 645 646 647 648 649 650
651 652 653 654 655 656 657 658 659 660
661 662 663 664 665 666 667 668 669 670
671 672 673 674 675 676 677 678 679 680
681 682 683 684 685 686 687 688 689 690
691 692 693 694 695 696 697 698 699 700
701 702 703 704 705 706 707 708 709 710
711 712 713 714 715 716 717 718 719 720
721 722 723 724 725 726 727 728 729 730
731 732 733 734 735 736 737 738 739 740
741 742 743 744 745 746 747 748 749 750
751 752 753 754 755 756 757 758 759 760
761 762 763 764 765 766 767 768 769 770
771 772 773 774 775 776 777 778 779 780
781 782 783 784 785 786 787 788 789 790
791 792 793 794 795 796 797 798 799 800
801 802 803 804 805 806 807 808 809 810
811 812 813 814 815 816 817 818 819 820
821 822 823 824 825 826 827 828 829 830
831 832 833 834 835 836 837 838 839 840
841 842 843 844 845 846 847 848 849 850
851 852 853 854 855 856 857 858 859 860
861 862 863 864 865 866 867 868 869 870
871 872 873 874 875 876 877 878 879 880
881 882 883 884 885 886 887 888 889 890
891 892 893 894 895 896 897 898 899 900
901 902 903 904 905 906 907 908 909 910
911 912 913 914 915 916 917 918 919 920
921 922 923 924 925 926 927 928 929 930
931 932 933 934 935 936 937 938 939 940
941 942 943 944 945 946 947 948 949 950
951 952 953 954 955 956 957 958 959 960
961 962 963 964 965 966 967 968 969 970
971 972 973 974 975 976 977 978 979 980
981 982 983 984 985 986 987 988 989 990
991 992 993 994 995 996 997 998 999 1000
1001 1002 1003 1004 1005 1006 1007 1008 1009 1010
1011 1012 1013 1014 1015 1016 1017 1018 1019 1020
1021 1022 1023 1024 1025 1026 1027 1028 1029 1030
1031 1032 1033 1034 1035 1036 1037 1038 1039 1040
1041 1042 1043 1044 1045 1046 1047 1048 1049 1050
1051 1052 1053 1054 1055 1056 1057 1058 1059 1060
1061 1062 1063 1064 1065 1066 1067 1068 1069 1070
1071 1072 1073 1074 1075 1076 1077 1078 1079 1080
1081 1082 1083 1084 1085 1086 1087 1088 1089 1090
1091 1092 1093 1094 1095 1096 1097 1098 1099 1100
1101 1102 1103 1104 1105 1106 1107 1108 1109 1110
1111 1112 1113 1114 1115 1116 1117 1118 1119 1120
1121 1122 1123 1124 1125 1126 1127 1128 1129 1130
1131 1132 1133 1134 1135 1136 1137 1138 1139 1140
1141 1142 1143 1144 1145 1146 1147 1148 1149 1150
1151 1152 1153 1154 1155 1156 1157 1158 1159 1160
1161 1162 1163 1164 1165 1166 1167 1168 1169 1170
1171 1172 1173 1174 1175 1176 1177 1178 1179 1180
1181 1182 1183 1184 1185 1186 1187 1188 1189 1190
1191 1192 1193 1194 1195 1196 1197 1198 1199 1200
1201 1202 1203 1204 1205 1206 1207 1208 1209 1210
1211 1212 1213 1214 1215 1216 1217 1218 1219 1220
1221 1222 1223 1224 1225 1226 1227 1228 1229 1230
1231 1232 1233 1234 1235 1236 1237 1238 1239 1240
1241 1242 1243 1244 1245 1246 1247 1248 1249 1250
1251 1252 1253 1254 1255 1256 1257 1258 1259 1260
1261 1262 1263 1264 1265 1266 1267 1268 1269 1270
1271 1272 1273 1274 1275 1276 1277 1278 1279 1280
1281 1282 1283 1284 1285 1286 1287 1288 1289 1290
1291 1292 1293 1294 1295 1296 1297 1298 1299 1300
1301 1302 1303 1304 1305 1306 1307 1308 1309 1310
1311 1312 1313 1314 1315 1316 1317 1318 1319 1320
1321 1322 1323 1324 1325 1326 1327 1328 1329 1330
1331 1332 1333 1334 1335 1336 1337 1338 1339 1340
1341 1342 1343 1344 1345 1346 1347 1348 1349 1350
1351 1352 1353 1354 1355 1356 1357 1358 1359 1360
1361 1362 1363 1364 1365 1366 1367 1368 1369 1370
1371 1372 1373 1374 1375 1376 1377 1378 1379 1380
1381 1382 1383 1384 1385 1386 1387 1388 1389 1390
1391 1392 1393 1394 1395 1396 1397 1398 1399 1400
1401 1402 1403 1404 1405 1406 1407 1408 1409 1410
1411 1412 1413 1414 1415 1416 1417 1418 1419 1420
1421 1422 1423 1424 1425 1426 1427 1428 1429 1430
1431 1432 1433 1434 1435 1436 1437 1438 1439 1440
1441 1442 1443 1444 1445 1446 1447 1448 1449 1450
1451 1452 1453 1454 1455 1456 1457 1458 1459 1460
1461 1462 1463 1464 1465 1466 1467 1468 1469 1470
1471 1472 1473 1474 1475 1476 1477 1478 1479 1480
1481 1482 1483 1484 1485 1486 1487 1488 1489 1490
1491 1492 1493 1494 1495 1496 1497 1498 1499 1500
1501 1502 1503 1504 1505 1506 1507 1508 1509 1510
1511 1512 1513 1514 1515 1516 1517 1518 1519 1520
1521 1522 1523 1524 1525 1526 1527 1528 1529 1530
1531 1532 1533 1534 1535 1536 1537 1538 1539 1540
1541 1542 1543 1544 1545 1546 1547 1548 1549 1550
1551 1552 1553 1554 1555 1556 1557 1558 1559 1560
1561 1562 1563 1564 1565 1566 1567 1568 1569 1570
1571 1572 1573 1574 1575 1576 1577 1578 1579 1580
1581 1582 1583 1584 1585 1586 1587 1588 1589 1590
1591 1592 1593 1594 1595 1596 1597 1598 1599 
T 1 1600 float
286.791 286.976 287.158 287.335 287.517 287.712 287.926 288.162 288.401 288.636 288.87
289.105 289.343 289.587 289.837 290.096 290.366 290.651 290.959 291.315 291.578
291.066 290.736 290.454 290.235 289.945 289.67 289.406 289.148 288.891 288.627
288.39 288.2 288.059 287.957 287.877 287.791 287.654 287.438 287.168 286.287
286.27 286.253 286.239 286.228 286.219 286.215 286.214 286.235 286.284 286.354
286.44 286.538 286.647 286.77 286.911 287.084 287.325 287.753 288.759 290.211
288.629 287.092 286.933 286.926 286.804 286.661 286.528 286.417 286.342 286.32
286.323 286.329 286.337 286.346 286.356 286.367 286.379 286.393 286.409 286.307
286.297 286.282 286.266 286.251 286.237 286.226 286.217 286.21 286.21 286.217
286.232 286.255 286.289 286.334 286.395 286.483 286.626 286.917 287.769 289.526
287.912 286.519 286.372 286.374 286.346 286.314 286.293 286.285 286.289 286.298
286.306 286.313 286.321 286.332 286.346 286.363 286.381 286.4 286.421 286.321
286.319 286.308 286.294 286.28 286.266 286.253 286.241 286.231 286.225 286.223
286.225 286.232 286.245 286.264 286.293 286.339 286.421 286.608 287.263 289.094
287.62 286.365 286.245 286.251 286.255 286.258 286.266 286.276 286.285 286.292
286.296 286.299 286.306 286.317 286.336 286.359 286.384 286.408 286.431 286.33
286.336 286.327 286.315 286.302 286.289 286.276 286.264 286.253 286.244 286.239
286.238 286.24 286.247 286.257 286.273 286.299 286.348 286.469 286.962 288.784
287.49 286.311 286.205 286.215 286.229 286.244 286.259 286.27 286.277 286.279
286.279 286.279 286.284 286.297 286.32 286.352 286.385 286.415 286.44 286.337
286.349 286.341 286.329 286.317 286.305 286.294 286.283 286.272 286.263 286.255
286.252 286.252 286.256 286.263 286.273 286.289 286.319 286.399 286.766 288.533
287.451 286.29 286.186 286.199 286.218 286.237 286.253 286.263 286.267 286.265
286.261 286.259 286.263 286.278 286.305 286.344 286.386 286.421 286.447 286.343
286.359 286.349 286.335 286.323 286.313 286.305 286.296 286.287 286.278 286.27
286.266 286.264 286.267 286.272 286.279 286.289 286.307 286.36 286.631 288.311
287.46 286.284 286.174 286.189 286.21 286.231 286.247 286.256 286.256 286.251
286.244 286.24 286.244 286.26 286.291 286.337 286.387 286.427 286.453 286.348
286.368 286.354 286.336 286.322 286.314 286.309 286.304 286.297 286.29 286.283
286.278 286.276 286.277 286.281 286.287 286.293 286.303 286.337 286.534 288.11
287.486 286.284 286.165 286.18 286.203 286.225 286.241 286.249 286.247 286.24
286.231 286.225 286.229 286.245 286.278 286.331 286.388 286.432 286.458 286.353
286.374 286.356 286.333 286.316 286.308 286.306 286.305 286.303 286.299 286.293
286.289 286.286 286.287 286.29 286.294 286.298 286.303 286.322 286.463 287.925
287.516 286.288 286.157 286.171 286.195 286.219 286.236 286.243 286.24 286.231
286.221 286.214 286.216 286.232 286.267 286.325 286.39 286.437 286.462 286.357
286.379 286.356 286.327 286.307 286.298 286.298 286.303 286.305 286.304 286.301
286.297 286.296 286.296 286.299 286.302 286.303 286.303 286.313 286.411 287.751
287.544 286.294 286.149 286.162 286.187 286.212 286.231 286.239 286.236 286.226
286.214 286.206 286.206 286.22 286.256 286.32 286.392 286.442 286.466 286.361
286.384 286.355 286.32 286.295 286.284 286.288 286.297 286.304 286.307 286.307
286.305 286.304 286.305 286.307 286.308 286.307 286.304 286.306 286.372 287.584
287.567 286.301 286.141 286.152 286.178 286.205 286.225 286.235 286.233 286.223
286.21 286.201 286.199 286.21 286.245 286.314 286.393 286.446 286.47 286.365
286.388 286.354 286.313 286.281 286.269 286.275 286.289 286.302 286.309 286.312
286.311 286.311 286.312 286.314 286.314 286.311 286.304 286.301 286.342 287.421
287.584 286.313 286.132 286.141 286.168 286.196 286.219 286.232 286.233 286.223
286.21 286.2 286.195 286.202 286.234 286.308 286.394 286.45 286.473 286.368
286.391 286.353 286.306 286.268 286.252 286.261 286.281 286.299 286.311 286.316
286.317 286.318 286.319 286.319 286.318 286.312 286.304 286.296 286.32 287.263
287.589 286.351 286.124 286.13 286.156 286.186 286.212 286.229 286.233 286.226
286.213 286.202 286.194 286.195 286.224 286.301 286.395 286.454 286.476 286.372
286.394 286.352 286.299 286.255 286.235 286.246 286.273 286.297 286.313 286.32
286.323 286.324 286.324 286.323 286.319 286.311 286.301 286.292 286.303 287.109
287.578 286.407 286.114 286.118 286.144 286.175 286.204 286.225 286.234 286.23
286.219 286.207 286.197 286.191 286.213 286.294 286.395 286.457 286.478 286.375
286.397 286.351 286.292 286.241 286.218 286.232 286.266 286.296 286.315 286.324
286.328 286.329 286.328 286.325 286.317 286.308 286.297 286.287 286.29 286.961
287.555 286.466 286.104 286.105 286.13 286.162 286.193 286.219 286.233 286.235
286.227 286.215 286.202 286.188 286.202 286.287 286.395 286.46 286.48 286.378
286.4 286.351 286.286 286.229 286.202 286.218 286.26 286.296 286.319 286.329
286.333 286.333 286.33 286.322 286.311 286.301 286.291 286.281 286.279 286.823
287.524 286.523 286.094 286.091 286.116 286.148 286.181 286.21 286.231 286.239
286.236 286.226 286.211 286.188 286.192 286.28 286.395 286.463 286.482 286.382
286.404 286.351 286.28 286.216 286.185 286.205 286.256 286.298 286.323 286.334
286.336 286.335 286.327 286.313 286.299 286.289 286.281 286.274 286.27 286.697
287.487 286.577 286.083 286.076 286.101 286.135 286.168 286.199 286.223 286.239
286.244 286.238 286.221 286.189 286.183 286.273 286.394 286.466 286.484 286.385
286.407 286.351 286.274 286.205 286.169 286.193 286.254 286.302 286.328 286.338
286.338 286.332 286.318 286.298 286.28 286.272 286.269 286.265 286.261 286.587
287.446 286.626 286.072 286.062 286.089 286.121 286.154 286.186 286.213 286.233
286.245 286.249 286.232 286.192 286.174 286.266 286.394 286.469 286.486 286.388
286.41 286.351 286.269 286.194 286.154 286.181 286.254 286.308 286.334 286.341
286.337 286.325 286.303 286.273 286.251 286.248 286.251 286.254 286.253 286.494
287.403 286.671 286.062 286.047 286.077 286.108 286.141 286.172 286.201 286.224
286.24 286.251 286.241 286.196 286.166 286.259 286.394 286.472 286.488 286.391
286.413 286.352 286.265 286.183 286.14 286.171 286.256 286.315 286.338 286.34
286.333 286.314 286.281 286.24 286.213 286.216 286.228 286.239 286.243 286.419
287.359 286.712 286.052 286.034 286.064 286.096 286.127 286.158 286.187 286.212
286.231 286.244 286.243 286.2 286.158 286.254 286.393 286.475 286.49 286.394
286.417 286.352 286.261 286.174 286.127 286.161 286.26 286.324 286.339 286.337
286.325 286.298 286.254 286.201 286.17 286.177 286.199 286.221 286.231 286.361
287.315 286.749 286.043 286.022 286.052 286.084 286.115 286.145 286.174 286.2
286.22 286.234 286.238 286.202 286.15 286.249 286.393 286.478 286.491 286.397
286.42 286.354 286.258 286.166 286.115 286.153 286.26 286.323 286.336 286.332
286.314 286.28 286.225 286.162 286.13 286.135 286.165 286.198 286.218 286.316
287.272 286.784 286.035 286.012 286.04 286.072 286.103 286.133 286.161 286.187
286.208 286.224 286.231 286.202 286.143 286.245 286.394 286.481 286.493 286.4
286.424 286.355 286.256 286.159 286.105 286.143 286.248 286.318 286.331 286.323
286.301 286.26 286.194 286.131 286.097 286.097 286.13 286.172 286.202 286.281
287.231 286.812 286.037 286.003 286.027 286.061 286.092 286.121 286.149 286.175
286.197 286.215 286.223 286.198 286.136 286.242 286.394 286.484 286.495 286.403
286.427 286.358 286.255 286.153 286.097 286.128 286.229 286.306 286.322 286.312
286.286 286.236 286.161 286.105 286.07 286.064 286.095 286.145 286.185 286.254
287.191 286.836 286.047 285.996 286.015 286.052 286.082 286.111 286.138 286.163
286.186 286.205 286.215 286.192 286.129 286.24 286.395 286.488 286.497 286.407
286.431 286.361 286.255 286.15 286.09 286.11 286.203 286.288 286.308 286.297
286.265 286.199 286.127 286.075 286.041 286.034 286.063 286.117 286.166 286.231
287.153 286.856 286.06 285.991 286.005 286.042 286.073 286.101 286.128 286.153
286.176 286.196 286.207 286.183 286.123 286.238 286.397 286.492 286.499 286.41
286.435 286.365 286.258 286.151 286.084 286.089 286.169 286.261 286.288 286.275
286.23 286.15 286.084 286.037 286.01 286.007 286.036 286.092 286.148 286.213
287.117 286.872 286.072 285.985 286 286.024 286.065 286.092 286.118 286.143
286.166 286.187 286.197 286.173 286.116 286.239 286.399 286.497 286.501 286.413
286.44 286.37 286.263 286.155 286.08 286.068 286.128 286.221 286.258 286.24
286.171 286.092 286.034 285.998 285.983 285.986 286.015 286.072 286.131 286.197
287.084 286.885 286.084 285.98 285.994 286.012 286.054 286.083 286.109 286.134
286.158 286.178 286.189 286.161 286.11 286.241 286.403 286.501 286.503 286.417
286.445 286.378 286.272 286.162 286.081 286.05 286.083 286.166 286.212 286.182
286.094 286.029 285.991 285.974 285.967 285.974 286.002 286.056 286.117 286.183
287.054 286.895 286.097 285.973 285.985 286.001 286.032 286.075 286.101 286.126
286.149 286.17 286.179 286.146 286.106 286.245 286.409 286.507 286.506 286.42
286.452 286.388 286.284 286.174 286.086 286.039 286.042 286.099 286.145 286.103
286.023 285.987 285.974 285.969 285.966 285.971 285.997 286.048 286.107 286.172
287.027 286.904 286.113 285.964 285.971 285.984 286.011 286.061 286.092 286.118
286.141 286.161 286.169 286.129 286.105 286.254 286.416 286.512 286.508 286.423
286.46 286.401 286.3 286.191 286.099 286.039 286.017 286.037 286.067 286.03
285.988 285.978 285.978 285.977 285.973 285.976 285.999 286.045 286.101 286.163
287.004 286.91 286.133 285.951 285.954 285.964 285.993 286.037 286.08 286.108
286.133 286.152 286.155 286.107 286.111 286.268 286.427 286.518 286.511 286.425
286.47 286.417 286.322 286.216 286.121 286.053 286.014 286.005 286.013 285.997
285.987 285.988 285.99 285.989 285.988 285.99 286.007 286.046 286.098 286.156
286.987 286.916 286.166 285.934 285.932 285.942 285.969 286.008 286.058 286.094
286.121 286.139 286.136 286.084 286.13 286.291 286.439 286.526 286.514 286.428
286.48 286.437 286.351 286.249 286.154 286.08 286.033 286.008 286.003 286.001
286.002 286.005 286.006 286.006 286.006 286.008 286.02 286.049 286.097 286.153
286.977 286.92 286.22 285.918 285.912 285.921 285.947 285.979 286.015 286.061
286.099 286.117 286.107 286.071 286.163 286.321 286.458 286.536 286.517 286.429
286.492 286.461 286.386 286.292 286.2 286.124 286.07 286.038 286.025 286.024
286.026 286.028 286.028 286.028 286.027 286.029 286.038 286.059 286.098 286.154
286.98 286.925 286.297 285.941 285.898 285.911 285.945 285.977 285.997 286.014
286.045 286.074 286.054 286.091 286.216 286.363 286.484 286.548 286.52 286.428
286.505 286.489 286.429 286.347 286.262 286.188 286.13 286.091 286.07 286.065
286.065 286.065 286.063 286.061 286.059 286.059 286.065 286.081 286.116 286.205
286.988 286.929 286.386 286.093 285.941 285.912 285.999 286.044 286.065 286.059
286.041 286.038 286.074 286.168 286.294 286.42 286.517 286.564 286.523 286.425
286.516 286.52 286.479 286.414 286.343 286.275 286.22 286.179 286.151 286.138
286.134 286.131 286.128 286.123 286.119 286.118 286.122 286.14 286.184 286.32
286.997 286.933 286.484 286.262 286.158 286.127 286.132 286.164 286.194 286.209
286.211 286.214 286.245 286.312 286.401 286.491 286.558 286.581 286.524 286.416
286.524 286.55 286.534 286.492 286.44 286.387 286.342 286.306 286.28 286.262
286.252 286.247 286.243 286.239 286.236 286.236 286.244 286.268 286.325 286.476
287.005 286.937 286.589 286.431 286.363 286.342 286.343 286.356 286.373 286.386
286.396 286.408 286.43 286.468 286.518 286.569 286.602 286.597 286.522 286.397
286.524 286.575 286.586 286.573 286.547 286.517 286.489 286.466 286.45 286.439
286.431 286.425 286.421 286.418 286.419 286.424 286.436 286.464 286.52 286.646
287.013 286.941 286.695 286.592 286.55 286.537 286.538 286.545 286.554 286.561
286.568 286.575 286.586 286.603 286.624 286.64 286.639 286.606 286.513 286.358
286.505 286.581 286.622 286.642 286.647 286.645 286.64 286.636 286.633 286.632
286.633 286.634 286.636 286.638 286.641 286.648 286.661 286.685 286.727 286.808
287.022 286.945 286.795 286.737 286.713 286.705 286.706 286.709 286.712 286.713
286.713 286.712 286.711 286.709 286.703 286.689 286.659 286.6 286.49 286.273
286.446 286.544 286.611 286.66 286.697 286.725 286.747 286.764 286.779 286.792
286.803 286.814 286.825 286.835 286.844 286.852 286.862 286.878 286.902 286.94
287.03 286.948 286.879 286.852 286.84 286.836 286.833 286.828 286.822 286.814
286.805 286.793 286.777 286.756 286.728 286.689 286.636 286.56 286.439 285.997
286.285 286.397 286.466 286.518 286.56 286.597 286.63 286.662 286.691 286.72
286.749 286.776 286.804 286.83 286.856 286.881 286.905 286.929 286.954 286.98
287.014 286.927 286.896 286.874 286.854 286.835 286.814 286.793 286.771 286.747
286.722 286.695 286.666 286.634 286.599 286.558 286.507 286.435 286.303 
alphat 1 1600 float
0 0 0 0 0 0 0 0 0 0 0
0 0 0 0 0 0 0 0 0 0
0 0 0 0 0 0 0 0 0 0
0 0 0 0 0 0 0 0 0 0
0 0 0 0 0 0 0 0 0 0
0 0 0 0 0 0 0 0 0 0
0 0 0 0 0 0 0 0 0 0
0 0 0 0 0 0 0 0 0 0
0 0 0 0 0 0 0 0 0 0
0 0 0 0 0 0 0 0 0 0
0 0 0 0 0 0 0 0 0 0
0 0 0 0 0 0 0 0 0 0
0 0 0 0 0 0 0 0 0 0
0 0 0 0 0 0 0 0 0 0
0 0 0 0 0 0 0 0 0 0
0 0 0 0 0 0 0 0 0 0
0 0 0 0 0 0 0 0 0 0
0 0 0 0 0 0 0 0 0 0