# vtk DataFile Version 2.0
RBConvection
ASCII
DATASET UNSTRUCTURED_GRID
POINTS 3362 float
0 0 0 0.025 0 0 0.05 0 0 0.075 0
0 0.1 0 0 0.125 0 0 0.15 0 0
0.175 0 0 0.2 0 0 0.225 0 0 0.25
0 0 0.275 0 0 0.3 0 0 0.325 0
0 0.35 0 0 0.375 0 0 0.4 0 0
0.425 0 0 0.45 0 0 0.475 0 0 0.5
0 0 0.525 0 0 0.55 0 0 0.575 0
0 0.6 0 0 0.625 0 0 0.65 0 0
0.675 0 0 0.7 0 0 0.725 0 0 0.75
0 0 0.775 0 0 0.8 0 0 0.825 0
0 0.85 0 0 0.875 0 0 0.9 0 0
0.925 0 0 0.95 0 0 0.975 0 0 1
0 0 0 0.01 0 0.025 0.01 0 0.05 0.01
0 0.075 0.01 0 0.1 0.01 0 0.125 0.01 0
0.15 0.01 0 0.175 0.01 0 0.2 0.01 0 0.225
0.01 0 0.25 0.01 0 0.275 0.01 0 0.3 0.01
0 0.325 0.01 0 0.35 0.01 0 0.375 0.01 0
0.4 0.01 0 0.425 0.01 0 0.45 0.01 0 0.475
0.01 0 0.5 0.01 0 0.525 0.01 0 0.55 0.01
0 0.575 0.01 0 0.6 0.01 0 0.625 0.01 0
0.65 0.01 0 0.675 0.01 0 0.7 0.01 0 0.725
0.01 0 0.75 0.01 0 0.775 0.01 0 0.8 0.01
0 0.825 0.01 0 0.85 0.01 0 0.875 0.01 0
0.9 0.01 0 0.925 0.01 0 0.95 0.01 0 0.975
0.01 0 1 0.01 0 0 0.02 0 0.025 0.02
0 0.05 0.02 0 0.075 0.02 0 0.1 0.02 0
0.125 0.02 0 0.15 0.02 0 0.175 0.02 0 0.2
0.02 0 0.225 0.02 0 0.25 0.02 0 0.275 0.02
0 0.3 0.02 0 0.325 0.02 0 0.35 0.02 0
0.375 0.02 0 0.4 0.02 0 0.425 0.02 0 0.45
0.02 0 0.475 0.02 0 0.5 0.02 0 0.525 0.02
0 0.55 0.02 0 0.575 0.02 0 0.6 0.02 0
0.625 0.02 0 0.65 0.02 0 0.675 0.02 0 0.7
0.02 0 0.725 0.02 0 0.75 0.02 0 0.775 0.02
0 0.8 0.02 0 0.825 0.02 0 0.85 0.02 0
0.875 0.02 0 0.9 0.02 0 0.925 0.02 0 0.95
0.02 0 0.975 0.02 0 1 0.02 0 0 0.03
0 0.025 0.03 0 0.05 0.03 0 0.075 0.03 0
0.1 0.03 0 0.125 0.03 0 0.15 0.03 0 0.175
0.03 0 0.2 0.03 0 0.225 0.03 0 0.25 0.03
0 0.275 0.03 0 0.3 0.03 0 0.325 0.03 0
0.35 0.03 0 0.375 0.03 0 0.4 0.03 0 0.425
0.03 0 0.45 0.03 0 0.475 0.03 0 0.5 0.03
0 0.525 0.03 0 0.55 0.03 0 0.575 0.03 0
0.6 0.03 0 0.625 0.03 0 0.65 0.03 0 0.675
0.03 0 0.7 0.03 0 0.725 0.03 0 0.75 0.03
0 0.775 0.03 0 0.8 0.03 0 0.825 0.03 0
0.85 0.03 0 0.875 0.03 0 0.9 0.03 0 0.925
0.03 0 0.95 0.03 0 0.975 0.03 0 1 0.03
0 0 0.04 0 0.025 0.04 0 0.05 0.04 0
0.075 0.04 0 0.1 0.04 0 0.125 0.04 0 0.15
0.04 0 0.175 0.04 0 0.2 0.04 0 0.225 0.04
0 0.25 0.04 0 0.275 0.04 0 0.3 0.04 0
0.325 0.04 0 0.35 0.04 0 0.375 0.04 0 0.4
0.04 0 0.425 0.04 0 0.45 0.04 0 0.475 0.04
0 0.5 0.04 0 0.525 0.04 0 0.55 0.04 0
0.575 0.04 0 0.6 0.04 0 0.625 0.04 0 0.65
0.04 0 0.675 0.04 0 0.7 0.04 0 0.725 0.04
0 0.75 0.04 0 0.775 0.04 0 0.8 0.04 0
0.825 0.04 0 0.85 0.04 0 0.875 0.04 0 0.9
0.04 0 0.925 0.04 0 0.95 0.04 0 0.975 0.04
0 1 0.04 0 0 0.05 0 0.025 0.05 0
0.05 0.05 0 0.075 0.05 0 0.1 0.05 0 0.125
0.05 0 0.15 0.05 0 0.175 0.05 0 0.2 0.05
0 0.225 0.05 0 0.25 0.05 0 0.275 0.05 0
0.3 0.05 0 0.325 0.05 0 0.35 0.05 0 0.375
0.05 0 0.4 0.05 0 0.425 0.05 0 0.45 0.05
0 0.475 0.05 0 0.5 0.05 0 0.525 0.05 0
0.55 0.05 0 0.575 0.05 0 0.6 0.05 0 0.625
0.05 0 0.65 0.05 0 0.675 0.05 0 0.7 0.05
0 0.725 0.05 0 0.75 0.05 0 0.775 0.05 0
0.8 0.05 0 0.825 0.05 0 0.85 0.05 0 0.875
0.05 0 0.9 0.05 0 0.925 0.05 0 0.95 0.05
0 0.975 0.05 0 1 0.05 0 0 0.06 0
0.025 0.06 0 0.05 0.06 0 0.075 0.06 0 0.1
0.06 0 0.125 0.06 0 0.15 0.06 0 0.175 0.06
0 0.2 0.06 0 0.225 0.06 0 0.25 0.06 0
0.275 0.06 0 0.3 0.06 0 0.325 0.06 0 0.35
0.06 0 0.375 0.06 0 0.4 0.06 0 0.425 0.06
0 0.45 0.06 0 0.475 0.06 0 0.5 0.06 0
0.525 0.06 0 0.55 0.06 0 0.575 0.06 0 0.6
0.06 0 0.625 0.06 0 0.65 0.06 0 0.675 0.06
0 0.7 0.06 0 0.725 0.06 0 0.75 0.06 0
0.775 0.06 0 0.8 0.06 0 0.825 0.06 0 0.85
0.06 0 0.875 0.06 0 0.9 0.06 0 0.925 0.06
0 0.95 0.06 0 0.975 0.06 0 1 0.06 0
0 0.07 0 0.025 0.07 0 0.05 0.07 0 0.075
0.07 0 0.1 0.07 0 0.125 0.07 0 0.15 0.07
0 0.175 0.07 0 0.2 0.07 0 0.225 0.07 0
0.25 0.07 0 0.275 0.07 0 0.3 0.07 0 0.325
0.07 0 0.35 0.07 0 0.375 0.07 0 0.4 0.07
0 0.425 0.07 0 0.45 0.07 0 0.475 0.07 0
0.5 0.07 0 0.525 0.07 0 0.55 0.07 0 0.575
0.07 0 0.6 0.07 0 0.625 0.07 0 0.65 0.07
0 0.675 0.07 0 0.7 0.07 0 0.725 0.07 0
0.75 0.07 0 0.775 0.07 0 0.8 0.07 0 0.825
0.07 0 0.85 0.07 0 0.875 0.07 0 0.9 0.07
0 0.925 0.07 0 0.95 0.07 0 0.975 0.07 0
1 0.07 0 0 0.08 0 0.025 0.08 0 0.05
0.08 0 0.075 0.08 0 0.1 0.08 0 0.125 0.08
0 0.15 0.08 0 0.175 0.08 0 0.2 0.08 0
0.225 0.08 0 0.25 0.08 0 0.275 0.08 0 0.3
0.08 0 0.325 0.08 0 0.35 0.08 0 0.375 0.08
0 0.4 0.08 0 0.425 0.08 0 0.45 0.08 0
0.475 0.08 0 0.5 0.08 0 0.525 0.08 0 0.55
0.08 0 0.575 0.08 0 0.6 0.08 0 0.625 0.08
0 0.65 0.08 0 0.675 0.08 0 0.7 0.08 0
0.725 0.08 0 0.75 0.08 0 0.775 0.08 0 0.8
0.08 0 0.825 0.08 0 0.85 0.08 0 0.875 0.08
0 0.9 0.08 0 0.925 0.08 0 0.95 0.08 0
0.975 0.08 0 1 0.08 0 0 0.09 0 0.025
0.09 0 0.05 0.09 0 0.075 0.09 0 0.1 0.09
0 0.125 0.09 0 0.15 0.09 0 0.175 0.09 0
0.2 0.09 0 0.225 0.09 0 0.25 0.09 0 0.275
0.09 0 0.3 0.09 0 0.325 0.09 0 0.35 0.09
0 0.375 0.09 0 0.4 0.09 0 0.425 0.09 0
0.45 0.09 0 0.475 0.09 0 0.5 0.09 0 0.525
0.09 0 0.55 0.09 0 0.575 0.09 0 0.6 0.09
0 0.625 0.09 0 0.65 0.09 0 0.675 0.09 0
0.7 0.09 0 0.725 0.09 0 0.75 0.09 0 0.775
0.09 0 0.8 0.09 0 0.825 0.09 0 0.85 0.09
0 0.875 0.09 0 0.9 0.09 0 0.925 0.09 0
0.95 0.09 0 0.975 0.09 0 1 0.09 0 0
0.1 0 0.025 0.1 0 0.05 0.1 0 0.075 0.1
0 0.1 0.1 0 0.125 0.1 0 0.15 0.1 0
0.175 0.1 0 0.2 0.1 0 0.225 0.1 0 0.25
0.1 0 0.275 0.1 0 0.3 0.1 0 0.325 0.1
0 0.35 0.1 0 0.375 0.1 0 0.4 0.1 0
0.425 0.1 0 0.45 0.1 0 0.475 0.1 0 0.5
0.1 0 0.525 0.1 0 0.55 0.1 0 0.575 0.1
0 0.6 0.1 0 0.625 0.1 0 0.65 0.1 0
0.675 0.1 0 0.7 0.1 0 0.725 0.1 0 0.75
0.1 0 0.775 0.1 0 0.8 0.1 0 0.825 0.1
0 0.85 0.1 0 0.875 0.1 0 0.9 0.1 0
0.925 0.1 0 0.95 0.1 0 0.975 0.1 0 1
0.1 0 0 0.11 0 0.025 0.11 0 0.05 0.11
0 0.075 0.11 0 0.1 0.11 0 0.125 0.11 0
0.15 0.11 0 0.175 0.11 0 0.2 0.11 0 0.225
0.11 0 0.25 0.11 0 0.275 0.11 0 0.3 0.11
0 0.325 0.11 0 0.35 0.11 0 0.375 0.11 0
0.4 0.11 0 0.425 0.11 0 0.45 0.11 0 0.475
0.11 0 0.5 0.11 0 0.525 0.11 0 0.55 0.11
0 0.575 0.11 0 0.6 0.11 0 0.625 0.11 0
0.65 0.11 0 0.675 0.11 0 0.7 0.11 0 0.725
0.11 0 0.75 0.11 0 0.775 0.11 0 0.8 0.11
0 0.825 0.11 0 0.85 0.11 0 0.875 0.11 0
0.9 0.11 0 0.925 0.11 0 0.95 0.11 0 0.975
0.11 0 1 0.11 0 0 0.12 0 0.025 0.12
0 0.05 0.12 0 0.075 0.12 0 0.1 0.12 0
0.125 0.12 0 0.15 0.12 0 0.175 0.12 0 0.2
0.12 0 0.225 0.12 0 0.25 0.12 0 0.275 0.12
0 0.3 0.12 0 0.325 0.12 0 0.35 0.12 0
0.375 0.12 0 0.4 0.12 0 0.425 0.12 0 0.45
0.12 0 0.475 0.12 0 0.5 0.12 0 0.525 0.12
0 0.55 0.12 0 0.575 0.12 0 0.6 0.12 0
0.625 0.12 0 0.65 0.12 0 0.675 0.12 0 0.7
0.12 0 0.725 0.12 0 0.75 0.12 0 0.775 0.12
0 0.8 0.12 0 0.825 0.12 0 0.85 0.12 0
0.875 0.12 0 0.9 0.12 0 0.925 0.12 0 0.95
0.12 0 0.975 0.12 0 1 0.12 0 0 0.13
0 0.025 0.13 0 0.05 0.13 0 0.075 0.13 0
0.1 0.13 0 0.125 0.13 0 0.15 0.13 0 0.175
0.13 0 0.2 0.13 0 0.225 0.13 0 0.25 0.13
0 0.275 0.13 0 0.3 0.13 0 0.325 0.13 0
0.35 0.13 0 0.375 0.13 0 0.4 0.13 0 0.425
0.13 0 0.45 0.13 0 0.475 0.13 0 0.5 0.13
0 0.525 0.13 0 0.55 0.13 0 0.575 0.13 0
0.6 0.13 0 0.625 0.13 0 0.65 0.13 0 0.675
0.13 0 0.7 0.13 0 0.725 0.13 0 0.75 0.13
0 0.775 0.13 0 0.8 0.13 0 0.825 0.13 0
0.85 0.13 0 0.875 0.13 0 0.9 0.13 0 0.925
0.13 0 0.95 0.13 0 0.975 0.13 0 1 0.13
0 0 0.14 0 0.025 0.14 0 0.05 0.14 0
0.075 0.14 0 0.1 0.14 0 0.125 0.14 0 0.15
0.14 0 0.175 0.14 0 0.2 0.14 0 0.225 0.14
0 0.25 0.14 0 0.275 0.14 0 0.3 0.14 0
0.325 0.14 0 0.35 0.14 0 0.375 0.14 0 0.4
0.14 0 0.425 0.14 0 0.45 0.14 0 0.475 0.14
0 0.5 0.14 0 0.525 0.14 0 0.55 0.14 0
0.575 0.14 0 0.6 0.14 0 0.625 0.14 0 0.65
0.14 0 0.675 0.14 0 0.7 0.14 0 0.725 0.14
0 0.75 0.14 0 0.775 0.14 0 0.8 0.14 0
0.825 0.14 0 0.85 0.14 0 0.875 0.14 0 0.9
0.14 0 0.925 0.14 0 0.95 0.14 0 0.975 0.14
0 1 0.14 0 0 0.15 0 0.025 0.15 0
0.05 0.15 0 0.075 0.15 0 0.1 0.15 0 0.125
0.15 0 0.15 0.15 0 0.175 0.15 0 0.2 0.15
0 0.225 0.15 0 0.25 0.15 0 0.275 0.15 0
0.3 0.15 0 0.325 0.15 0 0.35 0.15 0 0.375
0.15 0 0.4 0.15 0 0.425 0.15 0 0.45 0.15
0 0.475 0.15 0 0.5 0.15 0 0.525 0.15 0
0.55 0.15 0 0.575 0.15 0 0.6 0.15 0 0.625
0.15 0 0.65 0.15 0 0.675 0.15 0 0.7 0.15
0 0.725 0.15 0 0.75 0.15 0 0.775 0.15 0
0.8 0.15 0 0.825 0.15 0 0.85 0.15 0 0.875
0.15 0 0.9 0.15 0 0.925 0.15 0 0.95 0.15
0 0.975 0.15 0 1 0.15 0 0 0.16 0
0.025 0.16 0 0.05 0.16 0 0.075 0.16 0 0.1
0.16 0 0.125 0.16 0 0.15 0.16 0 0.175 0.16
0 0.2 0.16 0 0.225 0.16 0 0.25 0.16 0
0.275 0.16 0 0.3 0.16 0 0.325 0.16 0 0.35
0.16 0 0.375 0.16 0 0.4 0.16 0 0.425 0.16
0 0.45 0.16 0 0.475 0.16 0 0.5 0.16 0
0.525 0.16 0 0.55 0.16 0 0.575 0.16 0 0.6
0.16 0 0.625 0.16 0 0.65 0.16 0 0.675 0.16
0 0.7 0.16 0 0.725 0.16 0 0.75 0.16 0
0.775 0.16 0 0.8 0.16 0 0.825 0.16 0 0.85
0.16 0 0.875 0.16 0 0.9 0.16 0 0.925 0.16
0 0.95 0.16 0 0.975 0.16 0 1 0.16 0
0 0.17 0 0.025 0.17 0 0.05 0.17 0 0.075
0.17 0 0.1 0.17 0 0.125 0.17 0 0.15 0.17
0 0.175 0.17 0 0.2 0.17 0 0.225 0.17 0
0.25 0.17 0 0.275 0.17 0 0.3 0.17 0 0.325
0.17 0 0.35 0.17 0 0.375 0.17 0 0.4 0.17
0 0.425 0.17 0 0.45 0.17 0 0.475 0.17 0
0.5 0.17 0 0.525 0.17 0 0.55 0.17 0 0.575
0.17 0 0.6 0.17 0 0.625 0.17 0 0.65 0.17
0 0.675 0.17 0 0.7 0.17 0 0.725 0.17 0
0.75 0.17 0 0.775 0.17 0 0.8 0.17 0 0.825
0.17 0 0.85 0.17 0 0.875 0.17 0 0.9 0.17
0 0.925 0.17 0 0.95 0.17 0 0.975 0.17 0
1 0.17 0 0 0.18 0 0.025 0.18 0 0.05
0.18 0 0.075 0.18 0 0.1 0.18 0 0.125 0.18
0 0.15 0.18 0 0.175 0.18 0 0.2 0.18 0
0.225 0.18 0 0.25 0.18 0 0.275 0.18 0 0.3
0.18 0 0.325 0.18 0 0.35 0.18 0 0.375 0.18
0 0.4 0.18 0 0.425 0.18 0 0.45 0.18 0
0.475 0.18 0 0.5 0.18 0 0.525 0.18 0 0.55
0.18 0 0.575 0.18 0 0.6 0.18 0 0.625 0.18
0 0.65 0.18 0 0.675 0.18 0 0.7 0.18 0
0.725 0.18 0 0.75 0.18 0 0.775 0.18 0 0.8
0.18 0 0.825 0.18 0 0.85 0.18 0 0.875 0.18
0 0.9 0.18 0 0.925 0.18 0 0.95 0.18 0
0.975 0.18 0 1 0.18 0 0 0.19 0 0.025
0.19 0 0.05 0.19 0 0.075 0.19 0 0.1 0.19
0 0.125 0.19 0 0.15 0.19 0 0.175 0.19 0
0.2 0.19 0 0.225 0.19 0 0.25 0.19 0 0.275
0.19 0 0.3 0.19 0 0.325 0.19 0 0.35 0.19
0 0.375 0.19 0 0.4 0.19 0 0.425 0.19 0
0.45 0.19 0 0.475 0.19 0 0.5 0.19 0 0.525
0.19 0 0.55 0.19 0 0.575 0.19 0 0.6 0.19
0 0.625 0.19 0 0.65 0.19 0 0.675 0.19 0
0.7 0.19 0 0.725 0.19 0 0.75 0.19 0 0.775
0.19 0 0.8 0.19 0 0.825 0.19 0 0.85 0.19
0 0.875 0.19 0 0.9 0.19 0 0.925 0.19 0
0.95 0.19 0 0.975 0.19 0 1 0.19 0 0
0.2 0 0.025 0.2 0 0.05 0.2 0 0.075 0.2
0 0.1 0.2 0 0.125 0.2 0 0.15 0.2 0
0.175 0.2 0 0.2 0.2 0 0.225 0.2 0 0.25
[...]
CELL_DATA 1600
FIELD attributes 6
cellID 1 1600 int
0 1 2 3 4 5 6 7 8 9 10
11 12 13 14 15 16 17 18 19 20
21 22 23 24 25 26 27 28 29 30
31 32 33 34 35 36 37 38 39 40
41 42 43 44 45 46 47 48 49 50
51 52 53 54 55 56 57 58 59 60
61 62 63 64 65 66 67 68 69 70
71 72 73 74 75 76 77 78 79 80
81 82 83 84 85 86 87 88 89 90
91 92 93 94 95 96 97 98 99 100
101 102 103 104 105 106 107 108 109 110
111 112 113 114 115 116 117 118 119 120
121 122 123 124 125 126 127 128 129 130
131 132 133 134 135 136 137 138 139 140
141 142 143 144 145 146 147 148 149 150
151 152 153 154 155 156 157 158 159 160
161 162 163 164 165 166 167 168 169 170
171 172 173 174 175 176 177 178 179 180
181 182 183 184 185 186 187 188 189 190
191 192 193 194 195 196 197 198 199 200
201 202 203 204 205 206 207 208 209 210
211 212 213 214 215 216 217 218 219 220
221 222 223 224 225 226 227 228 229 230
231 232 233 234 235 236 237 238 239 240
241 242 243 244 245 246 247 248 249 250
251 252 253 254 255 256 257 258 259 260
261 262 263 264 265 266 267 268 269 270
271 272 273 274 275 276 277 278 279 280
281 282 283 284 285 286 287 288 289 290
291 292 293 294 295 296 297 298 299 300
301 302 303 304 305 306 307 308 309 310
311 312 313 314 315 316 317 318 319 320
321 322 323 324 325 326 327 328 329 330
331 332 333 334 335 336 337 338 339 340
341 342 343 344 345 346 347 348 349 350
351 352 353 354 355 356 357 358 359 360
361 362 363 364 365 366 367 368 369 370
371 372 373 374 375 376 377 378 379 380
381 382 383 384 385 386 387 388 389 390
391 392 393 394 395 396 397 398 399 400
401 402 403 404 405 406 407 408 409 410
411 412 413 414 415 416 417 418 419 420
421 422 423 424 425 426 427 428 429 430
431 432 433 434 435 436 437 438 439 440
441 442 443 444 445 446 447 448 449 450
451 452 453 454 455 456 457 458 459 460
461 462 463 464 465 466 467 468 469 470
471 472 473 474 475 476 477 478 479 480
481 482 483 484 485 486 487 488 489 490
491 492 493 494 495 496 497 498 499 500
501 502 503 504 505 506 507 508 509 510
511 512 513 514 515 516 517 518 519 520
521 522 523 524 525 526 527 528 529 530
531 532 533 534 535 536 537 538 539 540
541 542 543 544 545 546 547 548 549 550
551 552 553 554 555 556 557 558 559 560
561 562 563 564 565 566 567 568 569 570
571 572 573 574 575 576 577 578 579 580
581 582 583 584 585 586 587 588 589 590
591 592 593 594 595 596 597 598 599 600
601 602 603 604 605 606 607 608 609 610
611 612 613 614 615 616 617 618 619 620
621 622 623 624 625 626 627 628 629 630
631 632 633 634 635 636 637 638 639 640
641 642 643 644 645 646 647 648 649 650
651 652 653 654 655 656 657 658 659 660
661 662 663 664 665 666 667 668 669 670
671 672 673 674 675 676 677 678 679 680
681 682 683 684 685 686 687 688 689 690
691 692 693 694 695 696 697 698 699 700
701 702 703 704 705 706 707 708 709 710
711 712 713 714 715 716 717 718 719 720
721 722 723 724 725 726 727 728 729 730
731 732 733 734 735 736 737 738 739 740
741 742 743 744 745 746 747 748 749 750
751 752 753 754 755 756 757 758 759 760
761 762 763 764 765 766 767 768 769 770
771 772 773 774 775 776 777 778 779 780
781 782 783 784 785 786 787 788 789 790
791 792 793 794 795 796 797 798 799 800
801 802 803 804 805 806 807 808 809 810
811 812 813 814 815 816 817 818 819 820
821 822 823 824 825 826 827 828 829 830
831 832 833 834 835 836 837 838 839 840
841 842 843 844 845 846 847 848 849 850
851 852 853 854 855 856 857 858 859 860
861 862 863 864 865 866 867 868 869 870
871 872 873 874 875 876 877 878 879 880
881 882 883 884 885 886 887 888 889 890
891 892 893 894 895 896 897 898 899 900
901 902 903 904 905 906 907 908 909 910
911 912 913 914 915 916 917 918 919 920
921 922 923 924 925 926 927 928 929 930
931 932 933 934 935 936 937 938 939 940
941 942 943 944 945 946 947 948 949 950
951 952 953 954 955 956 957 958 959 960
961 962 963 964 965 966 967 968 969 970
971 972 973 974 975 976 977 978 979 980
981 982 983 984 985 986 987 988 989 990
991 992 993 994 995 996 997 998 999 1000
1001 1002 1003 1004 1005 1006 1007 1008 1009 1010
1011 1012 1013 1014 1015 1016 1017 1018 1019 1020
1021 1022 1023 1024 1025 1026 1027 1028 1029 1030
1031 1032 1033 1034 1035 1036 1037 1038 1039 1040
1041 1042 1043 1044 1045 1046 1047 1048 1049 1050
1051 1052 1053 1054 1055 1056 1057 1058 1059 1060
1061 1062 1063 1064 1065 1066 1067 1068 1069 1070
1071 1072 1073 1074 1075 1076 1077 1078 1079 1080
1081 1082 1083 1084 1085 1086 1087 1088 1089 1090
1091 1092 1093 1094 1095 1096 1097 1098 1099 1100
1101 1102 1103 1104 1105 1106 1107 1108 1109 1110
1111 1112 1113 1114 1115 1116 1117 1118 1119 1120
1121 1122 1123 1124 1125 1126 1127 1128 1129 1130
1131 1132 1133 1134 1135 1136 1137 1138 1139 1140
1141 1142 1143 1144 1145 1146 1147 1148 1149 1150
1151 1152 1153 1154 1155 1156 1157 1158 1159 1160
1161 1162 1163 1164 1165 1166 1167 1168 1169 1170
1171 1172 1173 1174 1175 1176 1177 1178 1179 1180
1181 1182 1183 1184 1185 1186 1187 1188 1189 1190
1191 1192 1193 1194 1195 1196 1197 1198 1199 1200
1201 1202 1203 1204 1205 1206 1207 1208 1209 1210
1211 1212 1213 1214 1215 1216 1217 1218 1219 1220
1221 1222 1223 1224 1225 1226 1227 1228 1229 1230
1231 1232 1233 1234 1235 1236 1237 1238 1239 1240
1241 1242 1243 1244 1245 1246 1247 1248 1249 1250
1251 1252 1253 1254 1255 1256 1257 1258 1259 1260
1261 1262 1263 1264 1265 1266 1267 1268 1269 1270
1271 1272 1273 1274 1275 1276 1277 1278 1279 1280
1281 1282 1283 1284 1285 1286 1287 1288 1289 1290
1291 1292 1293 1294 1295 1296 1297 1298 1299 1300
1301 1302 1303 1304 1305 1306 1307 1308 1309 1310
1311 1312 1313 1314 1315 1316 1317 1318 1319 1320
1321 1322 1323 1324 1325 1326 1327 1328 1329 1330
1331 1332 1333 1334 1335 1336 1337 1338 1339 1340
1341 1342 1343 1344 1345 1346 1347 1348 1349 1350
1351 1352 1353 1354 1355 1356 1357 1358 1359 1360
1361 1362 1363 1364 1365 1366 1367 1368 1369 1370
1371 1372 1373 1374 1375 1376 1377 1378 1379 1380
1381 1382 1383 1384 1385 1386 1387 1388 1389 1390
1391 1392 1393 1394 1395 1396 1397 1398 1399 1400
1401 1402 1403 1404 1405 1406 1407 1408 1409 1410
1411 1412 1413 1414 1415 1416 1417 1418 1419 1420
1421 1422 1423 1424 1425 1426 1427 1428 1429 1430
1431 1432 1433 1434 1435 1436 1437 1438 1439 1440
1441 1442 1443 1444 1445 1446 1447 1448 1449 1450
1451 1452 1453 1454 1455 1456 1457 1458 1459 1460
1461 1462 1463 1464 1465 1466 1467 1468 1469 1470
1471 1472 1473 1474 1475 1476 1477 1478 1479 1480
1481 1482 1483 1484 1485 1486 1487 1488 1489 1490
1491 1492 1493 1494 1495 1496 1497 1498 1499 1500
1501 1502 1503 1504 1505 1506 1507 1508 1509 1510
1511 1512 1513 1514 1515 1516 1517 1518 1519 1520
1521 1522 1523 1524 1525 1526 1527 1528 1529 1530
1531 1532 1533 1534 1535 1536 1537 1538 1539 1540
1541 1542 1543 1544 1545 1546 1547 1548 1549 1550
1551 1552 1553 1554 1555 1556 1557 1558 1559 1560
1561 1562 1563 1564 1565 1566 1567 1568 1569 1570
1571 1572 1573 1574 1575 1576 1577 1578 1579 1580
1581 1582 1583 1584 1585 1586 1587 1588 1589 1590
1591 1592 1593 1594 1595 1596 1597 1598 1599 
T 1 1600 float
288.611 286.566 286.626 286.745 286.887 287.048 287.232 287.439 287.662 287.888 288.118
288.355 288.602 288.864 289.147 289.457 289.799 290.221 290.757 290.51 290.465
290.287 290.033 289.638 289.122 288.56 288.008 287.477 287.094 286.874 286.784
286.802 286.923 287.14 287.396 287.458 287.11 286.404 286.1 286.779 286.336
285.752 285.588 285.53 285.505 285.494 285.492 285.496 285.511 285.547 285.609
285.697 285.816 285.97 286.163 286.352 286.74 288.323 288.62 286.457 286.716
287.211 287.517 287.479 287.107 286.554 286.008 285.647 285.458 285.351 285.279
285.222 285.173 285.136 285.122 285.13 285.15 285.196 285.239 286.125 285.226
285.23 285.239 285.248 285.257 285.264 285.272 285.28 285.29 285.303 285.322
285.35 285.392 285.453 285.544 285.659 285.957 287.516 287.815 285.758 285.835
286.082 286.287 286.3 286.093 285.783 285.531 285.422 285.382 285.356 285.329
285.297 285.252 285.196 285.154 285.146 285.171 285.216 285.256 285.918 285.161
285.183 285.197 285.206 285.21 285.213 285.215 285.217 285.219 285.223 285.231
285.245 285.265 285.297 285.347 285.424 285.648 287.056 287.408 285.545 285.533
285.625 285.704 285.694 285.583 285.447 285.384 285.388 285.388 285.38 285.367
285.353 285.333 285.288 285.228 285.198 285.214 285.242 285.272 285.817 285.164
285.197 285.216 285.226 285.23 285.231 285.231 285.23 285.228 285.226 285.226
285.228 285.234 285.248 285.276 285.327 285.497 286.754 287.17 285.46 285.433
285.469 285.497 285.49 285.454 285.428 285.428 285.425 285.414 285.397 285.379
285.368 285.363 285.349 285.311 285.269 285.26 285.269 285.287 285.753 285.168
285.213 285.236 285.247 285.251 285.251 285.25 285.247 285.244 285.241 285.238
285.235 285.234 285.238 285.251 285.284 285.414 286.539 287.017 285.422 285.404
285.428 285.446 285.45 285.447 285.448 285.448 285.44 285.424 285.4 285.376
285.361 285.36 285.364 285.356 285.331 285.308 285.299 285.302 285.707 285.171
285.228 285.256 285.268 285.271 285.269 285.266 285.261 285.257 285.252 285.248
285.244 285.24 285.239 285.244 285.264 285.365 286.377 286.913 285.403 285.4
285.426 285.445 285.456 285.462 285.466 285.465 285.454 285.432 285.4 285.37
285.353 285.349 285.355 285.363 285.359 285.343 285.326 285.316 285.671 285.174
285.243 285.275 285.287 285.289 285.285 285.279 285.272 285.265 285.259 285.253
285.249 285.244 285.242 285.242 285.254 285.334 286.251 286.836 285.405 285.402
285.434 285.457 285.471 285.479 285.484 285.482 285.468 285.439 285.399 285.365
285.345 285.339 285.342 285.353 285.362 285.358 285.344 285.328 285.641 285.177
285.257 285.292 285.304 285.304 285.298 285.289 285.279 285.269 285.261 285.254
285.249 285.245 285.242 285.242 285.249 285.314 286.148 286.763 285.451 285.407
285.444 285.469 285.485 285.495 285.5 285.498 285.482 285.445 285.397 285.358
285.338 285.329 285.329 285.339 285.353 285.361 285.354 285.336 285.615 285.18
285.27 285.309 285.32 285.318 285.308 285.296 285.282 285.27 285.259 285.251
285.246 285.242 285.241 285.24 285.246 285.299 286.064 286.694 285.508 285.411
285.452 285.48 285.497 285.509 285.516 285.514 285.494 285.448 285.393 285.353
285.331 285.32 285.317 285.325 285.341 285.355 285.357 285.342 285.593 285.183
285.282 285.324 285.334 285.329 285.316 285.3 285.283 285.267 285.254 285.245
285.239 285.236 285.236 285.238 285.243 285.289 285.993 286.629 285.564 285.414
285.459 285.488 285.507 285.52 285.529 285.53 285.505 285.449 285.388 285.347
285.323 285.311 285.307 285.312 285.327 285.345 285.354 285.344 285.573 285.185
285.293 285.337 285.347 285.339 285.322 285.302 285.282 285.263 285.247 285.235
285.229 285.227 285.229 285.233 285.239 285.28 285.932 286.569 285.614 285.416
285.463 285.494 285.514 285.529 285.541 285.545 285.513 285.447 285.383 285.34
285.314 285.302 285.297 285.301 285.315 285.334 285.349 285.345 285.554 285.188
285.304 285.35 285.358 285.347 285.327 285.303 285.279 285.256 285.237 285.224
285.216 285.215 285.22 285.226 285.235 285.273 285.879 286.512 285.658 285.417
285.466 285.498 285.518 285.535 285.553 285.559 285.517 285.444 285.378 285.331
285.305 285.293 285.289 285.291 285.303 285.323 285.342 285.343 285.538 285.19
285.313 285.361 285.368 285.354 285.331 285.303 285.274 285.248 285.226 285.211
285.202 285.202 285.208 285.218 285.23 285.267 285.832 286.458 285.695 285.416
285.468 285.499 285.52 285.54 285.565 285.573 285.518 285.44 285.371 285.322
285.297 285.286 285.281 285.282 285.293 285.313 285.335 285.341 285.523 285.193
285.322 285.372 285.377 285.361 285.333 285.301 285.269 285.239 285.214 285.196
285.187 285.187 285.196 285.209 285.224 285.261 285.791 286.409 285.726 285.415
285.467 285.499 285.519 285.543 285.58 285.582 285.515 285.435 285.362 285.312
285.288 285.279 285.275 285.275 285.283 285.303 285.328 285.338 285.509 285.195
285.329 285.381 285.386 285.366 285.335 285.299 285.263 285.229 285.202 285.182
285.172 285.172 285.182 285.199 285.217 285.255 285.755 286.363 285.751 285.413
285.465 285.496 285.516 285.546 285.598 285.588 285.512 285.427 285.351 285.301
285.28 285.275 285.271 285.27 285.276 285.295 285.321 285.335 285.497 285.197
285.336 285.39 285.393 285.372 285.337 285.297 285.256 285.22 285.19 285.168
285.156 285.157 285.168 285.188 285.21 285.249 285.723 286.32 285.772 285.41
285.462 285.491 285.511 285.549 285.616 285.588 285.508 285.418 285.339 285.29
285.274 285.272 285.27 285.267 285.271 285.288 285.316 285.332 285.487 285.2
285.342 285.398 285.401 285.377 285.339 285.295 285.25 285.211 285.179 285.155
285.142 285.142 285.154 285.177 285.202 285.243 285.694 286.281 285.788 285.407
285.458 285.484 285.505 285.554 285.632 285.587 285.501 285.407 285.326 285.28
285.268 285.272 285.271 285.266 285.267 285.283 285.311 285.329 285.477 285.202
285.348 285.405 285.408 285.383 285.341 285.293 285.245 285.203 285.169 285.144
285.129 285.128 285.141 285.166 285.195 285.238 285.668 286.245 285.801 285.404
285.452 285.476 285.5 285.567 285.641 285.585 285.492 285.394 285.313 285.27
285.265 285.275 285.275 285.268 285.266 285.28 285.308 285.327 285.469 285.204
285.353 285.412 285.416 285.389 285.345 285.293 285.241 285.196 285.162 285.135
285.118 285.116 285.129 285.155 285.187 285.233 285.645 286.212 285.81 285.401
285.445 285.467 285.496 285.591 285.646 285.581 285.481 285.38 285.299 285.26
285.264 285.28 285.282 285.271 285.266 285.278 285.305 285.325 285.462 285.206
285.357 285.419 285.423 285.396 285.35 285.294 285.239 285.192 285.157 285.129
285.11 285.106 285.119 285.146 285.18 285.228 285.626 286.182 285.817 285.398
285.438 285.457 285.491 285.621 285.648 285.574 285.468 285.365 285.285 285.252
285.265 285.288 285.291 285.276 285.267 285.277 285.304 285.323 285.456 285.208
285.361 285.425 285.431 285.404 285.356 285.298 285.239 285.189 285.154 285.126
285.104 285.098 285.11 285.138 285.174 285.223 285.608 286.155 285.823 285.397
285.429 285.447 285.488 285.644 285.649 285.566 285.453 285.35 285.272 285.246
285.269 285.297 285.299 285.282 285.269 285.277 285.304 285.322 285.451 285.21
285.365 285.431 285.44 285.413 285.365 285.304 285.242 285.19 285.154 285.126
285.1 285.092 285.104 285.132 285.168 285.22 285.594 286.13 285.828 285.398
285.42 285.438 285.494 285.654 285.649 285.556 285.438 285.334 285.259 285.241
285.274 285.307 285.306 285.285 285.271 285.279 285.305 285.321 285.447 285.21
285.368 285.437 285.448 285.424 285.376 285.313 285.249 285.194 285.156 285.13
285.097 285.088 285.1 285.128 285.164 285.217 285.582 286.108 285.832 285.403
285.412 285.43 285.519 285.658 285.647 285.546 285.422 285.319 285.247 285.238
285.281 285.314 285.309 285.286 285.272 285.281 285.307 285.32 285.443 285.21
285.371 285.444 285.458 285.436 285.388 285.327 285.26 285.202 285.162 285.136
285.102 285.088 285.099 285.126 285.162 285.215 285.573 286.09 285.836 285.412
285.405 285.424 285.552 285.664 285.644 285.534 285.406 285.305 285.237 285.237
285.288 285.319 285.308 285.283 285.274 285.286 285.31 285.319 285.441 285.21
285.374 285.451 285.47 285.45 285.404 285.343 285.276 285.215 285.171 285.142
285.114 285.093 285.101 285.127 285.162 285.215 285.568 286.073 285.839 285.428
285.402 285.427 285.575 285.67 285.642 285.523 285.391 285.292 285.229 285.236
285.295 285.319 285.307 285.286 285.28 285.292 285.313 285.317 285.439 285.208
285.375 285.459 285.482 285.467 285.424 285.364 285.296 285.233 285.184 285.152
285.127 285.106 285.108 285.13 285.163 285.216 285.567 286.061 285.841 285.45
285.404 285.442 285.591 285.676 285.639 285.511 285.376 285.281 285.222 285.237
285.299 285.318 285.309 285.294 285.288 285.298 285.315 285.315 285.437 285.205
285.376 285.466 285.496 285.486 285.448 285.39 285.323 285.257 285.203 285.165
285.141 285.123 285.12 285.137 285.166 285.224 285.567 286.051 285.844 285.478
285.417 285.469 285.608 285.683 285.636 285.501 285.362 285.272 285.217 285.238
285.298 285.316 285.312 285.302 285.297 285.304 285.316 285.311 285.435 285.2
285.375 285.473 285.511 285.508 285.476 285.422 285.357 285.289 285.229 285.185
285.158 285.141 285.136 285.147 285.175 285.245 285.574 286.042 285.846 285.51
285.442 285.503 285.629 285.691 285.635 285.492 285.35 285.264 285.214 285.238
285.293 285.313 285.314 285.309 285.304 285.309 285.314 285.306 285.434 285.194
285.372 285.478 285.526 285.532 285.507 285.46 285.398 285.331 285.266 285.214
285.181 285.164 285.156 285.164 285.194 285.278 285.586 286.033 285.847 285.544
285.478 285.542 285.653 285.7 285.633 285.484 285.339 285.258 285.213 285.236
285.286 285.309 285.314 285.312 285.309 285.31 285.311 285.298 285.432 285.185
285.366 285.482 285.54 285.557 285.541 285.502 285.447 285.383 285.318 285.26
285.218 285.197 285.187 285.194 285.228 285.326 285.606 286.024 285.848 285.581
285.523 285.585 285.679 285.709 285.633 285.478 285.329 285.254 285.214 285.231
285.276 285.302 285.311 285.312 285.31 285.308 285.304 285.288 285.431 285.172
285.356 285.483 285.553 285.581 285.577 285.549 285.502 285.445 285.383 285.324
285.275 285.248 285.235 285.242 285.281 285.385 285.634 286.014 285.85 285.618
285.572 285.629 285.705 285.719 285.633 285.473 285.32 285.251 285.216 285.225
285.263 285.292 285.304 285.307 285.305 285.302 285.293 285.275 285.43 285.156
285.34 285.479 285.562 285.604 285.613 285.597 285.562 285.514 285.459 285.404
285.354 285.322 285.307 285.314 285.354 285.455 285.668 286.004 285.851 285.655
285.622 285.673 285.731 285.728 285.635 285.469 285.311 285.249 285.222 285.219
285.248 285.277 285.293 285.298 285.296 285.291 285.278 285.263 285.428 285.135
285.317 285.469 285.566 285.623 285.647 285.645 285.623 285.587 285.543 285.496
285.451 285.418 285.402 285.407 285.444 285.532 285.708 285.994 285.853 285.692
285.672 285.715 285.756 285.737 285.637 285.467 285.303 285.247 285.229 285.217
285.233 285.257 285.275 285.283 285.282 285.275 285.262 285.261 285.427 285.106
285.282 285.448 285.56 285.633 285.674 285.688 285.681 285.659 285.628 285.592
285.556 285.526 285.51 285.512 285.542 285.613 285.752 285.982 285.856 285.73
285.72 285.754 285.777 285.745 285.639 285.465 285.293 285.243 285.24 285.223
285.221 285.235 285.25 285.259 285.261 285.256 285.249 285.276 285.426 285.067
285.232 285.413 285.541 285.632 285.69 285.722 285.732 285.726 285.709 285.685
285.66 285.635 285.621 285.621 285.642 285.695 285.797 285.97 285.86 285.767
285.765 285.789 285.796 285.753 285.641 285.461 285.281 285.235 285.252 285.238
285.224 285.22 285.225 285.232 285.239 285.244 285.258 285.305 285.425 285.013
285.159 285.357 285.501 285.61 285.688 285.739 285.767 285.779 285.777 285.768
285.753 285.737 285.726 285.724 285.736 285.771 285.839 285.958 285.866 285.805
285.806 285.82 285.812 285.758 285.639 285.453 285.264 285.221 285.261 285.263
285.252 285.241 285.237 285.241 285.253 285.271 285.297 285.339 285.423 284.935
285.048 285.27 285.43 285.555 285.652 285.724 285.774 285.806 285.824 285.83
285.828 285.821 285.814 285.812 285.818 285.837 285.876 285.946 285.875 285.842
285.844 285.845 285.823 285.757 285.627 285.432 285.236 285.194 285.258 285.287
285.297 285.3 285.302 285.307 285.315 285.328 285.347 285.372 285.422 284.797
284.877 285.131 285.306 285.443 285.556 285.647 285.719 285.776 285.817 285.847
285.865 285.874 285.876 285.877 285.879 285.888 285.905 285.937 285.89 285.876
285.872 285.858 285.818 285.728 285.579 285.377 285.183 285.141 285.219 285.272
285.309 285.335 285.352 285.365 285.373 285.379 285.387 285.398 285.42 284.537
284.569 284.888 285.075 285.207 285.314 285.404 285.481 285.548 285.607 285.658
285.702 285.741 285.775 285.804 285.827 285.847 285.867 285.887 285.865 285.831
285.788 285.727 285.638 285.524 285.382 285.212 285.058 285.021 285.075 285.111
285.142 285.17 285.197 285.225 285.252 285.282 285.311 285.342 285.373 
alphat 1 1600 float
0 0 0 0 0 0 0 0 0 0 0
0 0 0 0 0 0 0 0 0 0
0 0 0 0 0 0 0 0 0 0
0 0 0 0 0 0 0 0 0 0
0 0 0 0 0 0 0 0 0 0
0 0 0 0 0 0 0 0 0 0
0 0 0 0 0 0 0 0 0 0
0 0 0 0 0 0 0 0 0 0
0 0 0 0 0 0 0 0 0 0
0 0 0 0 0 0 0 0 0 0
0 0 0 0 0 0 0 0 0 0
0 0 0 0 0 0 0 0 0 0
0 0 0 0 0 0 0 0 0 0
0 0 0 0 0 0 0 0 0 0
0 0 0 0 0 0 0 0 0 0
0 0 0 0 0 0 0 0 0 0
0 0 0 0 0 0 0 0 0 0
0 0 0 0 0 0 0 0 0 0