# vtk DataFile Version 2.0
RBConvection
ASCII
DATASET UNSTRUCTURED_GRID
POINTS 3362 float
0 0 0 0.025 0 0 0.05 0 0 0.075 0
0 0.1 0 0 0.125 0 0 0.15 0 0
0.175 0 0 0.2 0 0 0.225 0 0 0.25
0 0 0.275 0 0 0.3 0 0 0.325 0
0 0.35 0 0 0.375 0 0 0.4 0 0
0.425 0 0 0.45 0 0 0.475 0 0 0.5
0 0 0.525 0 0 0.55 0 0 0.575 0
0 0.6 0 0 0.625 0 0 0.65 0 0
0.675 0 0 0.7 0 0 0.725 0 0 0.75
0 0 0.775 0 0 0.8 0 0 0.825 0
0 0.85 0 0 0.875 0 0 0.9 0 0
0.925 0 0 0.95 0 0 0.975 0 0 1
0 0 0 0.01 0 0.025 0.01 0 0.05 0.01
0 0.075 0.01 0 0.1 0.01 0 0.125 0.01 0
0.15 0.01 0 0.175 0.01 0 0.2 0.01 0 0.225
0.01 0 0.25 0.01 0 0.275 0.01 0 0.3 0.01
0 0.325 0.01 0 0.35 0.01 0 0.375 0.01 0
0.4 0.01 0 0.425 0.01 0 0.45 0.01 0 0.475
0.01 0 0.5 0.01 0 0.525 0.01 0 0.55 0.01
0 0.575 0.01 0 0.6 0.01 0 0.625 0.01 0
0.65 0.01 0 0.675 0.01 0 0.7 0.01 0 0.725
0.01 0 0.75 0.01 0 0.775 0.01 0 0.8 0.01
0 0.825 0.01 0 0.85 0.01 0 0.875 0.01 0
0.9 0.01 0 0.925 0.01 0 0.95 0.01 0 0.975
0.01 0 1 0.01 0 0 0.02 0 0.025 0.02
0 0.05 0.02 0 0.075 0.02 0 0.1 0.02 0
0.125 0.02 0 0.15 0.02 0 0.175 0.02 0 0.2
0.02 0 0.225 0.02 0 0.25 0.02 0 0.275 0.02
0 0.3 0.02 0 0.325 0.02 0 0.35 0.02 0
0.375 0.02 0 0.4 0.02 0 0.425 0.02 0 0.45
0.02 0 0.475 0.02 0 0.5 0.02 0 0.525 0.02
0 0.55 0.02 0 0.575 0.02 0 0.6 0.02 0
0.625 0.02 0 0.65 0.02 0 0.675 0.02 0 0.7
0.02 0 0.725 0.02 0 0.75 0.02 0 0.775 0.02
0 0.8 0.02 0 0.825 0.02 0 0.85 0.02 0
0.875 0.02 0 0.9 0.02 0 0.925 0.02 0 0.95
0.02 0 0.975 0.02 0 1 0.02 0 0 0.03
0 0.025 0.03 0 0.05 0.03 0 0.075 0.03 0
0.1 0.03 0 0.125 0.03 0 0.15 0.03 0 0.175
0.03 0 0.2 0.03 0 0.225 0.03 0 0.25 0.03
0 0.275 0.03 0 0.3 0.03 0 0.325 0.03 0
0.35 0.03 0 0.375 0.03 0 0.4 0.03 0 0.425
0.03 0 0.45 0.03 0 0.475 0.03 0 0.5 0.03
0 0.525 0.03 0 0.55 0.03 0 0.575 0.03 0
0.6 0.03 0 0.625 0.03 0 0.65 0.03 0 0.675
0.03 0 0.7 0.03 0 0.725 0.03 0 0.75 0.03
0 0.775 0.03 0 0.8 0.03 0 0.825 0.03 0
0.85 0.03 0 0.875 0.03 0 0.9 0.03 0 0.925
0.03 0 0.95 0.03 0 0.975 0.03 0 1 0.03
0 0 0.04 0 0.025 0.04 0 0.05 0.04 0
0.075 0.04 0 0.1 0.04 0 0.125 0.04 0 0.15
0.04 0 0.175 0.04 0 0.2 0.04 0 0.225 0.04
0 0.25 0.04 0 0.275 0.04 0 0.3 0.04 0
0.325 0.04 0 0.35 0.04 0 0.375 0.04 0 0.4
0.04 0 0.425 0.04 0 0.45 0.04 0 0.475 0.04
0 0.5 0.04 0 0.525 0.04 0 0.55 0.04 0
0.575 0.04 0 0.6 0.04 0 0.625 0.04 0 0.65
0.04 0 0.675 0.04 0 0.7 0.04 0 0.725 0.04
0 0.75 0.04 0 0.775 0.04 0 0.8 0.04 0
0.825 0.04 0 0.85 0.04 0 0.875 0.04 0 0.9
0.04 0 0.925 0.04 0 0.95 0.04 0 0.975 0.04
0 1 0.04 0 0 0.05 0 0.025 0.05 0
0.05 0.05 0 0.075 0.05 0 0.1 0.05 0 0.125
0.05 0 0.15 0.05 0 0.175 0.05 0 0.2 0.05
0 0.225 0.05 0 0.25 0.05 0 0.275 0.05 0
0.3 0.05 0 0.325 0.05 0 0.35 0.05 0 0.375
0.05 0 0.4 0.05 0 0.425 0.05 0 0.45 0.05
0 0.475 0.05 0 0.5 0.05 0 0.525 0.05 0
0.55 0.05 0 0.575 0.05 0 0.6 0.05 0 0.625
0.05 0 0.65 0.05 0 0.675 0.05 0 0.7 0.05
0 0.725 0.05 0 0.75 0.05 0 0.775 0.05 0
0.8 0.05 0 0.825 0.05 0 0.85 0.05 0 0.875
0.05 0 0.9 0.05 0 0.925 0.05 0 0.95 0.05
0 0.975 0.05 0 1 0.05 0 0 0.06 0
0.025 0.06 0 0.05 0.06 0 0.075 0.06 0 0.1
0.06 0 0.125 0.06 0 0.15 0.06 0 0.175 0.06
0 0.2 0.06 0 0.225 0.06 0 0.25 0.06 0
0.275 0.06 0 0.3 0.06 0 0.325 0.06 0 0.35
0.06 0 0.375 0.06 0 0.4 0.06 0 0.425 0.06
0 0.45 0.06 0 0.475 0.06 0 0.5 0.06 0
0.525 0.06 0 0.55 0.06 0 0.575 0.06 0 0.6
0.06 0 0.625 0.06 0 0.65 0.06 0 0.675 0.06
0 0.7 0.06 0 0.725 0.06 0 0.75 0.06 0
0.775 0.06 0 0.8 0.06 0 0.825 0.06 0 0.85
0.06 0 0.875 0.06 0 0.9 0.06 0 0.925 0.06
0 0.95 0.06 0 0.975 0.06 0 1 0.06 0
0 0.07 0 0.025 0.07 0 0.05 0.07 0 0.075
0.07 0 0.1 0.07 0 0.125 0.07 0 0.15 0.07
0 0.175 0.07 0 0.2 0.07 0 0.225 0.07 0
0.25 0.07 0 0.275 0.07 0 0.3 0.07 0 0.325
0.07 0 0.35 0.07 0 0.375 0.07 0 0.4 0.07
0 0.425 0.07 0 0.45 0.07 0 0.475 0.07 0
0.5 0.07 0 0.525 0.07 0 0.55 0.07 0 0.575
0.07 0 0.6 0.07 0 0.625 0.07 0 0.65 0.07
0 0.675 0.07 0 0.7 0.07 0 0.725 0.07 0
0.75 0.07 0 0.775 0.07 0 0.8 0.07 0 0.825
0.07 0 0.85 0.07 0 0.875 0.07 0 0.9 0.07
0 0.925 0.07 0 0.95 0.07 0 0.975 0.07 0
1 0.07 0 0 0.08 0 0.025 0.08 0 0.05
0.08 0 0.075 0.08 0 0.1 0.08 0 0.125 0.08
0 0.15 0.08 0 0.175 0.08 0 0.2 0.08 0
0.225 0.08 0 0.25 0.08 0 0.275 0.08 0 0.3
0.08 0 0.325 0.08 0 0.35 0.08 0 0.375 0.08
0 0.4 0.08 0 0.425 0.08 0 0.45 0.08 0
0.475 0.08 0 0.5 0.08 0 0.525 0.08 0 0.55
0.08 0 0.575 0.08 0 0.6 0.08 0 0.625 0.08
0 0.65 0.08 0 0.675 0.08 0 0.7 0.08 0
0.725 0.08 0 0.75 0.08 0 0.775 0.08 0 0.8
0.08 0 0.825 0.08 0 0.85 0.08 0 0.875 0.08
0 0.9 0.08 0 0.925 0.08 0 0.95 0.08 0
0.975 0.08 0 1 0.08 0 0 0.09 0 0.025
0.09 0 0.05 0.09 0 0.075 0.09 0 0.1 0.09
0 0.125 0.09 0 0.15 0.09 0 0.175 0.09 0
0.2 0.09 0 0.225 0.09 0 0.25 0.09 0 0.275
0.09 0 0.3 0.09 0 0.325 0.09 0 0.35 0.09
0 0.375 0.09 0 0.4 0.09 0 0.425 0.09 0
0.45 0.09 0 0.475 0.09 0 0.5 0.09 0 0.525
0.09 0 0.55 0.09 0 0.575 0.09 0 0.6 0.09
0 0.625 0.09 0 0.65 0.09 0 0.675 0.09 0
0.7 0.09 0 0.725 0.09 0 0.75 0.09 0 0.775
0.09 0 0.8 0.09 0 0.825 0.09 0 0.85 0.09
0 0.875 0.09 0 0.9 0.09 0 0.925 0.09 0
0.95 0.09 0 0.975 0.09 0 1 0.09 0 0
0.1 0 0.025 0.1 0 0.05 0.1 0 0.075 0.1
0 0.1 0.1 0 0.125 0.1 0 0.15 0.1 0
0.175 0.1 0 0.2 0.1 0 0.225 0.1 0 0.25
0.1 0 0.275 0.1 0 0.3 0.1 0 0.325 0.1
0 0.35 0.1 0 0.375 0.1 0 0.4 0.1 0
0.425 0.1 0 0.45 0.1 0 0.475 0.1 0 0.5
0.1 0 0.525 0.1 0 0.55 0.1 0 0.575 0.1
0 0.6 0.1 0 0.625 0.1 0 0.65 0.1 0
0.675 0.1 0 0.7 0.1 0 0.725 0.1 0 0.75
0.1 0 0.775 0.1 0 0.8 0.1 0 0.825 0.1
0 0.85 0.1 0 0.875 0.1 0 0.9 0.1 0
0.925 0.1 0 0.95 0.1 0 0.975 0.1 0 1
0.1 0 0 0.11 0 0.025 0.11 0 0.05 0.11
0 0.075 0.11 0 0.1 0.11 0 0.125 0.11 0
0.15 0.11 0 0.175 0.11 0 0.2 0.11 0 0.225
0.11 0 0.25 0.11 0 0.275 0.11 0 0.3 0.11
0 0.325 0.11 0 0.35 0.11 0 0.375 0.11 0
0.4 0.11 0 0.425 0.11 0 0.45 0.11 0 0.475
0.11 0 0.5 0.11 0 0.525 0.11 0 0.55 0.11
0 0.575 0.11 0 0.6 0.11 0 0.625 0.11 0
0.65 0.11 0 0.675 0.11 0 0.7 0.11 0 0.725
0.11 0 0.75 0.11 0 0.775 0.11 0 0.8 0.11
0 0.825 0.11 0 0.85 0.11 0 0.875 0.11 0
0.9 0.11 0 0.925 0.11 0 0.95 0.11 0 0.975
0.11 0 1 0.11 0 0 0.12 0 0.025 0.12
0 0.05 0.12 0 0.075 0.12 0 0.1 0.12 0
0.125 0.12 0 0.15 0.12 0 0.175 0.12 0 0.2
0.12 0 0.225 0.12 0 0.25 0.12 0 0.275 0.12
0 0.3 0.12 0 0.325 0.12 0 0.35 0.12 0
0.375 0.12 0 0.4 0.12 0 0.425 0.12 0 0.45
0.12 0 0.475 0.12 0 0.5 0.12 0 0.525 0.12
0 0.55 0.12 0 0.575 0.12 0 0.6 0.12 0
0.625 0.12 0 0.65 0.12 0 0.675 0.12 0 0.7
0.12 0 0.725 0.12 0 0.75 0.12 0 0.775 0.12
0 0.8 0.12 0 0.825 0.12 0 0.85 0.12 0
0.875 0.12 0 0.9 0.12 0 0.925 0.12 0 0.95
0.12 0 0.975 0.12 0 1 0.12 0 0 0.13
0 0.025 0.13 0 0.05 0.13 0 0.075 0.13 0
0.1 0.13 0 0.125 0.13 0 0.15 0.13 0 0.175
0.13 0 0.2 0.13 0 0.225 0.13 0 0.25 0.13
0 0.275 0.13 0 0.3 0.13 0 0.325 0.13 0
0.35 0.13 0 0.375 0.13 0 0.4 0.13 0 0.425
0.13 0 0.45 0.13 0 0.475 0.13 0 0.5 0.13
0 0.525 0.13 0 0.55 0.13 0 0.575 0.13 0
0.6 0.13 0 0.625 0.13 0 0.65 0.13 0 0.675
0.13 0 0.7 0.13 0 0.725 0.13 0 0.75 0.13
0 0.775 0.13 0 0.8 0.13 0 0.825 0.13 0
0.85 0.13 0 0.875 0.13 0 0.9 0.13 0 0.925
0.13 0 0.95 0.13 0 0.975 0.13 0 1 0.13
0 0 0.14 0 0.025 0.14 0 0.05 0.14 0
0.075 0.14 0 0.1 0.14 0 0.125 0.14 0 0.15
0.14 0 0.175 0.14 0 0.2 0.14 0 0.225 0.14
0 0.25 0.14 0 0.275 0.14 0 0.3 0.14 0
0.325 0.14 0 0.35 0.14 0 0.375 0.14 0 0.4
0.14 0 0.425 0.14 0 0.45 0.14 0 0.475 0.14
0 0.5 0.14 0 0.525 0.14 0 0.55 0.14 0
0.575 0.14 0 0.6 0.14 0 0.625 0.14 0 0.65
0.14 0 0.675 0.14 0 0.7 0.14 0 0.725 0.14
0 0.75 0.14 0 0.775 0.14 0 0.8 0.14 0
0.825 0.14 0 0.85 0.14 0 0.875 0.14 0 0.9
0.14 0 0.925 0.14 0 0.95 0.14 0 0.975 0.14
0 1 0.14 0 0 0.15 0 0.025 0.15 0
0.05 0.15 0 0.075 0.15 0 0.1 0.15 0 0.125
0.15 0 0.15 0.15 0 0.175 0.15 0 0.2 0.15
0 0.225 0.15 0 0.25 0.15 0 0.275 0.15 0
0.3 0.15 0 0.325 0.15 0 0.35 0.15 0 0.375
0.15 0 0.4 0.15 0 0.425 0.15 0 0.45 0.15
0 0.475 0.15 0 0.5 0.15 0 0.525 0.15 0
0.55 0.15 0 0.575 0.15 0 0.6 0.15 0 0.625
0.15 0 0.65 0.15 0 0.675 0.15 0 0.7 0.15
0 0.725 0.15 0 0.75 0.15 0 0.775 0.15 0
0.8 0.15 0 0.825 0.15 0 0.85 0.15 0 0.875
0.15 0 0.9 0.15 0 0.925 0.15 0 0.95 0.15
0 0.975 0.15 0 1 0.15 0 0 0.16 0
0.025 0.16 0 0.05 0.16 0 0.075 0.16 0 0.1
0.16 0 0.125 0.16 0 0.15 0.16 0 0.175 0.16
0 0.2 0.16 0 0.225 0.16 0 0.25 0.16 0
0.275 0.16 0 0.3 0.16 0 0.325 0.16 0 0.35
0.16 0 0.375 0.16 0 0.4 0.16 0 0.425 0.16
0 0.45 0.16 0 0.475 0.16 0 0.5 0.16 0
0.525 0.16 0 0.55 0.16 0 0.575 0.16 0 0.6
0.16 0 0.625 0.16 0 0.65 0.16 0 0.675 0.16
0 0.7 0.16 0 0.725 0.16 0 0.75 0.16 0
0.775 0.16 0 0.8 0.16 0 0.825 0.16 0 0.85
0.16 0 0.875 0.16 0 0.9 0.16 0 0.925 0.16
0 0.95 0.16 0 0.975 0.16 0 1 0.16 0
0 0.17 0 0.025 0.17 0 0.05 0.17 0 0.075
0.17 0 0.1 0.17 0 0.125 0.17 0 0.15 0.17
0 0.175 0.17 0 0.2 0.17 0 0.225 0.17 0
0.25 0.17 0 0.275 0.17 0 0.3 0.17 0 0.325
0.17 0 0.35 0.17 0 0.375 0.17 0 0.4 0.17
0 0.425 0.17 0 0.45 0.17 0 0.475 0.17 0
0.5 0.17 0 0.525 0.17 0 0.55 0.17 0 0.575
0.17 0 0.6 0.17 0 0.625 0.17 0 0.65 0.17
0 0.675 0.17 0 0.7 0.17 0 0.725 0.17 0
0.75 0.17 0 0.775 0.17 0 0.8 0.17 0 0.825
0.17 0 0.85 0.17 0 0.875 0.17 0 0.9 0.17
0 0.925 0.17 0 0.95 0.17 0 0.975 0.17 0
1 0.17 0 0 0.18 0 0.025 0.18 0 0.05
0.18 0 0.075 0.18 0 0.1 0.18 0 0.125 0.18
0 0.15 0.18 0 0.175 0.18 0 0.2 0.18 0
0.225 0.18 0 0.25 0.18 0 0.275 0.18 0 0.3
0.18 0 0.325 0.18 0 0.35 0.18 0 0.375 0.18
0 0.4 0.18 0 0.425 0.18 0 0.45 0.18 0
0.475 0.18 0 0.5 0.18 0 0.525 0.18 0 0.55
0.18 0 0.575 0.18 0 0.6 0.18 0 0.625 0.18
0 0.65 0.18 0 0.675 0.18 0 0.7 0.18 0
0.725 0.18 0 0.75 0.18 0 0.775 0.18 0 0.8
0.18 0 0.825 0.18 0 0.85 0.18 0 0.875 0.18
0 0.9 0.18 0 0.925 0.18 0 0.95 0.18 0
0.975 0.18 0 1 0.18 0 0 0.19 0 0.025
0.19 0 0.05 0.19 0 0.075 0.19 0 0.1 0.19
0 0.125 0.19 0 0.15 0.19 0 0.175 0.19 0
0.2 0.19 0 0.225 0.19 0 0.25 0.19 0 0.275
0.19 0 0.3 0.19 0 0.325 0.19 0 0.35 0.19
0 0.375 0.19 0 0.4 0.19 0 0.425 0.19 0
0.45 0.19 0 0.475 0.19 0 0.5 0.19 0 0.525
0.19 0 0.55 0.19 0 0.575 0.19 0 0.6 0.19
0 0.625 0.19 0 0.65 0.19 0 0.675 0.19 0
0.7 0.19 0 0.725 0.19 0 0.75 0.19 0 0.775
0.19 0 0.8 0.19 0 0.825 0.19 0 0.85 0.19
0 0.875 0.19 0 0.9 0.19 0 0.925 0.19 0
0.95 0.19 0 0.975 0.19 0 1 0.19 0 0
0.2 0 0.025 0.2 0 0.05 0.2 0 0.075 0.2
0 0.1 0.2 0 0.125 0.2 0 0.15 0.2 0
0.175 0.2 0 0.2 0.2 0 0.225 0.2 0 0.25
[...]
CELL_DATA 1600
FIELD attributes 6
cellID 1 1600 int
0 1 2 3 4 5 6 7 8 9 10
11 12 13 14 15 16 17 18 19 20
21 22 23 24 25 26 27 28 29 30
31 32 33 34 35 36 37 38 39 40
41 42 43 44 45 46 47 48 49 50
51 52 53 54 55 56 57 58 59 60
61 62 63 64 65 66 67 68 69 70
71 72 73 74 75 76 77 78 79 80
81 82 83 84 85 86 87 88 89 90
91 92 93 94 95 96 97 98 99 100
101 102 103 104 105 106 107 108 109 110
111 112 113 114 115 116 117 118 119 120
121 122 123 124 125 126 127 128 129 130
131 132 133 134 135 136 137 138 139 140
141 142 143 144 145 146 147 148 149 150
151 152 153 154 155 156 157 158 159 160
161 162 163 164 165 166 167 168 169 170
171 172 173 174 175 176 177 178 179 180
181 182 183 184 185 186 187 188 189 190
191 192 193 194 195 196 197 198 199 200
201 202 203 204 205 206 207 208 209 210
211 212 213 214 215 216 217 218 219 220
221 222 223 224 225 226 227 228 229 230
231 232 233 234 235 236 237 238 239 240
241 242 243 244 245 246 247 248 249 250
251 252 253 254 255 256 257 258 259 260
261 262 263 264 265 266 267 268 269 270
271 272 273 274 275 276 277 278 279 280
281 282 283 284 285 286 287 288 289 290
291 292 293 294 295 296 297 298 299 300
301 302 303 304 305 306 307 308 309 310
311 312 313 314 315 316 317 318 319 320
321 322 323 324 325 326 327 328 329 330
331 332 333 334 335 336 337 338 339 340
341 342 343 344 345 346 347 348 349 350
351 352 353 354 355 356 357 358 359 360
361 362 363 364 365 366 367 368 369 370
371 372 373 374 375 376 377 378 379 380
381 382 383 384 385 386 387 388 389 390
391 392 393 394 395 396 397 398 399 400
401 402 403 404 405 406 407 408 409 410
411 412 413 414 415 416 417 418 419 420
421 422 423 424 425 426 427 428 429 430
431 432 433 434 435 436 437 438 439 440
441 442 443 444 445 446 447 448 449 450
451 452 453 454 455 456 457 458 459 460
461 462 463 464 465 466 467 468 469 470
471 472 473 474 475 476 477 478 479 480
481 482 483 484 485 486 487 488 489 490
491 492 493 494 495 496 497 498 499 500
501 502 503 504 505 506 507 508 509 510
511 512 513 514 515 516 517 518 519 520
521 522 523 524 525 526 527 528 529 530
531 532 533 534 535 536 537 538 539 540
541 542 543 544 545 546 547 548 549 550
551 552 553 554 555 556 557 558 559 560
561 562 563 564 565 566 567 568 569 570
571 572 573 574 575 576 577 578 579 580
581 582 583 584 585 586 587 588 589 590
591 592 593 594 595 596 597 598 599 600
601 602 603 604 605 606 607 608 609 610
611 612 613 614 615 616 617 618 619 620
621 622 623 624 625 626 627 628 629 630
631 632 633 634 635 636 637 638 639 640
641 642 643 644 645 646 647 648 649 650
651 652 653 654 655 656 657 658 659 660
661 662 663 664 665 666 667 668 669 670
671 672 673 674 675 676 677 678 679 680
681 682 683 684 685 686 687 688 689 690
691 692 693 694 695 696 697 698 699 700
701 702 703 704 705 706 707 708 709 710
711 712 713 714 715 716 717 718 719 720
721 722 723 724 725 726 727 728 729 730
731 732 733 734 735 736 737 738 739 740
741 742 743 744 745 746 747 748 749 750
751 752 753 754 755 756 757 758 759 760
761 762 763 764 765 766 767 768 769 770
771 772 773 774 775 776 777 778 779 780
781 782 783 784 785 786 787 788 789 790
791 792 793 794 795 796 797 798 799 800
801 802 803 804 805 806 807 808 809 810
811 812 813 814 815 816 817 818 819 820
821 822 823 824 825 826 827 828 829 830
831 832 833 834 835 836 837 838 839 840
841 842 843 844 845 846 847 848 849 850
851 852 853 854 855 856 857 858 859 860
861 862 863 864 865 866 867 868 869 870
871 872 873 874 875 876 877 878 879 880
881 882 883 884 885 886 887 888 889 890
891 892 893 894 895 896 897 898 899 900
901 902 903 904 905 906 907 908 909 910
911 912 913 914 915 916 917 918 919 920
921 922 923 924 925 926 927 928 929 930
931 932 933 934 935 936 937 938 939 940
941 942 943 944 945 946 947 948 949 950
951 952 953 954 955 956 957 958 959 960
961 962 963 964 965 966 967 968 969 970
971 972 973 974 975 976 977 978 979 980
981 982 983 984 985 986 987 988 989 990
991 992 993 994 995 996 997 998 999 1000
1001 1002 1003 1004 1005 1006 1007 1008 1009 1010
1011 1012 1013 1014 1015 1016 1017 1018 1019 1020
1021 1022 1023 1024 1025 1026 1027 1028 1029 1030
1031 1032 1033 1034 1035 1036 1037 1038 1039 1040
1041 1042 1043 1044 1045 1046 1047 1048 1049 1050
1051 1052 1053 1054 1055 1056 1057 1058 1059 1060
1061 1062 1063 1064 1065 1066 1067 1068 1069 1070
1071 1072 1073 1074 1075 1076 1077 1078 1079 1080
1081 1082 1083 1084 1085 1086 1087 1088 1089 1090
1091 1092 1093 1094 1095 1096 1097 1098 1099 1100
1101 1102 1103 1104 1105 1106 1107 1108 1109 1110
1111 1112 1113 1114 1115 1116 1117 1118 1119 1120
1121 1122 1123 1124 1125 1126 1127 1128 1129 1130
1131 1132 1133 1134 1135 1136 1137 1138 1139 1140
1141 1142 1143 1144 1145 1146 1147 1148 1149 1150
1151 1152 1153 1154 1155 1156 1157 1158 1159 1160
1161 1162 1163 1164 1165 1166 1167 1168 1169 1170
1171 1172 1173 1174 1175 1176 1177 1178 1179 1180
1181 1182 1183 1184 1185 1186 1187 1188 1189 1190
1191 1192 1193 1194 1195 1196 1197 1198 1199 1200
1201 1202 1203 1204 1205 1206 1207 1208 1209 1210
1211 1212 1213 1214 1215 1216 1217 1218 1219 1220
1221 1222 1223 1224 1225 1226 1227 1228 1229 1230
1231 1232 1233 1234 1235 1236 1237 1238 1239 1240
1241 1242 1243 1244 1245 1246 1247 1248 1249 1250
1251 1252 1253 1254 1255 1256 1257 1258 1259 1260
1261 1262 1263 1264 1265 1266 1267 1268 1269 1270
1271 1272 1273 1274 1275 1276 1277 1278 1279 1280
1281 1282 1283 1284 1285 1286 1287 1288 1289 1290
1291 1292 1293 1294 1295 1296 1297 1298 1299 1300
1301 1302 1303 1304 1305 1306 1307 1308 1309 1310
1311 1312 1313 1314 1315 1316 1317 1318 1319 1320
1321 1322 1323 1324 1325 1326 1327 1328 1329 1330
1331 1332 1333 1334 1335 1336 1337 1338 1339 1340
1341 1342 1343 1344 1345 1346 1347 1348 1349 1350
1351 1352 1353 1354 1355 1356 1357 1358 1359 1360
1361 1362 1363 1364 1365 1366 1367 1368 1369 1370
1371 1372 1373 1374 1375 1376 1377 1378 1379 1380
1381 1382 1383 1384 1385 1386 1387 1388 1389 1390
1391 1392 1393 1394 1395 1396 1397 1398 1399 1400
1401 1402 1403 1404 1405 1406 1407 1408 1409 1410
1411 1412 1413 1414 1415 1416 1417 1418 1419 1420
1421 1422 1423 1424 1425 1426 1427 1428 1429 1430
1431 1432 1433 1434 1435 1436 1437 1438 1439 1440
1441 1442 1443 1444 1445 1446 1447 1448 1449 1450
1451 1452 1453 1454 1455 1456 1457 1458 1459 1460
1461 1462 1463 1464 1465 1466 1467 1468 1469 1470
1471 1472 1473 1474 1475 1476 1477 1478 1479 1480
1481 1482 1483 1484 1485 1486 1487 1488 1489 1490
1491 1492 1493 1494 1495 1496 1497 1498 1499 1500
1501 1502 1503 1504 1505 1506 1507 1508 1509 1510
1511 1512 1513 1514 1515 1516 1517 1518 1519 1520
1521 1522 1523 1524 1525 1526 1527 1528 1529 1530
1531 1532 1533 1534 1535 1536 1537 1538 1539 1540
1541 1542 1543 1544 1545 1546 1547 1548 1549 1550
1551 1552 1553 1554 1555 1556 1557 1558 1559 1560
1561 1562 1563 1564 1565 1566 1567 1568 1569 1570
1571 1572 1573 1574 1575 1576 1577 1578 1579 1580
1581 1582 1583 1584 1585 1586 1587 1588 1589 1590
1591 1592 1593 1594 1595 1596 1597 1598 1599 
T 1 1600 float
284.267 283.622 283.309 283.772 284.384 285.354 285.311 284.906 284.557 284.228 284.019
283.888 283.872 283.905 283.922 283.98 284.249 284.734 285.138 284.166 284.785
284.896 284.72 284.728 285.093 285.33 284.864 284.278 284.694 285.632 285.682
285.189 284.647 284.468 284.417 284.429 284.563 284.8 285.145 285.543 283.749
282.937 282.76 282.919 283.645 284.678 283.703 283.045 282.857 282.865 282.857
282.832 282.799 282.776 282.761 282.764 282.847 283.484 284.279 283.256 283.07
283.998 283.349 283.422 283.719 283.795 283.105 282.67 282.669 282.678 282.689
282.705 282.734 282.769 282.799 282.816 282.81 282.791 283.122 284.409 283.58
282.926 282.714 282.903 283.491 284.382 283.239 282.913 282.915 282.932 282.914
282.874 282.834 282.799 282.771 282.761 282.815 283.224 283.874 283.37 283.201
283.616 283.099 283.143 283.258 283.265 282.91 282.679 282.681 282.688 282.708
282.742 282.785 282.828 282.87 282.892 282.879 282.832 282.897 284.009 283.498
282.918 282.688 282.897 283.434 284.191 283.105 282.927 282.978 282.99 282.959
282.914 282.865 282.82 282.781 282.761 282.8 283.11 283.623 283.345 283.197
283.408 282.979 282.979 283.024 283.03 282.854 282.701 282.714 282.734 282.764
282.805 282.85 282.893 282.929 282.957 282.951 282.869 282.849 283.816 283.456
282.912 282.673 282.868 283.401 284.034 283.139 282.959 283.023 283.027 282.996
282.944 282.887 282.833 282.786 282.757 282.785 283.037 283.453 283.309 283.18
283.295 282.92 282.894 282.902 282.907 282.835 282.721 282.745 282.775 282.813
282.856 282.899 282.939 282.975 283.003 283.012 282.912 282.828 283.715 283.437
282.905 282.665 282.808 283.37 283.897 283.208 283.014 283.045 283.059 283.025
282.964 282.898 282.837 282.785 282.75 282.768 282.978 283.327 283.274 283.164
283.247 282.908 282.868 282.849 282.852 282.828 282.737 282.771 282.809 282.849
282.891 282.929 282.966 283.003 283.039 283.059 283.002 282.783 283.671 283.433
282.898 282.659 282.734 283.339 283.776 283.27 283.081 283.091 283.094 283.046
282.972 282.897 282.831 282.776 282.738 282.75 282.927 283.23 283.24 283.153
283.243 282.929 282.881 282.832 282.821 282.825 282.749 282.789 282.83 282.869
282.905 282.938 282.971 283.012 283.061 283.111 283.107 282.893 283.654 283.441
282.895 282.655 282.675 283.312 283.671 283.318 283.166 283.16 283.132 283.057
282.966 282.883 282.815 282.76 282.722 282.73 282.881 283.151 283.207 283.149
283.263 282.98 282.929 282.839 282.803 282.823 282.755 282.798 282.837 282.87
282.898 282.923 282.952 282.994 283.055 283.143 283.251 283.349 283.637 283.446
282.896 282.65 282.647 283.294 283.583 283.351 283.25 283.224 283.153 283.048
282.943 282.857 282.79 282.738 282.702 282.709 282.84 283.085 283.176 283.148
283.286 283.062 283.011 282.869 282.792 282.821 282.753 282.794 282.829 282.854
282.872 282.891 282.915 282.95 283.007 283.1 283.247 283.448 283.618 283.446
282.883 282.643 282.643 283.288 283.514 283.374 283.313 283.254 283.14 283.012
282.902 282.819 282.759 282.713 282.682 282.687 282.804 283.03 283.145 283.146
283.301 283.156 283.124 282.924 282.789 282.82 282.744 282.78 282.807 282.827
282.843 282.858 282.876 282.9 282.939 283.01 283.139 283.352 283.595 283.426
282.851 282.635 282.65 283.295 283.463 283.387 283.34 283.236 283.087 282.95
282.847 282.778 282.729 282.691 282.663 282.669 282.775 282.983 283.116 283.143
283.309 283.239 283.256 283.047 282.796 282.824 282.732 282.763 282.787 282.806
282.823 282.84 282.855 282.867 282.884 282.919 283.003 283.192 283.561 283.355
282.801 282.625 282.66 283.319 283.428 283.387 283.317 283.164 282.998 282.872
282.792 282.742 282.706 282.675 282.649 282.655 282.751 282.946 283.09 283.139
283.314 283.306 283.364 283.198 282.815 282.837 282.721 282.751 282.778 282.8
282.821 282.842 282.855 282.861 282.861 282.86 282.872 282.929 283.072 283.2
282.741 282.616 282.673 283.347 283.399 283.364 283.231 283.042 282.889 282.796
282.748 282.721 282.696 282.669 282.643 282.646 282.735 282.917 283.068 283.134
283.317 283.36 283.438 283.295 282.852 282.859 282.713 282.746 282.776 282.804
282.832 282.855 282.869 282.873 282.869 282.856 282.832 282.803 282.776 282.996
282.697 282.609 282.682 283.335 283.36 283.286 283.068 282.886 282.784 282.742
282.728 282.718 282.7 282.671 282.642 282.642 282.725 282.896 283.051 283.13
283.319 283.403 283.485 283.328 282.907 282.889 282.708 282.742 282.778 282.812
282.845 282.869 282.881 282.886 282.886 282.877 282.857 282.824 282.783 282.832
282.682 282.606 282.66 283.072 283.23 283.012 282.826 282.742 282.721 282.726
282.734 282.732 282.712 282.678 282.643 282.641 282.72 282.882 283.039 283.128
283.321 283.435 283.511 283.331 282.95 282.923 282.704 282.737 282.779 282.819
282.854 282.876 282.885 282.89 282.894 282.892 282.876 282.843 282.787 282.743
282.687 282.604 282.622 282.624 282.703 282.655 282.664 282.69 282.719 282.744
282.757 282.753 282.728 282.686 282.643 282.639 282.718 282.876 283.032 283.127
283.32 283.455 283.514 283.315 282.965 282.958 282.711 282.731 282.778 282.822
282.857 282.876 282.881 282.886 282.895 282.898 282.889 282.857 282.789 282.704
282.696 282.604 282.629 282.64 282.652 282.668 282.694 282.724 282.752 282.774
282.783 282.774 282.743 282.691 282.641 282.636 282.718 282.874 283.03 283.128
283.314 283.459 283.494 283.283 282.964 282.972 282.75 282.724 282.775 282.822
282.857 282.87 282.87 282.875 282.888 282.899 282.896 282.868 282.79 282.689
282.7 282.603 282.636 282.659 282.681 282.701 282.728 282.756 282.781 282.798
282.804 282.794 282.759 282.697 282.637 282.631 282.72 282.877 283.031 283.129
283.301 283.445 283.451 283.238 282.952 282.965 282.797 282.716 282.769 282.819
282.852 282.86 282.854 282.86 282.877 282.894 282.898 282.874 282.79 282.683
282.693 282.603 282.644 282.674 282.704 282.729 282.755 282.781 282.803 282.817
282.821 282.811 282.776 282.703 282.631 282.624 282.722 282.882 283.035 283.129
283.28 283.41 283.389 283.182 282.931 282.946 282.83 282.719 282.762 282.814
282.846 282.848 282.836 282.843 282.864 282.886 282.896 282.878 282.79 282.68
282.679 282.603 282.651 282.687 282.721 282.749 282.775 282.798 282.817 282.829
282.834 282.825 282.794 282.715 282.625 282.615 282.723 282.888 283.037 283.126
283.251 283.356 283.312 283.121 282.904 282.92 282.849 282.731 282.753 282.807
282.838 282.834 282.817 282.825 282.849 282.876 282.891 282.878 282.789 282.679
282.659 282.604 282.657 282.698 282.732 282.761 282.786 282.807 282.824 282.836
282.841 282.836 282.811 282.735 282.618 282.605 282.723 282.892 283.037 283.118
283.214 283.287 283.227 283.056 282.873 282.89 282.857 282.748 282.742 282.799
282.83 282.821 282.798 282.807 282.834 282.865 282.885 282.876 282.788 282.679
282.639 282.607 282.662 282.704 282.739 282.767 282.791 282.811 282.826 282.837
282.844 282.842 282.823 282.76 282.613 282.594 282.719 282.891 283.03 283.101
283.17 283.21 283.14 282.992 282.838 282.859 282.857 282.764 282.736 282.787
282.823 282.809 282.78 282.79 282.82 282.854 282.878 282.872 282.786 282.68
282.62 282.61 282.664 282.707 282.742 282.769 282.791 282.809 282.824 282.836
282.842 282.843 282.829 282.776 282.64 282.595 282.707 282.882 283.013 283.074
283.117 283.129 283.055 282.928 282.802 282.827 282.849 282.778 282.736 282.774
282.814 282.798 282.765 282.776 282.806 282.843 282.87 282.868 282.784 282.68
282.605 282.613 282.664 282.707 282.74 282.767 282.789 282.806 282.82 282.831
282.838 282.839 282.828 282.786 282.687 282.609 282.693 282.859 282.984 283.034
283.057 283.047 282.974 282.867 282.766 282.796 282.838 282.789 282.74 282.762
282.802 282.789 282.754 282.763 282.794 282.832 282.862 282.862 282.782 282.679
282.594 282.614 282.662 282.703 282.737 282.763 282.784 282.802 282.815 282.825
282.831 282.832 282.825 282.792 282.715 282.632 282.679 282.824 282.941 282.981
282.989 282.965 282.897 282.81 282.731 282.766 282.825 282.796 282.746 282.753
282.787 282.775 282.748 282.754 282.784 282.823 282.854 282.855 282.779 282.677
282.586 282.613 282.658 282.698 282.731 282.758 282.779 282.796 282.809 282.818
282.822 282.823 282.818 282.794 282.735 282.659 282.669 282.782 282.886 282.917
282.915 282.886 282.827 282.759 282.699 282.74 282.81 282.8 282.754 282.748
282.773 282.762 282.742 282.748 282.777 282.815 282.846 282.849 282.776 282.676
282.581 282.609 282.651 282.69 282.724 282.751 282.773 282.791 282.803 282.81
282.813 282.813 282.809 282.793 282.75 282.686 282.668 282.74 282.825 282.85
282.843 282.813 282.766 282.715 282.671 282.718 282.796 282.802 282.762 282.746
282.76 282.75 282.737 282.744 282.771 282.808 282.839 282.843 282.771 282.674
282.576 282.604 282.643 282.681 282.716 282.744 282.767 282.785 282.796 282.802
282.802 282.801 282.798 282.788 282.759 282.708 282.675 282.709 282.768 282.786
282.777 282.752 282.716 282.68 282.65 282.699 282.784 282.802 282.77 282.748
282.751 282.741 282.733 282.742 282.768 282.803 282.833 282.837 282.767 282.672
282.571 282.596 282.632 282.669 282.706 282.736 282.76 282.778 282.789 282.793
282.791 282.787 282.784 282.778 282.761 282.725 282.689 282.692 282.723 282.734
282.725 282.705 282.68 282.656 282.634 282.685 282.773 282.801 282.777 282.753
282.746 282.736 282.731 282.742 282.767 282.8 282.828 282.831 282.761 282.67
282.565 282.586 282.618 282.655 282.693 282.727 282.753 282.771 282.782 282.785
282.78 282.773 282.768 282.765 282.756 282.733 282.702 282.688 282.696 282.699
282.689 282.674 282.657 282.64 282.624 282.676 282.764 282.8 282.783 282.759
282.747 282.736 282.734 282.745 282.769 282.799 282.824 282.825 282.756 282.669
282.559 282.575 282.603 282.638 282.679 282.715 282.743 282.763 282.775 282.776
282.769 282.759 282.751 282.747 282.743 282.731 282.71 282.691 282.685 282.68
282.67 282.657 282.644 282.631 282.618 282.67 282.758 282.799 282.789 282.767
282.752 282.742 282.741 282.751 282.772 282.799 282.822 282.819 282.749 282.668
282.552 282.562 282.586 282.619 282.66 282.701 282.732 282.754 282.768 282.769
282.759 282.745 282.733 282.726 282.724 282.719 282.707 282.693 282.681 282.671
282.661 282.649 282.638 282.626 282.613 282.666 282.754 282.799 282.794 282.776
282.76 282.75 282.75 282.76 282.778 282.801 282.82 282.814 282.741 282.669
282.545 282.55 282.568 282.596 282.637 282.682 282.717 282.743 282.76 282.762
282.751 282.733 282.715 282.705 282.701 282.7 282.695 282.686 282.676 282.666
282.656 282.645 282.634 282.622 282.608 282.666 282.753 282.799 282.8 282.784
282.77 282.762 282.762 282.77 282.785 282.805 282.819 282.808 282.732 282.673
282.537 282.54 282.553 282.572 282.609 282.658 282.698 282.729 282.751 282.757
282.746 282.724 282.701 282.685 282.677 282.675 282.674 282.67 282.664 282.656
282.648 282.639 282.629 282.615 282.6 282.669 282.756 282.801 282.805 282.793
282.781 282.774 282.774 282.78 282.793 282.809 282.818 282.801 282.722 282.681
282.547 282.535 282.544 282.549 282.575 282.626 282.673 282.711 282.74 282.753
282.744 282.721 282.694 282.67 282.656 282.65 282.649 282.647 282.644 282.639
282.634 282.627 282.618 282.607 282.598 282.68 282.763 282.805 282.81 282.801
282.792 282.787 282.787 282.792 282.801 282.813 282.817 282.793 282.709 282.685
282.58 282.544 282.549 282.536 282.539 282.584 282.638 282.685 282.726 282.749
282.747 282.726 282.696 282.667 282.644 282.632 282.627 282.624 282.622 282.62
282.617 282.613 282.611 282.612 282.628 282.696 282.774 282.811 282.815 282.809
282.803 282.799 282.799 282.802 282.809 282.817 282.814 282.783 282.692 282.684
282.606 282.58 282.573 282.541 282.505 282.53 282.59 282.646 282.703 282.742
282.752 282.738 282.712 282.682 282.654 282.633 282.622 282.617 282.614 282.614
282.616 282.62 282.629 282.646 282.674 282.715 282.79 282.818 282.821 282.817
282.813 282.81 282.81 282.812 282.817 282.819 282.809 282.768 282.669 282.677
282.625 282.607 282.598 282.576 282.491 282.464 282.519 282.586 282.663 282.725
282.753 282.755 282.741 282.719 282.694 282.672 282.656 282.648 282.645 282.648
282.654 282.665 282.681 282.701 282.724 282.748 282.804 282.826 282.827 282.824
282.821 282.819 282.819 282.82 282.821 282.816 282.797 282.744 282.634 282.663
282.634 282.621 282.604 282.578 282.512 282.396 282.41 282.486 282.591 282.682
282.736 282.758 282.764 282.76 282.752 282.742 282.732 282.723 282.721 282.723
282.729 282.738 282.75 282.763 282.776 282.788 282.817 282.833 282.833 282.831
282.829 282.828 282.826 282.821 282.813 282.799 282.768 282.701 282.575 282.598
282.558 282.517 282.477 282.432 282.378 282.306 282.228 282.294 282.438 282.566
282.648 282.69 282.708 282.716 282.719 282.72 282.722 282.724 282.726 282.73
282.736 282.743 282.752 282.762 282.774 282.787 282.803 282.81 282.802 282.794
282.785 282.775 282.765 282.755 282.743 282.725 282.686 282.601 282.439 
alphat 1 1600 float
0 0 0 0 0 0 0 0 0 0 0
0 0 0 0 0 0 0 0 0 0
0 0 0 0 0 0 0 0 0 0
0 0 0 0 0 0 0 0 0 0
0 0 0 0 0 0 0 0 0 0
0 0 0 0 0 0 0 0 0 0
0 0 0 0 0 0 0 0 0 0
0 0 0 0 0 0 0 0 0 0
0 0 0 0 0 0 0 0 0 0
0 0 0 0 0 0 0 0 0 0
0 0 0 0 0 0 0 0 0 0
0 0 0 0 0 0 0 0 0 0
0 0 0 0 0 0 0 0 0 0
0 0 0 0 0 0 0 0 0 0
0 0 0 0 0 0 0 0 0 0
0 0 0 0 0 0 0 0 0 0
0 0 0 0 0 0 0 0 0 0
0 0 0 0 0 0 0 0 0 0
0 0 0 0 0 0 0 0 0 0