# vtk DataFile Version 2.0
RBConvection
ASCII
DATASET UNSTRUCTURED_GRID
POINTS 3362 float
0 0 0 0.025 0 0 0.05 0 0 0.075 0
0 0.1 0 0 0.125 0 0 0.15 0 0
0.175 0 0 0.2 0 0 0.225 0 0 0.25
0 0 0.275 0 0 0.3 0 0 0.325 0
0 0.35 0 0 0.375 0 0 0.4 0 0
0.425 0 0 0.45 0 0 0.475 0 0 0.5
0 0 0.525 0 0 0.55 0 0 0.575 0
0 0.6 0 0 0.625 0 0 0.65 0 0
0.675 0 0 0.7 0 0 0.725 0 0 0.75
0 0 0.775 0 0 0.8 0 0 0.825 0
0 0.85 0 0 0.875 0 0 0.9 0 0
0.925 0 0 0.95 0 0 0.975 0 0 1
0 0 0 0.01 0 0.025 0.01 0 0.05 0.01
0 0.075 0.01 0 0.1 0.01 0 0.125 0.01 0
0.15 0.01 0 0.175 0.01 0 0.2 0.01 0 0.225
0.01 0 0.25 0.01 0 0.275 0.01 0 0.3 0.01
0 0.325 0.01 0 0.35 0.01 0 0.375 0.01 0
0.4 0.01 0 0.425 0.01 0 0.45 0.01 0 0.475
0.01 0 0.5 0.01 0 0.525 0.01 0 0.55 0.01
0 0.575 0.01 0 0.6 0.01 0 0.625 0.01 0
0.65 0.01 0 0.675 0.01 0 0.7 0.01 0 0.725
0.01 0 0.75 0.01 0 0.775 0.01 0 0.8 0.01
0 0.825 0.01 0 0.85 0.01 0 0.875 0.01 0
0.9 0.01 0 0.925 0.01 0 0.95 0.01 0 0.975
0.01 0 1 0.01 0 0 0.02 0 0.025 0.02
0 0.05 0.02 0 0.075 0.02 0 0.1 0.02 0
0.125 0.02 0 0.15 0.02 0 0.175 0.02 0 0.2
0.02 0 0.225 0.02 0 0.25 0.02 0 0.275 0.02
0 0.3 0.02 0 0.325 0.02 0 0.35 0.02 0
0.375 0.02 0 0.4 0.02 0 0.425 0.02 0 0.45
0.02 0 0.475 0.02 0 0.5 0.02 0 0.525 0.02
0 0.55 0.02 0 0.575 0.02 0 0.6 0.02 0
0.625 0.02 0 0.65 0.02 0 0.675 0.02 0 0.7
0.02 0 0.725 0.02 0 0.75 0.02 0 0.775 0.02
0 0.8 0.02 0 0.825 0.02 0 0.85 0.02 0
0.875 0.02 0 0.9 0.02 0 0.925 0.02 0 0.95
0.02 0 0.975 0.02 0 1 0.02 0 0 0.03
0 0.025 0.03 0 0.05 0.03 0 0.075 0.03 0
0.1 0.03 0 0.125 0.03 0 0.15 0.03 0 0.175
0.03 0 0.2 0.03 0 0.225 0.03 0 0.25 0.03
0 0.275 0.03 0 0.3 0.03 0 0.325 0.03 0
0.35 0.03 0 0.375 0.03 0 0.4 0.03 0 0.425
0.03 0 0.45 0.03 0 0.475 0.03 0 0.5 0.03
0 0.525 0.03 0 0.55 0.03 0 0.575 0.03 0
0.6 0.03 0 0.625 0.03 0 0.65 0.03 0 0.675
0.03 0 0.7 0.03 0 0.725 0.03 0 0.75 0.03
0 0.775 0.03 0 0.8 0.03 0 0.825 0.03 0
0.85 0.03 0 0.875 0.03 0 0.9 0.03 0 0.925
0.03 0 0.95 0.03 0 0.975 0.03 0 1 0.03
0 0 0.04 0 0.025 0.04 0 0.05 0.04 0
0.075 0.04 0 0.1 0.04 0 0.125 0.04 0 0.15
0.04 0 0.175 0.04 0 0.2 0.04 0 0.225 0.04
0 0.25 0.04 0 0.275 0.04 0 0.3 0.04 0
0.325 0.04 0 0.35 0.04 0 0.375 0.04 0 0.4
0.04 0 0.425 0.04 0 0.45 0.04 0 0.475 0.04
0 0.5 0.04 0 0.525 0.04 0 0.55 0.04 0
0.575 0.04 0 0.6 0.04 0 0.625 0.04 0 0.65
0.04 0 0.675 0.04 0 0.7 0.04 0 0.725 0.04
0 0.75 0.04 0 0.775 0.04 0 0.8 0.04 0
0.825 0.04 0 0.85 0.04 0 0.875 0.04 0 0.9
0.04 0 0.925 0.04 0 0.95 0.04 0 0.975 0.04
0 1 0.04 0 0 0.05 0 0.025 0.05 0
0.05 0.05 0 0.075 0.05 0 0.1 0.05 0 0.125
0.05 0 0.15 0.05 0 0.175 0.05 0 0.2 0.05
0 0.225 0.05 0 0.25 0.05 0 0.275 0.05 0
0.3 0.05 0 0.325 0.05 0 0.35 0.05 0 0.375
0.05 0 0.4 0.05 0 0.425 0.05 0 0.45 0.05
0 0.475 0.05 0 0.5 0.05 0 0.525 0.05 0
0.55 0.05 0 0.575 0.05 0 0.6 0.05 0 0.625
0.05 0 0.65 0.05 0 0.675 0.05 0 0.7 0.05
0 0.725 0.05 0 0.75 0.05 0 0.775 0.05 0
0.8 0.05 0 0.825 0.05 0 0.85 0.05 0 0.875
0.05 0 0.9 0.05 0 0.925 0.05 0 0.95 0.05
0 0.975 0.05 0 1 0.05 0 0 0.06 0
0.025 0.06 0 0.05 0.06 0 0.075 0.06 0 0.1
0.06 0 0.125 0.06 0 0.15 0.06 0 0.175 0.06
0 0.2 0.06 0 0.225 0.06 0 0.25 0.06 0
0.275 0.06 0 0.3 0.06 0 0.325 0.06 0 0.35
0.06 0 0.375 0.06 0 0.4 0.06 0 0.425 0.06
0 0.45 0.06 0 0.475 0.06 0 0.5 0.06 0
0.525 0.06 0 0.55 0.06 0 0.575 0.06 0 0.6
0.06 0 0.625 0.06 0 0.65 0.06 0 0.675 0.06
0 0.7 0.06 0 0.725 0.06 0 0.75 0.06 0
0.775 0.06 0 0.8 0.06 0 0.825 0.06 0 0.85
0.06 0 0.875 0.06 0 0.9 0.06 0 0.925 0.06
0 0.95 0.06 0 0.975 0.06 0 1 0.06 0
0 0.07 0 0.025 0.07 0 0.05 0.07 0 0.075
0.07 0 0.1 0.07 0 0.125 0.07 0 0.15 0.07
0 0.175 0.07 0 0.2 0.07 0 0.225 0.07 0
0.25 0.07 0 0.275 0.07 0 0.3 0.07 0 0.325
0.07 0 0.35 0.07 0 0.375 0.07 0 0.4 0.07
0 0.425 0.07 0 0.45 0.07 0 0.475 0.07 0
0.5 0.07 0 0.525 0.07 0 0.55 0.07 0 0.575
0.07 0 0.6 0.07 0 0.625 0.07 0 0.65 0.07
0 0.675 0.07 0 0.7 0.07 0 0.725 0.07 0
0.75 0.07 0 0.775 0.07 0 0.8 0.07 0 0.825
0.07 0 0.85 0.07 0 0.875 0.07 0 0.9 0.07
0 0.925 0.07 0 0.95 0.07 0 0.975 0.07 0
1 0.07 0 0 0.08 0 0.025 0.08 0 0.05
0.08 0 0.075 0.08 0 0.1 0.08 0 0.125 0.08
0 0.15 0.08 0 0.175 0.08 0 0.2 0.08 0
0.225 0.08 0 0.25 0.08 0 0.275 0.08 0 0.3
0.08 0 0.325 0.08 0 0.35 0.08 0 0.375 0.08
0 0.4 0.08 0 0.425 0.08 0 0.45 0.08 0
0.475 0.08 0 0.5 0.08 0 0.525 0.08 0 0.55
0.08 0 0.575 0.08 0 0.6 0.08 0 0.625 0.08
0 0.65 0.08 0 0.675 0.08 0 0.7 0.08 0
0.725 0.08 0 0.75 0.08 0 0.775 0.08 0 0.8
0.08 0 0.825 0.08 0 0.85 0.08 0 0.875 0.08
0 0.9 0.08 0 0.925 0.08 0 0.95 0.08 0
0.975 0.08 0 1 0.08 0 0 0.09 0 0.025
0.09 0 0.05 0.09 0 0.075 0.09 0 0.1 0.09
0 0.125 0.09 0 0.15 0.09 0 0.175 0.09 0
0.2 0.09 0 0.225 0.09 0 0.25 0.09 0 0.275
0.09 0 0.3 0.09 0 0.325 0.09 0 0.35 0.09
0 0.375 0.09 0 0.4 0.09 0 0.425 0.09 0
0.45 0.09 0 0.475 0.09 0 0.5 0.09 0 0.525
0.09 0 0.55 0.09 0 0.575 0.09 0 0.6 0.09
0 0.625 0.09 0 0.65 0.09 0 0.675 0.09 0
0.7 0.09 0 0.725 0.09 0 0.75 0.09 0 0.775
0.09 0 0.8 0.09 0 0.825 0.09 0 0.85 0.09
0 0.875 0.09 0 0.9 0.09 0 0.925 0.09 0
0.95 0.09 0 0.975 0.09 0 1 0.09 0 0
0.1 0 0.025 0.1 0 0.05 0.1 0 0.075 0.1
0 0.1 0.1 0 0.125 0.1 0 0.15 0.1 0
0.175 0.1 0 0.2 0.1 0 0.225 0.1 0 0.25
0.1 0 0.275 0.1 0 0.3 0.1 0 0.325 0.1
0 0.35 0.1 0 0.375 0.1 0 0.4 0.1 0
0.425 0.1 0 0.45 0.1 0 0.475 0.1 0 0.5
0.1 0 0.525 0.1 0 0.55 0.1 0 0.575 0.1
0 0.6 0.1 0 0.625 0.1 0 0.65 0.1 0
0.675 0.1 0 0.7 0.1 0 0.725 0.1 0 0.75
0.1 0 0.775 0.1 0 0.8 0.1 0 0.825 0.1
0 0.85 0.1 0 0.875 0.1 0 0.9 0.1 0
0.925 0.1 0 0.95 0.1 0 0.975 0.1 0 1
0.1 0 0 0.11 0 0.025 0.11 0 0.05 0.11
0 0.075 0.11 0 0.1 0.11 0 0.125 0.11 0
0.15 0.11 0 0.175 0.11 0 0.2 0.11 0 0.225
0.11 0 0.25 0.11 0 0.275 0.11 0 0.3 0.11
0 0.325 0.11 0 0.35 0.11 0 0.375 0.11 0
0.4 0.11 0 0.425 0.11 0 0.45 0.11 0 0.475
0.11 0 0.5 0.11 0 0.525 0.11 0 0.55 0.11
0 0.575 0.11 0 0.6 0.11 0 0.625 0.11 0
0.65 0.11 0 0.675 0.11 0 0.7 0.11 0 0.725
0.11 0 0.75 0.11 0 0.775 0.11 0 0.8 0.11
0 0.825 0.11 0 0.85 0.11 0 0.875 0.11 0
0.9 0.11 0 0.925 0.11 0 0.95 0.11 0 0.975
0.11 0 1 0.11 0 0 0.12 0 0.025 0.12
0 0.05 0.12 0 0.075 0.12 0 0.1 0.12 0
0.125 0.12 0 0.15 0.12 0 0.175 0.12 0 0.2
0.12 0 0.225 0.12 0 0.25 0.12 0 0.275 0.12
0 0.3 0.12 0 0.325 0.12 0 0.35 0.12 0
0.375 0.12 0 0.4 0.12 0 0.425 0.12 0 0.45
0.12 0 0.475 0.12 0 0.5 0.12 0 0.525 0.12
0 0.55 0.12 0 0.575 0.12 0 0.6 0.12 0
0.625 0.12 0 0.65 0.12 0 0.675 0.12 0 0.7
0.12 0 0.725 0.12 0 0.75 0.12 0 0.775 0.12
0 0.8 0.12 0 0.825 0.12 0 0.85 0.12 0
0.875 0.12 0 0.9 0.12 0 0.925 0.12 0 0.95
0.12 0 0.975 0.12 0 1 0.12 0 0 0.13
0 0.025 0.13 0 0.05 0.13 0 0.075 0.13 0
0.1 0.13 0 0.125 0.13 0 0.15 0.13 0 0.175
0.13 0 0.2 0.13 0 0.225 0.13 0 0.25 0.13
0 0.275 0.13 0 0.3 0.13 0 0.325 0.13 0
0.35 0.13 0 0.375 0.13 0 0.4 0.13 0 0.425
0.13 0 0.45 0.13 0 0.475 0.13 0 0.5 0.13
0 0.525 0.13 0 0.55 0.13 0 0.575 0.13 0
0.6 0.13 0 0.625 0.13 0 0.65 0.13 0 0.675
0.13 0 0.7 0.13 0 0.725 0.13 0 0.75 0.13
0 0.775 0.13 0 0.8 0.13 0 0.825 0.13 0
0.85 0.13 0 0.875 0.13 0 0.9 0.13 0 0.925
0.13 0 0.95 0.13 0 0.975 0.13 0 1 0.13
0 0 0.14 0 0.025 0.14 0 0.05 0.14 0
0.075 0.14 0 0.1 0.14 0 0.125 0.14 0 0.15
0.14 0 0.175 0.14 0 0.2 0.14 0 0.225 0.14
0 0.25 0.14 0 0.275 0.14 0 0.3 0.14 0
0.325 0.14 0 0.35 0.14 0 0.375 0.14 0 0.4
0.14 0 0.425 0.14 0 0.45 0.14 0 0.475 0.14
0 0.5 0.14 0 0.525 0.14 0 0.55 0.14 0
0.575 0.14 0 0.6 0.14 0 0.625 0.14 0 0.65
0.14 0 0.675 0.14 0 0.7 0.14 0 0.725 0.14
0 0.75 0.14 0 0.775 0.14 0 0.8 0.14 0
0.825 0.14 0 0.85 0.14 0 0.875 0.14 0 0.9
0.14 0 0.925 0.14 0 0.95 0.14 0 0.975 0.14
0 1 0.14 0 0 0.15 0 0.025 0.15 0
0.05 0.15 0 0.075 0.15 0 0.1 0.15 0 0.125
0.15 0 0.15 0.15 0 0.175 0.15 0 0.2 0.15
0 0.225 0.15 0 0.25 0.15 0 0.275 0.15 0
0.3 0.15 0 0.325 0.15 0 0.35 0.15 0 0.375
0.15 0 0.4 0.15 0 0.425 0.15 0 0.45 0.15
0 0.475 0.15 0 0.5 0.15 0 0.525 0.15 0
0.55 0.15 0 0.575 0.15 0 0.6 0.15 0 0.625
0.15 0 0.65 0.15 0 0.675 0.15 0 0.7 0.15
0 0.725 0.15 0 0.75 0.15 0 0.775 0.15 0
0.8 0.15 0 0.825 0.15 0 0.85 0.15 0 0.875
0.15 0 0.9 0.15 0 0.925 0.15 0 0.95 0.15
0 0.975 0.15 0 1 0.15 0 0 0.16 0
0.025 0.16 0 0.05 0.16 0 0.075 0.16 0 0.1
0.16 0 0.125 0.16 0 0.15 0.16 0 0.175 0.16
0 0.2 0.16 0 0.225 0.16 0 0.25 0.16 0
0.275 0.16 0 0.3 0.16 0 0.325 0.16 0 0.35
0.16 0 0.375 0.16 0 0.4 0.16 0 0.425 0.16
0 0.45 0.16 0 0.475 0.16 0 0.5 0.16 0
0.525 0.16 0 0.55 0.16 0 0.575 0.16 0 0.6
0.16 0 0.625 0.16 0 0.65 0.16 0 0.675 0.16
0 0.7 0.16 0 0.725 0.16 0 0.75 0.16 0
0.775 0.16 0 0.8 0.16 0 0.825 0.16 0 0.85
0.16 0 0.875 0.16 0 0.9 0.16 0 0.925 0.16
0 0.95 0.16 0 0.975 0.16 0 1 0.16 0
0 0.17 0 0.025 0.17 0 0.05 0.17 0 0.075
0.17 0 0.1 0.17 0 0.125 0.17 0 0.15 0.17
0 0.175 0.17 0 0.2 0.17 0 0.225 0.17 0
0.25 0.17 0 0.275 0.17 0 0.3 0.17 0 0.325
0.17 0 0.35 0.17 0 0.375 0.17 0 0.4 0.17
0 0.425 0.17 0 0.45 0.17 0 0.475 0.17 0
0.5 0.17 0 0.525 0.17 0 0.55 0.17 0 0.575
0.17 0 0.6 0.17 0 0.625 0.17 0 0.65 0.17
0 0.675 0.17 0 0.7 0.17 0 0.725 0.17 0
0.75 0.17 0 0.775 0.17 0 0.8 0.17 0 0.825
0.17 0 0.85 0.17 0 0.875 0.17 0 0.9 0.17
0 0.925 0.17 0 0.95 0.17 0 0.975 0.17 0
1 0.17 0 0 0.18 0 0.025 0.18 0 0.05
0.18 0 0.075 0.18 0 0.1 0.18 0 0.125 0.18
0 0.15 0.18 0 0.175 0.18 0 0.2 0.18 0
0.225 0.18 0 0.25 0.18 0 0.275 0.18 0 0.3
0.18 0 0.325 0.18 0 0.35 0.18 0 0.375 0.18
0 0.4 0.18 0 0.425 0.18 0 0.45 0.18 0
0.475 0.18 0 0.5 0.18 0 0.525 0.18 0 0.55
0.18 0 0.575 0.18 0 0.6 0.18 0 0.625 0.18
0 0.65 0.18 0 0.675 0.18 0 0.7 0.18 0
0.725 0.18 0 0.75 0.18 0 0.775 0.18 0 0.8
0.18 0 0.825 0.18 0 0.85 0.18 0 0.875 0.18
0 0.9 0.18 0 0.925 0.18 0 0.95 0.18 0
0.975 0.18 0 1 0.18 0 0 0.19 0 0.025
0.19 0 0.05 0.19 0 0.075 0.19 0 0.1 0.19
0 0.125 0.19 0 0.15 0.19 0 0.175 0.19 0
0.2 0.19 0 0.225 0.19 0 0.25 0.19 0 0.275
0.19 0 0.3 0.19 0 0.325 0.19 0 0.35 0.19
0 0.375 0.19 0 0.4 0.19 0 0.425 0.19 0
0.45 0.19 0 0.475 0.19 0 0.5 0.19 0 0.525
0.19 0 0.55 0.19 0 0.575 0.19 0 0.6 0.19
0 0.625 0.19 0 0.65 0.19 0 0.675 0.19 0
0.7 0.19 0 0.725 0.19 0 0.75 0.19 0 0.775
0.19 0 0.8 0.19 0 0.825 0.19 0 0.85 0.19
0 0.875 0.19 0 0.9 0.19 0 0.925 0.19 0
0.95 0.19 0 0.975 0.19 0 1 0.19 0 0
0.2 0 0.025 0.2 0 0.05 0.2 0 0.075 0.2
0 0.1 0.2 0 0.125 0.2 0 0.15 0.2 0
0.175 0.2 0 0.2 0.2 0 0.225 0.2 0 0.25
[...]
CELL_DATA 1600
FIELD attributes 6
cellID 1 1600 int
0 1 2 3 4 5 6 7 8 9 10
11 12 13 14 15 16 17 18 19 20
21 22 23 24 25 26 27 28 29 30
31 32 33 34 35 36 37 38 39 40
41 42 43 44 45 46 47 48 49 50
51 52 53 54 55 56 57 58 59 60
61 62 63 64 65 66 67 68 69 70
71 72 73 74 75 76 77 78 79 80
81 82 83 84 85 86 87 88 89 90
91 92 93 94 95 96 97 98 99 100
101 102 103 104 105 106 107 108 109 110
111 112 113 114 115 116 117 118 119 120
121 122 123 124 125 126 127 128 129 130
131 132 133 134 135 136 137 138 139 140
141 142 143 144 145 146 147 148 149 150
151 152 153 154 155 156 157 158 159 160
161 162 163 164 165 166 167 168 169 170
171 172 173 174 175 176 177 178 179 180
181 182 183 184 185 186 187 188 189 190
191 192 193 194 195 196 197 198 199 200
201 202 203 204 205 206 207 208 209 210
211 212 213 214 215 216 217 218 219 220
221 222 223 224 225 226 227 228 229 230
231 232 233 234 235 236 237 238 239 240
241 242 243 244 245 246 247 248 249 250
251 252 253 254 255 256 257 258 259 260
261 262 263 264 265 266 267 268 269 270
271 272 273 274 275 276 277 278 279 280
281 282 283 284 285 286 287 288 289 290
291 292 293 294 295 296 297 298 299 300
301 302 303 304 305 306 307 308 309 310
311 312 313 314 315 316 317 318 319 320
321 322 323 324 325 326 327 328 329 330
331 332 333 334 335 336 337 338 339 340
341 342 343 344 345 346 347 348 349 350
351 352 353 354 355 356 357 358 359 360
361 362 363 364 365 366 367 368 369 370
371 372 373 374 375 376 377 378 379 380
381 382 383 384 385 386 387 388 389 390
391 392 393 394 395 396 397 398 399 400
401 402 403 404 405 406 407 408 409 410
411 412 413 414 415 416 417 418 419 420
421 422 423 424 425 426 427 428 429 430
431 432 433 434 435 436 437 438 439 440
441 442 443 444 445 446 447 448 449 450
451 452 453 454 455 456 457 458 459 460
461 462 463 464 465 466 467 468 469 470
471 472 473 474 475 476 477 478 479 480
481 482 483 484 485 486 487 488 489 490
491 492 493 494 495 496 497 498 499 500
501 502 503 504 505 506 507 508 509 510
511 512 513 514 515 516 517 518 519 520
521 522 523 524 525 526 527 528 529 530
531 532 533 534 535 536 537 538 539 540
541 542 543 544 545 546 547 548 549 550
551 552 553 554 555 556 557 558 559 560
561 562 563 564 565 566 567 568 569 570
571 572 573 574 575 576 577 578 579 580
581 582 583 584 585 586 587 588 589 590
591 592 593 594 595 596 597 598 599 600
601 602 603 604 605 606 607 608 609 610
611 612 613 614 615 616 617 618 619 620
621 622 623 624 625 626 627 628 629 630
631 632 633 634 635 636 637 638 639 640
641 642 643 644 645 646 647 648 649 650
651 652 653 654 655 656 657 658 659 660
661 662 663 664 665 666 667 668 669 670
671 672 673 674 675 676 677 678 679 680
681 682 683 684 685 686 687 688 689 690
691 692 693 694 695 696 697 698 699 700
701 702 703 704 705 706 707 708 709 710
711 712 713 714 715 716 717 718 719 720
721 722 723 724 725 726 727 728 729 730
731 732 733 734 735 736 737 738 739 740
741 742 743 744 745 746 747 748 749 750
751 752 753 754 755 756 757 758 759 760
761 762 763 764 765 766 767 768 769 770
771 772 773 774 775 776 777 778 779 780
781 782 783 784 785 786 787 788 789 790
791 792 793 794 795 796 797 798 799 800
801 802 803 804 805 806 807 808 809 810
811 812 813 814 815 816 817 818 819 820
821 822 823 824 825 826 827 828 829 830
831 832 833 834 835 836 837 838 839 840
841 842 843 844 845 846 847 848 849 850
851 852 853 854 855 856 857 858 859 860
861 862 863 864 865 866 867 868 869 870
871 872 873 874 875 876 877 878 879 880
881 882 883 884 885 886 887 888 889 890
891 892 893 894 895 896 897 898 899 900
901 902 903 904 905 906 907 908 909 910
911 912 913 914 915 916 917 918 919 920
921 922 923 924 925 926 927 928 929 930
931 932 933 934 935 936 937 938 939 940
941 942 943 944 945 946 947 948 949 950
951 952 953 954 955 956 957 958 959 960
961 962 963 964 965 966 967 968 969 970
971 972 973 974 975 976 977 978 979 980
981 982 983 984 985 986 987 988 989 990
991 992 993 994 995 996 997 998 999 1000
1001 1002 1003 1004 1005 1006 1007 1008 1009 1010
1011 1012 1013 1014 1015 1016 1017 1018 1019 1020
1021 1022 1023 1024 1025 1026 1027 1028 1029 1030
1031 1032 1033 1034 1035 1036 1037 1038 1039 1040
1041 1042 1043 1044 1045 1046 1047 1048 1049 1050
1051 1052 1053 1054 1055 1056 1057 1058 1059 1060
1061 1062 1063 1064 1065 1066 1067 1068 1069 1070
1071 1072 1073 1074 1075 1076 1077 1078 1079 1080
1081 1082 1083 1084 1085 1086 1087 1088 1089 1090
1091 1092 1093 1094 1095 1096 1097 1098 1099 1100
1101 1102 1103 1104 1105 1106 1107 1108 1109 1110
1111 1112 1113 1114 1115 1116 1117 1118 1119 1120
1121 1122 1123 1124 1125 1126 1127 1128 1129 1130
1131 1132 1133 1134 1135 1136 1137 1138 1139 1140
1141 1142 1143 1144 1145 1146 1147 1148 1149 1150
1151 1152 1153 1154 1155 1156 1157 1158 1159 1160
1161 1162 1163 1164 1165 1166 1167 1168 1169 1170
1171 1172 1173 1174 1175 1176 1177 1178 1179 1180
1181 1182 1183 1184 1185 1186 1187 1188 1189 1190
1191 1192 1193 1194 1195 1196 1197 1198 1199 1200
1201 1202 1203 1204 1205 1206 1207 1208 1209 1210
1211 1212 1213 1214 1215 1216 1217 1218 1219 1220
1221 1222 1223 1224 1225 1226 1227 1228 1229 1230
1231 1232 1233 1234 1235 1236 1237 1238 1239 1240
1241 1242 1243 1244 1245 1246 1247 1248 1249 1250
1251 1252 1253 1254 1255 1256 1257 1258 1259 1260
1261 1262 1263 1264 1265 1266 1267 1268 1269 1270
1271 1272 1273 1274 1275 1276 1277 1278 1279 1280
1281 1282 1283 1284 1285 1286 1287 1288 1289 1290
1291 1292 1293 1294 1295 1296 1297 1298 1299 1300
1301 1302 1303 1304 1305 1306 1307 1308 1309 1310
1311 1312 1313 1314 1315 1316 1317 1318 1319 1320
1321 1322 1323 1324 1325 1326 1327 1328 1329 1330
1331 1332 1333 1334 1335 1336 1337 1338 1339 1340
1341 1342 1343 1344 1345 1346 1347 1348 1349 1350
1351 1352 1353 1354 1355 1356 1357 1358 1359 1360
1361 1362 1363 1364 1365 1366 1367 1368 1369 1370
1371 1372 1373 1374 1375 1376 1377 1378 1379 1380
1381 1382 1383 1384 1385 1386 1387 1388 1389 1390
1391 1392 1393 1394 1395 1396 1397 1398 1399 1400
1401 1402 1403 1404 1405 1406 1407 1408 1409 1410
1411 1412 1413 1414 1415 1416 1417 1418 1419 1420
1421 1422 1423 1424 1425 1426 1427 1428 1429 1430
1431 1432 1433 1434 1435 1436 1437 1438 1439 1440
1441 1442 1443 1444 1445 1446 1447 1448 1449 1450
1451 1452 1453 1454 1455 1456 1457 1458 1459 1460
1461 1462 1463 1464 1465 1466 1467 1468 1469 1470
1471 1472 1473 1474 1475 1476 1477 1478 1479 1480
1481 1482 1483 1484 1485 1486 1487 1488 1489 1490
1491 1492 1493 1494 1495 1496 1497 1498 1499 1500
1501 1502 1503 1504 1505 1506 1507 1508 1509 1510
1511 1512 1513 1514 1515 1516 1517 1518 1519 1520
1521 1522 1523 1524 1525 1526 1527 1528 1529 1530
1531 1532 1533 1534 1535 1536 1537 1538 1539 1540
1541 1542 1543 1544 1545 1546 1547 1548 1549 1550
1551 1552 1553 1554 1555 1556 1557 1558 1559 1560
1561 1562 1563 1564 1565 1566 1567 1568 1569 1570
1571 1572 1573 1574 1575 1576 1577 1578 1579 1580
1581 1582 1583 1584 1585 1586 1587 1588 1589 1590
1591 1592 1593 1594 1595 1596 1597 1598 1599 
T 1 1600 float
285.067 284.676 284.983 285.27 283.931 283.675 283.982 284.329 284.688 285.063 285.453
285.858 286.262 286.636 287.069 287.543 287.973 287.827 287.877 284.345 283.53
283.361 284.063 284.588 285.964 286.161 285.106 284.141 284.244 284.127 283.606
283.514 283.711 284.006 284.379 283.954 283.442 283.049 282.817 283.726 283.618
282.156 282.133 282.123 282.107 282.106 282.108 282.113 282.123 282.137 282.155
282.176 282.2 282.227 282.298 282.525 282.845 282.708 285.401 283.957 282.195
282.185 282.225 282.355 284.452 285.236 283.046 282.367 282.353 282.357 282.365
282.381 282.385 282.783 283.703 283.132 282.409 282.413 282.32 283.205 283.186
282.105 282.087 282.102 282.114 282.115 282.11 282.103 282.098 282.095 282.096
282.1 282.106 282.115 282.129 282.158 282.196 282.193 284.323 283.881 282.181
282.177 282.214 282.402 283.855 284.953 282.82 282.339 282.345 282.356 282.382
282.417 282.421 282.565 283.442 282.956 282.48 282.457 282.323 283.041 282.976
282.099 282.09 282.134 282.15 282.152 282.145 282.135 282.123 282.114 282.107
282.104 282.105 282.109 282.116 282.127 282.139 282.151 283.723 283.829 282.186
282.182 282.233 282.497 283.536 284.824 282.591 282.344 282.355 282.373 282.418
282.476 282.488 282.526 283.321 282.922 282.589 282.486 282.322 282.968 282.853
282.099 282.108 282.171 282.192 282.197 282.189 282.176 282.16 282.145 282.132
282.123 282.118 282.117 282.12 282.126 282.135 282.147 283.344 283.758 282.245
282.188 282.245 282.508 283.319 284.684 282.432 282.351 282.367 282.397 282.461
282.547 282.579 282.548 283.267 282.941 282.713 282.497 282.319 282.935 282.773
282.102 282.139 282.21 282.239 282.246 282.238 282.222 282.203 282.182 282.164
282.149 282.139 282.133 282.131 282.133 282.139 282.15 283.088 283.671 282.465
282.192 282.246 282.457 283.103 284.39 282.368 282.359 282.383 282.427 282.508
282.624 282.69 282.609 283.242 282.974 282.775 282.493 282.315 282.916 282.717
282.104 282.175 282.253 282.288 282.297 282.289 282.271 282.248 282.223 282.2
282.18 282.165 282.154 282.147 282.146 282.148 282.155 282.906 283.583 282.594
282.198 282.243 282.391 282.855 283.898 282.353 282.368 282.399 282.457 282.56
282.701 282.785 282.735 283.227 283.008 282.734 282.477 282.309 282.898 282.675
282.104 282.209 282.297 282.338 282.347 282.339 282.319 282.293 282.265 282.237
282.213 282.193 282.177 282.166 282.16 282.159 282.163 282.775 283.5 282.687
282.206 282.241 282.338 282.626 283.315 282.355 282.378 282.415 282.482 282.601
282.768 282.892 282.882 283.217 283.047 282.659 282.444 282.296 282.873 282.642
282.105 282.241 282.342 282.386 282.397 282.387 282.366 282.338 282.306 282.274
282.246 282.221 282.201 282.185 282.175 282.17 282.171 282.677 283.423 282.76
282.218 282.241 282.309 282.465 282.826 282.362 282.388 282.427 282.497 282.623
282.811 282.982 283.014 283.214 283.095 282.58 282.398 282.279 282.836 282.616
282.106 282.27 282.387 282.433 282.442 282.432 282.409 282.379 282.345 282.31
282.277 282.248 282.224 282.205 282.19 282.182 282.18 282.605 283.354 282.82
282.233 282.243 282.3 282.381 282.536 282.37 282.395 282.432 282.497 282.62
282.817 283.032 283.114 283.218 283.13 282.506 282.348 282.262 282.787 282.595
282.104 282.299 282.43 282.477 282.483 282.47 282.446 282.415 282.379 282.342
282.306 282.274 282.246 282.223 282.205 282.193 282.188 282.55 283.293 282.872
282.254 282.246 282.301 282.349 282.413 282.377 282.401 282.431 282.483 282.588
282.778 283.027 283.172 283.206 282.884 282.413 282.303 282.249 282.732 282.578
282.103 282.327 282.472 282.516 282.516 282.5 282.475 282.445 282.409 282.37
282.331 282.296 282.265 282.239 282.218 282.203 282.195 282.507 283.239 282.92
282.28 282.247 282.305 282.342 282.377 282.385 282.406 282.427 282.46 282.533
282.689 282.946 283.173 283.183 282.304 282.291 282.273 282.24 282.679 282.562
282.106 282.354 282.51 282.549 282.541 282.519 282.494 282.466 282.431 282.392
282.352 282.314 282.281 282.252 282.229 282.212 282.201 282.471 283.191 282.959
282.308 282.248 282.309 282.345 282.373 282.393 282.412 282.426 282.441 282.473
282.563 282.762 283.05 283.147 282.32 282.295 282.271 282.237 282.632 282.549
282.118 282.378 282.545 282.576 282.555 282.527 282.502 282.476 282.445 282.408
282.368 282.329 282.294 282.263 282.238 282.219 282.207 282.439 283.148 282.988
282.326 282.248 282.313 282.351 282.379 282.403 282.424 282.435 282.439 282.44
282.457 282.535 282.742 282.948 282.342 282.304 282.269 282.236 282.593 282.537
282.139 282.398 282.576 282.595 282.559 282.523 282.498 282.477 282.451 282.417
282.377 282.338 282.302 282.271 282.246 282.225 282.212 282.407 283.111 283.009
282.326 282.247 282.317 282.357 282.387 282.414 282.438 282.454 282.456 282.449
282.432 282.42 282.448 282.561 282.365 282.323 282.27 282.237 282.562 282.527
282.17 282.415 282.6 282.606 282.554 282.511 282.485 282.469 282.449 282.419
282.381 282.342 282.307 282.276 282.251 282.23 282.216 282.375 283.077 283.024
282.311 282.247 282.319 282.363 282.395 282.425 282.452 282.472 282.479 282.476
282.461 282.44 282.417 282.406 282.396 282.349 282.276 282.24 282.539 282.519
282.208 282.43 282.618 282.61 282.543 282.495 282.468 282.455 282.441 282.415
282.379 282.342 282.308 282.279 282.254 282.234 282.219 282.341 283.047 283.035
282.285 282.247 282.322 282.369 282.403 282.435 282.466 282.489 282.501 282.502
282.493 282.478 282.461 282.447 282.43 282.378 282.285 282.246 282.521 282.513
282.249 282.444 282.631 282.61 282.531 282.477 282.448 282.435 282.427 282.405
282.371 282.337 282.305 282.278 282.255 282.236 282.222 282.309 283.02 283.043
282.255 282.248 282.324 282.374 282.41 282.445 282.478 282.505 282.519 282.521
282.517 282.509 282.498 282.485 282.463 282.408 282.299 282.254 282.509 282.508
282.291 282.455 282.64 282.61 282.52 282.46 282.428 282.414 282.406 282.391
282.362 282.327 282.299 282.275 282.255 282.238 282.224 282.281 282.997 283.048
282.226 282.25 282.325 282.378 282.417 282.454 282.489 282.516 282.53 282.531
282.53 282.529 282.526 282.517 282.494 282.436 282.318 282.263 282.499 282.505
282.332 282.463 282.647 282.612 282.512 282.446 282.41 282.393 282.384 282.37
282.347 282.32 282.293 282.271 282.253 282.238 282.225 282.259 282.978 283.05
282.206 282.253 282.327 282.382 282.423 282.462 282.498 282.524 282.534 282.531
282.53 282.536 282.542 282.54 282.521 282.461 282.34 282.274 282.493 282.502
282.37 282.47 282.653 282.617 282.508 282.435 282.395 282.374 282.363 282.35
282.33 282.308 282.287 282.267 282.25 282.238 282.226 282.244 282.964 283.049
282.199 282.256 282.328 282.385 282.428 282.468 282.504 282.527 282.53 282.52
282.518 282.53 282.546 282.555 282.543 282.482 282.364 282.287 282.488 282.5
282.397 282.478 282.657 282.626 282.507 282.428 282.383 282.358 282.344 282.331
282.314 282.296 282.278 282.263 282.246 282.237 282.226 282.234 282.955 283.047
282.207 282.261 282.329 282.388 282.432 282.473 282.508 282.526 282.519 282.498
282.493 282.51 282.538 282.561 282.56 282.499 282.388 282.3 282.485 282.497
282.417 282.486 282.659 282.637 282.511 282.424 282.373 282.345 282.328 282.313
282.298 282.282 282.267 282.255 282.241 282.234 282.226 282.228 282.953 283.04
282.215 282.266 282.33 282.389 282.435 282.477 282.511 282.523 282.503 282.469
282.461 282.482 282.521 282.559 282.572 282.513 282.41 282.313 282.483 282.494
282.43 282.495 282.661 282.65 282.517 282.422 282.367 282.335 282.314 282.298
282.282 282.266 282.252 282.241 282.232 282.231 282.225 282.226 282.961 283.029
282.223 282.272 282.332 282.391 282.438 282.48 282.512 282.517 282.485 282.437
282.426 282.45 282.497 282.551 282.579 282.524 282.429 282.327 282.482 282.492
282.438 282.505 282.664 282.662 282.526 282.423 282.362 282.327 282.303 282.284
282.266 282.249 282.234 282.221 282.218 282.225 282.223 282.257 282.971 283.013
282.232 282.279 282.334 282.392 282.439 282.481 282.512 282.512 282.466 282.407
282.393 282.416 282.472 282.539 282.581 282.533 282.445 282.339 282.481 282.49
282.443 282.515 282.669 282.67 282.539 282.426 282.36 282.321 282.294 282.273
282.252 282.232 282.213 282.196 282.196 282.217 282.219 282.313 282.978 282.992
282.24 282.285 282.336 282.392 282.44 282.482 282.512 282.508 282.451 282.384
282.364 282.386 282.448 282.526 282.581 282.542 282.458 282.351 282.481 282.487
282.445 282.526 282.677 282.675 282.551 282.433 282.358 282.316 282.287 282.263
282.241 282.217 282.194 282.175 282.171 282.206 282.215 282.379 282.983 282.965
282.247 282.291 282.339 282.393 282.44 282.482 282.512 282.507 282.439 282.37
282.342 282.361 282.428 282.514 282.579 282.549 282.468 282.361 282.481 282.485
282.446 282.539 282.686 282.676 282.559 282.44 282.358 282.311 282.281 282.255
282.23 282.204 282.18 282.162 282.157 282.195 282.216 282.444 282.985 282.933
282.252 282.294 282.342 282.392 282.44 282.481 282.51 282.507 282.439 282.373
282.33 282.342 282.413 282.505 282.576 282.555 282.476 282.372 282.481 282.482
282.446 282.555 282.697 282.673 282.562 282.444 282.357 282.306 282.273 282.246
282.22 282.194 282.17 282.155 282.151 282.186 282.23 282.5 282.982 282.893
282.254 282.295 282.342 282.391 282.438 282.48 282.507 282.504 282.444 282.38
282.328 282.333 282.402 282.497 282.575 282.561 282.482 282.385 282.483 282.479
282.446 282.576 282.709 282.667 282.559 282.445 282.355 282.299 282.264 282.236
282.211 282.186 282.166 282.154 282.15 282.181 282.254 282.546 282.975 282.847
282.253 282.291 282.338 282.386 282.435 282.477 282.503 282.499 282.448 282.385
282.329 282.329 282.398 282.495 282.576 282.566 282.487 282.401 282.485 282.476
282.446 282.601 282.719 282.658 282.552 282.442 282.352 282.293 282.256 282.23
282.207 282.188 282.171 282.16 282.157 282.184 282.284 282.583 282.963 282.795
282.246 282.277 282.325 282.376 282.427 282.473 282.497 282.491 282.448 282.387
282.329 282.33 282.401 282.498 282.579 282.572 282.491 282.423 282.488 282.473
282.45 282.631 282.725 282.647 282.544 282.44 282.351 282.291 282.256 282.234
282.218 282.204 282.191 282.178 282.173 282.197 282.319 282.613 282.947 282.739
282.234 282.252 282.294 282.348 282.405 282.468 282.488 282.48 282.441 282.381
282.327 282.337 282.412 282.508 282.586 282.577 282.494 282.447 282.491 282.468
282.457 282.667 282.722 282.637 282.542 282.444 282.359 282.303 282.274 282.26
282.253 282.245 282.232 282.213 282.203 282.23 282.36 282.636 282.929 282.687
282.225 282.232 282.257 282.298 282.355 282.458 282.474 282.463 282.423 282.363
282.322 282.351 282.433 282.525 282.597 282.583 282.496 282.468 282.494 282.462
282.471 282.706 282.715 282.633 282.547 282.463 282.39 282.344 282.324 282.32
282.319 282.313 282.296 282.271 282.258 282.287 282.41 282.655 282.911 282.648
282.23 282.243 282.27 282.29 282.3 282.429 282.442 282.428 282.386 282.33
282.322 282.379 282.466 282.55 282.611 282.589 282.498 282.483 282.498 282.452
282.497 282.737 282.713 282.641 282.57 282.504 282.451 282.421 282.412 282.413
282.414 282.405 282.384 282.356 282.341 282.367 282.47 282.672 282.895 282.623
282.262 282.272 282.317 282.35 282.365 282.392 282.398 282.38 282.342 282.318
282.357 282.433 282.515 282.583 282.628 282.595 282.499 282.493 282.501 282.441
282.54 282.749 282.719 282.663 282.612 282.569 282.539 282.525 282.524 282.527
282.526 282.513 282.49 282.462 282.445 282.463 282.538 282.693 282.885 282.6
282.35 282.333 282.368 282.406 282.436 282.432 282.42 282.402 282.388 282.408
282.457 282.518 282.576 282.621 282.646 282.598 282.498 282.5 282.504 282.43
282.579 282.754 282.732 282.694 282.665 282.645 282.634 282.633 282.636 282.639
282.635 282.623 282.603 282.578 282.562 282.569 282.616 282.722 282.885 282.581
282.443 282.421 282.441 282.47 282.497 282.507 282.505 282.501 282.509 282.536
282.57 282.606 282.637 282.657 282.663 282.598 282.493 282.504 282.507 282.425
282.597 282.759 282.747 282.725 282.714 282.71 282.712 282.718 282.725 282.73
282.73 282.725 282.713 282.697 282.682 282.681 282.703 282.765 282.89 282.597
282.53 282.518 282.53 282.55 282.57 282.585 282.594 282.602 282.618 282.638
282.658 282.674 282.684 282.685 282.673 282.589 282.483 282.506 282.509 282.414
282.581 282.754 282.752 282.739 282.738 282.744 282.754 282.765 282.777 282.788
282.798 282.805 282.807 282.804 282.796 282.792 282.797 282.823 282.899 282.67
282.63 282.622 282.627 282.639 282.652 282.664 282.674 282.686 282.699 282.709
282.715 282.715 282.707 282.692 282.668 282.564 282.464 282.502 282.511 282.304
282.48 282.691 282.715 282.703 282.702 282.708 282.718 282.731 282.746 282.763
282.781 282.799 282.816 282.831 282.843 282.852 282.861 282.873 282.905 282.774
282.733 282.711 282.697 282.689 282.685 282.685 282.686 282.689 282.69 282.69
282.687 282.679 282.667 282.65 282.624 282.496 282.417 282.449 282.48 
alphat 1 1600 float
0 0 0 0 0 0 0 0 0 0 0
0 0 0 0 0 0 0 0 0 0
0 0 0 0 0 0 0 0 0 0
0 0 0 0 0 0 0 0 0 0
0 0 0 0 0 0 0 0 0 0
0 0 0 0 0 0 0 0 0 0
0 0 0 0 0 0 0 0 0 0
0 0 0 0 0 0 0 0 0 0
0 0 0 0 0 0 0 0 0 0
0 0 0 0 0 0 0 0 0 0
0 0 0 0 0 0 0 0 0 0
0 0 0 0 0 0 0 0 0 0
0 0 0 0 0 0 0 0 0 0
0 0 0 0 0 0 0 0 0 0
0 0 0 0 0 0 0 0 0 0
0 0 0 0 0 0 0 0 0 0
0 0 0 0 0 0 0 0 0 0
0 0 0 0 0 0 0 0 0 0
0 0 0 0 0 0 0 0 0 0