# vtk DataFile Version 2.0
RBConvection
ASCII
DATASET UNSTRUCTURED_GRID
POINTS 3362 float
0 0 0 0.025 0 0 0.05 0 0 0.075 0
0 0.1 0 0 0.125 0 0 0.15 0 0
0.175 0 0 0.2 0 0 0.225 0 0 0.25
0 0 0.275 0 0 0.3 0 0 0.325 0
0 0.35 0 0 0.375 0 0 0.4 0 0
0.425 0 0 0.45 0 0 0.475 0 0 0.5
0 0 0.525 0 0 0.55 0 0 0.575 0
0 0.6 0 0 0.625 0 0 0.65 0 0
0.675 0 0 0.7 0 0 0.725 0 0 0.75
0 0 0.775 0 0 0.8 0 0 0.825 0
0 0.85 0 0 0.875 0 0 0.9 0 0
0.925 0 0 0.95 0 0 0.975 0 0 1
0 0 0 0.01 0 0.025 0.01 0 0.05 0.01
0 0.075 0.01 0 0.1 0.01 0 0.125 0.01 0
0.15 0.01 0 0.175 0.01 0 0.2 0.01 0 0.225
0.01 0 0.25 0.01 0 0.275 0.01 0 0.3 0.01
0 0.325 0.01 0 0.35 0.01 0 0.375 0.01 0
0.4 0.01 0 0.425 0.01 0 0.45 0.01 0 0.475
0.01 0 0.5 0.01 0 0.525 0.01 0 0.55 0.01
0 0.575 0.01 0 0.6 0.01 0 0.625 0.01 0
0.65 0.01 0 0.675 0.01 0 0.7 0.01 0 0.725
0.01 0 0.75 0.01 0 0.775 0.01 0 0.8 0.01
0 0.825 0.01 0 0.85 0.01 0 0.875 0.01 0
0.9 0.01 0 0.925 0.01 0 0.95 0.01 0 0.975
0.01 0 1 0.01 0 0 0.02 0 0.025 0.02
0 0.05 0.02 0 0.075 0.02 0 0.1 0.02 0
0.125 0.02 0 0.15 0.02 0 0.175 0.02 0 0.2
0.02 0 0.225 0.02 0 0.25 0.02 0 0.275 0.02
0 0.3 0.02 0 0.325 0.02 0 0.35 0.02 0
0.375 0.02 0 0.4 0.02 0 0.425 0.02 0 0.45
0.02 0 0.475 0.02 0 0.5 0.02 0 0.525 0.02
0 0.55 0.02 0 0.575 0.02 0 0.6 0.02 0
0.625 0.02 0 0.65 0.02 0 0.675 0.02 0 0.7
0.02 0 0.725 0.02 0 0.75 0.02 0 0.775 0.02
0 0.8 0.02 0 0.825 0.02 0 0.85 0.02 0
0.875 0.02 0 0.9 0.02 0 0.925 0.02 0 0.95
0.02 0 0.975 0.02 0 1 0.02 0 0 0.03
0 0.025 0.03 0 0.05 0.03 0 0.075 0.03 0
0.1 0.03 0 0.125 0.03 0 0.15 0.03 0 0.175
0.03 0 0.2 0.03 0 0.225 0.03 0 0.25 0.03
0 0.275 0.03 0 0.3 0.03 0 0.325 0.03 0
0.35 0.03 0 0.375 0.03 0 0.4 0.03 0 0.425
0.03 0 0.45 0.03 0 0.475 0.03 0 0.5 0.03
0 0.525 0.03 0 0.55 0.03 0 0.575 0.03 0
0.6 0.03 0 0.625 0.03 0 0.65 0.03 0 0.675
0.03 0 0.7 0.03 0 0.725 0.03 0 0.75 0.03
0 0.775 0.03 0 0.8 0.03 0 0.825 0.03 0
0.85 0.03 0 0.875 0.03 0 0.9 0.03 0 0.925
0.03 0 0.95 0.03 0 0.975 0.03 0 1 0.03
0 0 0.04 0 0.025 0.04 0 0.05 0.04 0
0.075 0.04 0 0.1 0.04 0 0.125 0.04 0 0.15
0.04 0 0.175 0.04 0 0.2 0.04 0 0.225 0.04
0 0.25 0.04 0 0.275 0.04 0 0.3 0.04 0
0.325 0.04 0 0.35 0.04 0 0.375 0.04 0 0.4
0.04 0 0.425 0.04 0 0.45 0.04 0 0.475 0.04
0 0.5 0.04 0 0.525 0.04 0 0.55 0.04 0
0.575 0.04 0 0.6 0.04 0 0.625 0.04 0 0.65
0.04 0 0.675 0.04 0 0.7 0.04 0 0.725 0.04
0 0.75 0.04 0 0.775 0.04 0 0.8 0.04 0
0.825 0.04 0 0.85 0.04 0 0.875 0.04 0 0.9
0.04 0 0.925 0.04 0 0.95 0.04 0 0.975 0.04
0 1 0.04 0 0 0.05 0 0.025 0.05 0
0.05 0.05 0 0.075 0.05 0 0.1 0.05 0 0.125
0.05 0 0.15 0.05 0 0.175 0.05 0 0.2 0.05
0 0.225 0.05 0 0.25 0.05 0 0.275 0.05 0
0.3 0.05 0 0.325 0.05 0 0.35 0.05 0 0.375
0.05 0 0.4 0.05 0 0.425 0.05 0 0.45 0.05
0 0.475 0.05 0 0.5 0.05 0 0.525 0.05 0
0.55 0.05 0 0.575 0.05 0 0.6 0.05 0 0.625
0.05 0 0.65 0.05 0 0.675 0.05 0 0.7 0.05
0 0.725 0.05 0 0.75 0.05 0 0.775 0.05 0
0.8 0.05 0 0.825 0.05 0 0.85 0.05 0 0.875
0.05 0 0.9 0.05 0 0.925 0.05 0 0.95 0.05
0 0.975 0.05 0 1 0.05 0 0 0.06 0
0.025 0.06 0 0.05 0.06 0 0.075 0.06 0 0.1
0.06 0 0.125 0.06 0 0.15 0.06 0 0.175 0.06
0 0.2 0.06 0 0.225 0.06 0 0.25 0.06 0
0.275 0.06 0 0.3 0.06 0 0.325 0.06 0 0.35
0.06 0 0.375 0.06 0 0.4 0.06 0 0.425 0.06
0 0.45 0.06 0 0.475 0.06 0 0.5 0.06 0
0.525 0.06 0 0.55 0.06 0 0.575 0.06 0 0.6
0.06 0 0.625 0.06 0 0.65 0.06 0 0.675 0.06
0 0.7 0.06 0 0.725 0.06 0 0.75 0.06 0
0.775 0.06 0 0.8 0.06 0 0.825 0.06 0 0.85
0.06 0 0.875 0.06 0 0.9 0.06 0 0.925 0.06
0 0.95 0.06 0 0.975 0.06 0 1 0.06 0
0 0.07 0 0.025 0.07 0 0.05 0.07 0 0.075
0.07 0 0.1 0.07 0 0.125 0.07 0 0.15 0.07
0 0.175 0.07 0 0.2 0.07 0 0.225 0.07 0
0.25 0.07 0 0.275 0.07 0 0.3 0.07 0 0.325
0.07 0 0.35 0.07 0 0.375 0.07 0 0.4 0.07
0 0.425 0.07 0 0.45 0.07 0 0.475 0.07 0
0.5 0.07 0 0.525 0.07 0 0.55 0.07 0 0.575
0.07 0 0.6 0.07 0 0.625 0.07 0 0.65 0.07
0 0.675 0.07 0 0.7 0.07 0 0.725 0.07 0
0.75 0.07 0 0.775 0.07 0 0.8 0.07 0 0.825
0.07 0 0.85 0.07 0 0.875 0.07 0 0.9 0.07
0 0.925 0.07 0 0.95 0.07 0 0.975 0.07 0
1 0.07 0 0 0.08 0 0.025 0.08 0 0.05
0.08 0 0.075 0.08 0 0.1 0.08 0 0.125 0.08
0 0.15 0.08 0 0.175 0.08 0 0.2 0.08 0
0.225 0.08 0 0.25 0.08 0 0.275 0.08 0 0.3
0.08 0 0.325 0.08 0 0.35 0.08 0 0.375 0.08
0 0.4 0.08 0 0.425 0.08 0 0.45 0.08 0
0.475 0.08 0 0.5 0.08 0 0.525 0.08 0 0.55
0.08 0 0.575 0.08 0 0.6 0.08 0 0.625 0.08
0 0.65 0.08 0 0.675 0.08 0 0.7 0.08 0
0.725 0.08 0 0.75 0.08 0 0.775 0.08 0 0.8
0.08 0 0.825 0.08 0 0.85 0.08 0 0.875 0.08
0 0.9 0.08 0 0.925 0.08 0 0.95 0.08 0
0.975 0.08 0 1 0.08 0 0 0.09 0 0.025
0.09 0 0.05 0.09 0 0.075 0.09 0 0.1 0.09
0 0.125 0.09 0 0.15 0.09 0 0.175 0.09 0
0.2 0.09 0 0.225 0.09 0 0.25 0.09 0 0.275
0.09 0 0.3 0.09 0 0.325 0.09 0 0.35 0.09
0 0.375 0.09 0 0.4 0.09 0 0.425 0.09 0
0.45 0.09 0 0.475 0.09 0 0.5 0.09 0 0.525
0.09 0 0.55 0.09 0 0.575 0.09 0 0.6 0.09
0 0.625 0.09 0 0.65 0.09 0 0.675 0.09 0
0.7 0.09 0 0.725 0.09 0 0.75 0.09 0 0.775
0.09 0 0.8 0.09 0 0.825 0.09 0 0.85 0.09
0 0.875 0.09 0 0.9 0.09 0 0.925 0.09 0
0.95 0.09 0 0.975 0.09 0 1 0.09 0 0
0.1 0 0.025 0.1 0 0.05 0.1 0 0.075 0.1
0 0.1 0.1 0 0.125 0.1 0 0.15 0.1 0
0.175 0.1 0 0.2 0.1 0 0.225 0.1 0 0.25
0.1 0 0.275 0.1 0 0.3 0.1 0 0.325 0.1
0 0.35 0.1 0 0.375 0.1 0 0.4 0.1 0
0.425 0.1 0 0.45 0.1 0 0.475 0.1 0 0.5
0.1 0 0.525 0.1 0 0.55 0.1 0 0.575 0.1
0 0.6 0.1 0 0.625 0.1 0 0.65 0.1 0
0.675 0.1 0 0.7 0.1 0 0.725 0.1 0 0.75
0.1 0 0.775 0.1 0 0.8 0.1 0 0.825 0.1
0 0.85 0.1 0 0.875 0.1 0 0.9 0.1 0
0.925 0.1 0 0.95 0.1 0 0.975 0.1 0 1
0.1 0 0 0.11 0 0.025 0.11 0 0.05 0.11
0 0.075 0.11 0 0.1 0.11 0 0.125 0.11 0
0.15 0.11 0 0.175 0.11 0 0.2 0.11 0 0.225
0.11 0 0.25 0.11 0 0.275 0.11 0 0.3 0.11
0 0.325 0.11 0 0.35 0.11 0 0.375 0.11 0
0.4 0.11 0 0.425 0.11 0 0.45 0.11 0 0.475
0.11 0 0.5 0.11 0 0.525 0.11 0 0.55 0.11
0 0.575 0.11 0 0.6 0.11 0 0.625 0.11 0
0.65 0.11 0 0.675 0.11 0 0.7 0.11 0 0.725
0.11 0 0.75 0.11 0 0.775 0.11 0 0.8 0.11
0 0.825 0.11 0 0.85 0.11 0 0.875 0.11 0
0.9 0.11 0 0.925 0.11 0 0.95 0.11 0 0.975
0.11 0 1 0.11 0 0 0.12 0 0.025 0.12
0 0.05 0.12 0 0.075 0.12 0 0.1 0.12 0
0.125 0.12 0 0.15 0.12 0 0.175 0.12 0 0.2
0.12 0 0.225 0.12 0 0.25 0.12 0 0.275 0.12
0 0.3 0.12 0 0.325 0.12 0 0.35 0.12 0
0.375 0.12 0 0.4 0.12 0 0.425 0.12 0 0.45
0.12 0 0.475 0.12 0 0.5 0.12 0 0.525 0.12
0 0.55 0.12 0 0.575 0.12 0 0.6 0.12 0
0.625 0.12 0 0.65 0.12 0 0.675 0.12 0 0.7
0.12 0 0.725 0.12 0 0.75 0.12 0 0.775 0.12
0 0.8 0.12 0 0.825 0.12 0 0.85 0.12 0
0.875 0.12 0 0.9 0.12 0 0.925 0.12 0 0.95
0.12 0 0.975 0.12 0 1 0.12 0 0 0.13
0 0.025 0.13 0 0.05 0.13 0 0.075 0.13 0
0.1 0.13 0 0.125 0.13 0 0.15 0.13 0 0.175
0.13 0 0.2 0.13 0 0.225 0.13 0 0.25 0.13
0 0.275 0.13 0 0.3 0.13 0 0.325 0.13 0
0.35 0.13 0 0.375 0.13 0 0.4 0.13 0 0.425
0.13 0 0.45 0.13 0 0.475 0.13 0 0.5 0.13
0 0.525 0.13 0 0.55 0.13 0 0.575 0.13 0
0.6 0.13 0 0.625 0.13 0 0.65 0.13 0 0.675
0.13 0 0.7 0.13 0 0.725 0.13 0 0.75 0.13
0 0.775 0.13 0 0.8 0.13 0 0.825 0.13 0
0.85 0.13 0 0.875 0.13 0 0.9 0.13 0 0.925
0.13 0 0.95 0.13 0 0.975 0.13 0 1 0.13
0 0 0.14 0 0.025 0.14 0 0.05 0.14 0
0.075 0.14 0 0.1 0.14 0 0.125 0.14 0 0.15
0.14 0 0.175 0.14 0 0.2 0.14 0 0.225 0.14
0 0.25 0.14 0 0.275 0.14 0 0.3 0.14 0
0.325 0.14 0 0.35 0.14 0 0.375 0.14 0 0.4
0.14 0 0.425 0.14 0 0.45 0.14 0 0.475 0.14
0 0.5 0.14 0 0.525 0.14 0 0.55 0.14 0
0.575 0.14 0 0.6 0.14 0 0.625 0.14 0 0.65
0.14 0 0.675 0.14 0 0.7 0.14 0 0.725 0.14
0 0.75 0.14 0 0.775 0.14 0 0.8 0.14 0
0.825 0.14 0 0.85 0.14 0 0.875 0.14 0 0.9
0.14 0 0.925 0.14 0 0.95 0.14 0 0.975 0.14
0 1 0.14 0 0 0.15 0 0.025 0.15 0
0.05 0.15 0 0.075 0.15 0 0.1 0.15 0 0.125
0.15 0 0.15 0.15 0 0.175 0.15 0 0.2 0.15
0 0.225 0.15 0 0.25 0.15 0 0.275 0.15 0
0.3 0.15 0 0.325 0.15 0 0.35 0.15 0 0.375
0.15 0 0.4 0.15 0 0.425 0.15 0 0.45 0.15
0 0.475 0.15 0 0.5 0.15 0 0.525 0.15 0
0.55 0.15 0 0.575 0.15 0 0.6 0.15 0 0.625
0.15 0 0.65 0.15 0 0.675 0.15 0 0.7 0.15
0 0.725 0.15 0 0.75 0.15 0 0.775 0.15 0
0.8 0.15 0 0.825 0.15 0 0.85 0.15 0 0.875
0.15 0 0.9 0.15 0 0.925 0.15 0 0.95 0.15
0 0.975 0.15 0 1 0.15 0 0 0.16 0
0.025 0.16 0 0.05 0.16 0 0.075 0.16 0 0.1
0.16 0 0.125 0.16 0 0.15 0.16 0 0.175 0.16
0 0.2 0.16 0 0.225 0.16 0 0.25 0.16 0
0.275 0.16 0 0.3 0.16 0 0.325 0.16 0 0.35
0.16 0 0.375 0.16 0 0.4 0.16 0 0.425 0.16
0 0.45 0.16 0 0.475 0.16 0 0.5 0.16 0
0.525 0.16 0 0.55 0.16 0 0.575 0.16 0 0.6
0.16 0 0.625 0.16 0 0.65 0.16 0 0.675 0.16
0 0.7 0.16 0 0.725 0.16 0 0.75 0.16 0
0.775 0.16 0 0.8 0.16 0 0.825 0.16 0 0.85
0.16 0 0.875 0.16 0 0.9 0.16 0 0.925 0.16
0 0.95 0.16 0 0.975 0.16 0 1 0.16 0
0 0.17 0 0.025 0.17 0 0.05 0.17 0 0.075
0.17 0 0.1 0.17 0 0.125 0.17 0 0.15 0.17
0 0.175 0.17 0 0.2 0.17 0 0.225 0.17 0
0.25 0.17 0 0.275 0.17 0 0.3 0.17 0 0.325
0.17 0 0.35 0.17 0 0.375 0.17 0 0.4 0.17
0 0.425 0.17 0 0.45 0.17 0 0.475 0.17 0
0.5 0.17 0 0.525 0.17 0 0.55 0.17 0 0.575
0.17 0 0.6 0.17 0 0.625 0.17 0 0.65 0.17
0 0.675 0.17 0 0.7 0.17 0 0.725 0.17 0
0.75 0.17 0 0.775 0.17 0 0.8 0.17 0 0.825
0.17 0 0.85 0.17 0 0.875 0.17 0 0.9 0.17
0 0.925 0.17 0 0.95 0.17 0 0.975 0.17 0
1 0.17 0 0 0.18 0 0.025 0.18 0 0.05
0.18 0 0.075 0.18 0 0.1 0.18 0 0.125 0.18
0 0.15 0.18 0 0.175 0.18 0 0.2 0.18 0
0.225 0.18 0 0.25 0.18 0 0.275 0.18 0 0.3
0.18 0 0.325 0.18 0 0.35 0.18 0 0.375 0.18
0 0.4 0.18 0 0.425 0.18 0 0.45 0.18 0
0.475 0.18 0 0.5 0.18 0 0.525 0.18 0 0.55
0.18 0 0.575 0.18 0 0.6 0.18 0 0.625 0.18
0 0.65 0.18 0 0.675 0.18 0 0.7 0.18 0
0.725 0.18 0 0.75 0.18 0 0.775 0.18 0 0.8
0.18 0 0.825 0.18 0 0.85 0.18 0 0.875 0.18
0 0.9 0.18 0 0.925 0.18 0 0.95 0.18 0
0.975 0.18 0 1 0.18 0 0 0.19 0 0.025
0.19 0 0.05 0.19 0 0.075 0.19 0 0.1 0.19
0 0.125 0.19 0 0.15 0.19 0 0.175 0.19 0
0.2 0.19 0 0.225 0.19 0 0.25 0.19 0 0.275
0.19 0 0.3 0.19 0 0.325 0.19 0 0.35 0.19
0 0.375 0.19 0 0.4 0.19 0 0.425 0.19 0
0.45 0.19 0 0.475 0.19 0 0.5 0.19 0 0.525
0.19 0 0.55 0.19 0 0.575 0.19 0 0.6 0.19
0 0.625 0.19 0 0.65 0.19 0 0.675 0.19 0
0.7 0.19 0 0.725 0.19 0 0.75 0.19 0 0.775
0.19 0 0.8 0.19 0 0.825 0.19 0 0.85 0.19
0 0.875 0.19 0 0.9 0.19 0 0.925 0.19 0
0.95 0.19 0 0.975 0.19 0 1 0.19 0 0
0.2 0 0.025 0.2 0 0.05 0.2 0 0.075 0.2
0 0.1 0.2 0 0.125 0.2 0 0.15 0.2 0
0.175 0.2 0 0.2 0.2 0 0.225 0.2 0 0.25
[...]
CELL_DATA 1600
FIELD attributes 6
cellID 1 1600 int
0 1 2 3 4 5 6 7 8 9 10
11 12 13 14 15 16 17 18 19 20
21 22 23 24 25 26 27 28 29 30
31 32 33 34 35 36 37 38 39 40
41 42 43 44 45 46 47 48 49 50
51 52 53 54 55 56 57 58 59 60
61 62 63 64 65 66 67 68 69 70
71 72 73 74 75 76 77 78 79 80
81 82 83 84 85 86 87 88 89 90
91 92 93 94 95 96 97 98 99 100
101 102 103 104 105 106 107 108 109 110
111 112 113 114 115 116 117 118 119 120
121 122 123 124 125 126 127 128 129 130
131 132 133 134 135 136 137 138 139 140
141 142 143 144 145 146 147 148 149 150
151 152 153 154 155 156 157 158 159 160
161 162 163 164 165 166 167 168 169 170
171 172 173 174 175 176 177 178 179 180
181 182 183 184 185 186 187 188 189 190
191 192 193 194 195 196 197 198 199 200
201 202 203 204 205 206 207 208 209 210
211 212 213 214 215 216 217 218 219 220
221 222 223 224 225 226 227 228 229 230
231 232 233 234 235 236 237 238 239 240
241 242 243 244 245 246 247 248 249 250
251 252 253 254 255 256 257 258 259 260
261 262 263 264 265 266 267 268 269 270
271 272 273 274 275 276 277 278 279 280
281 282 283 284 285 286 287 288 289 290
291 292 293 294 295 296 297 298 299 300
301 302 303 304 305 306 307 308 309 310
311 312 313 314 315 316 317 318 319 320
321 322 323 324 325 326 327 328 329 330
331 332 333 334 335 336 337 338 339 340
341 342 343 344 345 346 347 348 349 350
351 352 353 354 355 356 357 358 359 360
361 362 363 364 365 366 367 368 369 370
371 372 373 374 375 376 377 378 379 380
381 382 383 384 385 386 387 388 389 390
391 392 393 394 395 396 397 398 399 400
401 402 403 404 405 406 407 408 409 410
411 412 413 414 415 416 417 418 419 420
421 422 423 424 425 426 427 428 429 430
431 432 433 434 435 436 437 438 439 440
441 442 443 444 445 446 447 448 449 450
451 452 453 454 455 456 457 458 459 460
461 462 463 464 465 466 467 468 469 470
471 472 473 474 475 476 477 478 479 480
481 482 483 484 485 486 487 488 489 490
491 492 493 494 495 496 497 498 499 500
501 502 503 504 505 506 507 508 509 510
511 512 513 514 515 516 517 518 519 520
521 522 523 524 525 526 527 528 529 530
531 532 533 534 535 536 537 538 539 540
541 542 543 544 545 546 547 548 549 550
551 552 553 554 555 556 557 558 559 560
561 562 563 564 565 566 567 568 569 570
571 572 573 574 575 576 577 578 579 580
581 582 583 584 585 586 587 588 589 590
591 592 593 594 595 596 597 598 599 600
601 602 603 604 605 606 607 608 609 610
611 612 613 614 615 616 617 618 619 620
621 622 623 624 625 626 627 628 629 630
631 632 633 634 635 636 637 638 639 640
641 642 643 644 645 646 647 648 649 650
651 652 653 654 655 656 657 658 659 660
661 662 663 664 665 666 667 668 669 670
671 672 673 674 675 676 677 678 679 680
681 682 683 684 685 686 687 688 689 690
691 692 693 694 695 696 697 698 699 700
701 702 703 704 705 706 707 708 709 710
711 712 713 714 715 716 717 718 719 720
721 722 723 724 725 726 727 728 729 730
731 732 733 734 735 736 737 738 739 740
741 742 743 744 745 746 747 748 749 750
751 752 753 754 755 756 757 758 759 760
761 762 763 764 765 766 767 768 769 770
771 772 773 774 775 776 777 778 779 780
781 782 783 784 785 786 787 788 789 790
791 792 793 794 795 796 797 798 799 800
801 802 803 804 805 806 807 808 809 810
811 812 813 814 815 816 817 818 819 820
821 822 823 824 825 826 827 828 829 830
831 832 833 834 835 836 837 838 839 840
841 842 843 844 845 846 847 848 849 850
851 852 853 854 855 856 857 858 859 860
861 862 863 864 865 866 867 868 869 870
871 872 873 874 875 876 877 878 879 880
881 882 883 884 885 886 887 888 889 890
891 892 893 894 895 896 897 898 899 900
901 902 903 904 905 906 907 908 909 910
911 912 913 914 915 916 917 918 919 920
921 922 923 924 925 926 927 928 929 930
931 932 933 934 935 936 937 938 939 940
941 942 943 944 945 946 947 948 949 950
951 952 953 954 955 956 957 958 959 960
961 962 963 964 965 966 967 968 969 970
971 972 973 974 975 976 977 978 979 980
981 982 983 984 985 986 987 988 989 990
991 992 993 994 995 996 997 998 999 1000
1001 1002 1003 1004 1005 1006 1007 1008 1009 1010
1011 1012 1013 1014 1015 1016 1017 1018 1019 1020
1021 1022 1023 1024 1025 1026 1027 1028 1029 1030
1031 1032 1033 1034 1035 1036 1037 1038 1039 1040
1041 1042 1043 1044 1045 1046 1047 1048 1049 1050
1051 1052 1053 1054 1055 1056 1057 1058 1059 1060
1061 1062 1063 1064 1065 1066 1067 1068 1069 1070
1071 1072 1073 1074 1075 1076 1077 1078 1079 1080
1081 1082 1083 1084 1085 1086 1087 1088 1089 1090
1091 1092 1093 1094 1095 1096 1097 1098 1099 1100
1101 1102 1103 1104 1105 1106 1107 1108 1109 1110
1111 1112 1113 1114 1115 1116 1117 1118 1119 1120
1121 1122 1123 1124 1125 1126 1127 1128 1129 1130
1131 1132 1133 1134 1135 1136 1137 1138 1139 1140
1141 1142 1143 1144 1145 1146 1147 1148 1149 1150
1151 1152 1153 1154 1155 1156 1157 1158 1159 1160
1161 1162 1163 1164 1165 1166 1167 1168 1169 1170
1171 1172 1173 1174 1175 1176 1177 1178 1179 1180
1181 1182 1183 1184 1185 1186 1187 1188 1189 1190
1191 1192 1193 1194 1195 1196 1197 1198 1199 1200
1201 1202 1203 1204 1205 1206 1207 1208 1209 1210
1211 1212 1213 1214 1215 1216 1217 1218 1219 1220
1221 1222 1223 1224 1225 1226 1227 1228 1229 1230
1231 1232 1233 1234 1235 1236 1237 1238 1239 1240
1241 1242 1243 1244 1245 1246 1247 1248 1249 1250
1251 1252 1253 1254 1255 1256 1257 1258 1259 1260
1261 1262 1263 1264 1265 1266 1267 1268 1269 1270
1271 1272 1273 1274 1275 1276 1277 1278 1279 1280
1281 1282 1283 1284 1285 1286 1287 1288 1289 1290
1291 1292 1293 1294 1295 1296 1297 1298 1299 1300
1301 1302 1303 1304 1305 1306 1307 1308 1309 1310
1311 1312 1313 1314 1315 1316 1317 1318 1319 1320
1321 1322 1323 1324 1325 1326 1327 1328 1329 1330
1331 1332 1333 1334 1335 1336 1337 1338 1339 1340
1341 1342 1343 1344 1345 1346 1347 1348 1349 1350
1351 1352 1353 1354 1355 1356 1357 1358 1359 1360
1361 1362 1363 1364 1365 1366 1367 1368 1369 1370
1371 1372 1373 1374 1375 1376 1377 1378 1379 1380
1381 1382 1383 1384 1385 1386 1387 1388 1389 1390
1391 1392 1393 1394 1395 1396 1397 1398 1399 1400
1401 1402 1403 1404 1405 1406 1407 1408 1409 1410
1411 1412 1413 1414 1415 1416 1417 1418 1419 1420
1421 1422 1423 1424 1425 1426 1427 1428 1429 1430
1431 1432 1433 1434 1435 1436 1437 1438 1439 1440
1441 1442 1443 1444 1445 1446 1447 1448 1449 1450
1451 1452 1453 1454 1455 1456 1457 1458 1459 1460
1461 1462 1463 1464 1465 1466 1467 1468 1469 1470
1471 1472 1473 1474 1475 1476 1477 1478 1479 1480
1481 1482 1483 1484 1485 1486 1487 1488 1489 1490
1491 1492 1493 1494 1495 1496 1497 1498 1499 1500
1501 1502 1503 1504 1505 1506 1507 1508 1509 1510
1511 1512 1513 1514 1515 1516 1517 1518 1519 1520
1521 1522 1523 1524 1525 1526 1527 1528 1529 1530
1531 1532 1533 1534 1535 1536 1537 1538 1539 1540
1541 1542 1543 1544 1545 1546 1547 1548 1549 1550
1551 1552 1553 1554 1555 1556 1557 1558 1559 1560
1561 1562 1563 1564 1565 1566 1567 1568 1569 1570
1571 1572 1573 1574 1575 1576 1577 1578 1579 1580
1581 1582 1583 1584 1585 1586 1587 1588 1589 1590
1591 1592 1593 1594 1595 1596 1597 1598 1599 
T 1 1600 float
286.097 286.221 286.34 286.457 286.576 286.703 286.84 286.991 287.15 287.311 287.477
287.649 287.831 288.029 288.245 288.492 288.811 289.303 289.019 287.93 287.882
288.157 288.509 288.807 289.404 290.095 289.772 289.45 289.16 288.946 288.754
288.592 288.451 288.314 288.162 287.981 287.765 287.512 287.219 286.894 285.733
285.74 285.741 285.74 285.739 285.737 285.735 285.733 285.741 285.771 285.822
285.896 285.992 286.108 286.249 286.492 287.122 288.114 287.66 286.508 286.172
286.076 286.08 286.462 288.349 288.405 286.98 286.237 286.134 286.105 286.085
286.068 286.054 286.04 286.025 286.009 285.993 285.975 285.957 285.937 285.75
285.772 285.78 285.783 285.782 285.78 285.776 285.772 285.766 285.762 285.761
285.769 285.789 285.826 285.891 286.052 286.579 287.492 287.295 286.615 286.27
286.133 286.079 286.242 287.944 287.694 286.464 286.058 286.015 286.006 286.001
285.998 285.995 285.991 285.986 285.978 285.968 285.956 285.942 285.924 285.764
285.803 285.82 285.827 285.828 285.826 285.823 285.818 285.811 285.803 285.795
285.788 285.786 285.792 285.818 285.923 286.352 287.126 287.084 286.624 286.327
286.19 286.121 286.328 287.673 287.302 286.29 286.024 285.996 285.989 285.986
285.984 285.983 285.982 285.979 285.973 285.964 285.952 285.938 285.919 285.775
285.833 285.857 285.868 285.871 285.869 285.866 285.86 285.852 285.843 285.833
285.821 285.811 285.804 285.811 285.885 286.247 286.902 286.929 286.583 286.345
286.233 286.163 286.456 287.474 287.049 286.204 286.002 285.977 285.968 285.964
285.962 285.963 285.965 285.965 285.963 285.957 285.948 285.935 285.917 285.784
285.859 285.891 285.904 285.908 285.907 285.903 285.897 285.889 285.879 285.866
285.852 285.838 285.824 285.82 285.877 286.199 286.765 286.808 286.525 286.344
286.267 286.208 286.586 287.316 286.868 286.15 285.981 285.954 285.943 285.937
285.935 285.938 285.943 285.948 285.95 285.948 285.942 285.932 285.917 285.792
285.884 285.922 285.936 285.94 285.939 285.935 285.928 285.92 285.909 285.895
285.88 285.862 285.843 285.833 285.881 286.183 286.683 286.709 286.463 286.339
286.32 286.303 286.684 287.184 286.729 286.109 285.96 285.932 285.918 285.91
285.909 285.913 285.92 285.929 285.936 285.939 285.937 285.932 285.917 285.8
285.906 285.948 285.963 285.967 285.965 285.96 285.953 285.944 285.933 285.919
285.902 285.882 285.86 285.845 285.891 286.185 286.637 286.623 286.405 286.343
286.389 286.417 286.75 287.07 286.617 286.076 285.94 285.91 285.895 285.886
285.884 285.889 285.898 285.911 285.922 285.93 285.934 285.932 285.918 285.806
285.926 285.97 285.985 285.987 285.984 285.978 285.971 285.962 285.952 285.938
285.92 285.898 285.873 285.855 285.904 286.202 286.614 286.541 286.355 286.401
286.478 286.522 286.789 286.968 286.524 286.048 285.923 285.892 285.875 285.865
285.863 285.867 285.878 285.894 285.91 285.923 285.931 285.933 285.92 285.812
285.943 285.989 286.003 286.003 285.997 285.99 285.982 285.974 285.964 285.951
285.932 285.909 285.883 285.863 285.918 286.229 286.604 286.454 286.326 286.479
286.559 286.609 286.806 286.876 286.447 286.025 285.909 285.877 285.859 285.847
285.844 285.848 285.859 285.877 285.898 285.916 285.929 285.935 285.922 285.818
285.958 286.005 286.016 286.014 286.006 285.996 285.987 285.979 285.971 285.959
285.941 285.917 285.889 285.869 285.934 286.267 286.595 286.363 286.354 286.558
286.624 286.673 286.807 286.794 286.382 286.006 285.899 285.866 285.846 285.833
285.828 285.831 285.842 285.861 285.886 285.909 285.928 285.938 285.925 285.823
285.971 286.018 286.027 286.021 286.01 285.998 285.987 285.979 285.972 285.962
285.945 285.921 285.892 285.874 285.953 286.317 286.574 286.283 286.412 286.608
286.673 286.717 286.796 286.721 286.328 285.991 285.891 285.859 285.838 285.823
285.816 285.816 285.825 285.845 285.874 285.903 285.927 285.941 285.927 285.828
285.982 286.029 286.035 286.026 286.011 285.995 285.981 285.973 285.968 285.961
285.946 285.923 285.893 285.877 285.975 286.38 286.522 286.251 286.462 286.638
286.707 286.743 286.775 286.657 286.285 285.981 285.888 285.856 285.834 285.818
285.808 285.805 285.811 285.83 285.862 285.897 285.926 285.944 285.93 285.833
285.991 286.037 286.042 286.029 286.01 285.989 285.971 285.962 285.96 285.956
285.944 285.922 285.891 285.879 286.018 286.435 286.444 286.273 286.491 286.655
286.727 286.754 286.749 286.601 286.25 285.973 285.888 285.857 285.834 285.818
285.805 285.798 285.798 285.815 285.849 285.889 285.925 285.947 285.932 285.838
285.999 286.045 286.047 286.031 286.007 285.98 285.958 285.948 285.948 285.948
285.94 285.919 285.888 285.882 286.088 286.463 286.365 286.302 286.505 286.659
286.734 286.752 286.719 286.553 286.223 285.969 285.89 285.862 285.84 285.823
285.808 285.795 285.788 285.801 285.836 285.882 285.923 285.95 285.934 285.842
286.005 286.051 286.051 286.032 286.003 285.971 285.942 285.93 285.933 285.938
285.934 285.914 285.884 285.897 286.164 286.47 286.303 286.322 286.506 286.652
286.728 286.74 286.689 286.512 286.202 285.966 285.895 285.87 285.85 285.833
285.816 285.797 285.781 285.787 285.824 285.874 285.921 285.952 285.936 285.846
286.01 286.056 286.055 286.033 285.998 285.96 285.925 285.909 285.916 285.927
285.927 285.908 285.879 285.936 286.228 286.46 286.263 286.33 286.495 286.633
286.711 286.72 286.657 286.477 286.185 285.964 285.899 285.88 285.862 285.847
285.83 285.805 285.778 285.776 285.811 285.866 285.918 285.954 285.939 285.85
286.015 286.061 286.059 286.033 285.994 285.95 285.908 285.887 285.899 285.916
285.919 285.902 285.877 285.99 286.277 286.44 286.238 286.327 286.473 286.604
286.683 286.692 286.625 286.448 286.171 285.96 285.901 285.887 285.875 285.862
285.846 285.817 285.779 285.767 285.8 285.858 285.915 285.956 285.94 285.854
286.018 286.065 286.062 286.034 285.991 285.941 285.892 285.862 285.881 285.905
285.912 285.895 285.886 286.047 286.312 286.413 286.222 286.314 286.441 286.563
286.645 286.659 286.592 286.422 286.16 285.955 285.899 285.89 285.884 285.875
285.861 285.83 285.782 285.76 285.79 285.851 285.913 285.957 285.942 285.857
286.022 286.068 286.066 286.036 285.989 285.933 285.879 285.839 285.864 285.896
285.904 285.888 285.909 286.099 286.334 286.382 286.209 286.293 286.402 286.514
286.597 286.618 286.559 286.399 286.151 285.949 285.891 285.885 285.884 285.88
285.869 285.84 285.786 285.756 285.782 285.844 285.91 285.958 285.944 285.859
286.025 286.072 286.069 286.039 285.988 285.928 285.869 285.822 285.853 285.889
285.897 285.885 285.941 286.144 286.345 286.348 286.195 286.267 286.357 286.457
286.541 286.572 286.524 286.377 286.14 285.959 285.889 285.874 285.875 285.873
285.865 285.843 285.79 285.755 285.777 285.839 285.908 285.959 285.946 285.861
286.028 286.076 286.073 286.041 285.99 285.927 285.864 285.82 285.85 285.884
285.89 285.89 285.977 286.181 286.346 286.315 286.18 286.237 286.308 286.394
286.477 286.519 286.488 286.349 286.139 285.981 285.899 285.867 285.861 285.859
285.853 285.835 285.792 285.757 285.775 285.836 285.906 285.959 285.947 285.863
286.03 286.08 286.078 286.046 285.993 285.928 285.865 285.83 285.848 285.877
285.884 285.902 286.014 286.211 286.34 286.283 286.164 286.207 286.26 286.33
286.406 286.459 286.446 286.324 286.146 286.01 285.925 285.876 285.854 285.847
285.84 285.824 285.79 285.761 285.777 285.836 285.905 285.96 285.949 285.863
286.032 286.083 286.083 286.052 285.999 285.933 285.87 285.834 285.845 285.871
285.882 285.921 286.05 286.233 286.33 286.253 286.148 286.179 286.217 286.269
286.333 286.391 286.398 286.299 286.156 286.042 285.962 285.906 285.867 285.845
285.833 285.816 285.789 285.768 285.783 285.838 285.906 285.96 285.95 285.863
286.034 286.087 286.09 286.06 286.008 285.943 285.879 285.839 285.843 285.866
285.887 285.945 286.083 286.248 286.316 286.226 286.135 286.157 286.182 286.217
286.265 286.32 286.343 286.272 286.165 286.073 286.002 285.946 285.901 285.862
285.838 285.817 285.793 285.777 285.793 285.843 285.907 285.96 285.951 285.862
286.034 286.091 286.097 286.071 286.021 285.958 285.893 285.849 285.844 285.867
285.899 285.974 286.112 286.259 286.302 286.203 286.125 286.142 286.159 286.18
286.209 286.252 286.283 286.241 286.167 286.097 286.038 285.987 285.941 285.898
285.86 285.83 285.805 285.791 285.806 285.851 285.911 285.962 285.952 285.86
286.034 286.095 286.106 286.084 286.038 285.978 285.914 285.867 285.855 285.877
285.919 286.005 286.139 286.265 286.286 286.185 286.118 286.134 286.147 286.159
286.172 286.198 286.226 286.207 286.162 286.113 286.067 286.024 285.981 285.939
285.894 285.855 285.825 285.811 285.823 285.863 285.917 285.964 285.953 285.857
286.034 286.099 286.114 286.098 286.058 286.003 285.943 285.895 285.878 285.898
285.948 286.037 286.161 286.269 286.272 286.17 286.115 286.131 286.145 286.152
286.155 286.164 286.181 286.176 286.151 286.121 286.088 286.053 286.015 285.976
285.931 285.888 285.854 285.837 285.845 285.878 285.925 285.968 285.954 285.852
286.031 286.102 286.123 286.114 286.081 286.033 285.979 285.934 285.914 285.932
285.982 286.069 286.181 286.27 286.26 286.16 286.115 286.133 286.148 286.152
286.15 286.149 286.154 286.152 286.14 286.122 286.1 286.073 286.042 286.006
285.967 285.924 285.887 285.867 285.869 285.895 285.935 285.972 285.954 285.846
286.028 286.103 286.132 286.13 286.106 286.067 286.021 285.98 285.96 285.974
286.021 286.101 286.199 286.27 286.25 286.154 286.119 286.14 286.155 286.156
286.152 286.146 286.142 286.139 286.132 286.121 286.106 286.087 286.061 286.031
285.996 285.956 285.92 285.898 285.896 285.914 285.947 285.977 285.955 285.838
286.022 286.103 286.139 286.146 286.132 286.103 286.066 286.032 286.013 286.022
286.063 286.132 286.215 286.27 286.243 286.152 286.126 286.152 286.161 286.159
286.152 286.145 286.138 286.132 286.126 286.118 286.108 286.094 286.074 286.048
286.018 285.983 285.951 285.928 285.922 285.934 285.96 285.982 285.954 285.827
286.013 286.1 286.144 286.161 286.157 286.138 286.111 286.084 286.068 286.073
286.105 286.161 286.229 286.271 286.24 286.156 286.14 286.165 286.165 286.157
286.147 286.138 286.13 286.124 286.118 286.113 286.106 286.095 286.08 286.059
286.034 286.005 285.977 285.956 285.947 285.954 285.973 285.988 285.953 285.813
286 286.094 286.146 286.172 286.179 286.171 286.154 286.135 286.121 286.123
286.146 286.19 286.242 286.273 286.24 286.164 286.16 286.171 286.16 286.145
286.131 286.12 286.113 286.109 286.105 286.102 286.098 286.091 286.08 286.064
286.044 286.021 285.997 285.978 285.969 285.973 285.985 285.993 285.951 285.794
285.983 286.082 286.142 286.178 286.195 286.198 286.191 286.18 286.17 286.169
286.185 286.216 286.255 286.277 286.244 286.174 286.178 286.154 286.128 286.11
286.096 286.087 286.083 286.082 286.083 286.084 286.084 286.082 286.076 286.064
286.049 286.03 286.011 285.996 285.988 285.989 285.996 285.996 285.947 285.77
285.959 286.063 286.131 286.177 286.205 286.219 286.222 286.218 286.212 286.211
286.22 286.241 286.268 286.282 286.251 286.185 286.157 286.113 286.08 286.056
286.043 286.037 286.038 286.044 286.051 286.059 286.065 286.068 286.066 286.06
286.049 286.035 286.021 286.009 286.003 286.003 286.005 285.997 285.94 285.736
285.925 286.034 286.11 286.165 286.203 286.228 286.242 286.247 286.246 286.246
286.252 286.264 286.281 286.29 286.263 286.185 286.116 286.064 286.03 286.005
285.989 285.985 285.99 286.001 286.015 286.029 286.041 286.049 286.053 286.051
286.045 286.037 286.027 286.019 286.015 286.014 286.011 285.993 285.928 285.689
285.876 285.99 286.072 286.136 286.185 286.222 286.247 286.262 286.269 286.272
286.277 286.285 286.294 286.299 286.28 286.165 286.077 286.025 285.999 285.982
285.966 285.96 285.962 285.971 285.986 286.003 286.018 286.031 286.039 286.041
286.04 286.035 286.03 286.026 286.024 286.02 286.01 285.982 285.909 285.619
285.804 285.92 286.007 286.08 286.14 286.188 286.226 286.254 286.272 286.282
286.29 286.298 286.304 286.308 286.295 286.14 286.037 285.995 285.992 285.998
285.991 285.977 285.968 285.967 285.976 285.99 286.006 286.019 286.028 286.033
286.035 286.034 286.033 286.032 286.028 286.017 285.996 285.957 285.877 285.495
285.688 285.805 285.892 285.969 286.038 286.1 286.154 286.199 286.234 286.257
286.273 286.287 286.297 286.303 286.293 286.111 285.972 285.934 285.955 285.989
286.016 286.015 286 285.989 285.988 285.997 286.008 286.018 286.026 286.031
286.034 286.036 286.036 286.027 286.01 285.983 285.947 285.897 285.812 285.157
285.468 285.579 285.647 285.704 285.757 285.807 285.858 285.909 285.962 286.017
286.064 286.103 286.137 286.168 286.135 285.925 285.748 285.681 285.698 285.727
285.75 285.776 285.804 285.828 285.865 285.889 285.898 285.903 285.904 285.901
285.893 285.88 285.863 285.846 285.827 285.807 285.78 285.737 285.617 
alphat 1 1600 float
0 0 0 0 0 0 0 0 0 0 0
0 0 0 0 0 0 0 0 0 0
0 0 0 0 0 0 0 0 0 0
0 0 0 0 0 0 0 0 0 0
0 0 0 0 0 0 0 0 0 0
0 0 0 0 0 0 0 0 0 0
0 0 0 0 0 0 0 0 0 0
0 0 0 0 0 0 0 0 0 0
0 0 0 0 0 0 0 0 0 0
0 0 0 0 0 0 0 0 0 0
0 0 0 0 0 0 0 0 0 0
0 0 0 0 0 0 0 0 0 0
0 0 0 0 0 0 0 0 0 0
0 0 0 0 0 0 0 0 0 0
0 0 0 0 0 0 0 0 0 0
0 0 0 0 0 0 0 0 0 0
0 0 0 0 0 0 0 0 0 0
0 0 0 0 0 0 0 0 0 0
0 0 0 0 0 0 0 0 0 0
0 0 0 0 0 0 0 0 0 0