# vtk DataFile Version 2.0
RBConvection
ASCII
DATASET UNSTRUCTURED_GRID
POINTS 3362 float
0 0 0 0.025 0 0 0.05 0 0 0.075 0
0 0.1 0 0 0.125 0 0 0.15 0 0
0.175 0 0 0.2 0 0 0.225 0 0 0.25
0 0 0.275 0 0 0.3 0 0 0.325 0
0 0.35 0 0 0.375 0 0 0.4 0 0
0.425 0 0 0.45 0 0 0.475 0 0 0.5
0 0 0.525 0 0 0.55 0 0 0.575 0
0 0.6 0 0 0.625 0 0 0.65 0 0
0.675 0 0 0.7 0 0 0.725 0 0 0.75
0 0 0.775 0 0 0.8 0 0 0.825 0
0 0.85 0 0 0.875 0 0 0.9 0 0
0.925 0 0 0.95 0 0 0.975 0 0 1
0 0 0 0.01 0 0.025 0.01 0 0.05 0.01
0 0.075 0.01 0 0.1 0.01 0 0.125 0.01 0
0.15 0.01 0 0.175 0.01 0 0.2 0.01 0 0.225
0.01 0 0.25 0.01 0 0.275 0.01 0 0.3 0.01
0 0.325 0.01 0 0.35 0.01 0 0.375 0.01 0
0.4 0.01 0 0.425 0.01 0 0.45 0.01 0 0.475
0.01 0 0.5 0.01 0 0.525 0.01 0 0.55 0.01
0 0.575 0.01 0 0.6 0.01 0 0.625 0.01 0
0.65 0.01 0 0.675 0.01 0 0.7 0.01 0 0.725
0.01 0 0.75 0.01 0 0.775 0.01 0 0.8 0.01
0 0.825 0.01 0 0.85 0.01 0 0.875 0.01 0
0.9 0.01 0 0.925 0.01 0 0.95 0.01 0 0.975
0.01 0 1 0.01 0 0 0.02 0 0.025 0.02
0 0.05 0.02 0 0.075 0.02 0 0.1 0.02 0
0.125 0.02 0 0.15 0.02 0 0.175 0.02 0 0.2
0.02 0 0.225 0.02 0 0.25 0.02 0 0.275 0.02
0 0.3 0.02 0 0.325 0.02 0 0.35 0.02 0
0.375 0.02 0 0.4 0.02 0 0.425 0.02 0 0.45
0.02 0 0.475 0.02 0 0.5 0.02 0 0.525 0.02
0 0.55 0.02 0 0.575 0.02 0 0.6 0.02 0
0.625 0.02 0 0.65 0.02 0 0.675 0.02 0 0.7
0.02 0 0.725 0.02 0 0.75 0.02 0 0.775 0.02
0 0.8 0.02 0 0.825 0.02 0 0.85 0.02 0
0.875 0.02 0 0.9 0.02 0 0.925 0.02 0 0.95
0.02 0 0.975 0.02 0 1 0.02 0 0 0.03
0 0.025 0.03 0 0.05 0.03 0 0.075 0.03 0
0.1 0.03 0 0.125 0.03 0 0.15 0.03 0 0.175
0.03 0 0.2 0.03 0 0.225 0.03 0 0.25 0.03
0 0.275 0.03 0 0.3 0.03 0 0.325 0.03 0
0.35 0.03 0 0.375 0.03 0 0.4 0.03 0 0.425
0.03 0 0.45 0.03 0 0.475 0.03 0 0.5 0.03
0 0.525 0.03 0 0.55 0.03 0 0.575 0.03 0
0.6 0.03 0 0.625 0.03 0 0.65 0.03 0 0.675
0.03 0 0.7 0.03 0 0.725 0.03 0 0.75 0.03
0 0.775 0.03 0 0.8 0.03 0 0.825 0.03 0
0.85 0.03 0 0.875 0.03 0 0.9 0.03 0 0.925
0.03 0 0.95 0.03 0 0.975 0.03 0 1 0.03
0 0 0.04 0 0.025 0.04 0 0.05 0.04 0
0.075 0.04 0 0.1 0.04 0 0.125 0.04 0 0.15
0.04 0 0.175 0.04 0 0.2 0.04 0 0.225 0.04
0 0.25 0.04 0 0.275 0.04 0 0.3 0.04 0
0.325 0.04 0 0.35 0.04 0 0.375 0.04 0 0.4
0.04 0 0.425 0.04 0 0.45 0.04 0 0.475 0.04
0 0.5 0.04 0 0.525 0.04 0 0.55 0.04 0
0.575 0.04 0 0.6 0.04 0 0.625 0.04 0 0.65
0.04 0 0.675 0.04 0 0.7 0.04 0 0.725 0.04
0 0.75 0.04 0 0.775 0.04 0 0.8 0.04 0
0.825 0.04 0 0.85 0.04 0 0.875 0.04 0 0.9
0.04 0 0.925 0.04 0 0.95 0.04 0 0.975 0.04
0 1 0.04 0 0 0.05 0 0.025 0.05 0
0.05 0.05 0 0.075 0.05 0 0.1 0.05 0 0.125
0.05 0 0.15 0.05 0 0.175 0.05 0 0.2 0.05
0 0.225 0.05 0 0.25 0.05 0 0.275 0.05 0
0.3 0.05 0 0.325 0.05 0 0.35 0.05 0 0.375
0.05 0 0.4 0.05 0 0.425 0.05 0 0.45 0.05
0 0.475 0.05 0 0.5 0.05 0 0.525 0.05 0
0.55 0.05 0 0.575 0.05 0 0.6 0.05 0 0.625
0.05 0 0.65 0.05 0 0.675 0.05 0 0.7 0.05
0 0.725 0.05 0 0.75 0.05 0 0.775 0.05 0
0.8 0.05 0 0.825 0.05 0 0.85 0.05 0 0.875
0.05 0 0.9 0.05 0 0.925 0.05 0 0.95 0.05
0 0.975 0.05 0 1 0.05 0 0 0.06 0
0.025 0.06 0 0.05 0.06 0 0.075 0.06 0 0.1
0.06 0 0.125 0.06 0 0.15 0.06 0 0.175 0.06
0 0.2 0.06 0 0.225 0.06 0 0.25 0.06 0
0.275 0.06 0 0.3 0.06 0 0.325 0.06 0 0.35
0.06 0 0.375 0.06 0 0.4 0.06 0 0.425 0.06
0 0.45 0.06 0 0.475 0.06 0 0.5 0.06 0
0.525 0.06 0 0.55 0.06 0 0.575 0.06 0 0.6
0.06 0 0.625 0.06 0 0.65 0.06 0 0.675 0.06
0 0.7 0.06 0 0.725 0.06 0 0.75 0.06 0
0.775 0.06 0 0.8 0.06 0 0.825 0.06 0 0.85
0.06 0 0.875 0.06 0 0.9 0.06 0 0.925 0.06
0 0.95 0.06 0 0.975 0.06 0 1 0.06 0
0 0.07 0 0.025 0.07 0 0.05 0.07 0 0.075
0.07 0 0.1 0.07 0 0.125 0.07 0 0.15 0.07
0 0.175 0.07 0 0.2 0.07 0 0.225 0.07 0
0.25 0.07 0 0.275 0.07 0 0.3 0.07 0 0.325
0.07 0 0.35 0.07 0 0.375 0.07 0 0.4 0.07
0 0.425 0.07 0 0.45 0.07 0 0.475 0.07 0
0.5 0.07 0 0.525 0.07 0 0.55 0.07 0 0.575
0.07 0 0.6 0.07 0 0.625 0.07 0 0.65 0.07
0 0.675 0.07 0 0.7 0.07 0 0.725 0.07 0
0.75 0.07 0 0.775 0.07 0 0.8 0.07 0 0.825
0.07 0 0.85 0.07 0 0.875 0.07 0 0.9 0.07
0 0.925 0.07 0 0.95 0.07 0 0.975 0.07 0
1 0.07 0 0 0.08 0 0.025 0.08 0 0.05
0.08 0 0.075 0.08 0 0.1 0.08 0 0.125 0.08
0 0.15 0.08 0 0.175 0.08 0 0.2 0.08 0
0.225 0.08 0 0.25 0.08 0 0.275 0.08 0 0.3
0.08 0 0.325 0.08 0 0.35 0.08 0 0.375 0.08
0 0.4 0.08 0 0.425 0.08 0 0.45 0.08 0
0.475 0.08 0 0.5 0.08 0 0.525 0.08 0 0.55
0.08 0 0.575 0.08 0 0.6 0.08 0 0.625 0.08
0 0.65 0.08 0 0.675 0.08 0 0.7 0.08 0
0.725 0.08 0 0.75 0.08 0 0.775 0.08 0 0.8
0.08 0 0.825 0.08 0 0.85 0.08 0 0.875 0.08
0 0.9 0.08 0 0.925 0.08 0 0.95 0.08 0
0.975 0.08 0 1 0.08 0 0 0.09 0 0.025
0.09 0 0.05 0.09 0 0.075 0.09 0 0.1 0.09
0 0.125 0.09 0 0.15 0.09 0 0.175 0.09 0
0.2 0.09 0 0.225 0.09 0 0.25 0.09 0 0.275
0.09 0 0.3 0.09 0 0.325 0.09 0 0.35 0.09
0 0.375 0.09 0 0.4 0.09 0 0.425 0.09 0
0.45 0.09 0 0.475 0.09 0 0.5 0.09 0 0.525
0.09 0 0.55 0.09 0 0.575 0.09 0 0.6 0.09
0 0.625 0.09 0 0.65 0.09 0 0.675 0.09 0
0.7 0.09 0 0.725 0.09 0 0.75 0.09 0 0.775
0.09 0 0.8 0.09 0 0.825 0.09 0 0.85 0.09
0 0.875 0.09 0 0.9 0.09 0 0.925 0.09 0
0.95 0.09 0 0.975 0.09 0 1 0.09 0 0
0.1 0 0.025 0.1 0 0.05 0.1 0 0.075 0.1
0 0.1 0.1 0 0.125 0.1 0 0.15 0.1 0
0.175 0.1 0 0.2 0.1 0 0.225 0.1 0 0.25
0.1 0 0.275 0.1 0 0.3 0.1 0 0.325 0.1
0 0.35 0.1 0 0.375 0.1 0 0.4 0.1 0
0.425 0.1 0 0.45 0.1 0 0.475 0.1 0 0.5
0.1 0 0.525 0.1 0 0.55 0.1 0 0.575 0.1
0 0.6 0.1 0 0.625 0.1 0 0.65 0.1 0
0.675 0.1 0 0.7 0.1 0 0.725 0.1 0 0.75
0.1 0 0.775 0.1 0 0.8 0.1 0 0.825 0.1
0 0.85 0.1 0 0.875 0.1 0 0.9 0.1 0
0.925 0.1 0 0.95 0.1 0 0.975 0.1 0 1
0.1 0 0 0.11 0 0.025 0.11 0 0.05 0.11
0 0.075 0.11 0 0.1 0.11 0 0.125 0.11 0
0.15 0.11 0 0.175 0.11 0 0.2 0.11 0 0.225
0.11 0 0.25 0.11 0 0.275 0.11 0 0.3 0.11
0 0.325 0.11 0 0.35 0.11 0 0.375 0.11 0
0.4 0.11 0 0.425 0.11 0 0.45 0.11 0 0.475
0.11 0 0.5 0.11 0 0.525 0.11 0 0.55 0.11
0 0.575 0.11 0 0.6 0.11 0 0.625 0.11 0
0.65 0.11 0 0.675 0.11 0 0.7 0.11 0 0.725
0.11 0 0.75 0.11 0 0.775 0.11 0 0.8 0.11
0 0.825 0.11 0 0.85 0.11 0 0.875 0.11 0
0.9 0.11 0 0.925 0.11 0 0.95 0.11 0 0.975
0.11 0 1 0.11 0 0 0.12 0 0.025 0.12
0 0.05 0.12 0 0.075 0.12 0 0.1 0.12 0
0.125 0.12 0 0.15 0.12 0 0.175 0.12 0 0.2
0.12 0 0.225 0.12 0 0.25 0.12 0 0.275 0.12
0 0.3 0.12 0 0.325 0.12 0 0.35 0.12 0
0.375 0.12 0 0.4 0.12 0 0.425 0.12 0 0.45
0.12 0 0.475 0.12 0 0.5 0.12 0 0.525 0.12
0 0.55 0.12 0 0.575 0.12 0 0.6 0.12 0
0.625 0.12 0 0.65 0.12 0 0.675 0.12 0 0.7
0.12 0 0.725 0.12 0 0.75 0.12 0 0.775 0.12
0 0.8 0.12 0 0.825 0.12 0 0.85 0.12 0
0.875 0.12 0 0.9 0.12 0 0.925 0.12 0 0.95
0.12 0 0.975 0.12 0 1 0.12 0 0 0.13
0 0.025 0.13 0 0.05 0.13 0 0.075 0.13 0
0.1 0.13 0 0.125 0.13 0 0.15 0.13 0 0.175
0.13 0 0.2 0.13 0 0.225 0.13 0 0.25 0.13
0 0.275 0.13 0 0.3 0.13 0 0.325 0.13 0
0.35 0.13 0 0.375 0.13 0 0.4 0.13 0 0.425
0.13 0 0.45 0.13 0 0.475 0.13 0 0.5 0.13
0 0.525 0.13 0 0.55 0.13 0 0.575 0.13 0
0.6 0.13 0 0.625 0.13 0 0.65 0.13 0 0.675
0.13 0 0.7 0.13 0 0.725 0.13 0 0.75 0.13
0 0.775 0.13 0 0.8 0.13 0 0.825 0.13 0
0.85 0.13 0 0.875 0.13 0 0.9 0.13 0 0.925
0.13 0 0.95 0.13 0 0.975 0.13 0 1 0.13
0 0 0.14 0 0.025 0.14 0 0.05 0.14 0
0.075 0.14 0 0.1 0.14 0 0.125 0.14 0 0.15
0.14 0 0.175 0.14 0 0.2 0.14 0 0.225 0.14
0 0.25 0.14 0 0.275 0.14 0 0.3 0.14 0
0.325 0.14 0 0.35 0.14 0 0.375 0.14 0 0.4
0.14 0 0.425 0.14 0 0.45 0.14 0 0.475 0.14
0 0.5 0.14 0 0.525 0.14 0 0.55 0.14 0
0.575 0.14 0 0.6 0.14 0 0.625 0.14 0 0.65
0.14 0 0.675 0.14 0 0.7 0.14 0 0.725 0.14
0 0.75 0.14 0 0.775 0.14 0 0.8 0.14 0
0.825 0.14 0 0.85 0.14 0 0.875 0.14 0 0.9
0.14 0 0.925 0.14 0 0.95 0.14 0 0.975 0.14
0 1 0.14 0 0 0.15 0 0.025 0.15 0
0.05 0.15 0 0.075 0.15 0 0.1 0.15 0 0.125
0.15 0 0.15 0.15 0 0.175 0.15 0 0.2 0.15
0 0.225 0.15 0 0.25 0.15 0 0.275 0.15 0
0.3 0.15 0 0.325 0.15 0 0.35 0.15 0 0.375
0.15 0 0.4 0.15 0 0.425 0.15 0 0.45 0.15
0 0.475 0.15 0 0.5 0.15 0 0.525 0.15 0
0.55 0.15 0 0.575 0.15 0 0.6 0.15 0 0.625
0.15 0 0.65 0.15 0 0.675 0.15 0 0.7 0.15
0 0.725 0.15 0 0.75 0.15 0 0.775 0.15 0
0.8 0.15 0 0.825 0.15 0 0.85 0.15 0 0.875
0.15 0 0.9 0.15 0 0.925 0.15 0 0.95 0.15
0 0.975 0.15 0 1 0.15 0 0 0.16 0
0.025 0.16 0 0.05 0.16 0 0.075 0.16 0 0.1
0.16 0 0.125 0.16 0 0.15 0.16 0 0.175 0.16
0 0.2 0.16 0 0.225 0.16 0 0.25 0.16 0
0.275 0.16 0 0.3 0.16 0 0.325 0.16 0 0.35
0.16 0 0.375 0.16 0 0.4 0.16 0 0.425 0.16
0 0.45 0.16 0 0.475 0.16 0 0.5 0.16 0
0.525 0.16 0 0.55 0.16 0 0.575 0.16 0 0.6
0.16 0 0.625 0.16 0 0.65 0.16 0 0.675 0.16
0 0.7 0.16 0 0.725 0.16 0 0.75 0.16 0
0.775 0.16 0 0.8 0.16 0 0.825 0.16 0 0.85
0.16 0 0.875 0.16 0 0.9 0.16 0 0.925 0.16
0 0.95 0.16 0 0.975 0.16 0 1 0.16 0
0 0.17 0 0.025 0.17 0 0.05 0.17 0 0.075
0.17 0 0.1 0.17 0 0.125 0.17 0 0.15 0.17
0 0.175 0.17 0 0.2 0.17 0 0.225 0.17 0
0.25 0.17 0 0.275 0.17 0 0.3 0.17 0 0.325
0.17 0 0.35 0.17 0 0.375 0.17 0 0.4 0.17
0 0.425 0.17 0 0.45 0.17 0 0.475 0.17 0
0.5 0.17 0 0.525 0.17 0 0.55 0.17 0 0.575
0.17 0 0.6 0.17 0 0.625 0.17 0 0.65 0.17
0 0.675 0.17 0 0.7 0.17 0 0.725 0.17 0
0.75 0.17 0 0.775 0.17 0 0.8 0.17 0 0.825
0.17 0 0.85 0.17 0 0.875 0.17 0 0.9 0.17
0 0.925 0.17 0 0.95 0.17 0 0.975 0.17 0
1 0.17 0 0 0.18 0 0.025 0.18 0 0.05
0.18 0 0.075 0.18 0 0.1 0.18 0 0.125 0.18
0 0.15 0.18 0 0.175 0.18 0 0.2 0.18 0
0.225 0.18 0 0.25 0.18 0 0.275 0.18 0 0.3
0.18 0 0.325 0.18 0 0.35 0.18 0 0.375 0.18
0 0.4 0.18 0 0.425 0.18 0 0.45 0.18 0
0.475 0.18 0 0.5 0.18 0 0.525 0.18 0 0.55
0.18 0 0.575 0.18 0 0.6 0.18 0 0.625 0.18
0 0.65 0.18 0 0.675 0.18 0 0.7 0.18 0
0.725 0.18 0 0.75 0.18 0 0.775 0.18 0 0.8
0.18 0 0.825 0.18 0 0.85 0.18 0 0.875 0.18
0 0.9 0.18 0 0.925 0.18 0 0.95 0.18 0
0.975 0.18 0 1 0.18 0 0 0.19 0 0.025
0.19 0 0.05 0.19 0 0.075 0.19 0 0.1 0.19
0 0.125 0.19 0 0.15 0.19 0 0.175 0.19 0
0.2 0.19 0 0.225 0.19 0 0.25 0.19 0 0.275
0.19 0 0.3 0.19 0 0.325 0.19 0 0.35 0.19
0 0.375 0.19 0 0.4 0.19 0 0.425 0.19 0
0.45 0.19 0 0.475 0.19 0 0.5 0.19 0 0.525
0.19 0 0.55 0.19 0 0.575 0.19 0 0.6 0.19
0 0.625 0.19 0 0.65 0.19 0 0.675 0.19 0
0.7 0.19 0 0.725 0.19 0 0.75 0.19 0 0.775
0.19 0 0.8 0.19 0 0.825 0.19 0 0.85 0.19
0 0.875 0.19 0 0.9 0.19 0 0.925 0.19 0
0.95 0.19 0 0.975 0.19 0 1 0.19 0 0
0.2 0 0.025 0.2 0 0.05 0.2 0 0.075 0.2
0 0.1 0.2 0 0.125 0.2 0 0.15 0.2 0
0.175 0.2 0 0.2 0.2 0 0.225 0.2 0 0.25
[...]
CELL_DATA 1600
FIELD attributes 6
cellID 1 1600 int
0 1 2 3 4 5 6 7 8 9 10
11 12 13 14 15 16 17 18 19 20
21 22 23 24 25 26 27 28 29 30
31 32 33 34 35 36 37 38 39 40
41 42 43 44 45 46 47 48 49 50
51 52 53 54 55 56 57 58 59 60
61 62 63 64 65 66 67 68 69 70
71 72 73 74 75 76 77 78 79 80
81 82 83 84 85 86 87 88 89 90
91 92 93 94 95 96 97 98 99 100
101 102 103 104 105 106 107 108 109 110
111 112 113 114 115 116 117 118 119 120
121 122 123 124 125 126 127 128 129 130
131 132 133 134 135 136 137 138 139 140
141 142 143 144 145 146 147 148 149 150
151 152 153 154 155 156 157 158 159 160
161 162 163 164 165 166 167 168 169 170
171 172 173 174 175 176 177 178 179 180
181 182 183 184 185 186 187 188 189 190
191 192 193 194 195 196 197 198 199 200
201 202 203 204 205 206 207 208 209 210
211 212 213 214 215 216 217 218 219 220
221 222 223 224 225 226 227 228 229 230
231 232 233 234 235 236 237 238 239 240
241 242 243 244 245 246 247 248 249 250
251 252 253 254 255 256 257 258 259 260
261 262 263 264 265 266 267 268 269 270
271 272 273 274 275 276 277 278 279 280
281 282 283 284 285 286 287 288 289 290
291 292 293 294 295 296 297 298 299 300
301 302 303 304 305 306 307 308 309 310
311 312 313 314 315 316 317 318 319 320
321 322 323 324 325 326 327 328 329 330
331 332 333 334 335 336 337 338 339 340
341 342 343 344 345 346 347 348 349 350
351 352 353 354 355 356 357 358 359 360
361 362 363 364 365 366 367 368 369 370
371 372 373 374 375 376 377 378 379 380
381 382 383 384 385 386 387 388 389 390
391 392 393 394 395 396 397 398 399 400
401 402 403 404 405 406 407 408 409 410
411 412 413 414 415 416 417 418 419 420
421 422 423 424 425 426 427 428 429 430
431 432 433 434 435 436 437 438 439 440
441 442 443 444 445 446 447 448 449 450
451 452 453 454 455 456 457 458 459 460
461 462 463 464 465 466 467 468 469 470
471 472 473 474 475 476 477 478 479 480
481 482 483 484 485 486 487 488 489 490
491 492 493 494 495 496 497 498 499 500
501 502 503 504 505 506 507 508 509 510
511 512 513 514 515 516 517 518 519 520
521 522 523 524 525 526 527 528 529 530
531 532 533 534 535 536 537 538 539 540
541 542 543 544 545 546 547 548 549 550
551 552 553 554 555 556 557 558 559 560
561 562 563 564 565 566 567 568 569 570
571 572 573 574 575 576 577 578 579 580
581 582 583 584 585 586 587 588 589 590
591 592 593 594 595 596 597 598 599 600
601 602 603 604 605 606 607 608 609 610
611 612 613 614 615 616 617 618 619 620
621 622 623 624 625 626 627 628 629 630
631 632 633 634 635 636 637 638 639 640
641 642 643 644 645 646 647 648 649 650
651 652 653 654 655 656 657 658 659 660
661 662 663 664 665 666 667 668 669 670
671 672 673 674 675 676 677 678 679 680
681 682 683 684 685 686 687 688 689 690
691 692 693 694 695 696 697 698 699 700
701 702 703 704 705 706 707 708 709 710
711 712 713 714 715 716 717 718 719 720
721 722 723 724 725 726 727 728 729 730
731 732 733 734 735 736 737 738 739 740
741 742 743 744 745 746 747 748 749 750
751 752 753 754 755 756 757 758 759 760
761 762 763 764 765 766 767 768 769 770
771 772 773 774 775 776 777 778 779 780
781 782 783 784 785 786 787 788 789 790
791 792 793 794 795 796 797 798 799 800
801 802 803 804 805 806 807 808 809 810
811 812 813 814 815 816 817 818 819 820
821 822 823 824 825 826 827 828 829 830
831 832 833 834 835 836 837 838 839 840
841 842 843 844 845 846 847 848 849 850
851 852 853 854 855 856 857 858 859 860
861 862 863 864 865 866 867 868 869 870
871 872 873 874 875 876 877 878 879 880
881 882 883 884 885 886 887 888 889 890
891 892 893 894 895 896 897 898 899 900
901 902 903 904 905 906 907 908 909 910
911 912 913 914 915 916 917 918 919 920
921 922 923 924 925 926 927 928 929 930
931 932 933 934 935 936 937 938 939 940
941 942 943 944 945 946 947 948 949 950
951 952 953 954 955 956 957 958 959 960
961 962 963 964 965 966 967 968 969 970
971 972 973 974 975 976 977 978 979 980
981 982 983 984 985 986 987 988 989 990
991 992 993 994 995 996 997 998 999 1000
1001 1002 1003 1004 1005 1006 1007 1008 1009 1010
1011 1012 1013 1014 1015 1016 1017 1018 1019 1020
1021 1022 1023 1024 1025 1026 1027 1028 1029 1030
1031 1032 1033 1034 1035 1036 1037 1038 1039 1040
1041 1042 1043 1044 1045 1046 1047 1048 1049 1050
1051 1052 1053 1054 1055 1056 1057 1058 1059 1060
1061 1062 1063 1064 1065 1066 1067 1068 1069 1070
1071 1072 1073 1074 1075 1076 1077 1078 1079 1080
1081 1082 1083 1084 1085 1086 1087 1088 1089 1090
1091 1092 1093 1094 1095 1096 1097 1098 1099 1100
1101 1102 1103 1104 1105 1106 1107 1108 1109 1110
1111 1112 1113 1114 1115 1116 1117 1118 1119 1120
1121 1122 1123 1124 1125 1126 1127 1128 1129 1130
1131 1132 1133 1134 1135 1136 1137 1138 1139 1140
1141 1142 1143 1144 1145 1146 1147 1148 1149 1150
1151 1152 1153 1154 1155 1156 1157 1158 1159 1160
1161 1162 1163 1164 1165 1166 1167 1168 1169 1170
1171 1172 1173 1174 1175 1176 1177 1178 1179 1180
1181 1182 1183 1184 1185 1186 1187 1188 1189 1190
1191 1192 1193 1194 1195 1196 1197 1198 1199 1200
1201 1202 1203 1204 1205 1206 1207 1208 1209 1210
1211 1212 1213 1214 1215 1216 1217 1218 1219 1220
1221 1222 1223 1224 1225 1226 1227 1228 1229 1230
1231 1232 1233 1234 1235 1236 1237 1238 1239 1240
1241 1242 1243 1244 1245 1246 1247 1248 1249 1250
1251 1252 1253 1254 1255 1256 1257 1258 1259 1260
1261 1262 1263 1264 1265 1266 1267 1268 1269 1270
1271 1272 1273 1274 1275 1276 1277 1278 1279 1280
1281 1282 1283 1284 1285 1286 1287 1288 1289 1290
1291 1292 1293 1294 1295 1296 1297 1298 1299 1300
1301 1302 1303 1304 1305 1306 1307 1308 1309 1310
1311 1312 1313 1314 1315 1316 1317 1318 1319 1320
1321 1322 1323 1324 1325 1326 1327 1328 1329 1330
1331 1332 1333 1334 1335 1336 1337 1338 1339 1340
1341 1342 1343 1344 1345 1346 1347 1348 1349 1350
1351 1352 1353 1354 1355 1356 1357 1358 1359 1360
1361 1362 1363 1364 1365 1366 1367 1368 1369 1370
1371 1372 1373 1374 1375 1376 1377 1378 1379 1380
1381 1382 1383 1384 1385 1386 1387 1388 1389 1390
1391 1392 1393 1394 1395 1396 1397 1398 1399 1400
1401 1402 1403 1404 1405 1406 1407 1408 1409 1410
1411 1412 1413 1414 1415 1416 1417 1418 1419 1420
1421 1422 1423 1424 1425 1426 1427 1428 1429 1430
1431 1432 1433 1434 1435 1436 1437 1438 1439 1440
1441 1442 1443 1444 1445 1446 1447 1448 1449 1450
1451 1452 1453 1454 1455 1456 1457 1458 1459 1460
1461 1462 1463 1464 1465 1466 1467 1468 1469 1470
1471 1472 1473 1474 1475 1476 1477 1478 1479 1480
1481 1482 1483 1484 1485 1486 1487 1488 1489 1490
1491 1492 1493 1494 1495 1496 1497 1498 1499 1500
1501 1502 1503 1504 1505 1506 1507 1508 1509 1510
1511 1512 1513 1514 1515 1516 1517 1518 1519 1520
1521 1522 1523 1524 1525 1526 1527 1528 1529 1530
1531 1532 1533 1534 1535 1536 1537 1538 1539 1540
1541 1542 1543 1544 1545 1546 1547 1548 1549 1550
1551 1552 1553 1554 1555 1556 1557 1558 1559 1560
1561 1562 1563 1564 1565 1566 1567 1568 1569 1570
1571 1572 1573 1574 1575 1576 1577 1578 1579 1580
1581 1582 1583 1584 1585 1586 1587 1588 1589 1590
1591 1592 1593 1594 1595 1596 1597 1598 1599 
T 1 1600 float
287.173 286.716 286.354 286.129 286.075 286.246 286.436 286.639 286.854 287.067 287.236
287.35 287.593 287.95 288.433 288.519 288.203 287.924 287.663 287.41 287.147
286.95 286.825 286.776 286.824 286.92 287.034 287.181 287.359 287.561 287.763
287.918 287.962 287.873 287.764 287.893 288.219 288.465 287.856 288.031 286.586
285.793 285.516 285.389 285.265 285.209 285.172 285.147 285.131 285.12 285.112
285.112 285.216 286.001 287.299 286.754 285.723 285.39 285.186 285.069 285.048
285.039 285.03 285.021 285.016 285.015 285.017 285.021 285.026 285.033 285.04
285.046 285.051 285.054 285.063 285.132 285.767 286.816 286.871 287.314 286.395
285.699 285.624 285.405 285.277 285.192 285.136 285.097 285.07 285.049 285.033
285.026 285.081 285.592 286.779 286.21 285.262 285.115 285.062 285.046 285.039
285.03 285.017 285.004 284.992 284.987 284.987 284.988 284.991 284.994 284.997
284.999 285.002 285.006 285.017 285.063 285.411 286.256 286.559 287.015 286.325
285.764 285.636 285.413 285.255 285.154 285.09 285.047 285.017 284.995 284.979
284.972 285.015 285.414 286.447 286.011 285.145 285.081 285.068 285.063 285.055
285.041 285.022 285.002 284.984 284.975 284.974 284.976 284.98 284.984 284.989
284.993 284.997 285.001 285.012 285.058 285.316 286.016 286.422 286.782 286.325
285.999 285.641 285.366 285.195 285.093 285.03 284.99 284.962 284.943 284.93
284.924 284.966 285.304 286.204 285.905 285.149 285.087 285.087 285.084 285.073
285.054 285.029 285.001 284.977 284.963 284.96 284.963 284.969 284.976 284.982
284.988 284.993 284.997 285.01 285.061 285.286 285.905 286.36 286.55 286.327
285.923 285.529 285.263 285.108 285.02 284.968 284.935 284.913 284.898 284.889
284.887 284.928 285.227 286.014 285.833 285.19 285.101 285.108 285.106 285.093
285.069 285.037 285.002 284.97 284.95 284.946 284.95 284.958 284.967 284.976
284.983 284.989 284.994 285.008 285.067 285.285 285.859 286.338 286.359 286.332
285.772 285.367 285.138 285.018 284.954 284.916 284.893 284.876 284.865 284.859
284.86 284.901 285.168 285.86 285.775 285.237 285.117 285.129 285.129 285.114
285.086 285.047 285.004 284.965 284.939 284.931 284.935 284.946 284.958 284.97
284.979 284.986 284.99 285.005 285.079 285.301 285.852 286.341 286.23 286.341
285.544 285.179 285.018 284.945 284.907 284.884 284.867 284.854 284.845 284.84
284.842 284.881 285.122 285.733 285.723 285.279 285.135 285.15 285.151 285.136
285.104 285.059 285.008 284.961 284.928 284.915 284.919 284.933 284.949 284.964
284.975 284.982 284.984 285.005 285.1 285.335 285.875 286.361 286.145 285.639
285.177 284.996 284.932 284.905 284.887 284.871 284.857 284.845 284.835 284.829
284.831 284.867 285.086 285.628 285.674 285.312 285.157 285.169 285.173 285.157
285.123 285.073 285.014 284.959 284.919 284.901 284.903 284.918 284.938 284.956
284.968 284.974 284.974 285.008 285.138 285.388 285.924 286.391 286.078 284.895
284.901 284.905 284.904 284.898 284.887 284.872 284.857 284.842 284.831 284.823
284.823 284.857 285.055 285.539 285.629 285.338 285.179 285.184 285.191 285.177
285.142 285.087 285.022 284.959 284.912 284.888 284.886 284.902 284.925 284.946
284.958 284.962 284.961 285.017 285.204 285.464 285.997 286.421 286.012 284.902
284.911 284.916 284.915 284.907 284.896 284.88 284.862 284.845 284.829 284.819
284.818 284.849 285.03 285.465 285.586 285.356 285.201 285.195 285.205 285.194
285.159 285.102 285.031 284.961 284.907 284.876 284.87 284.885 284.91 284.932
284.944 284.944 284.943 285.032 285.304 285.564 286.095 286.434 285.944 284.909
284.922 284.928 284.926 284.92 284.909 284.893 284.873 284.851 284.831 284.818
284.814 284.843 285.009 285.403 285.546 285.368 285.223 285.204 285.214 285.208
285.175 285.116 285.04 284.964 284.904 284.867 284.856 284.868 284.894 284.916
284.925 284.922 284.923 285.054 285.443 285.69 286.208 286.418 285.873 284.915
284.933 284.94 284.94 284.935 284.926 284.91 284.889 284.863 284.838 284.82
284.813 284.839 284.992 285.35 285.509 285.376 285.244 285.215 285.221 285.218
285.188 285.129 285.051 284.969 284.902 284.859 284.843 284.852 284.876 284.898
284.903 284.895 284.902 285.082 285.62 285.853 286.31 286.371 285.802 284.921
284.945 284.954 284.956 284.953 284.947 284.934 284.913 284.883 284.851 284.827
284.815 284.837 284.978 285.307 285.476 285.38 285.263 285.228 285.231 285.228
285.199 285.141 285.06 284.974 284.902 284.854 284.833 284.837 284.858 284.879
284.879 284.864 284.881 285.113 285.798 286.022 286.387 286.289 285.733 284.926
284.957 284.968 284.973 284.974 284.972 284.964 284.944 284.91 284.871 284.839
284.821 284.838 284.968 285.272 285.447 285.382 285.281 285.244 285.242 285.238
285.209 285.15 285.068 284.978 284.901 284.85 284.825 284.825 284.843 284.861
284.855 284.833 284.862 285.147 285.894 286.165 286.441 286.175 285.667 284.931
284.968 284.984 284.992 284.997 285 284.998 284.981 284.946 284.898 284.857
284.831 284.842 284.962 285.244 285.421 285.382 285.297 285.26 285.256 285.249
285.218 285.158 285.074 284.981 284.901 284.847 284.82 284.816 284.83 284.846
284.831 284.802 284.845 285.162 285.892 286.273 286.47 286.032 285.607 284.936
284.98 284.999 285.011 285.02 285.029 285.033 285.021 284.987 284.932 284.88
284.845 284.849 284.961 285.223 285.4 285.381 285.311 285.277 285.269 285.259
285.225 285.164 285.078 284.983 284.901 284.844 284.816 284.81 284.821 284.833
284.807 284.775 284.828 285.128 285.831 286.34 286.472 285.877 285.55 284.94
284.992 285.015 285.031 285.044 285.057 285.067 285.062 285.03 284.971 284.907
284.862 284.859 284.963 285.21 285.383 285.379 285.323 285.292 285.283 285.268
285.231 285.167 285.08 284.984 284.899 284.842 284.813 284.807 284.816 284.823
284.783 284.754 284.803 285.069 285.724 286.36 286.437 285.729 285.494 284.945
285.003 285.031 285.05 285.066 285.083 285.098 285.097 285.07 285.009 284.935
284.88 284.872 284.97 285.203 285.371 285.377 285.333 285.307 285.294 285.275
285.234 285.168 285.08 284.983 284.898 284.839 284.811 284.805 284.813 284.812
284.763 284.739 284.775 284.998 285.583 286.324 286.346 285.602 285.44 284.95
285.014 285.046 285.068 285.086 285.106 285.123 285.125 285.101 285.043 284.959
284.897 284.886 284.982 285.203 285.363 285.377 285.342 285.319 285.303 285.279
285.235 285.167 285.078 284.98 284.895 284.836 284.81 284.805 284.811 284.802
284.75 284.73 284.752 284.925 285.422 286.228 286.185 285.492 285.388 284.954
285.025 285.061 285.085 285.104 285.124 285.142 285.143 285.118 285.065 284.975
284.911 284.901 284.998 285.21 285.36 285.376 285.349 285.328 285.31 285.281
285.232 285.163 285.073 284.976 284.891 284.833 284.808 284.806 284.81 284.791
284.743 284.725 284.736 284.86 285.26 286.072 285.971 285.384 285.34 284.959
285.034 285.075 285.101 285.12 285.139 285.154 285.154 285.125 285.069 284.969
284.919 284.919 285.021 285.224 285.362 285.377 285.355 285.335 285.313 285.279
285.227 285.156 285.066 284.971 284.887 284.83 284.806 284.806 284.809 284.779
284.74 284.721 284.724 284.808 285.112 285.865 285.733 285.275 285.295 284.963
285.044 285.087 285.115 285.133 285.15 285.164 285.162 285.129 285.064 284.974
284.931 284.943 285.05 285.244 285.366 285.379 285.359 285.338 285.312 285.273
285.218 285.146 285.057 284.963 284.882 284.826 284.804 284.806 284.806 284.768
284.738 284.718 284.717 284.773 284.993 285.63 285.503 285.173 285.256 284.967
285.052 285.099 285.128 285.145 285.159 285.172 285.171 285.141 285.079 285.002
284.962 284.982 285.087 285.264 285.373 285.38 285.361 285.338 285.307 285.263
285.206 285.133 285.045 284.954 284.875 284.822 284.801 284.805 284.802 284.763
284.735 284.715 284.712 284.751 284.905 285.397 285.303 285.085 285.223 284.97
285.06 285.11 285.14 285.155 285.167 285.178 285.181 285.16 285.11 285.047
285.011 285.034 285.13 285.286 285.378 285.38 285.36 285.333 285.297 285.249
285.19 285.118 285.032 284.944 284.868 284.817 284.798 284.802 284.793 284.76
284.731 284.712 284.709 284.738 284.848 285.196 285.145 285.014 285.197 284.973
285.067 285.12 285.151 285.166 285.174 285.184 285.192 285.182 285.147 285.1
285.07 285.091 285.176 285.307 285.382 285.377 285.355 285.323 285.282 285.231
285.173 285.1 285.016 284.932 284.861 284.811 284.793 284.797 284.784 284.753
284.725 284.71 284.709 284.732 284.812 285.043 285.03 284.961 285.176 284.975
285.073 285.13 285.162 285.176 285.181 285.189 285.2 285.201 285.184 285.153
285.131 285.149 285.219 285.326 285.384 285.371 285.344 285.307 285.262 285.211
285.152 285.079 284.998 284.919 284.852 284.805 284.787 284.789 284.773 284.744
284.719 284.709 284.712 284.732 284.793 284.939 284.951 284.922 285.161 284.976
285.079 285.139 285.174 285.187 285.189 285.193 285.204 285.216 285.214 285.199
285.186 285.202 285.258 285.341 285.381 285.36 285.327 285.285 285.238 285.188
285.128 285.055 284.977 284.904 284.843 284.799 284.78 284.778 284.76 284.734
284.715 284.711 284.72 284.739 284.784 284.875 284.901 284.896 285.152 284.976
285.083 285.147 285.185 285.199 285.198 285.196 285.205 285.222 285.234 285.235
285.23 285.246 285.289 285.35 285.372 285.34 285.301 285.257 285.211 285.162
285.098 285.025 284.953 284.889 284.834 284.792 284.771 284.764 284.745 284.725
284.713 284.719 284.734 284.75 284.782 284.84 284.87 284.878 285.146 284.975
285.086 285.155 285.197 285.213 285.21 285.201 285.203 285.219 285.241 285.255
285.26 285.276 285.309 285.35 285.354 285.312 285.269 285.225 285.181 285.125
285.057 284.99 284.929 284.875 284.826 284.785 284.762 284.75 284.734 284.72
284.718 284.732 284.748 284.762 284.784 284.822 284.85 284.865 285.144 284.973
285.088 285.162 285.21 285.229 285.225 285.21 285.202 285.21 285.233 285.256
285.272 285.289 285.314 285.337 285.325 285.274 285.231 285.188 285.138 285.072
285.008 284.957 284.912 284.867 284.821 284.78 284.755 284.742 284.73 284.723
284.731 284.747 284.762 284.774 284.789 284.815 284.838 284.857 285.146 284.969
285.088 285.167 285.222 285.248 285.246 285.226 285.205 285.201 285.216 285.241
285.263 285.282 285.3 285.31 285.284 285.228 285.183 285.132 285.068 285.009
284.972 284.945 284.913 284.869 284.82 284.78 284.757 284.744 284.736 284.736
284.747 284.761 284.774 284.783 284.795 284.812 284.831 284.852 285.152 284.963
285.084 285.169 285.233 285.268 285.272 285.251 285.22 285.197 285.195 285.213
285.235 285.254 285.266 285.263 285.228 285.172 285.114 285.053 285.004 284.994
284.991 284.972 284.93 284.874 284.824 284.791 284.772 284.76 284.754 284.755
284.762 284.772 284.783 284.791 284.8 284.813 284.829 284.86 285.159 284.953
285.076 285.166 285.24 285.289 285.304 285.289 285.252 285.211 285.183 285.178
285.193 285.207 285.211 285.199 285.16 285.113 285.072 285.06 285.079 285.078
285.047 284.994 284.936 284.885 284.846 284.818 284.799 284.787 284.781 284.779
284.781 284.786 284.793 284.8 284.808 284.819 284.837 284.885 285.167 284.939
285.06 285.155 285.239 285.305 285.339 285.338 285.31 285.264 285.215 285.181
285.172 285.174 285.173 285.164 285.15 285.147 285.157 285.166 285.152 285.111
285.059 285.004 284.952 284.909 284.879 284.858 284.843 284.834 284.827 284.821
284.816 284.814 284.816 284.82 284.827 284.84 284.865 284.929 285.176 284.917
285.035 285.129 285.224 285.308 285.365 285.389 285.383 285.354 285.312 285.27
285.237 285.226 285.223 285.227 285.235 285.241 285.235 285.21 285.171 285.124
285.075 285.03 284.992 284.964 284.946 284.935 284.926 284.918 284.909 284.899
284.889 284.881 284.875 284.874 284.879 284.893 284.921 284.988 285.186 284.886
284.992 285.082 285.182 285.284 285.367 285.42 285.442 285.439 285.421 285.393
285.362 285.34 285.329 285.325 285.319 285.304 285.279 285.247 285.213 285.178
285.145 285.116 285.093 285.078 285.068 285.06 285.052 285.043 285.031 285.017
285.003 284.989 284.978 284.972 284.972 284.981 285.005 285.058 285.198 284.837
284.925 284.999 285.098 285.214 285.323 285.404 285.454 285.478 285.483 285.474
285.456 285.434 285.417 285.402 285.387 285.369 285.349 285.328 285.306 285.285
285.265 285.249 285.234 285.223 285.213 285.203 285.193 285.181 285.168 285.153
285.138 285.121 285.107 285.097 285.091 285.092 285.104 285.132 285.211 284.752
284.808 284.855 284.939 285.062 285.191 285.301 285.382 285.437 285.471 285.488
285.49 285.481 285.467 285.453 285.439 285.424 285.409 285.394 285.379 285.367
285.357 285.348 285.339 285.33 285.32 285.311 285.302 285.293 285.283 285.272
285.261 285.248 285.234 285.221 285.21 285.203 285.2 285.204 285.23 284.382
284.484 284.548 284.622 284.73 284.856 284.974 285.068 285.136 285.185 285.219
285.242 285.259 285.267 285.266 285.258 285.248 285.238 285.231 285.225 285.219
285.216 285.213 285.212 285.211 285.212 285.214 285.215 285.218 285.22 285.222
285.224 285.226 285.227 285.228 285.228 285.229 285.229 285.23 285.235 
alphat 1 1600 float
0 0 0 0 0 0 0 0 0 0 0
0 0 0 0 0 0 0 0 0 0
0 0 0 0 0 0 0 0 0 0
0 0 0 0 0 0 0 0 0 0
0 0 0 0 0 0 0 0 0 0
0 0 0 0 0 0 0 0 0 0
0 0 0 0 0 0 0 0 0 0
0 0 0 0 0 0 0 0 0 0
0 0 0 0 0 0 0 0 0 0
0 0 0 0 0 0 0 0 0 0
0 0 0 0 0 0 0 0 0 0
0 0 0 0 0 0 0 0 0 0
0 0 0 0 0 0 0 0 0 0
0 0 0 0 0 0 0 0 0 0
0 0 0 0 0 0 0 0 0 0
0 0 0 0 0 0 0 0 0 0
0 0 0 0 0 0 0 0 0 0
0 0 0 0 0 0 0 0 0 0
0 0 0 0 0 0 0 0 0 0
0 0 0 0 0 0 0 0 0 0