# vtk DataFile Version 2.0
RBConvection
ASCII
DATASET UNSTRUCTURED_GRID
POINTS 3362 float
0 0 0 0.025 0 0 0.05 0 0 0.075 0
0 0.1 0 0 0.125 0 0 0.15 0 0
0.175 0 0 0.2 0 0 0.225 0 0 0.25
0 0 0.275 0 0 0.3 0 0 0.325 0
0 0.35 0 0 0.375 0 0 0.4 0 0
0.425 0 0 0.45 0 0 0.475 0 0 0.5
0 0 0.525 0 0 0.55 0 0 0.575 0
0 0.6 0 0 0.625 0 0 0.65 0 0
0.675 0 0 0.7 0 0 0.725 0 0 0.75
0 0 0.775 0 0 0.8 0 0 0.825 0
0 0.85 0 0 0.875 0 0 0.9 0 0
0.925 0 0 0.95 0 0 0.975 0 0 1
0 0 0 0.01 0 0.025 0.01 0 0.05 0.01
0 0.075 0.01 0 0.1 0.01 0 0.125 0.01 0
0.15 0.01 0 0.175 0.01 0 0.2 0.01 0 0.225
0.01 0 0.25 0.01 0 0.275 0.01 0 0.3 0.01
0 0.325 0.01 0 0.35 0.01 0 0.375 0.01 0
0.4 0.01 0 0.425 0.01 0 0.45 0.01 0 0.475
0.01 0 0.5 0.01 0 0.525 0.01 0 0.55 0.01
0 0.575 0.01 0 0.6 0.01 0 0.625 0.01 0
0.65 0.01 0 0.675 0.01 0 0.7 0.01 0 0.725
0.01 0 0.75 0.01 0 0.775 0.01 0 0.8 0.01
0 0.825 0.01 0 0.85 0.01 0 0.875 0.01 0
0.9 0.01 0 0.925 0.01 0 0.95 0.01 0 0.975
0.01 0 1 0.01 0 0 0.02 0 0.025 0.02
0 0.05 0.02 0 0.075 0.02 0 0.1 0.02 0
0.125 0.02 0 0.15 0.02 0 0.175 0.02 0 0.2
0.02 0 0.225 0.02 0 0.25 0.02 0 0.275 0.02
0 0.3 0.02 0 0.325 0.02 0 0.35 0.02 0
0.375 0.02 0 0.4 0.02 0 0.425 0.02 0 0.45
0.02 0 0.475 0.02 0 0.5 0.02 0 0.525 0.02
0 0.55 0.02 0 0.575 0.02 0 0.6 0.02 0
0.625 0.02 0 0.65 0.02 0 0.675 0.02 0 0.7
0.02 0 0.725 0.02 0 0.75 0.02 0 0.775 0.02
0 0.8 0.02 0 0.825 0.02 0 0.85 0.02 0
0.875 0.02 0 0.9 0.02 0 0.925 0.02 0 0.95
0.02 0 0.975 0.02 0 1 0.02 0 0 0.03
0 0.025 0.03 0 0.05 0.03 0 0.075 0.03 0
0.1 0.03 0 0.125 0.03 0 0.15 0.03 0 0.175
0.03 0 0.2 0.03 0 0.225 0.03 0 0.25 0.03
0 0.275 0.03 0 0.3 0.03 0 0.325 0.03 0
0.35 0.03 0 0.375 0.03 0 0.4 0.03 0 0.425
0.03 0 0.45 0.03 0 0.475 0.03 0 0.5 0.03
0 0.525 0.03 0 0.55 0.03 0 0.575 0.03 0
0.6 0.03 0 0.625 0.03 0 0.65 0.03 0 0.675
0.03 0 0.7 0.03 0 0.725 0.03 0 0.75 0.03
0 0.775 0.03 0 0.8 0.03 0 0.825 0.03 0
0.85 0.03 0 0.875 0.03 0 0.9 0.03 0 0.925
0.03 0 0.95 0.03 0 0.975 0.03 0 1 0.03
0 0 0.04 0 0.025 0.04 0 0.05 0.04 0
0.075 0.04 0 0.1 0.04 0 0.125 0.04 0 0.15
0.04 0 0.175 0.04 0 0.2 0.04 0 0.225 0.04
0 0.25 0.04 0 0.275 0.04 0 0.3 0.04 0
0.325 0.04 0 0.35 0.04 0 0.375 0.04 0 0.4
0.04 0 0.425 0.04 0 0.45 0.04 0 0.475 0.04
0 0.5 0.04 0 0.525 0.04 0 0.55 0.04 0
0.575 0.04 0 0.6 0.04 0 0.625 0.04 0 0.65
0.04 0 0.675 0.04 0 0.7 0.04 0 0.725 0.04
0 0.75 0.04 0 0.775 0.04 0 0.8 0.04 0
0.825 0.04 0 0.85 0.04 0 0.875 0.04 0 0.9
0.04 0 0.925 0.04 0 0.95 0.04 0 0.975 0.04
0 1 0.04 0 0 0.05 0 0.025 0.05 0
0.05 0.05 0 0.075 0.05 0 0.1 0.05 0 0.125
0.05 0 0.15 0.05 0 0.175 0.05 0 0.2 0.05
0 0.225 0.05 0 0.25 0.05 0 0.275 0.05 0
0.3 0.05 0 0.325 0.05 0 0.35 0.05 0 0.375
0.05 0 0.4 0.05 0 0.425 0.05 0 0.45 0.05
0 0.475 0.05 0 0.5 0.05 0 0.525 0.05 0
0.55 0.05 0 0.575 0.05 0 0.6 0.05 0 0.625
0.05 0 0.65 0.05 0 0.675 0.05 0 0.7 0.05
0 0.725 0.05 0 0.75 0.05 0 0.775 0.05 0
0.8 0.05 0 0.825 0.05 0 0.85 0.05 0 0.875
0.05 0 0.9 0.05 0 0.925 0.05 0 0.95 0.05
0 0.975 0.05 0 1 0.05 0 0 0.06 0
0.025 0.06 0 0.05 0.06 0 0.075 0.06 0 0.1
0.06 0 0.125 0.06 0 0.15 0.06 0 0.175 0.06
0 0.2 0.06 0 0.225 0.06 0 0.25 0.06 0
0.275 0.06 0 0.3 0.06 0 0.325 0.06 0 0.35
0.06 0 0.375 0.06 0 0.4 0.06 0 0.425 0.06
0 0.45 0.06 0 0.475 0.06 0 0.5 0.06 0
0.525 0.06 0 0.55 0.06 0 0.575 0.06 0 0.6
0.06 0 0.625 0.06 0 0.65 0.06 0 0.675 0.06
0 0.7 0.06 0 0.725 0.06 0 0.75 0.06 0
0.775 0.06 0 0.8 0.06 0 0.825 0.06 0 0.85
0.06 0 0.875 0.06 0 0.9 0.06 0 0.925 0.06
0 0.95 0.06 0 0.975 0.06 0 1 0.06 0
0 0.07 0 0.025 0.07 0 0.05 0.07 0 0.075
0.07 0 0.1 0.07 0 0.125 0.07 0 0.15 0.07
0 0.175 0.07 0 0.2 0.07 0 0.225 0.07 0
0.25 0.07 0 0.275 0.07 0 0.3 0.07 0 0.325
0.07 0 0.35 0.07 0 0.375 0.07 0 0.4 0.07
0 0.425 0.07 0 0.45 0.07 0 0.475 0.07 0
0.5 0.07 0 0.525 0.07 0 0.55 0.07 0 0.575
0.07 0 0.6 0.07 0 0.625 0.07 0 0.65 0.07
0 0.675 0.07 0 0.7 0.07 0 0.725 0.07 0
0.75 0.07 0 0.775 0.07 0 0.8 0.07 0 0.825
0.07 0 0.85 0.07 0 0.875 0.07 0 0.9 0.07
0 0.925 0.07 0 0.95 0.07 0 0.975 0.07 0
1 0.07 0 0 0.08 0 0.025 0.08 0 0.05
0.08 0 0.075 0.08 0 0.1 0.08 0 0.125 0.08
0 0.15 0.08 0 0.175 0.08 0 0.2 0.08 0
0.225 0.08 0 0.25 0.08 0 0.275 0.08 0 0.3
0.08 0 0.325 0.08 0 0.35 0.08 0 0.375 0.08
0 0.4 0.08 0 0.425 0.08 0 0.45 0.08 0
0.475 0.08 0 0.5 0.08 0 0.525 0.08 0 0.55
0.08 0 0.575 0.08 0 0.6 0.08 0 0.625 0.08
0 0.65 0.08 0 0.675 0.08 0 0.7 0.08 0
0.725 0.08 0 0.75 0.08 0 0.775 0.08 0 0.8
0.08 0 0.825 0.08 0 0.85 0.08 0 0.875 0.08
0 0.9 0.08 0 0.925 0.08 0 0.95 0.08 0
0.975 0.08 0 1 0.08 0 0 0.09 0 0.025
0.09 0 0.05 0.09 0 0.075 0.09 0 0.1 0.09
0 0.125 0.09 0 0.15 0.09 0 0.175 0.09 0
0.2 0.09 0 0.225 0.09 0 0.25 0.09 0 0.275
0.09 0 0.3 0.09 0 0.325 0.09 0 0.35 0.09
0 0.375 0.09 0 0.4 0.09 0 0.425 0.09 0
0.45 0.09 0 0.475 0.09 0 0.5 0.09 0 0.525
0.09 0 0.55 0.09 0 0.575 0.09 0 0.6 0.09
0 0.625 0.09 0 0.65 0.09 0 0.675 0.09 0
0.7 0.09 0 0.725 0.09 0 0.75 0.09 0 0.775
0.09 0 0.8 0.09 0 0.825 0.09 0 0.85 0.09
0 0.875 0.09 0 0.9 0.09 0 0.925 0.09 0
0.95 0.09 0 0.975 0.09 0 1 0.09 0 0
0.1 0 0.025 0.1 0 0.05 0.1 0 0.075 0.1
0 0.1 0.1 0 0.125 0.1 0 0.15 0.1 0
0.175 0.1 0 0.2 0.1 0 0.225 0.1 0 0.25
0.1 0 0.275 0.1 0 0.3 0.1 0 0.325 0.1
0 0.35 0.1 0 0.375 0.1 0 0.4 0.1 0
0.425 0.1 0 0.45 0.1 0 0.475 0.1 0 0.5
0.1 0 0.525 0.1 0 0.55 0.1 0 0.575 0.1
0 0.6 0.1 0 0.625 0.1 0 0.65 0.1 0
0.675 0.1 0 0.7 0.1 0 0.725 0.1 0 0.75
0.1 0 0.775 0.1 0 0.8 0.1 0 0.825 0.1
0 0.85 0.1 0 0.875 0.1 0 0.9 0.1 0
0.925 0.1 0 0.95 0.1 0 0.975 0.1 0 1
0.1 0 0 0.11 0 0.025 0.11 0 0.05 0.11
0 0.075 0.11 0 0.1 0.11 0 0.125 0.11 0
0.15 0.11 0 0.175 0.11 0 0.2 0.11 0 0.225
0.11 0 0.25 0.11 0 0.275 0.11 0 0.3 0.11
0 0.325 0.11 0 0.35 0.11 0 0.375 0.11 0
0.4 0.11 0 0.425 0.11 0 0.45 0.11 0 0.475
0.11 0 0.5 0.11 0 0.525 0.11 0 0.55 0.11
0 0.575 0.11 0 0.6 0.11 0 0.625 0.11 0
0.65 0.11 0 0.675 0.11 0 0.7 0.11 0 0.725
0.11 0 0.75 0.11 0 0.775 0.11 0 0.8 0.11
0 0.825 0.11 0 0.85 0.11 0 0.875 0.11 0
0.9 0.11 0 0.925 0.11 0 0.95 0.11 0 0.975
0.11 0 1 0.11 0 0 0.12 0 0.025 0.12
0 0.05 0.12 0 0.075 0.12 0 0.1 0.12 0
0.125 0.12 0 0.15 0.12 0 0.175 0.12 0 0.2
0.12 0 0.225 0.12 0 0.25 0.12 0 0.275 0.12
0 0.3 0.12 0 0.325 0.12 0 0.35 0.12 0
0.375 0.12 0 0.4 0.12 0 0.425 0.12 0 0.45
0.12 0 0.475 0.12 0 0.5 0.12 0 0.525 0.12
0 0.55 0.12 0 0.575 0.12 0 0.6 0.12 0
0.625 0.12 0 0.65 0.12 0 0.675 0.12 0 0.7
0.12 0 0.725 0.12 0 0.75 0.12 0 0.775 0.12
0 0.8 0.12 0 0.825 0.12 0 0.85 0.12 0
0.875 0.12 0 0.9 0.12 0 0.925 0.12 0 0.95
0.12 0 0.975 0.12 0 1 0.12 0 0 0.13
0 0.025 0.13 0 0.05 0.13 0 0.075 0.13 0
0.1 0.13 0 0.125 0.13 0 0.15 0.13 0 0.175
0.13 0 0.2 0.13 0 0.225 0.13 0 0.25 0.13
0 0.275 0.13 0 0.3 0.13 0 0.325 0.13 0
0.35 0.13 0 0.375 0.13 0 0.4 0.13 0 0.425
0.13 0 0.45 0.13 0 0.475 0.13 0 0.5 0.13
0 0.525 0.13 0 0.55 0.13 0 0.575 0.13 0
0.6 0.13 0 0.625 0.13 0 0.65 0.13 0 0.675
0.13 0 0.7 0.13 0 0.725 0.13 0 0.75 0.13
0 0.775 0.13 0 0.8 0.13 0 0.825 0.13 0
0.85 0.13 0 0.875 0.13 0 0.9 0.13 0 0.925
0.13 0 0.95 0.13 0 0.975 0.13 0 1 0.13
0 0 0.14 0 0.025 0.14 0 0.05 0.14 0
0.075 0.14 0 0.1 0.14 0 0.125 0.14 0 0.15
0.14 0 0.175 0.14 0 0.2 0.14 0 0.225 0.14
0 0.25 0.14 0 0.275 0.14 0 0.3 0.14 0
0.325 0.14 0 0.35 0.14 0 0.375 0.14 0 0.4
0.14 0 0.425 0.14 0 0.45 0.14 0 0.475 0.14
0 0.5 0.14 0 0.525 0.14 0 0.55 0.14 0
0.575 0.14 0 0.6 0.14 0 0.625 0.14 0 0.65
0.14 0 0.675 0.14 0 0.7 0.14 0 0.725 0.14
0 0.75 0.14 0 0.775 0.14 0 0.8 0.14 0
0.825 0.14 0 0.85 0.14 0 0.875 0.14 0 0.9
0.14 0 0.925 0.14 0 0.95 0.14 0 0.975 0.14
0 1 0.14 0 0 0.15 0 0.025 0.15 0
0.05 0.15 0 0.075 0.15 0 0.1 0.15 0 0.125
0.15 0 0.15 0.15 0 0.175 0.15 0 0.2 0.15
0 0.225 0.15 0 0.25 0.15 0 0.275 0.15 0
0.3 0.15 0 0.325 0.15 0 0.35 0.15 0 0.375
0.15 0 0.4 0.15 0 0.425 0.15 0 0.45 0.15
0 0.475 0.15 0 0.5 0.15 0 0.525 0.15 0
0.55 0.15 0 0.575 0.15 0 0.6 0.15 0 0.625
0.15 0 0.65 0.15 0 0.675 0.15 0 0.7 0.15
0 0.725 0.15 0 0.75 0.15 0 0.775 0.15 0
0.8 0.15 0 0.825 0.15 0 0.85 0.15 0 0.875
0.15 0 0.9 0.15 0 0.925 0.15 0 0.95 0.15
0 0.975 0.15 0 1 0.15 0 0 0.16 0
0.025 0.16 0 0.05 0.16 0 0.075 0.16 0 0.1
0.16 0 0.125 0.16 0 0.15 0.16 0 0.175 0.16
0 0.2 0.16 0 0.225 0.16 0 0.25 0.16 0
0.275 0.16 0 0.3 0.16 0 0.325 0.16 0 0.35
0.16 0 0.375 0.16 0 0.4 0.16 0 0.425 0.16
0 0.45 0.16 0 0.475 0.16 0 0.5 0.16 0
0.525 0.16 0 0.55 0.16 0 0.575 0.16 0 0.6
0.16 0 0.625 0.16 0 0.65 0.16 0 0.675 0.16
0 0.7 0.16 0 0.725 0.16 0 0.75 0.16 0
0.775 0.16 0 0.8 0.16 0 0.825 0.16 0 0.85
0.16 0 0.875 0.16 0 0.9 0.16 0 0.925 0.16
0 0.95 0.16 0 0.975 0.16 0 1 0.16 0
0 0.17 0 0.025 0.17 0 0.05 0.17 0 0.075
0.17 0 0.1 0.17 0 0.125 0.17 0 0.15 0.17
0 0.175 0.17 0 0.2 0.17 0 0.225 0.17 0
0.25 0.17 0 0.275 0.17 0 0.3 0.17 0 0.325
0.17 0 0.35 0.17 0 0.375 0.17 0 0.4 0.17
0 0.425 0.17 0 0.45 0.17 0 0.475 0.17 0
0.5 0.17 0 0.525 0.17 0 0.55 0.17 0 0.575
0.17 0 0.6 0.17 0 0.625 0.17 0 0.65 0.17
0 0.675 0.17 0 0.7 0.17 0 0.725 0.17 0
0.75 0.17 0 0.775 0.17 0 0.8 0.17 0 0.825
0.17 0 0.85 0.17 0 0.875 0.17 0 0.9 0.17
0 0.925 0.17 0 0.95 0.17 0 0.975 0.17 0
1 0.17 0 0 0.18 0 0.025 0.18 0 0.05
0.18 0 0.075 0.18 0 0.1 0.18 0 0.125 0.18
0 0.15 0.18 0 0.175 0.18 0 0.2 0.18 0
0.225 0.18 0 0.25 0.18 0 0.275 0.18 0 0.3
0.18 0 0.325 0.18 0 0.35 0.18 0 0.375 0.18
0 0.4 0.18 0 0.425 0.18 0 0.45 0.18 0
0.475 0.18 0 0.5 0.18 0 0.525 0.18 0 0.55
0.18 0 0.575 0.18 0 0.6 0.18 0 0.625 0.18
0 0.65 0.18 0 0.675 0.18 0 0.7 0.18 0
0.725 0.18 0 0.75 0.18 0 0.775 0.18 0 0.8
0.18 0 0.825 0.18 0 0.85 0.18 0 0.875 0.18
0 0.9 0.18 0 0.925 0.18 0 0.95 0.18 0
0.975 0.18 0 1 0.18 0 0 0.19 0 0.025
0.19 0 0.05 0.19 0 0.075 0.19 0 0.1 0.19
0 0.125 0.19 0 0.15 0.19 0 0.175 0.19 0
0.2 0.19 0 0.225 0.19 0 0.25 0.19 0 0.275
0.19 0 0.3 0.19 0 0.325 0.19 0 0.35 0.19
0 0.375 0.19 0 0.4 0.19 0 0.425 0.19 0
0.45 0.19 0 0.475 0.19 0 0.5 0.19 0 0.525
0.19 0 0.55 0.19 0 0.575 0.19 0 0.6 0.19
0 0.625 0.19 0 0.65 0.19 0 0.675 0.19 0
0.7 0.19 0 0.725 0.19 0 0.75 0.19 0 0.775
0.19 0 0.8 0.19 0 0.825 0.19 0 0.85 0.19
0 0.875 0.19 0 0.9 0.19 0 0.925 0.19 0
0.95 0.19 0 0.975 0.19 0 1 0.19 0 0
0.2 0 0.025 0.2 0 0.05 0.2 0 0.075 0.2
0 0.1 0.2 0 0.125 0.2 0 0.15 0.2 0
0.175 0.2 0 0.2 0.2 0 0.225 0.2 0 0.25
[...]
CELL_DATA 1600
FIELD attributes 6
cellID 1 1600 int
0 1 2 3 4 5 6 7 8 9 10
11 12 13 14 15 16 17 18 19 20
21 22 23 24 25 26 27 28 29 30
31 32 33 34 35 36 37 38 39 40
41 42 43 44 45 46 47 48 49 50
51 52 53 54 55 56 57 58 59 60
61 62 63 64 65 66 67 68 69 70
71 72 73 74 75 76 77 78 79 80
81 82 83 84 85 86 87 88 89 90
91 92 93 94 95 96 97 98 99 100
101 102 103 104 105 106 107 108 109 110
111 112 113 114 115 116 117 118 119 120
121 122 123 124 125 126 127 128 129 130
131 132 133 134 135 136 137 138 139 140
141 142 143 144 145 146 147 148 149 150
151 152 153 154 155 156 157 158 159 160
161 162 163 164 165 166 167 168 169 170
171 172 173 174 175 176 177 178 179 180
181 182 183 184 185 186 187 188 189 190
191 192 193 194 195 196 197 198 199 200
201 202 203 204 205 206 207 208 209 210
211 212 213 214 215 216 217 218 219 220
221 222 223 224 225 226 227 228 229 230
231 232 233 234 235 236 237 238 239 240
241 242 243 244 245 246 247 248 249 250
251 252 253 254 255 256 257 258 259 260
261 262 263 264 265 266 267 268 269 270
271 272 273 274 275 276 277 278 279 280
281 282 283 284 285 286 287 288 289 290
291 292 293 294 295 296 297 298 299 300
301 302 303 304 305 306 307 308 309 310
311 312 313 314 315 316 317 318 319 320
321 322 323 324 325 326 327 328 329 330
331 332 333 334 335 336 337 338 339 340
341 342 343 344 345 346 347 348 349 350
351 352 353 354 355 356 357 358 359 360
361 362 363 364 365 366 367 368 369 370
371 372 373 374 375 376 377 378 379 380
381 382 383 384 385 386 387 388 389 390
391 392 393 394 395 396 397 398 399 400
401 402 403 404 405 406 407 408 409 410
411 412 413 414 415 416 417 418 419 420
421 422 423 424 425 426 427 428 429 430
431 432 433 434 435 436 437 438 439 440
441 442 443 444 445 446 447 448 449 450
451 452 453 454 455 456 457 458 459 460
461 462 463 464 465 466 467 468 469 470
471 472 473 474 475 476 477 478 479 480
481 482 483 484 485 486 487 488 489 490
491 492 493 494 495 496 497 498 499 500
501 502 503 504 505 506 507 508 509 510
511 512 513 514 515 516 517 518 519 520
521 522 523 524 525 526 527 528 529 530
531 532 533 534 535 536 537 538 539 540
541 542 543 544 545 546 547 548 549 550
551 552 553 554 555 556 557 558 559 560
561 562 563 564 565 566 567 568 569 570
571 572 573 574 575 576 577 578 579 580
581 582 583 584 585 586 587 588 589 590
591 592 593 594 595 596 597 598 599 600
601 602 603 604 605 606 607 608 609 610
611 612 613 614 615 616 617 618 619 620
621 622 623 624 625 626 627 628 629 630
631 632 633 634 635 636 637 638 639 640
641 642 643 644 645 646 647 648 649 650
651 652 653 654 655 656 657 658 659 660
661 662 663 664 665 666 667 668 669 670
671 672 673 674 675 676 677 678 679 680
681 682 683 684 685 686 687 688 689 690
691 692 693 694 695 696 697 698 699 700
701 702 703 704 705 706 707 708 709 710
711 712 713 714 715 716 717 718 719 720
721 722 723 724 725 726 727 728 729 730
731 732 733 734 735 736 737 738 739 740
741 742 743 744 745 746 747 748 749 750
751 752 753 754 755 756 757 758 759 760
761 762 763 764 765 766 767 768 769 770
771 772 773 774 775 776 777 778 779 780
781 782 783 784 785 786 787 788 789 790
791 792 793 794 795 796 797 798 799 800
801 802 803 804 805 806 807 808 809 810
811 812 813 814 815 816 817 818 819 820
821 822 823 824 825 826 827 828 829 830
831 832 833 834 835 836 837 838 839 840
841 842 843 844 845 846 847 848 849 850
851 852 853 854 855 856 857 858 859 860
861 862 863 864 865 866 867 868 869 870
871 872 873 874 875 876 877 878 879 880
881 882 883 884 885 886 887 888 889 890
891 892 893 894 895 896 897 898 899 900
901 902 903 904 905 906 907 908 909 910
911 912 913 914 915 916 917 918 919 920
921 922 923 924 925 926 927 928 929 930
931 932 933 934 935 936 937 938 939 940
941 942 943 944 945 946 947 948 949 950
951 952 953 954 955 956 957 958 959 960
961 962 963 964 965 966 967 968 969 970
971 972 973 974 975 976 977 978 979 980
981 982 983 984 985 986 987 988 989 990
991 992 993 994 995 996 997 998 999 1000
1001 1002 1003 1004 1005 1006 1007 1008 1009 1010
1011 1012 1013 1014 1015 1016 1017 1018 1019 1020
1021 1022 1023 1024 1025 1026 1027 1028 1029 1030
1031 1032 1033 1034 1035 1036 1037 1038 1039 1040
1041 1042 1043 1044 1045 1046 1047 1048 1049 1050
1051 1052 1053 1054 1055 1056 1057 1058 1059 1060
1061 1062 1063 1064 1065 1066 1067 1068 1069 1070
1071 1072 1073 1074 1075 1076 1077 1078 1079 1080
1081 1082 1083 1084 1085 1086 1087 1088 1089 1090
1091 1092 1093 1094 1095 1096 1097 1098 1099 1100
1101 1102 1103 1104 1105 1106 1107 1108 1109 1110
1111 1112 1113 1114 1115 1116 1117 1118 1119 1120
1121 1122 1123 1124 1125 1126 1127 1128 1129 1130
1131 1132 1133 1134 1135 1136 1137 1138 1139 1140
1141 1142 1143 1144 1145 1146 1147 1148 1149 1150
1151 1152 1153 1154 1155 1156 1157 1158 1159 1160
1161 1162 1163 1164 1165 1166 1167 1168 1169 1170
1171 1172 1173 1174 1175 1176 1177 1178 1179 1180
1181 1182 1183 1184 1185 1186 1187 1188 1189 1190
1191 1192 1193 1194 1195 1196 1197 1198 1199 1200
1201 1202 1203 1204 1205 1206 1207 1208 1209 1210
1211 1212 1213 1214 1215 1216 1217 1218 1219 1220
1221 1222 1223 1224 1225 1226 1227 1228 1229 1230
1231 1232 1233 1234 1235 1236 1237 1238 1239 1240
1241 1242 1243 1244 1245 1246 1247 1248 1249 1250
1251 1252 1253 1254 1255 1256 1257 1258 1259 1260
1261 1262 1263 1264 1265 1266 1267 1268 1269 1270
1271 1272 1273 1274 1275 1276 1277 1278 1279 1280
1281 1282 1283 1284 1285 1286 1287 1288 1289 1290
1291 1292 1293 1294 1295 1296 1297 1298 1299 1300
1301 1302 1303 1304 1305 1306 1307 1308 1309 1310
1311 1312 1313 1314 1315 1316 1317 1318 1319 1320
1321 1322 1323 1324 1325 1326 1327 1328 1329 1330
1331 1332 1333 1334 1335 1336 1337 1338 1339 1340
1341 1342 1343 1344 1345 1346 1347 1348 1349 1350
1351 1352 1353 1354 1355 1356 1357 1358 1359 1360
1361 1362 1363 1364 1365 1366 1367 1368 1369 1370
1371 1372 1373 1374 1375 1376 1377 1378 1379 1380
1381 1382 1383 1384 1385 1386 1387 1388 1389 1390
1391 1392 1393 1394 1395 1396 1397 1398 1399 1400
1401 1402 1403 1404 1405 1406 1407 1408 1409 1410
1411 1412 1413 1414 1415 1416 1417 1418 1419 1420
1421 1422 1423 1424 1425 1426 1427 1428 1429 1430
1431 1432 1433 1434 1435 1436 1437 1438 1439 1440
1441 1442 1443 1444 1445 1446 1447 1448 1449 1450
1451 1452 1453 1454 1455 1456 1457 1458 1459 1460
1461 1462 1463 1464 1465 1466 1467 1468 1469 1470
1471 1472 1473 1474 1475 1476 1477 1478 1479 1480
1481 1482 1483 1484 1485 1486 1487 1488 1489 1490
1491 1492 1493 1494 1495 1496 1497 1498 1499 1500
1501 1502 1503 1504 1505 1506 1507 1508 1509 1510
1511 1512 1513 1514 1515 1516 1517 1518 1519 1520
1521 1522 1523 1524 1525 1526 1527 1528 1529 1530
1531 1532 1533 1534 1535 1536 1537 1538 1539 1540
1541 1542 1543 1544 1545 1546 1547 1548 1549 1550
1551 1552 1553 1554 1555 1556 1557 1558 1559 1560
1561 1562 1563 1564 1565 1566 1567 1568 1569 1570
1571 1572 1573 1574 1575 1576 1577 1578 1579 1580
1581 1582 1583 1584 1585 1586 1587 1588 1589 1590
1591 1592 1593 1594 1595 1596 1597 1598 1599 
T 1 1600 float
285.257 284.768 284.304 284.159 284.122 284.222 284.349 284.495 284.665 284.871 285.126
285.376 285.628 285.891 286.17 286.468 286.788 287.13 287.517 287.24 285.915
287.004 287.387 286.918 286.386 286.666 286.019 285.795 285.532 285.176 284.853
284.505 284.372 284.353 284.399 284.528 284.763 284.998 285.261 285.637 284.494
283.423 283.33 283.32 283.285 283.254 283.227 283.203 283.181 283.159 283.138
283.173 283.265 283.406 283.584 283.779 283.983 284.385 285.035 284.266 283.574
284.894 285.909 283.768 283.255 283.244 283.136 283.123 283.121 283.123 283.132
283.152 283.186 283.221 283.252 283.269 283.27 283.435 283.868 284.773 284.273
283.305 283.43 283.376 283.324 283.283 283.251 283.225 283.203 283.182 283.16
283.14 283.129 283.137 283.173 283.233 283.319 283.52 283.853 283.479 283.177
284.1 285.349 283.395 283.076 283.079 283.078 283.084 283.095 283.111 283.134
283.166 283.213 283.265 283.313 283.342 283.337 283.352 283.569 284.425 284.236
283.552 283.497 283.4 283.326 283.276 283.242 283.217 283.197 283.181 283.166
283.149 283.131 283.114 283.105 283.109 283.13 283.205 283.324 283.163 283.03
283.709 285.039 283.292 283.057 283.063 283.07 283.081 283.096 283.119 283.149
283.188 283.237 283.301 283.366 283.412 283.41 283.387 283.487 284.246 284.195
283.765 283.524 283.376 283.29 283.239 283.208 283.186 283.171 283.159 283.149
283.139 283.127 283.111 283.095 283.081 283.075 283.09 283.117 283.044 282.977
283.49 284.834 283.242 283.046 283.054 283.063 283.077 283.096 283.123 283.158
283.203 283.257 283.323 283.401 283.467 283.474 283.431 283.466 284.143 284.147
283.695 283.436 283.3 283.23 283.192 283.17 283.155 283.144 283.135 283.127
283.121 283.113 283.103 283.09 283.074 283.058 283.049 283.042 282.999 282.958
283.358 284.686 283.209 283.036 283.045 283.055 283.071 283.092 283.122 283.16
283.208 283.268 283.339 283.418 283.501 283.529 283.469 283.464 284.081 284.082
283.532 283.308 283.215 283.175 283.157 283.146 283.137 283.13 283.123 283.115
283.108 283.102 283.094 283.083 283.069 283.052 283.035 283.016 282.983 282.952
283.274 284.572 283.185 283.027 283.035 283.046 283.062 283.084 283.115 283.155
283.205 283.268 283.344 283.43 283.512 283.561 283.487 283.465 284.043 283.485
283.273 283.183 283.155 283.148 283.144 283.14 283.135 283.129 283.123 283.115
283.106 283.098 283.089 283.079 283.066 283.049 283.03 283.007 282.977 282.95
283.217 284.479 283.165 283.019 283.025 283.035 283.051 283.073 283.103 283.142
283.192 283.256 283.336 283.429 283.518 283.57 283.497 283.467 284.021 283.09
283.106 283.125 283.14 283.147 283.149 283.145 283.139 283.132 283.125 283.119
283.111 283.101 283.089 283.077 283.064 283.047 283.028 283.004 282.975 282.949
283.178 284.401 283.147 283.011 283.014 283.022 283.037 283.058 283.086 283.123
283.172 283.235 283.317 283.415 283.515 283.575 283.514 283.466 284.014 283.086
283.116 283.14 283.154 283.159 283.157 283.15 283.14 283.131 283.123 283.119
283.114 283.105 283.093 283.079 283.064 283.047 283.027 283.003 282.974 282.948
283.151 284.335 283.131 283.002 283.003 283.009 283.022 283.041 283.067 283.101
283.146 283.206 283.286 283.389 283.505 283.592 283.568 283.499 284.011 283.094
283.134 283.158 283.168 283.168 283.162 283.151 283.138 283.124 283.115 283.111
283.111 283.107 283.097 283.082 283.066 283.048 283.027 283.003 282.974 282.948
283.131 284.278 283.117 282.995 282.993 282.997 283.007 283.024 283.047 283.078
283.117 283.171 283.245 283.348 283.478 283.605 283.652 283.58 284.009 283.101
283.15 283.172 283.177 283.173 283.164 283.15 283.133 283.116 283.103 283.099
283.102 283.104 283.098 283.085 283.068 283.049 283.027 283.002 282.973 282.947
283.117 284.228 283.104 282.988 282.984 282.986 282.994 283.009 283.03 283.056
283.09 283.134 283.198 283.292 283.425 283.587 283.712 283.7 284.006 283.106
283.163 283.182 283.183 283.176 283.165 283.15 283.131 283.11 283.093 283.086
283.09 283.097 283.096 283.087 283.071 283.05 283.028 283.002 282.972 282.946
283.107 284.185 283.093 282.982 282.976 282.977 282.984 282.998 283.017 283.04
283.068 283.102 283.15 283.226 283.348 283.524 283.723 283.839 284.004 283.111
283.173 283.188 283.186 283.179 283.168 283.152 283.132 283.108 283.086 283.074
283.079 283.09 283.094 283.087 283.072 283.052 283.028 283.002 282.971 282.945
283.1 284.148 283.082 282.976 282.97 282.97 282.976 282.99 283.009 283.031
283.054 283.08 283.112 283.163 283.254 283.411 283.646 283.904 284.001 283.116
283.181 283.193 283.189 283.182 283.173 283.158 283.138 283.112 283.084 283.065
283.069 283.083 283.091 283.087 283.073 283.052 283.028 283.001 282.97 282.944
283.097 284.116 283.073 282.971 282.965 282.965 282.972 282.986 283.006 283.028
283.05 283.071 283.091 283.117 283.166 283.271 283.47 283.764 283.997 283.12
283.186 283.195 283.192 283.187 283.18 283.167 283.148 283.121 283.09 283.061
283.058 283.078 283.089 283.086 283.073 283.052 283.027 282.999 282.968 282.943
283.098 284.089 283.064 282.967 282.961 282.96 282.968 282.984 283.006 283.03
283.053 283.073 283.087 283.098 283.112 283.151 283.264 283.528 283.97 283.124
283.189 283.198 283.196 283.193 283.188 283.177 283.16 283.135 283.102 283.063
283.044 283.071 283.086 283.085 283.072 283.051 283.026 282.997 282.965 282.941
283.113 284.061 283.056 282.964 282.957 282.957 282.965 282.982 283.006 283.033
283.058 283.08 283.095 283.103 283.1 283.091 283.086 283.119 283.28 283.128
283.191 283.2 283.2 283.199 283.195 283.187 283.172 283.151 283.119 283.073
283.034 283.057 283.081 283.082 283.07 283.049 283.023 282.994 282.962 282.94
283.141 284.032 283.048 282.96 282.953 282.953 282.961 282.98 283.006 283.035
283.062 283.086 283.105 283.117 283.119 283.11 283.092 283.068 283.047 283.13
283.193 283.202 283.203 283.204 283.201 283.194 283.182 283.165 283.137 283.092
283.036 283.027 283.069 283.076 283.065 283.045 283.019 282.99 282.958 282.938
283.178 284 283.041 282.957 282.95 282.948 282.957 282.977 283.005 283.035
283.064 283.09 283.112 283.128 283.135 283.132 283.117 283.093 283.062 283.131
283.194 283.203 283.205 283.206 283.203 283.197 283.188 283.175 283.153 283.112
283.051 283.002 283.054 283.065 283.058 283.039 283.014 282.985 282.953 282.937
283.22 283.967 283.034 282.954 282.946 282.944 282.952 282.973 283.002 283.034
283.064 283.09 283.115 283.135 283.148 283.149 283.138 283.114 283.073 283.132
283.195 283.203 283.204 283.203 283.199 283.193 283.186 283.18 283.166 283.132
283.072 283.01 283.026 283.051 283.047 283.031 283.007 282.979 282.948 282.936
283.267 283.932 283.027 282.951 282.942 282.939 282.947 282.968 282.999 283.031
283.06 283.087 283.114 283.139 283.156 283.163 283.156 283.133 283.082 283.131
283.194 283.201 283.201 283.197 283.19 283.182 283.177 283.177 283.173 283.149
283.095 283.024 282.993 283.031 283.034 283.021 282.999 282.972 282.943 282.939
283.316 283.895 283.021 282.948 282.938 282.933 282.94 282.962 282.993 283.026
283.053 283.08 283.11 283.139 283.161 283.173 283.17 283.148 283.09 283.13
283.193 283.198 283.194 283.186 283.175 283.164 283.161 283.166 283.172 283.161
283.116 283.044 282.985 283.008 283.018 283.008 282.989 282.964 282.937 282.953
283.363 283.858 283.015 282.945 282.933 282.927 282.933 282.955 282.987 283.018
283.042 283.07 283.103 283.136 283.164 283.18 283.181 283.161 283.096 283.128
283.191 283.193 283.185 283.172 283.156 283.143 283.14 283.15 283.166 283.167
283.134 283.067 283 282.987 283 282.995 282.978 282.955 282.932 282.981
283.404 283.82 283.009 282.941 282.928 282.92 282.926 282.947 282.978 283.007
283.028 283.057 283.094 283.132 283.164 283.184 283.189 283.171 283.102 283.125
283.189 283.188 283.174 283.156 283.137 283.121 283.118 283.132 283.155 283.168
283.147 283.088 283.016 282.976 282.982 282.98 282.967 282.946 282.928 283.021
283.439 283.781 283.003 282.938 282.923 282.913 282.917 282.936 282.967 282.993
283.012 283.044 283.086 283.128 283.163 283.187 283.195 283.179 283.108 283.121
283.186 283.182 283.164 283.142 283.119 283.102 283.098 283.114 283.143 283.166
283.157 283.107 283.034 282.977 282.968 282.966 282.956 282.938 282.933 283.067
283.469 283.744 282.997 282.934 282.918 282.906 282.906 282.924 282.957 282.976
282.996 283.033 283.079 283.124 283.162 283.189 283.199 283.184 283.113 283.116
283.183 283.177 283.156 283.131 283.106 283.087 283.082 283.099 283.132 283.162
283.163 283.123 283.054 282.988 282.961 282.954 282.946 282.934 282.95 283.116
283.492 283.707 282.992 282.93 282.913 282.898 282.896 282.913 282.941 282.956
282.982 283.025 283.075 283.123 283.163 283.191 283.202 283.188 283.118 283.11
283.181 283.174 283.151 283.125 283.098 283.076 283.07 283.088 283.124 283.159
283.168 283.136 283.074 283.005 282.963 282.949 282.941 282.939 282.98 283.165
283.51 283.672 282.987 282.926 282.907 282.89 282.888 282.901 282.922 282.939
282.973 283.022 283.076 283.126 283.166 283.193 283.204 283.191 283.121 283.103
283.179 283.174 283.15 283.123 283.095 283.07 283.063 283.081 283.12 283.158
283.173 283.149 283.094 283.027 282.976 282.953 282.946 282.956 283.02 283.211
283.524 283.641 282.982 282.922 282.901 282.884 282.88 282.89 282.905 282.928
282.97 283.025 283.082 283.132 283.171 283.197 283.207 283.192 283.122 283.096
283.178 283.176 283.152 283.125 283.095 283.067 283.059 283.079 283.119 283.16
283.179 283.163 283.116 283.054 283.001 282.972 282.966 282.988 283.067 283.255
283.532 283.615 282.979 282.918 282.897 282.88 282.875 282.882 282.895 282.927
282.977 283.036 283.093 283.142 283.179 283.203 283.21 283.193 283.123 283.087
283.176 283.18 283.158 283.131 283.096 283.064 283.057 283.081 283.123 283.164
283.187 283.179 283.142 283.088 283.036 283.006 283.002 283.032 283.117 283.294
283.538 283.596 282.977 282.916 282.894 282.879 282.875 282.88 282.898 282.938
282.994 283.055 283.111 283.157 283.189 283.208 283.212 283.193 283.122 283.078
283.173 283.185 283.166 283.137 283.096 283.061 283.057 283.085 283.129 283.172
283.198 283.197 283.17 283.126 283.081 283.053 283.051 283.084 283.168 283.328
283.541 283.583 282.992 282.923 282.898 282.885 282.882 282.89 282.917 282.964
283.022 283.082 283.134 283.174 283.201 283.215 283.214 283.192 283.12 283.068
283.167 283.19 283.175 283.143 283.095 283.056 283.057 283.09 283.137 283.182
283.211 283.217 283.2 283.168 283.132 283.109 283.109 283.14 283.218 283.358
283.541 283.568 283.045 282.949 282.917 282.905 282.904 282.917 282.953 283.004
283.061 283.116 283.161 283.194 283.213 283.22 283.214 283.188 283.115 283.058
283.159 283.194 283.183 283.147 283.091 283.05 283.057 283.097 283.147 283.194
283.226 283.239 283.231 283.21 283.185 283.168 283.169 283.197 283.264 283.383
283.54 283.55 283.124 283.007 282.964 282.949 282.95 282.971 283.01 283.059
283.109 283.155 283.19 283.213 283.224 283.223 283.211 283.181 283.109 283.046
283.146 283.191 283.189 283.147 283.082 283.041 283.056 283.104 283.158 283.206
283.241 283.26 283.261 283.251 283.235 283.224 283.227 283.251 283.306 283.403
283.537 283.529 283.211 283.092 283.043 283.024 283.025 283.048 283.082 283.122
283.162 283.195 283.219 283.23 283.231 283.222 283.204 283.171 283.099 283.031
283.128 283.18 283.187 283.141 283.068 283.029 283.052 283.108 283.167 283.217
283.255 283.279 283.289 283.287 283.281 283.275 283.279 283.299 283.342 283.419
283.532 283.505 283.288 283.189 283.141 283.121 283.12 283.137 283.162 283.189
283.215 283.234 283.243 283.242 283.232 283.215 283.19 283.153 283.084 283.012
283.101 283.152 283.169 283.125 283.047 283.01 283.044 283.108 283.173 283.226
283.267 283.295 283.312 283.318 283.319 283.319 283.324 283.34 283.372 283.431
283.525 283.481 283.346 283.274 283.236 283.218 283.217 283.225 283.238 283.251
283.26 283.263 283.258 283.244 283.223 283.197 283.165 283.126 283.062 282.984
283.061 283.103 283.122 283.089 283.012 282.982 283.025 283.098 283.169 283.228
283.273 283.306 283.328 283.341 283.348 283.353 283.359 283.372 283.395 283.438
283.516 283.461 283.385 283.34 283.313 283.3 283.296 283.296 283.297 283.295
283.289 283.276 283.255 283.227 283.196 283.161 283.123 283.082 283.029 282.934
283.002 283.032 283.051 283.023 282.951 282.932 282.986 283.066 283.143 283.208
283.26 283.3 283.33 283.351 283.365 283.374 283.382 283.393 283.409 283.438
283.502 283.452 283.412 283.386 283.37 283.36 283.351 283.34 283.326 283.308
283.284 283.254 283.219 283.18 283.139 283.095 283.047 283.002 282.953 282.668
282.793 282.802 282.804 282.796 282.802 282.832 282.896 282.973 283.041 283.099
283.148 283.19 283.228 283.26 283.289 283.314 283.336 283.356 283.376 283.401
283.457 283.421 283.392 283.368 283.345 283.322 283.299 283.274 283.247 283.218
283.184 283.147 283.107 283.063 283.014 282.956 282.882 282.757 282.644 
alphat 1 1600 float
0 0 0 0 0 0 0 0 0 0 0
0 0 0 0 0 0 0 0 0 0
0 0 0 0 0 0 0 0 0 0
0 0 0 0 0 0 0 0 0 0
0 0 0 0 0 0 0 0 0 0
0 0 0 0 0 0 0 0 0 0
0 0 0 0 0 0 0 0 0 0
0 0 0 0 0 0 0 0 0 0
0 0 0 0 0 0 0 0 0 0
0 0 0 0 0 0 0 0 0 0
0 0 0 0 0 0 0 0 0 0
0 0 0 0 0 0 0 0 0 0
0 0 0 0 0 0 0 0 0 0
0 0 0 0 0 0 0 0 0 0
0 0 0 0 0 0 0 0 0 0
0 0 0 0 0 0 0 0 0 0
0 0 0 0 0 0 0 0 0 0
0 0 0 0 0 0 0 0 0 0
0 0 0 0 0 0 0 0 0 0