# vtk DataFile Version 2.0
RBConvection
ASCII
DATASET UNSTRUCTURED_GRID
POINTS 3362 float
0 0 0 0.025 0 0 0.05 0 0 0.075 0
0 0.1 0 0 0.125 0 0 0.15 0 0
0.175 0 0 0.2 0 0 0.225 0 0 0.25
0 0 0.275 0 0 0.3 0 0 0.325 0
0 0.35 0 0 0.375 0 0 0.4 0 0
0.425 0 0 0.45 0 0 0.475 0 0 0.5
0 0 0.525 0 0 0.55 0 0 0.575 0
0 0.6 0 0 0.625 0 0 0.65 0 0
0.675 0 0 0.7 0 0 0.725 0 0 0.75
0 0 0.775 0 0 0.8 0 0 0.825 0
0 0.85 0 0 0.875 0 0 0.9 0 0
0.925 0 0 0.95 0 0 0.975 0 0 1
0 0 0 0.01 0 0.025 0.01 0 0.05 0.01
0 0.075 0.01 0 0.1 0.01 0 0.125 0.01 0
0.15 0.01 0 0.175 0.01 0 0.2 0.01 0 0.225
0.01 0 0.25 0.01 0 0.275 0.01 0 0.3 0.01
0 0.325 0.01 0 0.35 0.01 0 0.375 0.01 0
0.4 0.01 0 0.425 0.01 0 0.45 0.01 0 0.475
0.01 0 0.5 0.01 0 0.525 0.01 0 0.55 0.01
0 0.575 0.01 0 0.6 0.01 0 0.625 0.01 0
0.65 0.01 0 0.675 0.01 0 0.7 0.01 0 0.725
0.01 0 0.75 0.01 0 0.775 0.01 0 0.8 0.01
0 0.825 0.01 0 0.85 0.01 0 0.875 0.01 0
0.9 0.01 0 0.925 0.01 0 0.95 0.01 0 0.975
0.01 0 1 0.01 0 0 0.02 0 0.025 0.02
0 0.05 0.02 0 0.075 0.02 0 0.1 0.02 0
0.125 0.02 0 0.15 0.02 0 0.175 0.02 0 0.2
0.02 0 0.225 0.02 0 0.25 0.02 0 0.275 0.02
0 0.3 0.02 0 0.325 0.02 0 0.35 0.02 0
0.375 0.02 0 0.4 0.02 0 0.425 0.02 0 0.45
0.02 0 0.475 0.02 0 0.5 0.02 0 0.525 0.02
0 0.55 0.02 0 0.575 0.02 0 0.6 0.02 0
0.625 0.02 0 0.65 0.02 0 0.675 0.02 0 0.7
0.02 0 0.725 0.02 0 0.75 0.02 0 0.775 0.02
0 0.8 0.02 0 0.825 0.02 0 0.85 0.02 0
0.875 0.02 0 0.9 0.02 0 0.925 0.02 0 0.95
0.02 0 0.975 0.02 0 1 0.02 0 0 0.03
0 0.025 0.03 0 0.05 0.03 0 0.075 0.03 0
0.1 0.03 0 0.125 0.03 0 0.15 0.03 0 0.175
0.03 0 0.2 0.03 0 0.225 0.03 0 0.25 0.03
0 0.275 0.03 0 0.3 0.03 0 0.325 0.03 0
0.35 0.03 0 0.375 0.03 0 0.4 0.03 0 0.425
0.03 0 0.45 0.03 0 0.475 0.03 0 0.5 0.03
0 0.525 0.03 0 0.55 0.03 0 0.575 0.03 0
0.6 0.03 0 0.625 0.03 0 0.65 0.03 0 0.675
0.03 0 0.7 0.03 0 0.725 0.03 0 0.75 0.03
0 0.775 0.03 0 0.8 0.03 0 0.825 0.03 0
0.85 0.03 0 0.875 0.03 0 0.9 0.03 0 0.925
0.03 0 0.95 0.03 0 0.975 0.03 0 1 0.03
0 0 0.04 0 0.025 0.04 0 0.05 0.04 0
0.075 0.04 0 0.1 0.04 0 0.125 0.04 0 0.15
0.04 0 0.175 0.04 0 0.2 0.04 0 0.225 0.04
0 0.25 0.04 0 0.275 0.04 0 0.3 0.04 0
0.325 0.04 0 0.35 0.04 0 0.375 0.04 0 0.4
0.04 0 0.425 0.04 0 0.45 0.04 0 0.475 0.04
0 0.5 0.04 0 0.525 0.04 0 0.55 0.04 0
0.575 0.04 0 0.6 0.04 0 0.625 0.04 0 0.65
0.04 0 0.675 0.04 0 0.7 0.04 0 0.725 0.04
0 0.75 0.04 0 0.775 0.04 0 0.8 0.04 0
0.825 0.04 0 0.85 0.04 0 0.875 0.04 0 0.9
0.04 0 0.925 0.04 0 0.95 0.04 0 0.975 0.04
0 1 0.04 0 0 0.05 0 0.025 0.05 0
0.05 0.05 0 0.075 0.05 0 0.1 0.05 0 0.125
0.05 0 0.15 0.05 0 0.175 0.05 0 0.2 0.05
0 0.225 0.05 0 0.25 0.05 0 0.275 0.05 0
0.3 0.05 0 0.325 0.05 0 0.35 0.05 0 0.375
0.05 0 0.4 0.05 0 0.425 0.05 0 0.45 0.05
0 0.475 0.05 0 0.5 0.05 0 0.525 0.05 0
0.55 0.05 0 0.575 0.05 0 0.6 0.05 0 0.625
0.05 0 0.65 0.05 0 0.675 0.05 0 0.7 0.05
0 0.725 0.05 0 0.75 0.05 0 0.775 0.05 0
0.8 0.05 0 0.825 0.05 0 0.85 0.05 0 0.875
0.05 0 0.9 0.05 0 0.925 0.05 0 0.95 0.05
0 0.975 0.05 0 1 0.05 0 0 0.06 0
0.025 0.06 0 0.05 0.06 0 0.075 0.06 0 0.1
0.06 0 0.125 0.06 0 0.15 0.06 0 0.175 0.06
0 0.2 0.06 0 0.225 0.06 0 0.25 0.06 0
0.275 0.06 0 0.3 0.06 0 0.325 0.06 0 0.35
0.06 0 0.375 0.06 0 0.4 0.06 0 0.425 0.06
0 0.45 0.06 0 0.475 0.06 0 0.5 0.06 0
0.525 0.06 0 0.55 0.06 0 0.575 0.06 0 0.6
0.06 0 0.625 0.06 0 0.65 0.06 0 0.675 0.06
0 0.7 0.06 0 0.725 0.06 0 0.75 0.06 0
0.775 0.06 0 0.8 0.06 0 0.825 0.06 0 0.85
0.06 0 0.875 0.06 0 0.9 0.06 0 0.925 0.06
0 0.95 0.06 0 0.975 0.06 0 1 0.06 0
0 0.07 0 0.025 0.07 0 0.05 0.07 0 0.075
0.07 0 0.1 0.07 0 0.125 0.07 0 0.15 0.07
0 0.175 0.07 0 0.2 0.07 0 0.225 0.07 0
0.25 0.07 0 0.275 0.07 0 0.3 0.07 0 0.325
0.07 0 0.35 0.07 0 0.375 0.07 0 0.4 0.07
0 0.425 0.07 0 0.45 0.07 0 0.475 0.07 0
0.5 0.07 0 0.525 0.07 0 0.55 0.07 0 0.575
0.07 0 0.6 0.07 0 0.625 0.07 0 0.65 0.07
0 0.675 0.07 0 0.7 0.07 0 0.725 0.07 0
0.75 0.07 0 0.775 0.07 0 0.8 0.07 0 0.825
0.07 0 0.85 0.07 0 0.875 0.07 0 0.9 0.07
0 0.925 0.07 0 0.95 0.07 0 0.975 0.07 0
1 0.07 0 0 0.08 0 0.025 0.08 0 0.05
0.08 0 0.075 0.08 0 0.1 0.08 0 0.125 0.08
0 0.15 0.08 0 0.175 0.08 0 0.2 0.08 0
0.225 0.08 0 0.25 0.08 0 0.275 0.08 0 0.3
0.08 0 0.325 0.08 0 0.35 0.08 0 0.375 0.08
0 0.4 0.08 0 0.425 0.08 0 0.45 0.08 0
0.475 0.08 0 0.5 0.08 0 0.525 0.08 0 0.55
0.08 0 0.575 0.08 0 0.6 0.08 0 0.625 0.08
0 0.65 0.08 0 0.675 0.08 0 0.7 0.08 0
0.725 0.08 0 0.75 0.08 0 0.775 0.08 0 0.8
0.08 0 0.825 0.08 0 0.85 0.08 0 0.875 0.08
0 0.9 0.08 0 0.925 0.08 0 0.95 0.08 0
0.975 0.08 0 1 0.08 0 0 0.09 0 0.025
0.09 0 0.05 0.09 0 0.075 0.09 0 0.1 0.09
0 0.125 0.09 0 0.15 0.09 0 0.175 0.09 0
0.2 0.09 0 0.225 0.09 0 0.25 0.09 0 0.275
0.09 0 0.3 0.09 0 0.325 0.09 0 0.35 0.09
0 0.375 0.09 0 0.4 0.09 0 0.425 0.09 0
0.45 0.09 0 0.475 0.09 0 0.5 0.09 0 0.525
0.09 0 0.55 0.09 0 0.575 0.09 0 0.6 0.09
0 0.625 0.09 0 0.65 0.09 0 0.675 0.09 0
0.7 0.09 0 0.725 0.09 0 0.75 0.09 0 0.775
0.09 0 0.8 0.09 0 0.825 0.09 0 0.85 0.09
0 0.875 0.09 0 0.9 0.09 0 0.925 0.09 0
0.95 0.09 0 0.975 0.09 0 1 0.09 0 0
0.1 0 0.025 0.1 0 0.05 0.1 0 0.075 0.1
0 0.1 0.1 0 0.125 0.1 0 0.15 0.1 0
0.175 0.1 0 0.2 0.1 0 0.225 0.1 0 0.25
0.1 0 0.275 0.1 0 0.3 0.1 0 0.325 0.1
0 0.35 0.1 0 0.375 0.1 0 0.4 0.1 0
0.425 0.1 0 0.45 0.1 0 0.475 0.1 0 0.5
0.1 0 0.525 0.1 0 0.55 0.1 0 0.575 0.1
0 0.6 0.1 0 0.625 0.1 0 0.65 0.1 0
0.675 0.1 0 0.7 0.1 0 0.725 0.1 0 0.75
0.1 0 0.775 0.1 0 0.8 0.1 0 0.825 0.1
0 0.85 0.1 0 0.875 0.1 0 0.9 0.1 0
0.925 0.1 0 0.95 0.1 0 0.975 0.1 0 1
0.1 0 0 0.11 0 0.025 0.11 0 0.05 0.11
0 0.075 0.11 0 0.1 0.11 0 0.125 0.11 0
0.15 0.11 0 0.175 0.11 0 0.2 0.11 0 0.225
0.11 0 0.25 0.11 0 0.275 0.11 0 0.3 0.11
0 0.325 0.11 0 0.35 0.11 0 0.375 0.11 0
0.4 0.11 0 0.425 0.11 0 0.45 0.11 0 0.475
0.11 0 0.5 0.11 0 0.525 0.11 0 0.55 0.11
0 0.575 0.11 0 0.6 0.11 0 0.625 0.11 0
0.65 0.11 0 0.675 0.11 0 0.7 0.11 0 0.725
0.11 0 0.75 0.11 0 0.775 0.11 0 0.8 0.11
0 0.825 0.11 0 0.85 0.11 0 0.875 0.11 0
0.9 0.11 0 0.925 0.11 0 0.95 0.11 0 0.975
0.11 0 1 0.11 0 0 0.12 0 0.025 0.12
0 0.05 0.12 0 0.075 0.12 0 0.1 0.12 0
0.125 0.12 0 0.15 0.12 0 0.175 0.12 0 0.2
0.12 0 0.225 0.12 0 0.25 0.12 0 0.275 0.12
0 0.3 0.12 0 0.325 0.12 0 0.35 0.12 0
0.375 0.12 0 0.4 0.12 0 0.425 0.12 0 0.45
0.12 0 0.475 0.12 0 0.5 0.12 0 0.525 0.12
0 0.55 0.12 0 0.575 0.12 0 0.6 0.12 0
0.625 0.12 0 0.65 0.12 0 0.675 0.12 0 0.7
0.12 0 0.725 0.12 0 0.75 0.12 0 0.775 0.12
0 0.8 0.12 0 0.825 0.12 0 0.85 0.12 0
0.875 0.12 0 0.9 0.12 0 0.925 0.12 0 0.95
0.12 0 0.975 0.12 0 1 0.12 0 0 0.13
0 0.025 0.13 0 0.05 0.13 0 0.075 0.13 0
0.1 0.13 0 0.125 0.13 0 0.15 0.13 0 0.175
0.13 0 0.2 0.13 0 0.225 0.13 0 0.25 0.13
0 0.275 0.13 0 0.3 0.13 0 0.325 0.13 0
0.35 0.13 0 0.375 0.13 0 0.4 0.13 0 0.425
0.13 0 0.45 0.13 0 0.475 0.13 0 0.5 0.13
0 0.525 0.13 0 0.55 0.13 0 0.575 0.13 0
0.6 0.13 0 0.625 0.13 0 0.65 0.13 0 0.675
0.13 0 0.7 0.13 0 0.725 0.13 0 0.75 0.13
0 0.775 0.13 0 0.8 0.13 0 0.825 0.13 0
0.85 0.13 0 0.875 0.13 0 0.9 0.13 0 0.925
0.13 0 0.95 0.13 0 0.975 0.13 0 1 0.13
0 0 0.14 0 0.025 0.14 0 0.05 0.14 0
0.075 0.14 0 0.1 0.14 0 0.125 0.14 0 0.15
0.14 0 0.175 0.14 0 0.2 0.14 0 0.225 0.14
0 0.25 0.14 0 0.275 0.14 0 0.3 0.14 0
0.325 0.14 0 0.35 0.14 0 0.375 0.14 0 0.4
0.14 0 0.425 0.14 0 0.45 0.14 0 0.475 0.14
0 0.5 0.14 0 0.525 0.14 0 0.55 0.14 0
0.575 0.14 0 0.6 0.14 0 0.625 0.14 0 0.65
0.14 0 0.675 0.14 0 0.7 0.14 0 0.725 0.14
0 0.75 0.14 0 0.775 0.14 0 0.8 0.14 0
0.825 0.14 0 0.85 0.14 0 0.875 0.14 0 0.9
0.14 0 0.925 0.14 0 0.95 0.14 0 0.975 0.14
0 1 0.14 0 0 0.15 0 0.025 0.15 0
0.05 0.15 0 0.075 0.15 0 0.1 0.15 0 0.125
0.15 0 0.15 0.15 0 0.175 0.15 0 0.2 0.15
0 0.225 0.15 0 0.25 0.15 0 0.275 0.15 0
0.3 0.15 0 0.325 0.15 0 0.35 0.15 0 0.375
0.15 0 0.4 0.15 0 0.425 0.15 0 0.45 0.15
0 0.475 0.15 0 0.5 0.15 0 0.525 0.15 0
0.55 0.15 0 0.575 0.15 0 0.6 0.15 0 0.625
0.15 0 0.65 0.15 0 0.675 0.15 0 0.7 0.15
0 0.725 0.15 0 0.75 0.15 0 0.775 0.15 0
0.8 0.15 0 0.825 0.15 0 0.85 0.15 0 0.875
0.15 0 0.9 0.15 0 0.925 0.15 0 0.95 0.15
0 0.975 0.15 0 1 0.15 0 0 0.16 0
0.025 0.16 0 0.05 0.16 0 0.075 0.16 0 0.1
0.16 0 0.125 0.16 0 0.15 0.16 0 0.175 0.16
0 0.2 0.16 0 0.225 0.16 0 0.25 0.16 0
0.275 0.16 0 0.3 0.16 0 0.325 0.16 0 0.35
0.16 0 0.375 0.16 0 0.4 0.16 0 0.425 0.16
0 0.45 0.16 0 0.475 0.16 0 0.5 0.16 0
0.525 0.16 0 0.55 0.16 0 0.575 0.16 0 0.6
0.16 0 0.625 0.16 0 0.65 0.16 0 0.675 0.16
0 0.7 0.16 0 0.725 0.16 0 0.75 0.16 0
0.775 0.16 0 0.8 0.16 0 0.825 0.16 0 0.85
0.16 0 0.875 0.16 0 0.9 0.16 0 0.925 0.16
0 0.95 0.16 0 0.975 0.16 0 1 0.16 0
0 0.17 0 0.025 0.17 0 0.05 0.17 0 0.075
0.17 0 0.1 0.17 0 0.125 0.17 0 0.15 0.17
0 0.175 0.17 0 0.2 0.17 0 0.225 0.17 0
0.25 0.17 0 0.275 0.17 0 0.3 0.17 0 0.325
0.17 0 0.35 0.17 0 0.375 0.17 0 0.4 0.17
0 0.425 0.17 0 0.45 0.17 0 0.475 0.17 0
0.5 0.17 0 0.525 0.17 0 0.55 0.17 0 0.575
0.17 0 0.6 0.17 0 0.625 0.17 0 0.65 0.17
0 0.675 0.17 0 0.7 0.17 0 0.725 0.17 0
0.75 0.17 0 0.775 0.17 0 0.8 0.17 0 0.825
0.17 0 0.85 0.17 0 0.875 0.17 0 0.9 0.17
0 0.925 0.17 0 0.95 0.17 0 0.975 0.17 0
1 0.17 0 0 0.18 0 0.025 0.18 0 0.05
0.18 0 0.075 0.18 0 0.1 0.18 0 0.125 0.18
0 0.15 0.18 0 0.175 0.18 0 0.2 0.18 0
0.225 0.18 0 0.25 0.18 0 0.275 0.18 0 0.3
0.18 0 0.325 0.18 0 0.35 0.18 0 0.375 0.18
0 0.4 0.18 0 0.425 0.18 0 0.45 0.18 0
0.475 0.18 0 0.5 0.18 0 0.525 0.18 0 0.55
0.18 0 0.575 0.18 0 0.6 0.18 0 0.625 0.18
0 0.65 0.18 0 0.675 0.18 0 0.7 0.18 0
0.725 0.18 0 0.75 0.18 0 0.775 0.18 0 0.8
0.18 0 0.825 0.18 0 0.85 0.18 0 0.875 0.18
0 0.9 0.18 0 0.925 0.18 0 0.95 0.18 0
0.975 0.18 0 1 0.18 0 0 0.19 0 0.025
0.19 0 0.05 0.19 0 0.075 0.19 0 0.1 0.19
0 0.125 0.19 0 0.15 0.19 0 0.175 0.19 0
0.2 0.19 0 0.225 0.19 0 0.25 0.19 0 0.275
0.19 0 0.3 0.19 0 0.325 0.19 0 0.35 0.19
0 0.375 0.19 0 0.4 0.19 0 0.425 0.19 0
0.45 0.19 0 0.475 0.19 0 0.5 0.19 0 0.525
0.19 0 0.55 0.19 0 0.575 0.19 0 0.6 0.19
0 0.625 0.19 0 0.65 0.19 0 0.675 0.19 0
0.7 0.19 0 0.725 0.19 0 0.75 0.19 0 0.775
0.19 0 0.8 0.19 0 0.825 0.19 0 0.85 0.19
0 0.875 0.19 0 0.9 0.19 0 0.925 0.19 0
0.95 0.19 0 0.975 0.19 0 1 0.19 0 0
0.2 0 0.025 0.2 0 0.05 0.2 0 0.075 0.2
0 0.1 0.2 0 0.125 0.2 0 0.15 0.2 0
0.175 0.2 0 0.2 0.2 0 0.225 0.2 0 0.25
[...]
CELL_DATA 1600
FIELD attributes 6
cellID 1 1600 int
0 1 2 3 4 5 6 7 8 9 10
11 12 13 14 15 16 17 18 19 20
21 22 23 24 25 26 27 28 29 30
31 32 33 34 35 36 37 38 39 40
41 42 43 44 45 46 47 48 49 50
51 52 53 54 55 56 57 58 59 60
61 62 63 64 65 66 67 68 69 70
71 72 73 74 75 76 77 78 79 80
81 82 83 84 85 86 87 88 89 90
91 92 93 94 95 96 97 98 99 100
101 102 103 104 105 106 107 108 109 110
111 112 113 114 115 116 117 118 119 120
121 122 123 124 125 126 127 128 129 130
131 132 133 134 135 136 137 138 139 140
141 142 143 144 145 146 147 148 149 150
151 152 153 154 155 156 157 158 159 160
161 162 163 164 165 166 167 168 169 170
171 172 173 174 175 176 177 178 179 180
181 182 183 184 185 186 187 188 189 190
191 192 193 194 195 196 197 198 199 200
201 202 203 204 205 206 207 208 209 210
211 212 213 214 215 216 217 218 219 220
221 222 223 224 225 226 227 228 229 230
231 232 233 234 235 236 237 238 239 240
241 242 243 244 245 246 247 248 249 250
251 252 253 254 255 256 257 258 259 260
261 262 263 264 265 266 267 268 269 270
271 272 273 274 275 276 277 278 279 280
281 282 283 284 285 286 287 288 289 290
291 292 293 294 295 296 297 298 299 300
301 302 303 304 305 306 307 308 309 310
311 312 313 314 315 316 317 318 319 320
321 322 323 324 325 326 327 328 329 330
331 332 333 334 335 336 337 338 339 340
341 342 343 344 345 346 347 348 349 350
351 352 353 354 355 356 357 358 359 360
361 362 363 364 365 366 367 368 369 370
371 372 373 374 375 376 377 378 379 380
381 382 383 384 385 386 387 388 389 390
391 392 393 394 395 396 397 398 399 400
401 402 403 404 405 406 407 408 409 410
411 412 413 414 415 416 417 418 419 420
421 422 423 424 425 426 427 428 429 430
431 432 433 434 435 436 437 438 439 440
441 442 443 444 445 446 447 448 449 450
451 452 453 454 455 456 457 458 459 460
461 462 463 464 465 466 467 468 469 470
471 472 473 474 475 476 477 478 479 480
481 482 483 484 485 486 487 488 489 490
491 492 493 494 495 496 497 498 499 500
501 502 503 504 505 506 507 508 509 510
511 512 513 514 515 516 517 518 519 520
521 522 523 524 525 526 527 528 529 530
531 532 533 534 535 536 537 538 539 540
541 542 543 544 545 546 547 548 549 550
551 552 553 554 555 556 557 558 559 560
561 562 563 564 565 566 567 568 569 570
571 572 573 574 575 576 577 578 579 580
581 582 583 584 585 586 587 588 589 590
591 592 593 594 595 596 597 598 599 600
601 602 603 604 605 606 607 608 609 610
611 612 613 614 615 616 617 618 619 620
621 622 623 624 625 626 627 628 629 630
631 632 633 634 635 636 637 638 639 640
641 642 643 644 645 646 647 648 649 650
651 652 653 654 655 656 657 658 659 660
661 662 663 664 665 666 667 668 669 670
671 672 673 674 675 676 677 678 679 680
681 682 683 684 685 686 687 688 689 690
691 692 693 694 695 696 697 698 699 700
701 702 703 704 705 706 707 708 709 710
711 712 713 714 715 716 717 718 719 720
721 722 723 724 725 726 727 728 729 730
731 732 733 734 735 736 737 738 739 740
741 742 743 744 745 746 747 748 749 750
751 752 753 754 755 756 757 758 759 760
761 762 763 764 765 766 767 768 769 770
771 772 773 774 775 776 777 778 779 780
781 782 783 784 785 786 787 788 789 790
791 792 793 794 795 796 797 798 799 800
801 802 803 804 805 806 807 808 809 810
811 812 813 814 815 816 817 818 819 820
821 822 823 824 825 826 827 828 829 830
831 832 833 834 835 836 837 838 839 840
841 842 843 844 845 846 847 848 849 850
851 852 853 854 855 856 857 858 859 860
861 862 863 864 865 866 867 868 869 870
871 872 873 874 875 876 877 878 879 880
881 882 883 884 885 886 887 888 889 890
891 892 893 894 895 896 897 898 899 900
901 902 903 904 905 906 907 908 909 910
911 912 913 914 915 916 917 918 919 920
921 922 923 924 925 926 927 928 929 930
931 932 933 934 935 936 937 938 939 940
941 942 943 944 945 946 947 948 949 950
951 952 953 954 955 956 957 958 959 960
961 962 963 964 965 966 967 968 969 970
971 972 973 974 975 976 977 978 979 980
981 982 983 984 985 986 987 988 989 990
991 992 993 994 995 996 997 998 999 1000
1001 1002 1003 1004 1005 1006 1007 1008 1009 1010
1011 1012 1013 1014 1015 1016 1017 1018 1019 1020
1021 1022 1023 1024 1025 1026 1027 1028 1029 1030
1031 1032 1033 1034 1035 1036 1037 1038 1039 1040
1041 1042 1043 1044 1045 1046 1047 1048 1049 1050
1051 1052 1053 1054 1055 1056 1057 1058 1059 1060
1061 1062 1063 1064 1065 1066 1067 1068 1069 1070
1071 1072 1073 1074 1075 1076 1077 1078 1079 1080
1081 1082 1083 1084 1085 1086 1087 1088 1089 1090
1091 1092 1093 1094 1095 1096 1097 1098 1099 1100
1101 1102 1103 1104 1105 1106 1107 1108 1109 1110
1111 1112 1113 1114 1115 1116 1117 1118 1119 1120
1121 1122 1123 1124 1125 1126 1127 1128 1129 1130
1131 1132 1133 1134 1135 1136 1137 1138 1139 1140
1141 1142 1143 1144 1145 1146 1147 1148 1149 1150
1151 1152 1153 1154 1155 1156 1157 1158 1159 1160
1161 1162 1163 1164 1165 1166 1167 1168 1169 1170
1171 1172 1173 1174 1175 1176 1177 1178 1179 1180
1181 1182 1183 1184 1185 1186 1187 1188 1189 1190
1191 1192 1193 1194 1195 1196 1197 1198 1199 1200
1201 1202 1203 1204 1205 1206 1207 1208 1209 1210
1211 1212 1213 1214 1215 1216 1217 1218 1219 1220
1221 1222 1223 1224 1225 1226 1227 1228 1229 1230
1231 1232 1233 1234 1235 1236 1237 1238 1239 1240
1241 1242 1243 1244 1245 1246 1247 1248 1249 1250
1251 1252 1253 1254 1255 1256 1257 1258 1259 1260
1261 1262 1263 1264 1265 1266 1267 1268 1269 1270
1271 1272 1273 1274 1275 1276 1277 1278 1279 1280
1281 1282 1283 1284 1285 1286 1287 1288 1289 1290
1291 1292 1293 1294 1295 1296 1297 1298 1299 1300
1301 1302 1303 1304 1305 1306 1307 1308 1309 1310
1311 1312 1313 1314 1315 1316 1317 1318 1319 1320
1321 1322 1323 1324 1325 1326 1327 1328 1329 1330
1331 1332 1333 1334 1335 1336 1337 1338 1339 1340
1341 1342 1343 1344 1345 1346 1347 1348 1349 1350
1351 1352 1353 1354 1355 1356 1357 1358 1359 1360
1361 1362 1363 1364 1365 1366 1367 1368 1369 1370
1371 1372 1373 1374 1375 1376 1377 1378 1379 1380
1381 1382 1383 1384 1385 1386 1387 1388 1389 1390
1391 1392 1393 1394 1395 1396 1397 1398 1399 1400
1401 1402 1403 1404 1405 1406 1407 1408 1409 1410
1411 1412 1413 1414 1415 1416 1417 1418 1419 1420
1421 1422 1423 1424 1425 1426 1427 1428 1429 1430
1431 1432 1433 1434 1435 1436 1437 1438 1439 1440
1441 1442 1443 1444 1445 1446 1447 1448 1449 1450
1451 1452 1453 1454 1455 1456 1457 1458 1459 1460
1461 1462 1463 1464 1465 1466 1467 1468 1469 1470
1471 1472 1473 1474 1475 1476 1477 1478 1479 1480
1481 1482 1483 1484 1485 1486 1487 1488 1489 1490
1491 1492 1493 1494 1495 1496 1497 1498 1499 1500
1501 1502 1503 1504 1505 1506 1507 1508 1509 1510
1511 1512 1513 1514 1515 1516 1517 1518 1519 1520
1521 1522 1523 1524 1525 1526 1527 1528 1529 1530
1531 1532 1533 1534 1535 1536 1537 1538 1539 1540
1541 1542 1543 1544 1545 1546 1547 1548 1549 1550
1551 1552 1553 1554 1555 1556 1557 1558 1559 1560
1561 1562 1563 1564 1565 1566 1567 1568 1569 1570
1571 1572 1573 1574 1575 1576 1577 1578 1579 1580
1581 1582 1583 1584 1585 1586 1587 1588 1589 1590
1591 1592 1593 1594 1595 1596 1597 1598 1599 
T 1 1600 float
284.689 283.101 288.101 288.22 287.506 287.26 286.637 286.125 285.594 285.208 284.933
284.668 284.375 284.068 283.787 283.537 283.319 283.125 282.948 282.799 282.714
282.776 282.844 282.798 282.755 282.772 282.845 282.971 283.154 283.398 283.704
284.058 284.39 284.589 284.77 285.07 285.655 286.157 284.856 283.193 283.359
281.826 284.064 284.687 282.864 284.298 283.409 282.214 281.562 281.268 281.119
281.047 281.022 281.022 281.021 281.022 281.021 281.018 281.013 281.008 281.001
280.995 280.988 280.979 280.967 280.962 280.958 280.955 280.953 280.95 280.947
280.946 280.952 280.974 281.058 281.27 282.028 283.863 284.216 282.976 282.642
280.965 281.488 282.404 281.621 282.66 282.208 281.439 281.106 280.999 280.97
280.974 280.987 280.998 281.005 281.009 281.008 281.006 281.002 280.997 280.991
280.983 280.975 280.965 280.95 280.94 280.936 280.934 280.933 280.932 280.928
280.92 280.909 280.903 280.933 281.045 281.496 282.951 283.729 283.267 282.265
280.738 280.843 281.147 281.058 281.621 281.491 281.093 280.962 280.947 280.962
280.982 280.999 281.01 281.015 281.016 281.013 281.009 281.003 280.996 280.989
280.981 280.971 280.96 280.943 280.926 280.919 280.916 280.918 280.921 280.923
280.922 280.915 280.905 280.913 280.966 281.255 282.434 283.334 283.132 282.052
280.704 280.726 280.786 280.843 281.074 281.08 280.938 280.915 280.937 280.967
280.992 281.009 281.018 281.021 281.02 281.016 281.01 281.004 280.997 280.989
280.98 280.97 280.957 280.94 280.915 280.904 280.899 280.9 280.904 280.91
280.915 280.914 280.906 280.902 280.92 281.083 282.07 283 282.959 281.917
280.702 280.717 280.738 280.776 280.859 280.896 280.879 280.902 280.939 280.974
281 281.017 281.025 281.027 281.024 281.019 281.013 281.007 281 280.993
280.984 280.974 280.959 280.94 280.911 280.894 280.886 280.884 280.888 280.895
280.904 280.907 280.903 280.895 280.892 280.964 281.784 282.707 282.789 281.825
280.702 280.718 280.738 280.763 280.801 280.836 280.862 280.902 280.944 280.98
281.007 281.023 281.03 281.032 281.029 281.024 281.018 281.012 281.006 281
280.992 280.981 280.965 280.942 280.912 280.888 280.877 280.872 280.874 280.881
280.891 280.899 280.899 280.891 280.878 280.897 281.548 282.447 282.628 281.758
280.702 280.72 280.742 280.765 280.793 280.825 280.862 280.906 280.949 280.986
281.012 281.028 281.035 281.037 281.034 281.03 281.025 281.02 281.016 281.011
281.004 280.992 280.973 280.947 280.916 280.885 280.871 280.865 280.864 280.87
280.88 280.89 280.893 280.887 280.871 280.864 281.355 282.217 282.481 281.706
280.701 280.721 280.745 280.77 280.797 280.828 280.867 280.911 280.954 280.99
281.017 281.033 281.04 281.042 281.041 281.037 281.034 281.031 281.029 281.026
281.019 281.006 280.985 280.954 280.92 280.886 280.868 280.86 280.857 280.86
280.87 280.882 280.888 280.883 280.867 280.849 281.202 282.014 282.349 281.665
280.7 280.722 280.748 280.774 280.802 280.834 280.872 280.915 280.957 280.994
281.02 281.036 281.044 281.048 281.048 281.046 281.045 281.044 281.044 281.043
281.038 281.023 280.998 280.963 280.924 280.889 280.867 280.858 280.853 280.854
280.863 280.875 280.882 280.88 280.864 280.841 281.086 281.839 282.23 281.632
280.699 280.722 280.749 280.777 280.806 280.839 280.877 280.918 280.96 280.995
281.022 281.039 281.048 281.053 281.055 281.056 281.057 281.059 281.062 281.063
281.059 281.043 281.014 280.974 280.93 280.893 280.867 280.858 280.851 280.85
280.857 280.869 280.878 280.877 280.862 280.838 281.004 281.69 282.125 281.603
280.697 280.721 280.75 280.779 280.81 280.843 280.88 280.921 280.961 280.996
281.022 281.04 281.051 281.058 281.063 281.067 281.071 281.076 281.082 281.086
281.082 281.065 281.033 280.987 280.937 280.897 280.869 280.859 280.851 280.847
280.852 280.864 280.874 280.874 280.86 280.836 280.948 281.565 282.033 281.579
280.696 280.72 280.75 280.78 280.812 280.845 280.882 280.921 280.961 280.995
281.021 281.039 281.052 281.062 281.07 281.078 281.085 281.094 281.104 281.11
281.108 281.089 281.053 281.001 280.945 280.901 280.872 280.861 280.853 280.847
280.85 280.86 280.871 280.872 280.858 280.834 280.911 281.46 281.951 281.558
280.694 280.719 280.749 280.78 280.812 280.846 280.882 280.921 280.959 280.993
281.019 281.037 281.051 281.064 281.077 281.088 281.1 281.113 281.127 281.137
281.135 281.115 281.075 281.018 280.954 280.905 280.876 280.863 280.856 280.847
280.848 280.858 280.868 280.87 280.857 280.833 280.886 281.375 281.88 281.539
280.692 280.718 280.748 280.779 280.811 280.845 280.881 280.919 280.956 280.989
281.015 281.033 281.048 281.065 281.082 281.099 281.115 281.133 281.15 281.164
281.163 281.142 281.099 281.036 280.965 280.911 280.879 280.865 280.859 280.849
280.848 280.857 280.867 280.868 280.855 280.831 280.87 281.304 281.817 281.523
280.691 280.716 280.746 280.776 280.808 280.842 280.878 280.915 280.952 280.984
281.008 281.026 281.043 281.062 281.085 281.107 281.129 281.152 281.174 281.191
281.191 281.169 281.124 281.056 280.977 280.917 280.882 280.867 280.862 280.852
280.85 280.858 280.866 280.866 280.853 280.829 280.859 281.247 281.763 281.507
280.689 280.713 280.742 280.772 280.803 280.837 280.873 280.91 280.946 280.977
281 281.017 281.033 281.056 281.085 281.114 281.142 281.17 281.198 281.217
281.218 281.195 281.149 281.077 280.99 280.923 280.886 280.869 280.865 280.856
280.853 280.859 280.866 280.864 280.85 280.827 280.852 281.202 281.715 281.493
280.687 280.71 280.736 280.764 280.795 280.83 280.866 280.903 280.938 280.968
280.99 281.006 281.021 281.045 281.082 281.118 281.152 281.187 281.219 281.242
281.243 281.219 281.174 281.1 281.005 280.93 280.891 280.871 280.867 280.861
280.857 280.862 280.866 280.863 280.847 280.824 280.846 281.165 281.674 281.479
280.684 280.705 280.728 280.754 280.784 280.819 280.856 280.894 280.928 280.957
280.978 280.992 281.005 281.03 281.073 281.119 281.16 281.2 281.239 281.264
281.262 281.238 281.197 281.123 281.021 280.938 280.896 280.873 280.868 280.866
280.862 280.865 280.867 280.86 280.843 280.821 280.843 281.137 281.638 281.466
280.681 280.698 280.717 280.74 280.768 280.804 280.843 280.882 280.916 280.945
280.964 280.976 280.986 281.01 281.06 281.114 281.163 281.21 281.255 281.281
281.275 281.251 281.217 281.147 281.039 280.947 280.902 280.876 280.868 280.868
280.867 280.869 280.867 280.857 280.839 280.818 280.841 281.115 281.608 281.453
280.676 280.689 280.704 280.722 280.75 280.785 280.826 280.866 280.902 280.93
280.948 280.957 280.964 280.988 281.042 281.105 281.161 281.215 281.267 281.294
281.28 281.256 281.232 281.171 281.057 280.956 280.909 280.879 280.869 280.869
280.869 280.87 280.866 280.853 280.833 280.814 280.84 281.101 281.584 281.441
280.671 280.679 280.688 280.703 280.728 280.764 280.806 280.847 280.884 280.913
280.93 280.937 280.941 280.963 281.021 281.092 281.155 281.215 281.272 281.298
281.277 281.252 281.241 281.194 281.077 280.966 280.916 280.884 280.87 280.868
280.868 280.869 280.864 280.848 280.827 280.813 280.844 281.095 281.566 281.428
280.666 280.667 280.67 280.681 280.705 280.74 280.781 280.824 280.862 280.892
280.909 280.914 280.916 280.937 280.998 281.075 281.145 281.209 281.269 281.292
281.265 281.24 281.242 281.214 281.099 280.976 280.924 280.889 280.872 280.867
280.866 280.864 280.859 280.841 280.822 280.817 280.86 281.103 281.55 281.414
280.659 280.655 280.652 280.659 280.679 280.711 280.751 280.794 280.835 280.866
280.885 280.89 280.89 280.909 280.973 281.056 281.132 281.2 281.26 281.277
281.246 281.22 281.234 281.231 281.122 280.986 280.933 280.897 280.876 280.868
280.864 280.859 280.851 280.836 280.825 280.836 280.895 281.12 281.536 281.401
280.653 280.642 280.634 280.635 280.65 280.677 280.715 280.758 280.8 280.835
280.856 280.863 280.862 280.881 280.947 281.035 281.117 281.188 281.246 281.256
281.22 281.196 281.219 281.242 281.145 280.997 280.942 280.905 280.883 280.873
280.866 280.859 280.849 280.843 280.848 280.875 280.943 281.145 281.523 281.389
280.646 280.631 280.617 280.614 280.622 280.643 280.674 280.714 280.757 280.795
280.821 280.831 280.833 280.852 280.92 281.014 281.1 281.174 281.227 281.23
281.19 281.17 281.201 281.247 281.17 281.009 280.951 280.915 280.892 280.881
280.876 280.87 280.866 280.873 280.892 280.927 280.999 281.176 281.511 281.377
280.641 280.621 280.603 280.595 280.598 280.612 280.636 280.669 280.708 280.747
280.779 280.796 280.802 280.822 280.892 280.992 281.082 281.157 281.204 281.198
281.156 281.142 281.182 281.244 281.194 281.022 280.96 280.925 280.903 280.894
280.893 280.895 280.902 280.921 280.948 280.987 281.058 281.212 281.5 281.366
280.635 280.613 280.593 280.581 280.58 280.589 280.606 280.63 280.661 280.697
280.731 280.755 280.77 280.789 280.863 280.968 281.062 281.136 281.176 281.159
281.118 281.114 281.164 281.237 281.218 281.036 280.969 280.937 280.917 280.911
280.915 280.928 280.948 280.975 281.008 281.05 281.118 281.248 281.488 281.357
280.631 280.607 280.585 280.572 280.569 280.575 280.587 280.603 280.625 280.652
280.683 280.713 280.736 280.761 280.83 280.942 281.038 281.109 281.139 281.113
281.079 281.089 281.148 281.228 281.239 281.051 280.978 280.948 280.931 280.929
280.941 280.964 280.994 281.028 281.065 281.11 281.174 281.283 281.475 281.35
280.628 280.603 280.581 280.568 280.564 280.569 280.578 280.589 280.604 280.622
280.644 280.67 280.696 280.733 280.795 280.908 281.006 281.072 281.091 281.06
281.039 281.067 281.136 281.221 281.255 281.07 280.986 280.96 280.945 280.947
280.965 280.996 281.034 281.074 281.115 281.161 281.222 281.313 281.46 281.348
280.625 280.601 280.58 280.567 280.563 280.568 280.575 280.584 280.595 280.608
280.624 280.644 280.67 280.705 280.759 280.863 280.961 281.021 281.031 281.003
281.004 281.051 281.13 281.217 281.267 281.092 280.994 280.972 280.96 280.964
280.986 281.022 281.065 281.108 281.152 281.199 281.255 281.33 281.436 281.352
280.625 280.6 280.582 280.569 280.566 280.57 280.576 280.584 280.593 280.605
280.618 280.635 280.656 280.684 280.725 280.807 280.899 280.953 280.958 280.948
280.977 281.045 281.132 281.218 281.274 281.117 281.002 280.983 280.973 280.98
281.003 281.039 281.083 281.127 281.172 281.216 281.265 281.322 281.392 281.357
280.674 280.602 280.584 280.575 280.574 280.577 280.582 280.589 280.599 280.611
280.625 280.642 280.661 280.683 280.708 280.751 280.823 280.871 280.881 280.907
280.969 281.053 281.142 281.224 281.28 281.142 281.008 280.994 280.986 280.993
281.015 281.05 281.091 281.133 281.173 281.211 281.247 281.281 281.31 281.362
280.762 280.628 280.598 280.589 280.588 280.591 280.597 280.605 280.617 280.633
280.652 280.672 280.693 280.712 280.727 280.74 280.768 280.802 280.841 280.904
280.988 281.079 281.165 281.238 281.288 281.167 281.015 281.004 280.999 281.005
281.024 281.055 281.091 281.128 281.161 281.189 281.209 281.217 281.199 281.366
280.872 280.717 280.663 280.644 280.639 280.641 280.647 280.656 280.67 280.69
280.715 280.742 280.766 280.786 280.799 280.806 280.814 280.839 280.888 280.958
281.042 281.126 281.199 281.258 281.299 281.192 281.02 281.014 281.01 281.015
281.031 281.056 281.087 281.117 281.144 281.162 281.169 281.16 281.117 281.371
280.993 280.858 280.804 280.778 280.77 280.769 280.773 280.781 280.796 280.818
280.844 280.869 280.893 280.914 280.929 280.938 280.947 280.967 281.006 281.062
281.126 281.19 281.243 281.285 281.314 281.217 281.025 281.022 281.021 281.025
281.037 281.057 281.081 281.106 281.127 281.139 281.139 281.124 281.09 281.377
281.118 281.022 280.982 280.964 280.958 280.959 280.964 280.973 280.988 281.005
281.024 281.044 281.063 281.08 281.094 281.105 281.115 281.13 281.154 281.188
281.226 281.262 281.292 281.315 281.33 281.24 281.03 281.029 281.031 281.034
281.043 281.058 281.076 281.096 281.113 281.123 281.122 281.111 281.084 281.384
281.235 281.183 281.161 281.153 281.153 281.157 281.166 281.176 281.187 281.199
281.212 281.225 281.237 281.249 281.259 281.267 281.274 281.282 281.292 281.304
281.317 281.328 281.335 281.342 281.345 281.258 281.038 281.032 281.038 281.044
281.05 281.06 281.073 281.088 281.102 281.111 281.113 281.108 281.079 281.392
281.333 281.316 281.31 281.311 281.317 281.325 281.332 281.34 281.348 281.355
281.362 281.369 281.375 281.381 281.385 281.388 281.389 281.389 281.387 281.384
281.378 281.369 281.36 281.355 281.352 281.264 281.047 281.029 281.04 281.049
281.057 281.064 281.072 281.082 281.093 281.102 281.108 281.096 281.069 281.401
281.393 281.392 281.394 281.397 281.401 281.405 281.408 281.412 281.414 281.417
281.419 281.42 281.421 281.42 281.419 281.416 281.411 281.405 281.396 281.386
281.373 281.359 281.346 281.337 281.285 281.177 281.04 281.009 281.018 281.026
281.033 281.04 281.049 281.057 281.066 281.075 281.085 281.064 281.043 
alphat 1 1600 float
0 0 0 0 0 0 0 0 0 0 0
0 0 0 0 0 0 0 0 0 0
0 0 0 0 0 0 0 0 0 0
0 0 0 0 0 0 0 0 0 0
0 0 0 0 0 0 0 0 0 0
0 0 0 0 0 0 0 0 0 0
0 0 0 0 0 0 0 0 0 0
0 0 0 0 0 0 0 0 0 0
0 0 0 0 0 0 0 0 0 0
0 0 0 0 0 0 0 0 0 0
0 0 0 0 0 0 0 0 0 0
0 0 0 0 0 0 0 0 0 0
0 0 0 0 0 0 0 0 0 0
0 0 0 0 0 0 0 0 0 0
0 0 0 0 0 0 0 0 0 0
0 0 0 0 0 0 0 0 0 0
0 0 0 0 0 0 0 0 0 0
0 0 0 0 0 0 0 0 0 0
0 0 0 0 0 0 0 0 0 0
0 0 0 0 0 0 0 0 0 0