# vtk DataFile Version 2.0
RBConvection
ASCII
DATASET UNSTRUCTURED_GRID
POINTS 3362 float
0 0 0 0.025 0 0 0.05 0 0 0.075 0
0 0.1 0 0 0.125 0 0 0.15 0 0
0.175 0 0 0.2 0 0 0.225 0 0 0.25
0 0 0.275 0 0 0.3 0 0 0.325 0
0 0.35 0 0 0.375 0 0 0.4 0 0
0.425 0 0 0.45 0 0 0.475 0 0 0.5
0 0 0.525 0 0 0.55 0 0 0.575 0
0 0.6 0 0 0.625 0 0 0.65 0 0
0.675 0 0 0.7 0 0 0.725 0 0 0.75
0 0 0.775 0 0 0.8 0 0 0.825 0
0 0.85 0 0 0.875 0 0 0.9 0 0
0.925 0 0 0.95 0 0 0.975 0 0 1
0 0 0 0.01 0 0.025 0.01 0 0.05 0.01
0 0.075 0.01 0 0.1 0.01 0 0.125 0.01 0
0.15 0.01 0 0.175 0.01 0 0.2 0.01 0 0.225
0.01 0 0.25 0.01 0 0.275 0.01 0 0.3 0.01
0 0.325 0.01 0 0.35 0.01 0 0.375 0.01 0
0.4 0.01 0 0.425 0.01 0 0.45 0.01 0 0.475
0.01 0 0.5 0.01 0 0.525 0.01 0 0.55 0.01
0 0.575 0.01 0 0.6 0.01 0 0.625 0.01 0
0.65 0.01 0 0.675 0.01 0 0.7 0.01 0 0.725
0.01 0 0.75 0.01 0 0.775 0.01 0 0.8 0.01
0 0.825 0.01 0 0.85 0.01 0 0.875 0.01 0
0.9 0.01 0 0.925 0.01 0 0.95 0.01 0 0.975
0.01 0 1 0.01 0 0 0.02 0 0.025 0.02
0 0.05 0.02 0 0.075 0.02 0 0.1 0.02 0
0.125 0.02 0 0.15 0.02 0 0.175 0.02 0 0.2
0.02 0 0.225 0.02 0 0.25 0.02 0 0.275 0.02
0 0.3 0.02 0 0.325 0.02 0 0.35 0.02 0
0.375 0.02 0 0.4 0.02 0 0.425 0.02 0 0.45
0.02 0 0.475 0.02 0 0.5 0.02 0 0.525 0.02
0 0.55 0.02 0 0.575 0.02 0 0.6 0.02 0
0.625 0.02 0 0.65 0.02 0 0.675 0.02 0 0.7
0.02 0 0.725 0.02 0 0.75 0.02 0 0.775 0.02
0 0.8 0.02 0 0.825 0.02 0 0.85 0.02 0
0.875 0.02 0 0.9 0.02 0 0.925 0.02 0 0.95
0.02 0 0.975 0.02 0 1 0.02 0 0 0.03
0 0.025 0.03 0 0.05 0.03 0 0.075 0.03 0
0.1 0.03 0 0.125 0.03 0 0.15 0.03 0 0.175
0.03 0 0.2 0.03 0 0.225 0.03 0 0.25 0.03
0 0.275 0.03 0 0.3 0.03 0 0.325 0.03 0
0.35 0.03 0 0.375 0.03 0 0.4 0.03 0 0.425
0.03 0 0.45 0.03 0 0.475 0.03 0 0.5 0.03
0 0.525 0.03 0 0.55 0.03 0 0.575 0.03 0
0.6 0.03 0 0.625 0.03 0 0.65 0.03 0 0.675
0.03 0 0.7 0.03 0 0.725 0.03 0 0.75 0.03
0 0.775 0.03 0 0.8 0.03 0 0.825 0.03 0
0.85 0.03 0 0.875 0.03 0 0.9 0.03 0 0.925
0.03 0 0.95 0.03 0 0.975 0.03 0 1 0.03
0 0 0.04 0 0.025 0.04 0 0.05 0.04 0
0.075 0.04 0 0.1 0.04 0 0.125 0.04 0 0.15
0.04 0 0.175 0.04 0 0.2 0.04 0 0.225 0.04
0 0.25 0.04 0 0.275 0.04 0 0.3 0.04 0
0.325 0.04 0 0.35 0.04 0 0.375 0.04 0 0.4
0.04 0 0.425 0.04 0 0.45 0.04 0 0.475 0.04
0 0.5 0.04 0 0.525 0.04 0 0.55 0.04 0
0.575 0.04 0 0.6 0.04 0 0.625 0.04 0 0.65
0.04 0 0.675 0.04 0 0.7 0.04 0 0.725 0.04
0 0.75 0.04 0 0.775 0.04 0 0.8 0.04 0
0.825 0.04 0 0.85 0.04 0 0.875 0.04 0 0.9
0.04 0 0.925 0.04 0 0.95 0.04 0 0.975 0.04
0 1 0.04 0 0 0.05 0 0.025 0.05 0
0.05 0.05 0 0.075 0.05 0 0.1 0.05 0 0.125
0.05 0 0.15 0.05 0 0.175 0.05 0 0.2 0.05
0 0.225 0.05 0 0.25 0.05 0 0.275 0.05 0
0.3 0.05 0 0.325 0.05 0 0.35 0.05 0 0.375
0.05 0 0.4 0.05 0 0.425 0.05 0 0.45 0.05
0 0.475 0.05 0 0.5 0.05 0 0.525 0.05 0
0.55 0.05 0 0.575 0.05 0 0.6 0.05 0 0.625
0.05 0 0.65 0.05 0 0.675 0.05 0 0.7 0.05
0 0.725 0.05 0 0.75 0.05 0 0.775 0.05 0
0.8 0.05 0 0.825 0.05 0 0.85 0.05 0 0.875
0.05 0 0.9 0.05 0 0.925 0.05 0 0.95 0.05
0 0.975 0.05 0 1 0.05 0 0 0.06 0
0.025 0.06 0 0.05 0.06 0 0.075 0.06 0 0.1
0.06 0 0.125 0.06 0 0.15 0.06 0 0.175 0.06
0 0.2 0.06 0 0.225 0.06 0 0.25 0.06 0
0.275 0.06 0 0.3 0.06 0 0.325 0.06 0 0.35
0.06 0 0.375 0.06 0 0.4 0.06 0 0.425 0.06
0 0.45 0.06 0 0.475 0.06 0 0.5 0.06 0
0.525 0.06 0 0.55 0.06 0 0.575 0.06 0 0.6
0.06 0 0.625 0.06 0 0.65 0.06 0 0.675 0.06
0 0.7 0.06 0 0.725 0.06 0 0.75 0.06 0
0.775 0.06 0 0.8 0.06 0 0.825 0.06 0 0.85
0.06 0 0.875 0.06 0 0.9 0.06 0 0.925 0.06
0 0.95 0.06 0 0.975 0.06 0 1 0.06 0
0 0.07 0 0.025 0.07 0 0.05 0.07 0 0.075
0.07 0 0.1 0.07 0 0.125 0.07 0 0.15 0.07
0 0.175 0.07 0 0.2 0.07 0 0.225 0.07 0
0.25 0.07 0 0.275 0.07 0 0.3 0.07 0 0.325
0.07 0 0.35 0.07 0 0.375 0.07 0 0.4 0.07
0 0.425 0.07 0 0.45 0.07 0 0.475 0.07 0
0.5 0.07 0 0.525 0.07 0 0.55 0.07 0 0.575
0.07 0 0.6 0.07 0 0.625 0.07 0 0.65 0.07
0 0.675 0.07 0 0.7 0.07 0 0.725 0.07 0
0.75 0.07 0 0.775 0.07 0 0.8 0.07 0 0.825
0.07 0 0.85 0.07 0 0.875 0.07 0 0.9 0.07
0 0.925 0.07 0 0.95 0.07 0 0.975 0.07 0
1 0.07 0 0 0.08 0 0.025 0.08 0 0.05
0.08 0 0.075 0.08 0 0.1 0.08 0 0.125 0.08
0 0.15 0.08 0 0.175 0.08 0 0.2 0.08 0
0.225 0.08 0 0.25 0.08 0 0.275 0.08 0 0.3
0.08 0 0.325 0.08 0 0.35 0.08 0 0.375 0.08
0 0.4 0.08 0 0.425 0.08 0 0.45 0.08 0
0.475 0.08 0 0.5 0.08 0 0.525 0.08 0 0.55
0.08 0 0.575 0.08 0 0.6 0.08 0 0.625 0.08
0 0.65 0.08 0 0.675 0.08 0 0.7 0.08 0
0.725 0.08 0 0.75 0.08 0 0.775 0.08 0 0.8
0.08 0 0.825 0.08 0 0.85 0.08 0 0.875 0.08
0 0.9 0.08 0 0.925 0.08 0 0.95 0.08 0
0.975 0.08 0 1 0.08 0 0 0.09 0 0.025
0.09 0 0.05 0.09 0 0.075 0.09 0 0.1 0.09
0 0.125 0.09 0 0.15 0.09 0 0.175 0.09 0
0.2 0.09 0 0.225 0.09 0 0.25 0.09 0 0.275
0.09 0 0.3 0.09 0 0.325 0.09 0 0.35 0.09
0 0.375 0.09 0 0.4 0.09 0 0.425 0.09 0
0.45 0.09 0 0.475 0.09 0 0.5 0.09 0 0.525
0.09 0 0.55 0.09 0 0.575 0.09 0 0.6 0.09
0 0.625 0.09 0 0.65 0.09 0 0.675 0.09 0
0.7 0.09 0 0.725 0.09 0 0.75 0.09 0 0.775
0.09 0 0.8 0.09 0 0.825 0.09 0 0.85 0.09
0 0.875 0.09 0 0.9 0.09 0 0.925 0.09 0
0.95 0.09 0 0.975 0.09 0 1 0.09 0 0
0.1 0 0.025 0.1 0 0.05 0.1 0 0.075 0.1
0 0.1 0.1 0 0.125 0.1 0 0.15 0.1 0
0.175 0.1 0 0.2 0.1 0 0.225 0.1 0 0.25
0.1 0 0.275 0.1 0 0.3 0.1 0 0.325 0.1
0 0.35 0.1 0 0.375 0.1 0 0.4 0.1 0
0.425 0.1 0 0.45 0.1 0 0.475 0.1 0 0.5
0.1 0 0.525 0.1 0 0.55 0.1 0 0.575 0.1
0 0.6 0.1 0 0.625 0.1 0 0.65 0.1 0
0.675 0.1 0 0.7 0.1 0 0.725 0.1 0 0.75
0.1 0 0.775 0.1 0 0.8 0.1 0 0.825 0.1
0 0.85 0.1 0 0.875 0.1 0 0.9 0.1 0
0.925 0.1 0 0.95 0.1 0 0.975 0.1 0 1
0.1 0 0 0.11 0 0.025 0.11 0 0.05 0.11
0 0.075 0.11 0 0.1 0.11 0 0.125 0.11 0
0.15 0.11 0 0.175 0.11 0 0.2 0.11 0 0.225
0.11 0 0.25 0.11 0 0.275 0.11 0 0.3 0.11
0 0.325 0.11 0 0.35 0.11 0 0.375 0.11 0
0.4 0.11 0 0.425 0.11 0 0.45 0.11 0 0.475
0.11 0 0.5 0.11 0 0.525 0.11 0 0.55 0.11
0 0.575 0.11 0 0.6 0.11 0 0.625 0.11 0
0.65 0.11 0 0.675 0.11 0 0.7 0.11 0 0.725
0.11 0 0.75 0.11 0 0.775 0.11 0 0.8 0.11
0 0.825 0.11 0 0.85 0.11 0 0.875 0.11 0
0.9 0.11 0 0.925 0.11 0 0.95 0.11 0 0.975
0.11 0 1 0.11 0 0 0.12 0 0.025 0.12
0 0.05 0.12 0 0.075 0.12 0 0.1 0.12 0
0.125 0.12 0 0.15 0.12 0 0.175 0.12 0 0.2
0.12 0 0.225 0.12 0 0.25 0.12 0 0.275 0.12
0 0.3 0.12 0 0.325 0.12 0 0.35 0.12 0
0.375 0.12 0 0.4 0.12 0 0.425 0.12 0 0.45
0.12 0 0.475 0.12 0 0.5 0.12 0 0.525 0.12
0 0.55 0.12 0 0.575 0.12 0 0.6 0.12 0
0.625 0.12 0 0.65 0.12 0 0.675 0.12 0 0.7
0.12 0 0.725 0.12 0 0.75 0.12 0 0.775 0.12
0 0.8 0.12 0 0.825 0.12 0 0.85 0.12 0
0.875 0.12 0 0.9 0.12 0 0.925 0.12 0 0.95
0.12 0 0.975 0.12 0 1 0.12 0 0 0.13
0 0.025 0.13 0 0.05 0.13 0 0.075 0.13 0
0.1 0.13 0 0.125 0.13 0 0.15 0.13 0 0.175
0.13 0 0.2 0.13 0 0.225 0.13 0 0.25 0.13
0 0.275 0.13 0 0.3 0.13 0 0.325 0.13 0
0.35 0.13 0 0.375 0.13 0 0.4 0.13 0 0.425
0.13 0 0.45 0.13 0 0.475 0.13 0 0.5 0.13
0 0.525 0.13 0 0.55 0.13 0 0.575 0.13 0
0.6 0.13 0 0.625 0.13 0 0.65 0.13 0 0.675
0.13 0 0.7 0.13 0 0.725 0.13 0 0.75 0.13
0 0.775 0.13 0 0.8 0.13 0 0.825 0.13 0
0.85 0.13 0 0.875 0.13 0 0.9 0.13 0 0.925
0.13 0 0.95 0.13 0 0.975 0.13 0 1 0.13
0 0 0.14 0 0.025 0.14 0 0.05 0.14 0
0.075 0.14 0 0.1 0.14 0 0.125 0.14 0 0.15
0.14 0 0.175 0.14 0 0.2 0.14 0 0.225 0.14
0 0.25 0.14 0 0.275 0.14 0 0.3 0.14 0
0.325 0.14 0 0.35 0.14 0 0.375 0.14 0 0.4
0.14 0 0.425 0.14 0 0.45 0.14 0 0.475 0.14
0 0.5 0.14 0 0.525 0.14 0 0.55 0.14 0
0.575 0.14 0 0.6 0.14 0 0.625 0.14 0 0.65
0.14 0 0.675 0.14 0 0.7 0.14 0 0.725 0.14
0 0.75 0.14 0 0.775 0.14 0 0.8 0.14 0
0.825 0.14 0 0.85 0.14 0 0.875 0.14 0 0.9
0.14 0 0.925 0.14 0 0.95 0.14 0 0.975 0.14
0 1 0.14 0 0 0.15 0 0.025 0.15 0
0.05 0.15 0 0.075 0.15 0 0.1 0.15 0 0.125
0.15 0 0.15 0.15 0 0.175 0.15 0 0.2 0.15
0 0.225 0.15 0 0.25 0.15 0 0.275 0.15 0
0.3 0.15 0 0.325 0.15 0 0.35 0.15 0 0.375
0.15 0 0.4 0.15 0 0.425 0.15 0 0.45 0.15
0 0.475 0.15 0 0.5 0.15 0 0.525 0.15 0
0.55 0.15 0 0.575 0.15 0 0.6 0.15 0 0.625
0.15 0 0.65 0.15 0 0.675 0.15 0 0.7 0.15
0 0.725 0.15 0 0.75 0.15 0 0.775 0.15 0
0.8 0.15 0 0.825 0.15 0 0.85 0.15 0 0.875
0.15 0 0.9 0.15 0 0.925 0.15 0 0.95 0.15
0 0.975 0.15 0 1 0.15 0 0 0.16 0
0.025 0.16 0 0.05 0.16 0 0.075 0.16 0 0.1
0.16 0 0.125 0.16 0 0.15 0.16 0 0.175 0.16
0 0.2 0.16 0 0.225 0.16 0 0.25 0.16 0
0.275 0.16 0 0.3 0.16 0 0.325 0.16 0 0.35
0.16 0 0.375 0.16 0 0.4 0.16 0 0.425 0.16
0 0.45 0.16 0 0.475 0.16 0 0.5 0.16 0
0.525 0.16 0 0.55 0.16 0 0.575 0.16 0 0.6
0.16 0 0.625 0.16 0 0.65 0.16 0 0.675 0.16
0 0.7 0.16 0 0.725 0.16 0 0.75 0.16 0
0.775 0.16 0 0.8 0.16 0 0.825 0.16 0 0.85
0.16 0 0.875 0.16 0 0.9 0.16 0 0.925 0.16
0 0.95 0.16 0 0.975 0.16 0 1 0.16 0
0 0.17 0 0.025 0.17 0 0.05 0.17 0 0.075
0.17 0 0.1 0.17 0 0.125 0.17 0 0.15 0.17
0 0.175 0.17 0 0.2 0.17 0 0.225 0.17 0
0.25 0.17 0 0.275 0.17 0 0.3 0.17 0 0.325
0.17 0 0.35 0.17 0 0.375 0.17 0 0.4 0.17
0 0.425 0.17 0 0.45 0.17 0 0.475 0.17 0
0.5 0.17 0 0.525 0.17 0 0.55 0.17 0 0.575
0.17 0 0.6 0.17 0 0.625 0.17 0 0.65 0.17
0 0.675 0.17 0 0.7 0.17 0 0.725 0.17 0
0.75 0.17 0 0.775 0.17 0 0.8 0.17 0 0.825
0.17 0 0.85 0.17 0 0.875 0.17 0 0.9 0.17
0 0.925 0.17 0 0.95 0.17 0 0.975 0.17 0
1 0.17 0 0 0.18 0 0.025 0.18 0 0.05
0.18 0 0.075 0.18 0 0.1 0.18 0 0.125 0.18
0 0.15 0.18 0 0.175 0.18 0 0.2 0.18 0
0.225 0.18 0 0.25 0.18 0 0.275 0.18 0 0.3
0.18 0 0.325 0.18 0 0.35 0.18 0 0.375 0.18
0 0.4 0.18 0 0.425 0.18 0 0.45 0.18 0
0.475 0.18 0 0.5 0.18 0 0.525 0.18 0 0.55
0.18 0 0.575 0.18 0 0.6 0.18 0 0.625 0.18
0 0.65 0.18 0 0.675 0.18 0 0.7 0.18 0
0.725 0.18 0 0.75 0.18 0 0.775 0.18 0 0.8
0.18 0 0.825 0.18 0 0.85 0.18 0 0.875 0.18
0 0.9 0.18 0 0.925 0.18 0 0.95 0.18 0
0.975 0.18 0 1 0.18 0 0 0.19 0 0.025
0.19 0 0.05 0.19 0 0.075 0.19 0 0.1 0.19
0 0.125 0.19 0 0.15 0.19 0 0.175 0.19 0
0.2 0.19 0 0.225 0.19 0 0.25 0.19 0 0.275
0.19 0 0.3 0.19 0 0.325 0.19 0 0.35 0.19
0 0.375 0.19 0 0.4 0.19 0 0.425 0.19 0
0.45 0.19 0 0.475 0.19 0 0.5 0.19 0 0.525
0.19 0 0.55 0.19 0 0.575 0.19 0 0.6 0.19
0 0.625 0.19 0 0.65 0.19 0 0.675 0.19 0
0.7 0.19 0 0.725 0.19 0 0.75 0.19 0 0.775
0.19 0 0.8 0.19 0 0.825 0.19 0 0.85 0.19
0 0.875 0.19 0 0.9 0.19 0 0.925 0.19 0
0.95 0.19 0 0.975 0.19 0 1 0.19 0 0
0.2 0 0.025 0.2 0 0.05 0.2 0 0.075 0.2
0 0.1 0.2 0 0.125 0.2 0 0.15 0.2 0
0.175 0.2 0 0.2 0.2 0 0.225 0.2 0 0.25
[...]
CELL_DATA 1600
FIELD attributes 6
cellID 1 1600 int
0 1 2 3 4 5 6 7 8 9 10
11 12 13 14 15 16 17 18 19 20
21 22 23 24 25 26 27 28 29 30
31 32 33 34 35 36 37 38 39 40
41 42 43 44 45 46 47 48 49 50
51 52 53 54 55 56 57 58 59 60
61 62 63 64 65 66 67 68 69 70
71 72 73 74 75 76 77 78 79 80
81 82 83 84 85 86 87 88 89 90
91 92 93 94 95 96 97 98 99 100
101 102 103 104 105 106 107 108 109 110
111 112 113 114 115 116 117 118 119 120
121 122 123 124 125 126 127 128 129 130
131 132 133 134 135 136 137 138 139 140
141 142 143 144 145 146 147 148 149 150
151 152 153 154 155 156 157 158 159 160
161 162 163 164 165 166 167 168 169 170
171 172 173 174 175 176 177 178 179 180
181 182 183 184 185 186 187 188 189 190
191 192 193 194 195 196 197 198 199 200
201 202 203 204 205 206 207 208 209 210
211 212 213 214 215 216 217 218 219 220
221 222 223 224 225 226 227 228 229 230
231 232 233 234 235 236 237 238 239 240
241 242 243 244 245 246 247 248 249 250
251 252 253 254 255 256 257 258 259 260
261 262 263 264 265 266 267 268 269 270
271 272 273 274 275 276 277 278 279 280
281 282 283 284 285 286 287 288 289 290
291 292 293 294 295 296 297 298 299 300
301 302 303 304 305 306 307 308 309 310
311 312 313 314 315 316 317 318 319 320
321 322 323 324 325 326 327 328 329 330
331 332 333 334 335 336 337 338 339 340
341 342 343 344 345 346 347 348 349 350
351 352 353 354 355 356 357 358 359 360
361 362 363 364 365 366 367 368 369 370
371 372 373 374 375 376 377 378 379 380
381 382 383 384 385 386 387 388 389 390
391 392 393 394 395 396 397 398 399 400
401 402 403 404 405 406 407 408 409 410
411 412 413 414 415 416 417 418 419 420
421 422 423 424 425 426 427 428 429 430
431 432 433 434 435 436 437 438 439 440
441 442 443 444 445 446 447 448 449 450
451 452 453 454 455 456 457 458 459 460
461 462 463 464 465 466 467 468 469 470
471 472 473 474 475 476 477 478 479 480
481 482 483 484 485 486 487 488 489 490
491 492 493 494 495 496 497 498 499 500
501 502 503 504 505 506 507 508 509 510
511 512 513 514 515 516 517 518 519 520
521 522 523 524 525 526 527 528 529 530
531 532 533 534 535 536 537 538 539 540
541 542 543 544 545 546 547 548 549 550
551 552 553 554 555 556 557 558 559 560
561 562 563 564 565 566 567 568 569 570
571 572 573 574 575 576 577 578 579 580
581 582 583 584 585 586 587 588 589 590
591 592 593 594 595 596 597 598 599 600
601 602 603 604 605 606 607 608 609 610
611 612 613 614 615 616 617 618 619 620
621 622 623 624 625 626 627 628 629 630
631 632 633 634 635 636 637 638 639 640
641 642 643 644 645 646 647 648 649 650
651 652 653 654 655 656 657 658 659 660
661 662 663 664 665 666 667 668 669 670
671 672 673 674 675 676 677 678 679 680
681 682 683 684 685 686 687 688 689 690
691 692 693 694 695 696 697 698 699 700
701 702 703 704 705 706 707 708 709 710
711 712 713 714 715 716 717 718 719 720
721 722 723 724 725 726 727 728 729 730
731 732 733 734 735 736 737 738 739 740
741 742 743 744 745 746 747 748 749 750
751 752 753 754 755 756 757 758 759 760
761 762 763 764 765 766 767 768 769 770
771 772 773 774 775 776 777 778 779 780
781 782 783 784 785 786 787 788 789 790
791 792 793 794 795 796 797 798 799 800
801 802 803 804 805 806 807 808 809 810
811 812 813 814 815 816 817 818 819 820
821 822 823 824 825 826 827 828 829 830
831 832 833 834 835 836 837 838 839 840
841 842 843 844 845 846 847 848 849 850
851 852 853 854 855 856 857 858 859 860
861 862 863 864 865 866 867 868 869 870
871 872 873 874 875 876 877 878 879 880
881 882 883 884 885 886 887 888 889 890
891 892 893 894 895 896 897 898 899 900
901 902 903 904 905 906 907 908 909 910
911 912 913 914 915 916 917 918 919 920
921 922 923 924 925 926 927 928 929 930
931 932 933 934 935 936 937 938 939 940
941 942 943 944 945 946 947 948 949 950
951 952 953 954 955 956 957 958 959 960
961 962 963 964 965 966 967 968 969 970
971 972 973 974 975 976 977 978 979 980
981 982 983 984 985 986 987 988 989 990
991 992 993 994 995 996 997 998 999 1000
1001 1002 1003 1004 1005 1006 1007 1008 1009 1010
1011 1012 1013 1014 1015 1016 1017 1018 1019 1020
1021 1022 1023 1024 1025 1026 1027 1028 1029 1030
1031 1032 1033 1034 1035 1036 1037 1038 1039 1040
1041 1042 1043 1044 1045 1046 1047 1048 1049 1050
1051 1052 1053 1054 1055 1056 1057 1058 1059 1060
1061 1062 1063 1064 1065 1066 1067 1068 1069 1070
1071 1072 1073 1074 1075 1076 1077 1078 1079 1080
1081 1082 1083 1084 1085 1086 1087 1088 1089 1090
1091 1092 1093 1094 1095 1096 1097 1098 1099 1100
1101 1102 1103 1104 1105 1106 1107 1108 1109 1110
1111 1112 1113 1114 1115 1116 1117 1118 1119 1120
1121 1122 1123 1124 1125 1126 1127 1128 1129 1130
1131 1132 1133 1134 1135 1136 1137 1138 1139 1140
1141 1142 1143 1144 1145 1146 1147 1148 1149 1150
1151 1152 1153 1154 1155 1156 1157 1158 1159 1160
1161 1162 1163 1164 1165 1166 1167 1168 1169 1170
1171 1172 1173 1174 1175 1176 1177 1178 1179 1180
1181 1182 1183 1184 1185 1186 1187 1188 1189 1190
1191 1192 1193 1194 1195 1196 1197 1198 1199 1200
1201 1202 1203 1204 1205 1206 1207 1208 1209 1210
1211 1212 1213 1214 1215 1216 1217 1218 1219 1220
1221 1222 1223 1224 1225 1226 1227 1228 1229 1230
1231 1232 1233 1234 1235 1236 1237 1238 1239 1240
1241 1242 1243 1244 1245 1246 1247 1248 1249 1250
1251 1252 1253 1254 1255 1256 1257 1258 1259 1260
1261 1262 1263 1264 1265 1266 1267 1268 1269 1270
1271 1272 1273 1274 1275 1276 1277 1278 1279 1280
1281 1282 1283 1284 1285 1286 1287 1288 1289 1290
1291 1292 1293 1294 1295 1296 1297 1298 1299 1300
1301 1302 1303 1304 1305 1306 1307 1308 1309 1310
1311 1312 1313 1314 1315 1316 1317 1318 1319 1320
1321 1322 1323 1324 1325 1326 1327 1328 1329 1330
1331 1332 1333 1334 1335 1336 1337 1338 1339 1340
1341 1342 1343 1344 1345 1346 1347 1348 1349 1350
1351 1352 1353 1354 1355 1356 1357 1358 1359 1360
1361 1362 1363 1364 1365 1366 1367 1368 1369 1370
1371 1372 1373 1374 1375 1376 1377 1378 1379 1380
1381 1382 1383 1384 1385 1386 1387 1388 1389 1390
1391 1392 1393 1394 1395 1396 1397 1398 1399 1400
1401 1402 1403 1404 1405 1406 1407 1408 1409 1410
1411 1412 1413 1414 1415 1416 1417 1418 1419 1420
1421 1422 1423 1424 1425 1426 1427 1428 1429 1430
1431 1432 1433 1434 1435 1436 1437 1438 1439 1440
1441 1442 1443 1444 1445 1446 1447 1448 1449 1450
1451 1452 1453 1454 1455 1456 1457 1458 1459 1460
1461 1462 1463 1464 1465 1466 1467 1468 1469 1470
1471 1472 1473 1474 1475 1476 1477 1478 1479 1480
1481 1482 1483 1484 1485 1486 1487 1488 1489 1490
1491 1492 1493 1494 1495 1496 1497 1498 1499 1500
1501 1502 1503 1504 1505 1506 1507 1508 1509 1510
1511 1512 1513 1514 1515 1516 1517 1518 1519 1520
1521 1522 1523 1524 1525 1526 1527 1528 1529 1530
1531 1532 1533 1534 1535 1536 1537 1538 1539 1540
1541 1542 1543 1544 1545 1546 1547 1548 1549 1550
1551 1552 1553 1554 1555 1556 1557 1558 1559 1560
1561 1562 1563 1564 1565 1566 1567 1568 1569 1570
1571 1572 1573 1574 1575 1576 1577 1578 1579 1580
1581 1582 1583 1584 1585 1586 1587 1588 1589 1590
1591 1592 1593 1594 1595 1596 1597 1598 1599 
T 1 1600 float
285.396 284.866 284.841 284.231 283.757 283.737 284.172 284.644 284.857 284.771 284.564
284.392 284.31 284.336 284.439 284.525 284.137 283.641 283.781 284.069 284.466
284.85 285.243 285.527 284.445 283.805 283.336 283.178 283.11 283.022 282.926
282.805 282.714 282.784 282.931 283.166 283.482 283.792 284.111 284.49 284.351
283.911 283.541 282.184 281.712 281.633 281.63 281.64 281.648 281.654 281.659
281.666 281.674 281.685 281.698 281.712 281.728 281.751 281.768 281.774 281.775
281.922 281.88 283.531 283.386 281.942 281.523 281.506 281.51 281.517 281.523
281.533 281.542 281.544 281.543 281.538 281.537 281.601 281.912 283.238 283.953
283.666 283.239 282.059 281.708 281.594 281.591 281.599 281.609 281.621 281.632
281.642 281.653 281.667 281.682 281.7 281.727 281.757 281.775 281.775 281.766
281.767 281.736 282.733 283.04 281.774 281.516 281.508 281.517 281.526 281.537
281.549 281.559 281.562 281.56 281.552 281.539 281.532 281.63 282.779 283.68
283.533 283.222 282.113 281.746 281.582 281.586 281.6 281.612 281.623 281.633
281.643 281.655 281.673 281.693 281.717 281.75 281.783 281.798 281.797 281.783
281.762 281.731 282.37 282.875 281.742 281.526 281.52 281.53 281.542 281.554
281.566 281.577 281.58 281.578 281.57 281.556 281.538 281.568 282.544 283.432
283.347 283.335 282.232 281.794 281.574 281.583 281.599 281.612 281.621 281.629
281.64 281.657 281.681 281.707 281.738 281.775 281.806 281.817 281.813 281.797
281.77 281.758 282.208 282.783 281.742 281.536 281.529 281.541 281.556 281.569
281.581 281.59 281.592 281.589 281.582 281.568 281.547 281.549 282.402 283.189
283.053 283.509 282.411 281.858 281.57 281.58 281.597 281.609 281.616 281.624
281.64 281.664 281.694 281.726 281.762 281.799 281.823 281.827 281.823 281.806
281.776 281.777 282.138 282.732 281.753 281.546 281.538 281.552 281.568 281.583
281.594 281.6 281.6 281.595 281.588 281.576 281.553 281.541 282.308 282.954
282.695 283.657 282.688 281.955 281.572 281.578 281.595 281.604 281.61 281.621
281.643 281.676 281.712 281.75 281.787 281.816 281.83 281.829 281.826 281.811
281.779 281.79 282.102 282.704 281.77 281.555 281.546 281.562 281.58 281.595
281.605 281.61 281.608 281.599 281.589 281.579 281.555 281.535 282.241 282.735
282.329 283.694 283.019 282.101 281.58 281.576 281.592 281.599 281.605 281.621
281.65 281.69 281.733 281.773 281.806 281.827 281.831 281.827 281.823 281.812
281.781 281.795 282.07 282.692 281.79 281.565 281.554 281.571 281.591 281.606
281.616 281.62 281.615 281.604 281.588 281.578 281.553 281.53 282.192 282.54
282.026 283.607 283.141 282.193 281.598 281.574 281.588 281.594 281.601 281.622
281.658 281.706 281.753 281.792 281.82 281.831 281.828 281.821 281.816 281.809
281.781 281.793 282.031 282.686 281.813 281.574 281.562 281.58 281.601 281.617
281.628 281.631 281.626 281.611 281.59 281.578 281.55 281.523 282.155 282.376
281.812 283.355 283.055 282.131 281.609 281.572 281.584 281.588 281.598 281.623
281.666 281.719 281.769 281.807 281.827 281.831 281.822 281.812 281.806 281.8
281.778 281.784 281.98 282.677 281.838 281.583 281.569 281.589 281.611 281.629
281.641 281.645 281.64 281.625 281.597 281.57 281.54 281.515 282.127 282.245
281.663 282.915 282.789 281.974 281.595 281.57 281.579 281.583 281.595 281.624
281.671 281.729 281.782 281.817 281.831 281.827 281.815 281.801 281.793 281.787
281.772 281.77 281.919 282.653 281.871 281.592 281.577 281.598 281.621 281.641
281.654 281.661 281.659 281.645 281.614 281.568 281.529 281.505 282.108 282.14
281.441 282.39 282.417 281.786 281.57 281.567 281.575 281.578 281.591 281.622
281.673 281.737 281.792 281.824 281.832 281.823 281.807 281.791 281.78 281.773
281.763 281.753 281.854 282.593 281.924 281.603 281.584 281.606 281.631 281.653
281.669 281.679 281.682 281.673 281.645 281.592 281.518 281.494 282.097 282.059
281.334 281.945 282.046 281.656 281.551 281.565 281.57 281.573 281.587 281.619
281.672 281.74 281.799 281.828 281.832 281.819 281.8 281.781 281.766 281.758
281.751 281.737 281.791 282.488 281.977 281.615 281.591 281.613 281.64 281.663
281.682 281.696 281.705 281.704 281.686 281.637 281.537 281.517 282.088 282.002
281.336 281.659 281.764 281.573 281.541 281.562 281.565 281.567 281.581 281.613
281.667 281.74 281.803 281.832 281.833 281.817 281.795 281.773 281.755 281.744
281.737 281.723 281.737 282.346 282.018 281.629 281.599 281.619 281.647 281.672
281.693 281.71 281.724 281.732 281.73 281.701 281.628 281.586 282.079 281.965
281.343 281.501 281.592 281.525 281.535 281.559 281.56 281.562 281.575 281.604
281.659 281.737 281.806 281.836 281.834 281.816 281.793 281.769 281.748 281.733
281.724 281.713 281.699 282.178 282.045 281.653 281.608 281.624 281.652 281.678
281.699 281.718 281.735 281.752 281.765 281.766 281.735 281.688 282.07 281.942
281.349 281.374 281.49 281.496 281.532 281.556 281.555 281.556 281.567 281.593
281.647 281.73 281.807 281.84 281.838 281.819 281.795 281.769 281.745 281.725
281.71 281.702 281.678 282.004 282.049 281.7 281.62 281.627 281.655 281.681
281.702 281.72 281.738 281.758 281.783 281.81 281.824 281.808 282.061 281.927
281.355 281.306 281.437 281.481 281.53 281.553 281.551 281.551 281.559 281.581
281.633 281.72 281.806 281.845 281.844 281.825 281.801 281.776 281.75 281.725
281.703 281.688 281.671 281.847 282.038 281.757 281.635 281.628 281.656 281.681
281.7 281.717 281.733 281.753 281.781 281.822 281.875 281.936 282.05 281.918
281.366 281.328 281.415 281.473 281.529 281.55 281.547 281.546 281.55 281.568
281.617 281.705 281.802 281.85 281.852 281.835 281.812 281.788 281.762 281.735
281.708 281.686 281.671 281.728 282.02 281.818 281.658 281.629 281.655 281.68
281.698 281.711 281.724 281.74 281.764 281.803 281.865 281.951 282.037 281.912
281.375 281.343 281.405 281.469 281.529 281.546 281.544 281.541 281.542 281.554
281.6 281.687 281.794 281.855 281.861 281.848 281.828 281.805 281.78 281.752
281.72 281.69 281.666 281.658 282.004 281.881 281.703 281.633 281.652 281.678
281.695 281.706 281.716 281.728 281.744 281.771 281.821 281.906 282.019 281.909
281.382 281.352 281.4 281.466 281.528 281.543 281.541 281.537 281.534 281.541
281.582 281.665 281.782 281.86 281.873 281.863 281.847 281.827 281.805 281.776
281.74 281.7 281.661 281.629 281.998 281.935 281.777 281.644 281.649 281.676
281.692 281.703 281.711 281.72 281.73 281.744 281.771 281.835 281.973 281.908
281.388 281.359 281.395 281.465 281.527 281.54 281.538 281.533 281.527 281.529
281.564 281.641 281.762 281.862 281.885 281.88 281.868 281.853 281.834 281.806
281.768 281.72 281.667 281.624 282.007 281.986 281.862 281.682 281.644 281.673
281.69 281.699 281.706 281.715 281.724 281.73 281.734 281.74 281.748 281.909
281.393 281.363 281.388 281.465 281.525 281.537 281.535 281.529 281.52 281.519
281.548 281.615 281.736 281.86 281.897 281.898 281.892 281.882 281.866 281.84
281.8 281.747 281.684 281.627 282.032 282.035 281.936 281.761 281.639 281.668
281.686 281.694 281.701 281.712 281.722 281.729 281.731 281.729 281.724 281.911
281.398 281.367 281.379 281.465 281.523 281.534 281.532 281.525 281.514 281.511
281.534 281.591 281.704 281.852 281.908 281.917 281.917 281.913 281.901 281.876
281.835 281.776 281.704 281.635 282.07 282.081 281.999 281.844 281.673 281.66
281.68 281.687 281.694 281.707 281.72 281.73 281.734 281.735 281.729 281.913
281.403 281.371 281.372 281.466 281.52 281.531 281.529 281.522 281.508 281.505
281.523 281.569 281.669 281.833 281.916 281.935 281.943 281.945 281.938 281.915
281.872 281.806 281.725 281.648 282.109 282.119 282.05 281.911 281.742 281.655
281.674 281.68 281.687 281.703 281.718 281.729 281.736 281.737 281.731 281.916
281.407 281.376 281.367 281.464 281.516 281.527 281.525 281.518 281.502 281.5
281.515 281.551 281.634 281.803 281.921 281.951 281.967 281.977 281.976 281.957
281.912 281.838 281.745 281.665 282.12 282.136 282.082 281.963 281.805 281.69
281.664 281.674 281.682 281.7 281.717 281.729 281.736 281.739 281.732 281.919
281.412 281.384 281.368 281.462 281.512 281.523 281.521 281.514 281.498 281.496
281.509 281.537 281.604 281.763 281.92 281.964 281.989 282.007 282.012 281.999
281.955 281.873 281.766 281.683 282.053 282.114 282.089 281.995 281.857 281.738
281.682 281.673 281.683 281.701 281.718 281.73 281.737 281.74 281.733 281.923
281.418 281.395 281.38 281.46 281.508 281.518 281.517 281.508 281.495 281.494
281.504 281.527 281.58 281.719 281.911 281.971 282.004 282.029 282.042 282.039
282.001 281.913 281.788 281.696 281.89 282.043 282.065 282.005 281.893 281.784
281.718 281.689 281.693 281.706 281.721 281.732 281.739 281.742 281.734 281.927
281.423 281.406 281.399 281.456 281.503 281.513 281.511 281.502 281.491 281.491
281.501 281.52 281.563 281.681 281.893 281.973 282.01 282.039 282.061 282.07
282.044 281.956 281.814 281.709 281.714 281.941 282.016 281.996 281.915 281.823
281.758 281.721 281.715 281.719 281.727 281.735 281.741 281.743 281.734 281.931
281.427 281.415 281.413 281.453 281.498 281.507 281.505 281.496 281.488 281.49
281.498 281.515 281.552 281.655 281.865 281.967 282.006 282.033 282.063 282.088
282.079 281.999 281.845 281.724 281.651 281.85 281.959 281.974 281.924 281.852
281.795 281.76 281.744 281.737 281.737 281.741 281.744 281.744 281.735 281.936
281.432 281.422 281.421 281.449 281.493 281.501 281.498 281.49 281.485 281.488
281.497 281.511 281.544 281.638 281.83 281.953 281.992 282.015 282.052 282.091
282.1 282.037 281.879 281.74 281.661 281.79 281.906 281.947 281.924 281.873
281.826 281.795 281.772 281.757 281.749 281.747 281.748 281.746 281.735 281.941
281.437 281.43 281.426 281.446 281.487 281.495 281.491 281.484 281.483 281.487
281.496 281.509 281.539 281.627 281.792 281.932 281.969 281.993 282.038 282.087
282.111 282.066 281.914 281.756 281.669 281.751 281.864 281.921 281.919 281.886
281.85 281.821 281.795 281.774 281.76 281.754 281.752 281.747 281.735 281.947
281.444 281.441 281.432 281.444 281.48 281.488 281.484 281.48 281.481 281.487
281.495 281.507 281.534 281.617 281.757 281.903 281.94 281.971 282.027 282.085
282.12 282.088 281.943 281.771 281.672 281.716 281.827 281.895 281.91 281.892
281.865 281.839 281.812 281.787 281.77 281.761 281.756 281.749 281.735 281.954
281.464 281.458 281.443 281.444 281.473 281.481 281.478 281.477 281.48 281.487
281.495 281.505 281.53 281.607 281.726 281.869 281.907 281.953 282.021 282.087
282.128 282.107 281.968 281.783 281.673 281.675 281.788 281.868 281.896 281.891
281.872 281.847 281.82 281.794 281.776 281.765 281.759 281.75 281.734 281.964
281.526 281.487 281.466 281.45 281.466 281.475 281.474 281.476 281.482 281.49
281.499 281.507 281.531 281.601 281.702 281.833 281.88 281.946 282.026 282.095
282.139 282.124 281.987 281.791 281.674 281.635 281.746 281.837 281.877 281.882
281.868 281.846 281.82 281.796 281.778 281.768 281.761 281.75 281.733 281.974
281.651 281.573 281.541 281.497 281.465 281.474 281.476 281.481 281.495 281.511
281.522 281.535 281.566 281.626 281.708 281.805 281.876 281.964 282.047 282.113
282.153 282.139 282.001 281.794 281.676 281.604 281.706 281.802 281.851 281.863
281.854 281.835 281.812 281.792 281.778 281.769 281.761 281.749 281.731 281.984
281.762 281.723 281.758 281.777 281.646 281.598 281.586 281.599 281.623 281.645
281.66 281.673 281.696 281.732 281.781 281.849 281.934 282.017 282.086 282.139
282.171 282.152 282.008 281.791 281.678 281.602 281.679 281.77 281.821 281.837
281.832 281.817 281.799 281.785 281.775 281.769 281.76 281.746 281.727 281.995
281.86 281.841 281.854 281.867 281.863 281.863 281.865 281.872 281.877 281.882
281.886 281.892 281.904 281.922 281.947 281.989 282.043 282.092 282.136 282.17
282.188 282.161 282.007 281.782 281.682 281.651 281.665 281.744 281.792 281.808
281.806 281.796 281.785 281.777 281.772 281.767 281.756 281.741 281.722 282.008
281.945 281.942 281.953 281.964 281.975 281.986 281.997 282.008 282.019 282.029
282.038 282.048 282.059 282.073 282.089 282.109 282.132 282.156 282.178 282.195
282.2 282.161 281.994 281.764 281.69 281.675 281.658 281.731 281.769 281.782
281.783 281.778 281.774 281.772 281.769 281.761 281.748 281.73 281.712 282.024
282.011 282.02 282.033 282.046 282.058 282.071 282.083 282.094 282.105 282.115
282.125 282.134 282.144 282.154 282.164 282.174 282.183 282.191 282.198 282.202
282.196 282.142 281.958 281.735 281.698 281.699 281.689 281.728 281.756 281.766
281.768 281.769 281.769 281.766 281.759 281.746 281.728 281.71 281.694 282.04
282.045 282.053 282.061 282.068 282.075 282.081 282.086 282.092 282.097 282.102
282.108 282.113 282.119 282.125 282.131 282.138 282.144 282.15 282.156 282.157
282.141 282.064 281.867 281.686 281.685 281.697 281.704 281.716 281.738 281.739
281.737 281.732 281.724 281.715 281.704 281.691 281.675 281.661 281.638 
alphat 1 1600 float
0 0 0 0 0 0 0 0 0 0 0
0 0 0 0 0 0 0 0 0 0
0 0 0 0 0 0 0 0 0 0
0 0 0 0 0 0 0 0 0 0
0 0 0 0 0 0 0 0 0 0
0 0 0 0 0 0 0 0 0 0
0 0 0 0 0 0 0 0 0 0
0 0 0 0 0 0 0 0 0 0
0 0 0 0 0 0 0 0 0 0
0 0 0 0 0 0 0 0 0 0
0 0 0 0 0 0 0 0 0 0
0 0 0 0 0 0 0 0 0 0
0 0 0 0 0 0 0 0 0 0
0 0 0 0 0 0 0 0 0 0
0 0 0 0 0 0 0 0 0 0
0 0 0 0 0 0 0 0 0 0
0 0 0 0 0 0 0 0 0 0
0 0 0 0 0 0 0 0 0 0
0 0 0 0 0 0 0 0 0 0
0 0 0 0 0 0 0 0 0 0