# vtk DataFile Version 2.0
RBConvection
ASCII
DATASET UNSTRUCTURED_GRID
POINTS 3362 float
0 0 0 0.025 0 0 0.05 0 0 0.075 0
0 0.1 0 0 0.125 0 0 0.15 0 0
0.175 0 0 0.2 0 0 0.225 0 0 0.25
0 0 0.275 0 0 0.3 0 0 0.325 0
0 0.35 0 0 0.375 0 0 0.4 0 0
0.425 0 0 0.45 0 0 0.475 0 0 0.5
0 0 0.525 0 0 0.55 0 0 0.575 0
0 0.6 0 0 0.625 0 0 0.65 0 0
0.675 0 0 0.7 0 0 0.725 0 0 0.75
0 0 0.775 0 0 0.8 0 0 0.825 0
0 0.85 0 0 0.875 0 0 0.9 0 0
0.925 0 0 0.95 0 0 0.975 0 0 1
0 0 0 0.01 0 0.025 0.01 0 0.05 0.01
0 0.075 0.01 0 0.1 0.01 0 0.125 0.01 0
0.15 0.01 0 0.175 0.01 0 0.2 0.01 0 0.225
0.01 0 0.25 0.01 0 0.275 0.01 0 0.3 0.01
0 0.325 0.01 0 0.35 0.01 0 0.375 0.01 0
0.4 0.01 0 0.425 0.01 0 0.45 0.01 0 0.475
0.01 0 0.5 0.01 0 0.525 0.01 0 0.55 0.01
0 0.575 0.01 0 0.6 0.01 0 0.625 0.01 0
0.65 0.01 0 0.675 0.01 0 0.7 0.01 0 0.725
0.01 0 0.75 0.01 0 0.775 0.01 0 0.8 0.01
0 0.825 0.01 0 0.85 0.01 0 0.875 0.01 0
0.9 0.01 0 0.925 0.01 0 0.95 0.01 0 0.975
0.01 0 1 0.01 0 0 0.02 0 0.025 0.02
0 0.05 0.02 0 0.075 0.02 0 0.1 0.02 0
0.125 0.02 0 0.15 0.02 0 0.175 0.02 0 0.2
0.02 0 0.225 0.02 0 0.25 0.02 0 0.275 0.02
0 0.3 0.02 0 0.325 0.02 0 0.35 0.02 0
0.375 0.02 0 0.4 0.02 0 0.425 0.02 0 0.45
0.02 0 0.475 0.02 0 0.5 0.02 0 0.525 0.02
0 0.55 0.02 0 0.575 0.02 0 0.6 0.02 0
0.625 0.02 0 0.65 0.02 0 0.675 0.02 0 0.7
0.02 0 0.725 0.02 0 0.75 0.02 0 0.775 0.02
0 0.8 0.02 0 0.825 0.02 0 0.85 0.02 0
0.875 0.02 0 0.9 0.02 0 0.925 0.02 0 0.95
0.02 0 0.975 0.02 0 1 0.02 0 0 0.03
0 0.025 0.03 0 0.05 0.03 0 0.075 0.03 0
0.1 0.03 0 0.125 0.03 0 0.15 0.03 0 0.175
0.03 0 0.2 0.03 0 0.225 0.03 0 0.25 0.03
0 0.275 0.03 0 0.3 0.03 0 0.325 0.03 0
0.35 0.03 0 0.375 0.03 0 0.4 0.03 0 0.425
0.03 0 0.45 0.03 0 0.475 0.03 0 0.5 0.03
0 0.525 0.03 0 0.55 0.03 0 0.575 0.03 0
0.6 0.03 0 0.625 0.03 0 0.65 0.03 0 0.675
0.03 0 0.7 0.03 0 0.725 0.03 0 0.75 0.03
0 0.775 0.03 0 0.8 0.03 0 0.825 0.03 0
0.85 0.03 0 0.875 0.03 0 0.9 0.03 0 0.925
0.03 0 0.95 0.03 0 0.975 0.03 0 1 0.03
0 0 0.04 0 0.025 0.04 0 0.05 0.04 0
0.075 0.04 0 0.1 0.04 0 0.125 0.04 0 0.15
0.04 0 0.175 0.04 0 0.2 0.04 0 0.225 0.04
0 0.25 0.04 0 0.275 0.04 0 0.3 0.04 0
0.325 0.04 0 0.35 0.04 0 0.375 0.04 0 0.4
0.04 0 0.425 0.04 0 0.45 0.04 0 0.475 0.04
0 0.5 0.04 0 0.525 0.04 0 0.55 0.04 0
0.575 0.04 0 0.6 0.04 0 0.625 0.04 0 0.65
0.04 0 0.675 0.04 0 0.7 0.04 0 0.725 0.04
0 0.75 0.04 0 0.775 0.04 0 0.8 0.04 0
0.825 0.04 0 0.85 0.04 0 0.875 0.04 0 0.9
0.04 0 0.925 0.04 0 0.95 0.04 0 0.975 0.04
0 1 0.04 0 0 0.05 0 0.025 0.05 0
0.05 0.05 0 0.075 0.05 0 0.1 0.05 0 0.125
0.05 0 0.15 0.05 0 0.175 0.05 0 0.2 0.05
0 0.225 0.05 0 0.25 0.05 0 0.275 0.05 0
0.3 0.05 0 0.325 0.05 0 0.35 0.05 0 0.375
0.05 0 0.4 0.05 0 0.425 0.05 0 0.45 0.05
0 0.475 0.05 0 0.5 0.05 0 0.525 0.05 0
0.55 0.05 0 0.575 0.05 0 0.6 0.05 0 0.625
0.05 0 0.65 0.05 0 0.675 0.05 0 0.7 0.05
0 0.725 0.05 0 0.75 0.05 0 0.775 0.05 0
0.8 0.05 0 0.825 0.05 0 0.85 0.05 0 0.875
0.05 0 0.9 0.05 0 0.925 0.05 0 0.95 0.05
0 0.975 0.05 0 1 0.05 0 0 0.06 0
0.025 0.06 0 0.05 0.06 0 0.075 0.06 0 0.1
0.06 0 0.125 0.06 0 0.15 0.06 0 0.175 0.06
0 0.2 0.06 0 0.225 0.06 0 0.25 0.06 0
0.275 0.06 0 0.3 0.06 0 0.325 0.06 0 0.35
0.06 0 0.375 0.06 0 0.4 0.06 0 0.425 0.06
0 0.45 0.06 0 0.475 0.06 0 0.5 0.06 0
0.525 0.06 0 0.55 0.06 0 0.575 0.06 0 0.6
0.06 0 0.625 0.06 0 0.65 0.06 0 0.675 0.06
0 0.7 0.06 0 0.725 0.06 0 0.75 0.06 0
0.775 0.06 0 0.8 0.06 0 0.825 0.06 0 0.85
0.06 0 0.875 0.06 0 0.9 0.06 0 0.925 0.06
0 0.95 0.06 0 0.975 0.06 0 1 0.06 0
0 0.07 0 0.025 0.07 0 0.05 0.07 0 0.075
0.07 0 0.1 0.07 0 0.125 0.07 0 0.15 0.07
0 0.175 0.07 0 0.2 0.07 0 0.225 0.07 0
0.25 0.07 0 0.275 0.07 0 0.3 0.07 0 0.325
0.07 0 0.35 0.07 0 0.375 0.07 0 0.4 0.07
0 0.425 0.07 0 0.45 0.07 0 0.475 0.07 0
0.5 0.07 0 0.525 0.07 0 0.55 0.07 0 0.575
0.07 0 0.6 0.07 0 0.625 0.07 0 0.65 0.07
0 0.675 0.07 0 0.7 0.07 0 0.725 0.07 0
0.75 0.07 0 0.775 0.07 0 0.8 0.07 0 0.825
0.07 0 0.85 0.07 0 0.875 0.07 0 0.9 0.07
0 0.925 0.07 0 0.95 0.07 0 0.975 0.07 0
1 0.07 0 0 0.08 0 0.025 0.08 0 0.05
0.08 0 0.075 0.08 0 0.1 0.08 0 0.125 0.08
0 0.15 0.08 0 0.175 0.08 0 0.2 0.08 0
0.225 0.08 0 0.25 0.08 0 0.275 0.08 0 0.3
0.08 0 0.325 0.08 0 0.35 0.08 0 0.375 0.08
0 0.4 0.08 0 0.425 0.08 0 0.45 0.08 0
0.475 0.08 0 0.5 0.08 0 0.525 0.08 0 0.55
0.08 0 0.575 0.08 0 0.6 0.08 0 0.625 0.08
0 0.65 0.08 0 0.675 0.08 0 0.7 0.08 0
0.725 0.08 0 0.75 0.08 0 0.775 0.08 0 0.8
0.08 0 0.825 0.08 0 0.85 0.08 0 0.875 0.08
0 0.9 0.08 0 0.925 0.08 0 0.95 0.08 0
0.975 0.08 0 1 0.08 0 0 0.09 0 0.025
0.09 0 0.05 0.09 0 0.075 0.09 0 0.1 0.09
0 0.125 0.09 0 0.15 0.09 0 0.175 0.09 0
0.2 0.09 0 0.225 0.09 0 0.25 0.09 0 0.275
0.09 0 0.3 0.09 0 0.325 0.09 0 0.35 0.09
0 0.375 0.09 0 0.4 0.09 0 0.425 0.09 0
0.45 0.09 0 0.475 0.09 0 0.5 0.09 0 0.525
0.09 0 0.55 0.09 0 0.575 0.09 0 0.6 0.09
0 0.625 0.09 0 0.65 0.09 0 0.675 0.09 0
0.7 0.09 0 0.725 0.09 0 0.75 0.09 0 0.775
0.09 0 0.8 0.09 0 0.825 0.09 0 0.85 0.09
0 0.875 0.09 0 0.9 0.09 0 0.925 0.09 0
0.95 0.09 0 0.975 0.09 0 1 0.09 0 0
0.1 0 0.025 0.1 0 0.05 0.1 0 0.075 0.1
0 0.1 0.1 0 0.125 0.1 0 0.15 0.1 0
0.175 0.1 0 0.2 0.1 0 0.225 0.1 0 0.25
0.1 0 0.275 0.1 0 0.3 0.1 0 0.325 0.1
0 0.35 0.1 0 0.375 0.1 0 0.4 0.1 0
0.425 0.1 0 0.45 0.1 0 0.475 0.1 0 0.5
0.1 0 0.525 0.1 0 0.55 0.1 0 0.575 0.1
0 0.6 0.1 0 0.625 0.1 0 0.65 0.1 0
0.675 0.1 0 0.7 0.1 0 0.725 0.1 0 0.75
0.1 0 0.775 0.1 0 0.8 0.1 0 0.825 0.1
0 0.85 0.1 0 0.875 0.1 0 0.9 0.1 0
0.925 0.1 0 0.95 0.1 0 0.975 0.1 0 1
0.1 0 0 0.11 0 0.025 0.11 0 0.05 0.11
0 0.075 0.11 0 0.1 0.11 0 0.125 0.11 0
0.15 0.11 0 0.175 0.11 0 0.2 0.11 0 0.225
0.11 0 0.25 0.11 0 0.275 0.11 0 0.3 0.11
0 0.325 0.11 0 0.35 0.11 0 0.375 0.11 0
0.4 0.11 0 0.425 0.11 0 0.45 0.11 0 0.475
0.11 0 0.5 0.11 0 0.525 0.11 0 0.55 0.11
0 0.575 0.11 0 0.6 0.11 0 0.625 0.11 0
0.65 0.11 0 0.675 0.11 0 0.7 0.11 0 0.725
0.11 0 0.75 0.11 0 0.775 0.11 0 0.8 0.11
0 0.825 0.11 0 0.85 0.11 0 0.875 0.11 0
0.9 0.11 0 0.925 0.11 0 0.95 0.11 0 0.975
0.11 0 1 0.11 0 0 0.12 0 0.025 0.12
0 0.05 0.12 0 0.075 0.12 0 0.1 0.12 0
0.125 0.12 0 0.15 0.12 0 0.175 0.12 0 0.2
0.12 0 0.225 0.12 0 0.25 0.12 0 0.275 0.12
0 0.3 0.12 0 0.325 0.12 0 0.35 0.12 0
0.375 0.12 0 0.4 0.12 0 0.425 0.12 0 0.45
0.12 0 0.475 0.12 0 0.5 0.12 0 0.525 0.12
0 0.55 0.12 0 0.575 0.12 0 0.6 0.12 0
0.625 0.12 0 0.65 0.12 0 0.675 0.12 0 0.7
0.12 0 0.725 0.12 0 0.75 0.12 0 0.775 0.12
0 0.8 0.12 0 0.825 0.12 0 0.85 0.12 0
0.875 0.12 0 0.9 0.12 0 0.925 0.12 0 0.95
0.12 0 0.975 0.12 0 1 0.12 0 0 0.13
0 0.025 0.13 0 0.05 0.13 0 0.075 0.13 0
0.1 0.13 0 0.125 0.13 0 0.15 0.13 0 0.175
0.13 0 0.2 0.13 0 0.225 0.13 0 0.25 0.13
0 0.275 0.13 0 0.3 0.13 0 0.325 0.13 0
0.35 0.13 0 0.375 0.13 0 0.4 0.13 0 0.425
0.13 0 0.45 0.13 0 0.475 0.13 0 0.5 0.13
0 0.525 0.13 0 0.55 0.13 0 0.575 0.13 0
0.6 0.13 0 0.625 0.13 0 0.65 0.13 0 0.675
0.13 0 0.7 0.13 0 0.725 0.13 0 0.75 0.13
0 0.775 0.13 0 0.8 0.13 0 0.825 0.13 0
0.85 0.13 0 0.875 0.13 0 0.9 0.13 0 0.925
0.13 0 0.95 0.13 0 0.975 0.13 0 1 0.13
0 0 0.14 0 0.025 0.14 0 0.05 0.14 0
0.075 0.14 0 0.1 0.14 0 0.125 0.14 0 0.15
0.14 0 0.175 0.14 0 0.2 0.14 0 0.225 0.14
0 0.25 0.14 0 0.275 0.14 0 0.3 0.14 0
0.325 0.14 0 0.35 0.14 0 0.375 0.14 0 0.4
0.14 0 0.425 0.14 0 0.45 0.14 0 0.475 0.14
0 0.5 0.14 0 0.525 0.14 0 0.55 0.14 0
0.575 0.14 0 0.6 0.14 0 0.625 0.14 0 0.65
0.14 0 0.675 0.14 0 0.7 0.14 0 0.725 0.14
0 0.75 0.14 0 0.775 0.14 0 0.8 0.14 0
0.825 0.14 0 0.85 0.14 0 0.875 0.14 0 0.9
0.14 0 0.925 0.14 0 0.95 0.14 0 0.975 0.14
0 1 0.14 0 0 0.15 0 0.025 0.15 0
0.05 0.15 0 0.075 0.15 0 0.1 0.15 0 0.125
0.15 0 0.15 0.15 0 0.175 0.15 0 0.2 0.15
0 0.225 0.15 0 0.25 0.15 0 0.275 0.15 0
0.3 0.15 0 0.325 0.15 0 0.35 0.15 0 0.375
0.15 0 0.4 0.15 0 0.425 0.15 0 0.45 0.15
0 0.475 0.15 0 0.5 0.15 0 0.525 0.15 0
0.55 0.15 0 0.575 0.15 0 0.6 0.15 0 0.625
0.15 0 0.65 0.15 0 0.675 0.15 0 0.7 0.15
0 0.725 0.15 0 0.75 0.15 0 0.775 0.15 0
0.8 0.15 0 0.825 0.15 0 0.85 0.15 0 0.875
0.15 0 0.9 0.15 0 0.925 0.15 0 0.95 0.15
0 0.975 0.15 0 1 0.15 0 0 0.16 0
0.025 0.16 0 0.05 0.16 0 0.075 0.16 0 0.1
0.16 0 0.125 0.16 0 0.15 0.16 0 0.175 0.16
0 0.2 0.16 0 0.225 0.16 0 0.25 0.16 0
0.275 0.16 0 0.3 0.16 0 0.325 0.16 0 0.35
0.16 0 0.375 0.16 0 0.4 0.16 0 0.425 0.16
0 0.45 0.16 0 0.475 0.16 0 0.5 0.16 0
0.525 0.16 0 0.55 0.16 0 0.575 0.16 0 0.6
0.16 0 0.625 0.16 0 0.65 0.16 0 0.675 0.16
0 0.7 0.16 0 0.725 0.16 0 0.75 0.16 0
0.775 0.16 0 0.8 0.16 0 0.825 0.16 0 0.85
0.16 0 0.875 0.16 0 0.9 0.16 0 0.925 0.16
0 0.95 0.16 0 0.975 0.16 0 1 0.16 0
0 0.17 0 0.025 0.17 0 0.05 0.17 0 0.075
0.17 0 0.1 0.17 0 0.125 0.17 0 0.15 0.17
0 0.175 0.17 0 0.2 0.17 0 0.225 0.17 0
0.25 0.17 0 0.275 0.17 0 0.3 0.17 0 0.325
0.17 0 0.35 0.17 0 0.375 0.17 0 0.4 0.17
0 0.425 0.17 0 0.45 0.17 0 0.475 0.17 0
0.5 0.17 0 0.525 0.17 0 0.55 0.17 0 0.575
0.17 0 0.6 0.17 0 0.625 0.17 0 0.65 0.17
0 0.675 0.17 0 0.7 0.17 0 0.725 0.17 0
0.75 0.17 0 0.775 0.17 0 0.8 0.17 0 0.825
0.17 0 0.85 0.17 0 0.875 0.17 0 0.9 0.17
0 0.925 0.17 0 0.95 0.17 0 0.975 0.17 0
1 0.17 0 0 0.18 0 0.025 0.18 0 0.05
0.18 0 0.075 0.18 0 0.1 0.18 0 0.125 0.18
0 0.15 0.18 0 0.175 0.18 0 0.2 0.18 0
0.225 0.18 0 0.25 0.18 0 0.275 0.18 0 0.3
0.18 0 0.325 0.18 0 0.35 0.18 0 0.375 0.18
0 0.4 0.18 0 0.425 0.18 0 0.45 0.18 0
0.475 0.18 0 0.5 0.18 0 0.525 0.18 0 0.55
0.18 0 0.575 0.18 0 0.6 0.18 0 0.625 0.18
0 0.65 0.18 0 0.675 0.18 0 0.7 0.18 0
0.725 0.18 0 0.75 0.18 0 0.775 0.18 0 0.8
0.18 0 0.825 0.18 0 0.85 0.18 0 0.875 0.18
0 0.9 0.18 0 0.925 0.18 0 0.95 0.18 0
0.975 0.18 0 1 0.18 0 0 0.19 0 0.025
0.19 0 0.05 0.19 0 0.075 0.19 0 0.1 0.19
0 0.125 0.19 0 0.15 0.19 0 0.175 0.19 0
0.2 0.19 0 0.225 0.19 0 0.25 0.19 0 0.275
0.19 0 0.3 0.19 0 0.325 0.19 0 0.35 0.19
0 0.375 0.19 0 0.4 0.19 0 0.425 0.19 0
0.45 0.19 0 0.475 0.19 0 0.5 0.19 0 0.525
0.19 0 0.55 0.19 0 0.575 0.19 0 0.6 0.19
0 0.625 0.19 0 0.65 0.19 0 0.675 0.19 0
0.7 0.19 0 0.725 0.19 0 0.75 0.19 0 0.775
0.19 0 0.8 0.19 0 0.825 0.19 0 0.85 0.19
0 0.875 0.19 0 0.9 0.19 0 0.925 0.19 0
0.95 0.19 0 0.975 0.19 0 1 0.19 0 0
0.2 0 0.025 0.2 0 0.05 0.2 0 0.075 0.2
0 0.1 0.2 0 0.125 0.2 0 0.15 0.2 0
0.175 0.2 0 0.2 0.2 0 0.225 0.2 0 0.25
[...]
CELL_DATA 1600
FIELD attributes 6
cellID 1 1600 int
0 1 2 3 4 5 6 7 8 9 10
11 12 13 14 15 16 17 18 19 20
21 22 23 24 25 26 27 28 29 30
31 32 33 34 35 36 37 38 39 40
41 42 43 44 45 46 47 48 49 50
51 52 53 54 55 56 57 58 59 60
61 62 63 64 65 66 67 68 69 70
71 72 73 74 75 76 77 78 79 80
81 82 83 84 85 86 87 88 89 90
91 92 93 94 95 96 97 98 99 100
101 102 103 104 105 106 107 108 109 110
111 112 113 114 115 116 117 118 119 120
121 122 123 124 125 126 127 128 129 130
131 132 133 134 135 136 137 138 139 140
141 142 143 144 145 146 147 148 149 150
151 152 153 154 155 156 157 158 159 160
161 162 163 164 165 166 167 168 169 170
171 172 173 174 175 176 177 178 179 180
181 182 183 184 185 186 187 188 189 190
191 192 193 194 195 196 197 198 199 200
201 202 203 204 205 206 207 208 209 210
211 212 213 214 215 216 217 218 219 220
221 222 223 224 225 226 227 228 229 230
231 232 233 234 235 236 237 238 239 240
241 242 243 244 245 246 247 248 249 250
251 252 253 254 255 256 257 258 259 260
261 262 263 264 265 266 267 268 269 270
271 272 273 274 275 276 277 278 279 280
281 282 283 284 285 286 287 288 289 290
291 292 293 294 295 296 297 298 299 300
301 302 303 304 305 306 307 308 309 310
311 312 313 314 315 316 317 318 319 320
321 322 323 324 325 326 327 328 329 330
331 332 333 334 335 336 337 338 339 340
341 342 343 344 345 346 347 348 349 350
351 352 353 354 355 356 357 358 359 360
361 362 363 364 365 366 367 368 369 370
371 372 373 374 375 376 377 378 379 380
381 382 383 384 385 386 387 388 389 390
391 392 393 394 395 396 397 398 399 400
401 402 403 404 405 406 407 408 409 410
411 412 413 414 415 416 417 418 419 420
421 422 423 424 425 426 427 428 429 430
431 432 433 434 435 436 437 438 439 440
441 442 443 444 445 446 447 448 449 450
451 452 453 454 455 456 457 458 459 460
461 462 463 464 465 466 467 468 469 470
471 472 473 474 475 476 477 478 479 480
481 482 483 484 485 486 487 488 489 490
491 492 493 494 495 496 497 498 499 500
501 502 503 504 505 506 507 508 509 510
511 512 513 514 515 516 517 518 519 520
521 522 523 524 525 526 527 528 529 530
531 532 533 534 535 536 537 538 539 540
541 542 543 544 545 546 547 548 549 550
551 552 553 554 555 556 557 558 559 560
561 562 563 564 565 566 567 568 569 570
571 572 573 574 575 576 577 578 579 580
581 582 583 584 585 586 587 588 589 590
591 592 593 594 595 596 597 598 599 600
601 602 603 604 605 606 607 608 609 610
611 612 613 614 615 616 617 618 619 620
621 622 623 624 625 626 627 628 629 630
631 632 633 634 635 636 637 638 639 640
641 642 643 644 645 646 647 648 649 650
651 652 653 654 655 656 657 658 659 660
661 662 663 664 665 666 667 668 669 670
671 672 673 674 675 676 677 678 679 680
681 682 683 684 685 686 687 688 689 690
691 692 693 694 695 696 697 698 699 700
701 702 703 704 705 706 707 708 709 710
711 712 713 714 715 716 717 718 719 720
721 722 723 724 725 726 727 728 729 730
731 732 733 734 735 736 737 738 739 740
741 742 743 744 745 746 747 748 749 750
751 752 753 754 755 756 757 758 759 760
761 762 763 764 765 766 767 768 769 770
771 772 773 774 775 776 777 778 779 780
781 782 783 784 785 786 787 788 789 790
791 792 793 794 795 796 797 798 799 800
801 802 803 804 805 806 807 808 809 810
811 812 813 814 815 816 817 818 819 820
821 822 823 824 825 826 827 828 829 830
831 832 833 834 835 836 837 838 839 840
841 842 843 844 845 846 847 848 849 850
851 852 853 854 855 856 857 858 859 860
861 862 863 864 865 866 867 868 869 870
871 872 873 874 875 876 877 878 879 880
881 882 883 884 885 886 887 888 889 890
891 892 893 894 895 896 897 898 899 900
901 902 903 904 905 906 907 908 909 910
911 912 913 914 915 916 917 918 919 920
921 922 923 924 925 926 927 928 929 930
931 932 933 934 935 936 937 938 939 940
941 942 943 944 945 946 947 948 949 950
951 952 953 954 955 956 957 958 959 960
961 962 963 964 965 966 967 968 969 970
971 972 973 974 975 976 977 978 979 980
981 982 983 984 985 986 987 988 989 990
991 992 993 994 995 996 997 998 999 1000
1001 1002 1003 1004 1005 1006 1007 1008 1009 1010
1011 1012 1013 1014 1015 1016 1017 1018 1019 1020
1021 1022 1023 1024 1025 1026 1027 1028 1029 1030
1031 1032 1033 1034 1035 1036 1037 1038 1039 1040
1041 1042 1043 1044 1045 1046 1047 1048 1049 1050
1051 1052 1053 1054 1055 1056 1057 1058 1059 1060
1061 1062 1063 1064 1065 1066 1067 1068 1069 1070
1071 1072 1073 1074 1075 1076 1077 1078 1079 1080
1081 1082 1083 1084 1085 1086 1087 1088 1089 1090
1091 1092 1093 1094 1095 1096 1097 1098 1099 1100
1101 1102 1103 1104 1105 1106 1107 1108 1109 1110
1111 1112 1113 1114 1115 1116 1117 1118 1119 1120
1121 1122 1123 1124 1125 1126 1127 1128 1129 1130
1131 1132 1133 1134 1135 1136 1137 1138 1139 1140
1141 1142 1143 1144 1145 1146 1147 1148 1149 1150
1151 1152 1153 1154 1155 1156 1157 1158 1159 1160
1161 1162 1163 1164 1165 1166 1167 1168 1169 1170
1171 1172 1173 1174 1175 1176 1177 1178 1179 1180
1181 1182 1183 1184 1185 1186 1187 1188 1189 1190
1191 1192 1193 1194 1195 1196 1197 1198 1199 1200
1201 1202 1203 1204 1205 1206 1207 1208 1209 1210
1211 1212 1213 1214 1215 1216 1217 1218 1219 1220
1221 1222 1223 1224 1225 1226 1227 1228 1229 1230
1231 1232 1233 1234 1235 1236 1237 1238 1239 1240
1241 1242 1243 1244 1245 1246 1247 1248 1249 1250
1251 1252 1253 1254 1255 1256 1257 1258 1259 1260
1261 1262 1263 1264 1265 1266 1267 1268 1269 1270
1271 1272 1273 1274 1275 1276 1277 1278 1279 1280
1281 1282 1283 1284 1285 1286 1287 1288 1289 1290
1291 1292 1293 1294 1295 1296 1297 1298 1299 1300
1301 1302 1303 1304 1305 1306 1307 1308 1309 1310
1311 1312 1313 1314 1315 1316 1317 1318 1319 1320
1321 1322 1323 1324 1325 1326 1327 1328 1329 1330
1331 1332 1333 1334 1335 1336 1337 1338 1339 1340
1341 1342 1343 1344 1345 1346 1347 1348 1349 1350
1351 1352 1353 1354 1355 1356 1357 1358 1359 1360
1361 1362 1363 1364 1365 1366 1367 1368 1369 1370
1371 1372 1373 1374 1375 1376 1377 1378 1379 1380
1381 1382 1383 1384 1385 1386 1387 1388 1389 1390
1391 1392 1393 1394 1395 1396 1397 1398 1399 1400
1401 1402 1403 1404 1405 1406 1407 1408 1409 1410
1411 1412 1413 1414 1415 1416 1417 1418 1419 1420
1421 1422 1423 1424 1425 1426 1427 1428 1429 1430
1431 1432 1433 1434 1435 1436 1437 1438 1439 1440
1441 1442 1443 1444 1445 1446 1447 1448 1449 1450
1451 1452 1453 1454 1455 1456 1457 1458 1459 1460
1461 1462 1463 1464 1465 1466 1467 1468 1469 1470
1471 1472 1473 1474 1475 1476 1477 1478 1479 1480
1481 1482 1483 1484 1485 1486 1487 1488 1489 1490
1491 1492 1493 1494 1495 1496 1497 1498 1499 1500
1501 1502 1503 1504 1505 1506 1507 1508 1509 1510
1511 1512 1513 1514 1515 1516 1517 1518 1519 1520
1521 1522 1523 1524 1525 1526 1527 1528 1529 1530
1531 1532 1533 1534 1535 1536 1537 1538 1539 1540
1541 1542 1543 1544 1545 1546 1547 1548 1549 1550
1551 1552 1553 1554 1555 1556 1557 1558 1559 1560
1561 1562 1563 1564 1565 1566 1567 1568 1569 1570
1571 1572 1573 1574 1575 1576 1577 1578 1579 1580
1581 1582 1583 1584 1585 1586 1587 1588 1589 1590
1591 1592 1593 1594 1595 1596 1597 1598 1599 
T 1 1600 float
286.734 286.308 285.9 285.759 285.898 286.136 286.387 286.682 287.01 287.34 287.824
288.059 287.427 286.99 286.57 286.286 285.982 285.69 285.411 285.233 285.332
285.439 285.558 285.696 285.854 286.037 286.244 286.466 286.689 286.914 287.141
287.369 287.597 287.825 288.054 288.286 288.526 288.784 289.067 289.437 285.782
284.675 284.694 284.696 284.681 284.673 284.668 284.665 284.665 284.686 285.225
286.936 285.94 284.727 284.59 284.596 284.606 284.62 284.64 284.658 284.664
284.666 284.665 284.662 284.656 284.65 284.643 284.645 284.669 284.715 284.783
284.875 284.991 285.131 285.291 285.461 285.631 285.764 286.091 287.632 285.494
284.676 284.728 284.722 284.698 284.681 284.668 284.658 284.649 284.643 284.813
286.476 285.555 284.617 284.57 284.585 284.603 284.625 284.652 284.669 284.68
284.687 284.69 284.688 284.683 284.675 284.666 284.655 284.644 284.636 284.632
284.637 284.654 284.686 284.738 284.808 284.894 284.991 285.283 286.868 285.368
284.675 284.775 284.753 284.723 284.699 284.681 284.668 284.657 284.647 284.706
286.212 285.402 284.603 284.572 284.587 284.609 284.637 284.662 284.678 284.695
284.707 284.713 284.715 284.712 284.705 284.697 284.686 284.675 284.663 284.65
284.639 284.629 284.626 284.631 284.649 284.683 284.742 284.968 286.448 285.327
284.748 284.82 284.783 284.743 284.713 284.692 284.676 284.664 284.652 284.67
286.027 285.333 284.602 284.574 284.59 284.614 284.65 284.668 284.687 284.708
284.725 284.735 284.739 284.738 284.733 284.725 284.716 284.705 284.692 284.679
284.664 284.649 284.634 284.622 284.617 284.622 284.652 284.82 286.184 285.297
284.97 284.877 284.804 284.753 284.721 284.699 284.682 284.669 284.655 284.656
285.88 285.307 284.605 284.576 284.593 284.619 284.658 284.673 284.696 284.721
284.742 284.756 284.763 284.763 284.759 284.752 284.743 284.732 284.72 284.706
284.69 284.673 284.654 284.635 284.619 284.609 284.618 284.743 286.004 285.266
285.032 284.888 284.8 284.748 284.718 284.699 284.684 284.671 284.658 284.649
285.747 285.308 284.611 284.58 284.596 284.627 284.662 284.679 284.706 284.735
284.76 284.777 284.786 284.787 284.784 284.777 284.768 284.757 284.745 284.73
284.714 284.695 284.674 284.651 284.629 284.61 284.605 284.698 285.873 285.232
284.996 284.847 284.766 284.725 284.703 284.692 284.682 284.672 284.659 284.647
285.625 285.319 284.618 284.585 284.6 284.638 284.664 284.685 284.716 284.75
284.779 284.798 284.808 284.81 284.806 284.799 284.789 284.778 284.764 284.748
284.73 284.71 284.688 284.664 284.639 284.614 284.601 284.671 285.773 285.188
284.907 284.774 284.716 284.693 284.684 284.68 284.676 284.67 284.66 284.645
285.512 285.33 284.626 284.589 284.604 284.647 284.666 284.691 284.727 284.766
284.798 284.82 284.83 284.831 284.827 284.818 284.806 284.79 284.773 284.755
284.736 284.716 284.694 284.671 284.645 284.619 284.599 284.653 285.694 284.95
284.76 284.688 284.668 284.665 284.667 284.669 284.67 284.668 284.659 284.644
285.406 285.337 284.633 284.591 284.607 284.653 284.668 284.698 284.74 284.783
284.818 284.841 284.851 284.851 284.844 284.832 284.814 284.791 284.767 284.746
284.727 284.709 284.691 284.671 284.648 284.622 284.599 284.64 285.63 284.608
284.613 284.627 284.643 284.655 284.662 284.665 284.667 284.666 284.659 284.644
285.307 285.34 284.639 284.59 284.61 284.657 284.671 284.706 284.754 284.8
284.837 284.861 284.87 284.868 284.858 284.84 284.811 284.778 284.747 284.723
284.706 284.692 284.68 284.665 284.646 284.622 284.599 284.631 285.577 284.566
284.596 284.625 284.648 284.662 284.668 284.669 284.668 284.666 284.658 284.643
285.216 285.338 284.644 284.59 284.614 284.659 284.673 284.716 284.768 284.817
284.855 284.879 284.887 284.882 284.867 284.838 284.794 284.751 284.718 284.695
284.68 284.671 284.664 284.655 284.641 284.621 284.598 284.623 285.533 284.56
284.601 284.636 284.661 284.675 284.679 284.677 284.673 284.667 284.658 284.643
285.132 285.332 284.646 284.592 284.616 284.662 284.676 284.726 284.783 284.833
284.871 284.894 284.9 284.892 284.872 284.825 284.765 284.718 284.688 284.67
284.659 284.654 284.651 284.646 284.635 284.618 284.597 284.618 285.494 284.555
284.608 284.648 284.674 284.686 284.688 284.684 284.677 284.669 284.659 284.642
285.055 285.323 284.648 284.596 284.619 284.664 284.68 284.738 284.798 284.847
284.884 284.905 284.909 284.898 284.87 284.801 284.731 284.688 284.664 284.654
284.648 284.646 284.643 284.639 284.631 284.616 284.595 284.613 285.461 284.551
284.613 284.658 284.685 284.695 284.694 284.688 284.679 284.67 284.659 284.642
284.988 285.311 284.649 284.603 284.621 284.667 284.684 284.75 284.812 284.858
284.892 284.911 284.912 284.899 284.865 284.772 284.701 284.665 284.651 284.65
284.651 284.65 284.646 284.639 284.629 284.614 284.594 284.609 285.432 284.548
284.617 284.667 284.694 284.702 284.698 284.689 284.679 284.67 284.658 284.641
284.928 285.299 284.65 284.61 284.623 284.67 284.689 284.763 284.824 284.866
284.895 284.911 284.911 284.897 284.856 284.747 284.679 284.652 284.648 284.658
284.667 284.668 284.66 284.648 284.632 284.615 284.594 284.606 285.407 284.544
284.62 284.676 284.704 284.71 284.702 284.688 284.677 284.668 284.657 284.64
284.877 285.287 284.651 284.614 284.625 284.673 284.695 284.776 284.834 284.868
284.892 284.906 284.905 284.891 284.845 284.729 284.666 284.648 284.656 284.679
284.696 284.7 284.687 284.665 284.641 284.617 284.594 284.604 285.385 284.54
284.623 284.684 284.713 284.721 284.71 284.689 284.674 284.665 284.655 284.64
284.836 285.276 284.652 284.616 284.629 284.676 284.701 284.788 284.84 284.865
284.884 284.897 284.896 284.882 284.832 284.72 284.663 284.653 284.675 284.712
284.739 284.746 284.727 284.693 284.655 284.623 284.595 284.602 285.366 284.537
284.625 284.692 284.724 284.734 284.725 284.695 284.673 284.662 284.653 284.639
284.808 285.264 284.654 284.614 284.633 284.679 284.708 284.8 284.842 284.857
284.872 284.884 284.884 284.87 284.816 284.715 284.665 284.666 284.702 284.757
284.798 284.806 284.779 284.729 284.675 284.631 284.597 284.601 285.349 284.534
284.627 284.7 284.736 284.752 284.748 284.709 284.676 284.66 284.651 284.638
284.794 285.249 284.656 284.611 284.638 284.681 284.715 284.809 284.839 284.846
284.858 284.869 284.87 284.855 284.8 284.714 284.672 284.684 284.739 284.814
284.871 284.883 284.843 284.773 284.699 284.641 284.6 284.6 285.335 284.531
284.63 284.709 284.75 284.775 284.779 284.736 284.688 284.662 284.65 284.638
284.794 285.232 284.659 284.609 284.644 284.682 284.723 284.815 284.831 284.832
284.842 284.853 284.854 284.839 284.787 284.713 284.682 284.708 284.782 284.881
284.958 284.974 284.916 284.821 284.726 284.652 284.604 284.6 285.323 284.528
284.633 284.718 284.766 284.801 284.817 284.778 284.71 284.669 284.652 284.639
284.804 285.212 284.664 284.611 284.65 284.684 284.731 284.818 284.821 284.817
284.826 284.836 284.837 284.821 284.775 284.713 284.694 284.735 284.831 284.953
285.052 285.073 284.992 284.87 284.752 284.664 284.608 284.6 285.312 284.526
284.636 284.727 284.784 284.83 284.857 284.831 284.741 284.681 284.656 284.645
284.821 285.191 284.674 284.616 284.657 284.685 284.738 284.816 284.809 284.802
284.81 284.819 284.819 284.803 284.762 284.712 284.707 284.766 284.883 285.023
285.143 285.16 285.063 284.915 284.777 284.675 284.612 284.601 285.303 284.524
284.639 284.737 284.802 284.858 284.892 284.871 284.774 284.696 284.662 284.657
284.841 285.17 284.691 284.625 284.664 284.686 284.743 284.811 284.796 284.787
284.793 284.801 284.8 284.784 284.75 284.713 284.721 284.797 284.931 285.081
285.191 285.208 285.116 284.955 284.801 284.687 284.616 284.603 285.296 284.523
284.643 284.746 284.819 284.883 284.918 284.894 284.806 284.714 284.671 284.677
284.862 285.148 284.713 284.638 284.671 284.687 284.747 284.806 284.784 284.772
284.776 284.783 284.781 284.765 284.737 284.713 284.736 284.823 284.964 285.113
285.215 285.23 285.148 284.989 284.825 284.7 284.621 284.604 285.291 284.521
284.646 284.755 284.835 284.904 284.94 284.914 284.831 284.737 284.687 284.702
284.882 285.128 284.73 284.656 284.679 284.688 284.75 284.8 284.773 284.757
284.76 284.765 284.762 284.747 284.724 284.712 284.743 284.837 284.98 285.127
285.223 285.236 285.163 285.015 284.847 284.714 284.627 284.606 285.287 284.519
284.648 284.762 284.848 284.922 284.959 284.933 284.854 284.762 284.71 284.732
284.901 285.108 284.722 284.677 284.687 284.688 284.751 284.795 284.762 284.742
284.743 284.747 284.743 284.729 284.71 284.706 284.742 284.837 284.979 285.126
285.22 285.232 285.166 285.031 284.867 284.728 284.635 284.609 285.285 284.516
284.649 284.767 284.857 284.935 284.975 284.953 284.879 284.792 284.74 284.764
284.918 285.089 284.688 284.701 284.695 284.687 284.751 284.79 284.752 284.729
284.726 284.728 284.723 284.71 284.695 284.695 284.733 284.825 284.964 285.11
285.206 285.221 285.161 285.04 284.885 284.744 284.645 284.614 285.285 284.513
284.65 284.77 284.863 284.944 284.989 284.974 284.907 284.826 284.775 284.798
284.933 285.079 284.68 284.729 284.705 284.687 284.751 284.786 284.744 284.717
284.71 284.709 284.703 284.692 284.679 284.681 284.717 284.802 284.935 285.08
285.182 285.205 285.153 285.044 284.901 284.761 284.656 284.627 285.284 284.509
284.649 284.771 284.865 284.949 285.001 284.995 284.938 284.865 284.816 284.833
284.948 285.078 284.751 284.759 284.716 284.686 284.751 284.783 284.739 284.708
284.696 284.692 284.686 284.675 284.666 284.668 284.699 284.774 284.895 285.036
285.146 285.183 285.144 285.047 284.915 284.779 284.671 284.648 285.284 284.504
284.646 284.77 284.864 284.95 285.009 285.016 284.971 284.906 284.859 284.868
284.963 285.079 284.859 284.791 284.726 284.685 284.75 284.782 284.738 284.704
284.687 284.68 284.673 284.666 284.66 284.664 284.688 284.746 284.848 284.979
285.095 285.15 285.13 285.049 284.93 284.8 284.69 284.68 285.283 284.498
284.642 284.767 284.858 284.944 285.011 285.032 285.003 284.949 284.904 284.904
284.978 285.081 284.931 284.815 284.736 284.684 284.749 284.783 284.74 284.706
284.687 284.678 284.673 284.671 284.672 284.677 284.692 284.73 284.805 284.915
285.03 285.103 285.107 285.046 284.943 284.822 284.716 284.722 285.282 284.491
284.637 284.761 284.849 284.933 285.006 285.041 285.031 284.99 284.95 284.941
284.995 285.084 284.964 284.83 284.742 284.682 284.747 284.785 284.749 284.718
284.7 284.693 284.694 284.7 284.709 284.717 284.724 284.74 284.782 284.859
284.959 285.042 285.07 285.036 284.953 284.846 284.752 284.775 285.281 284.482
284.629 284.753 284.835 284.915 284.99 285.04 285.049 285.025 284.992 284.978
285.012 285.088 284.972 284.834 284.745 284.679 284.743 284.79 284.764 284.742
284.731 284.732 284.744 284.762 284.78 284.792 284.793 284.791 284.801 284.839
284.91 284.986 285.028 285.018 284.959 284.874 284.801 284.84 285.28 284.469
284.619 284.743 284.819 284.891 284.965 285.024 285.052 285.048 285.026 285.012
285.03 285.083 284.959 284.829 284.745 284.674 284.738 284.796 284.784 284.779
284.783 284.799 284.827 284.859 284.888 284.905 284.905 284.894 284.883 284.889
284.923 284.971 285.006 285.007 284.971 284.912 284.865 284.915 285.279 284.453
284.605 284.731 284.802 284.862 284.929 284.993 285.036 285.052 285.046 285.036
285.044 285.058 284.929 284.815 284.74 284.667 284.729 284.802 284.808 284.825
284.852 284.891 284.937 284.986 285.025 285.048 285.052 285.04 285.021 285.008
285.007 285.02 285.031 285.028 285.004 284.967 284.945 284.996 285.278 284.429
284.584 284.715 284.782 284.832 284.887 284.948 284.999 285.031 285.042 285.04
285.042 285.006 284.889 284.798 284.73 284.654 284.714 284.803 284.828 284.871
284.927 284.991 285.058 285.121 285.17 285.199 285.207 285.197 285.175 285.15
285.127 285.112 285.101 285.087 285.067 285.045 285.038 285.081 285.277 284.393
284.55 284.69 284.76 284.802 284.843 284.893 284.943 284.983 285.008 285.015
285.005 284.938 284.847 284.776 284.711 284.632 284.687 284.792 284.832 284.898
284.981 285.069 285.156 285.233 285.291 285.327 285.34 285.333 285.312 285.283
285.251 285.222 285.198 285.175 285.155 285.139 285.135 285.161 285.276 284.328
284.483 284.634 284.718 284.766 284.801 284.835 284.874 284.912 284.942 284.949
284.926 284.866 284.802 284.738 284.671 284.59 284.632 284.751 284.795 284.874
284.974 285.083 285.188 285.281 285.353 285.401 285.425 285.429 285.417 285.394
285.364 285.331 285.301 285.274 285.251 285.233 285.224 285.23 285.277 284.185
284.318 284.436 284.516 284.574 284.623 284.67 284.712 284.753 284.79 284.782
284.757 284.709 284.652 284.605 284.556 284.485 284.487 284.625 284.664 284.729
284.826 284.942 285.063 285.175 285.267 285.334 285.376 285.396 285.399 285.391
285.375 285.355 285.332 285.311 285.291 285.275 285.264 285.26 285.268 
alphat 1 1600 float
0 0 0 0 0 0 0 0 0 0 0
0 0 0 0 0 0 0 0 0 0
0 0 0 0 0 0 0 0 0 0
0 0 0 0 0 0 0 0 0 0
0 0 0 0 0 0 0 0 0 0
0 0 0 0 0 0 0 0 0 0
0 0 0 0 0 0 0 0 0 0
0 0 0 0 0 0 0 0 0 0
0 0 0 0 0 0 0 0 0 0
0 0 0 0 0 0 0 0 0 0
0 0 0 0 0 0 0 0 0 0
0 0 0 0 0 0 0 0 0 0
0 0 0 0 0 0 0 0 0 0
0 0 0 0 0 0 0 0 0 0
0 0 0 0 0 0 0 0 0 0
0 0 0 0 0 0 0 0 0 0
0 0 0 0 0 0 0 0 0 0
0 0 0 0 0 0 0 0 0 0
0 0 0 0 0 0 0 0 0 0
0 0 0 0 0 0 0 0 0 0