# vtk DataFile Version 2.0
RBConvection
ASCII
DATASET UNSTRUCTURED_GRID
POINTS 3362 float
0 0 0 0.025 0 0 0.05 0 0 0.075 0
0 0.1 0 0 0.125 0 0 0.15 0 0
0.175 0 0 0.2 0 0 0.225 0 0 0.25
0 0 0.275 0 0 0.3 0 0 0.325 0
0 0.35 0 0 0.375 0 0 0.4 0 0
0.425 0 0 0.45 0 0 0.475 0 0 0.5
0 0 0.525 0 0 0.55 0 0 0.575 0
0 0.6 0 0 0.625 0 0 0.65 0 0
0.675 0 0 0.7 0 0 0.725 0 0 0.75
0 0 0.775 0 0 0.8 0 0 0.825 0
0 0.85 0 0 0.875 0 0 0.9 0 0
0.925 0 0 0.95 0 0 0.975 0 0 1
0 0 0 0.01 0 0.025 0.01 0 0.05 0.01
0 0.075 0.01 0 0.1 0.01 0 0.125 0.01 0
0.15 0.01 0 0.175 0.01 0 0.2 0.01 0 0.225
0.01 0 0.25 0.01 0 0.275 0.01 0 0.3 0.01
0 0.325 0.01 0 0.35 0.01 0 0.375 0.01 0
0.4 0.01 0 0.425 0.01 0 0.45 0.01 0 0.475
0.01 0 0.5 0.01 0 0.525 0.01 0 0.55 0.01
0 0.575 0.01 0 0.6 0.01 0 0.625 0.01 0
0.65 0.01 0 0.675 0.01 0 0.7 0.01 0 0.725
0.01 0 0.75 0.01 0 0.775 0.01 0 0.8 0.01
0 0.825 0.01 0 0.85 0.01 0 0.875 0.01 0
0.9 0.01 0 0.925 0.01 0 0.95 0.01 0 0.975
0.01 0 1 0.01 0 0 0.02 0 0.025 0.02
0 0.05 0.02 0 0.075 0.02 0 0.1 0.02 0
0.125 0.02 0 0.15 0.02 0 0.175 0.02 0 0.2
0.02 0 0.225 0.02 0 0.25 0.02 0 0.275 0.02
0 0.3 0.02 0 0.325 0.02 0 0.35 0.02 0
0.375 0.02 0 0.4 0.02 0 0.425 0.02 0 0.45
0.02 0 0.475 0.02 0 0.5 0.02 0 0.525 0.02
0 0.55 0.02 0 0.575 0.02 0 0.6 0.02 0
0.625 0.02 0 0.65 0.02 0 0.675 0.02 0 0.7
0.02 0 0.725 0.02 0 0.75 0.02 0 0.775 0.02
0 0.8 0.02 0 0.825 0.02 0 0.85 0.02 0
0.875 0.02 0 0.9 0.02 0 0.925 0.02 0 0.95
0.02 0 0.975 0.02 0 1 0.02 0 0 0.03
0 0.025 0.03 0 0.05 0.03 0 0.075 0.03 0
0.1 0.03 0 0.125 0.03 0 0.15 0.03 0 0.175
0.03 0 0.2 0.03 0 0.225 0.03 0 0.25 0.03
0 0.275 0.03 0 0.3 0.03 0 0.325 0.03 0
0.35 0.03 0 0.375 0.03 0 0.4 0.03 0 0.425
0.03 0 0.45 0.03 0 0.475 0.03 0 0.5 0.03
0 0.525 0.03 0 0.55 0.03 0 0.575 0.03 0
0.6 0.03 0 0.625 0.03 0 0.65 0.03 0 0.675
0.03 0 0.7 0.03 0 0.725 0.03 0 0.75 0.03
0 0.775 0.03 0 0.8 0.03 0 0.825 0.03 0
0.85 0.03 0 0.875 0.03 0 0.9 0.03 0 0.925
0.03 0 0.95 0.03 0 0.975 0.03 0 1 0.03
0 0 0.04 0 0.025 0.04 0 0.05 0.04 0
0.075 0.04 0 0.1 0.04 0 0.125 0.04 0 0.15
0.04 0 0.175 0.04 0 0.2 0.04 0 0.225 0.04
0 0.25 0.04 0 0.275 0.04 0 0.3 0.04 0
0.325 0.04 0 0.35 0.04 0 0.375 0.04 0 0.4
0.04 0 0.425 0.04 0 0.45 0.04 0 0.475 0.04
0 0.5 0.04 0 0.525 0.04 0 0.55 0.04 0
0.575 0.04 0 0.6 0.04 0 0.625 0.04 0 0.65
0.04 0 0.675 0.04 0 0.7 0.04 0 0.725 0.04
0 0.75 0.04 0 0.775 0.04 0 0.8 0.04 0
0.825 0.04 0 0.85 0.04 0 0.875 0.04 0 0.9
0.04 0 0.925 0.04 0 0.95 0.04 0 0.975 0.04
0 1 0.04 0 0 0.05 0 0.025 0.05 0
0.05 0.05 0 0.075 0.05 0 0.1 0.05 0 0.125
0.05 0 0.15 0.05 0 0.175 0.05 0 0.2 0.05
0 0.225 0.05 0 0.25 0.05 0 0.275 0.05 0
0.3 0.05 0 0.325 0.05 0 0.35 0.05 0 0.375
0.05 0 0.4 0.05 0 0.425 0.05 0 0.45 0.05
0 0.475 0.05 0 0.5 0.05 0 0.525 0.05 0
0.55 0.05 0 0.575 0.05 0 0.6 0.05 0 0.625
0.05 0 0.65 0.05 0 0.675 0.05 0 0.7 0.05
0 0.725 0.05 0 0.75 0.05 0 0.775 0.05 0
0.8 0.05 0 0.825 0.05 0 0.85 0.05 0 0.875
0.05 0 0.9 0.05 0 0.925 0.05 0 0.95 0.05
0 0.975 0.05 0 1 0.05 0 0 0.06 0
0.025 0.06 0 0.05 0.06 0 0.075 0.06 0 0.1
0.06 0 0.125 0.06 0 0.15 0.06 0 0.175 0.06
0 0.2 0.06 0 0.225 0.06 0 0.25 0.06 0
0.275 0.06 0 0.3 0.06 0 0.325 0.06 0 0.35
0.06 0 0.375 0.06 0 0.4 0.06 0 0.425 0.06
0 0.45 0.06 0 0.475 0.06 0 0.5 0.06 0
0.525 0.06 0 0.55 0.06 0 0.575 0.06 0 0.6
0.06 0 0.625 0.06 0 0.65 0.06 0 0.675 0.06
0 0.7 0.06 0 0.725 0.06 0 0.75 0.06 0
0.775 0.06 0 0.8 0.06 0 0.825 0.06 0 0.85
0.06 0 0.875 0.06 0 0.9 0.06 0 0.925 0.06
0 0.95 0.06 0 0.975 0.06 0 1 0.06 0
0 0.07 0 0.025 0.07 0 0.05 0.07 0 0.075
0.07 0 0.1 0.07 0 0.125 0.07 0 0.15 0.07
0 0.175 0.07 0 0.2 0.07 0 0.225 0.07 0
0.25 0.07 0 0.275 0.07 0 0.3 0.07 0 0.325
0.07 0 0.35 0.07 0 0.375 0.07 0 0.4 0.07
0 0.425 0.07 0 0.45 0.07 0 0.475 0.07 0
0.5 0.07 0 0.525 0.07 0 0.55 0.07 0 0.575
0.07 0 0.6 0.07 0 0.625 0.07 0 0.65 0.07
0 0.675 0.07 0 0.7 0.07 0 0.725 0.07 0
0.75 0.07 0 0.775 0.07 0 0.8 0.07 0 0.825
0.07 0 0.85 0.07 0 0.875 0.07 0 0.9 0.07
0 0.925 0.07 0 0.95 0.07 0 0.975 0.07 0
1 0.07 0 0 0.08 0 0.025 0.08 0 0.05
0.08 0 0.075 0.08 0 0.1 0.08 0 0.125 0.08
0 0.15 0.08 0 0.175 0.08 0 0.2 0.08 0
0.225 0.08 0 0.25 0.08 0 0.275 0.08 0 0.3
0.08 0 0.325 0.08 0 0.35 0.08 0 0.375 0.08
0 0.4 0.08 0 0.425 0.08 0 0.45 0.08 0
0.475 0.08 0 0.5 0.08 0 0.525 0.08 0 0.55
0.08 0 0.575 0.08 0 0.6 0.08 0 0.625 0.08
0 0.65 0.08 0 0.675 0.08 0 0.7 0.08 0
0.725 0.08 0 0.75 0.08 0 0.775 0.08 0 0.8
0.08 0 0.825 0.08 0 0.85 0.08 0 0.875 0.08
0 0.9 0.08 0 0.925 0.08 0 0.95 0.08 0
0.975 0.08 0 1 0.08 0 0 0.09 0 0.025
0.09 0 0.05 0.09 0 0.075 0.09 0 0.1 0.09
0 0.125 0.09 0 0.15 0.09 0 0.175 0.09 0
0.2 0.09 0 0.225 0.09 0 0.25 0.09 0 0.275
0.09 0 0.3 0.09 0 0.325 0.09 0 0.35 0.09
0 0.375 0.09 0 0.4 0.09 0 0.425 0.09 0
0.45 0.09 0 0.475 0.09 0 0.5 0.09 0 0.525
0.09 0 0.55 0.09 0 0.575 0.09 0 0.6 0.09
0 0.625 0.09 0 0.65 0.09 0 0.675 0.09 0
0.7 0.09 0 0.725 0.09 0 0.75 0.09 0 0.775
0.09 0 0.8 0.09 0 0.825 0.09 0 0.85 0.09
0 0.875 0.09 0 0.9 0.09 0 0.925 0.09 0
0.95 0.09 0 0.975 0.09 0 1 0.09 0 0
0.1 0 0.025 0.1 0 0.05 0.1 0 0.075 0.1
0 0.1 0.1 0 0.125 0.1 0 0.15 0.1 0
0.175 0.1 0 0.2 0.1 0 0.225 0.1 0 0.25
0.1 0 0.275 0.1 0 0.3 0.1 0 0.325 0.1
0 0.35 0.1 0 0.375 0.1 0 0.4 0.1 0
0.425 0.1 0 0.45 0.1 0 0.475 0.1 0 0.5
0.1 0 0.525 0.1 0 0.55 0.1 0 0.575 0.1
0 0.6 0.1 0 0.625 0.1 0 0.65 0.1 0
0.675 0.1 0 0.7 0.1 0 0.725 0.1 0 0.75
0.1 0 0.775 0.1 0 0.8 0.1 0 0.825 0.1
0 0.85 0.1 0 0.875 0.1 0 0.9 0.1 0
0.925 0.1 0 0.95 0.1 0 0.975 0.1 0 1
0.1 0 0 0.11 0 0.025 0.11 0 0.05 0.11
0 0.075 0.11 0 0.1 0.11 0 0.125 0.11 0
0.15 0.11 0 0.175 0.11 0 0.2 0.11 0 0.225
0.11 0 0.25 0.11 0 0.275 0.11 0 0.3 0.11
0 0.325 0.11 0 0.35 0.11 0 0.375 0.11 0
0.4 0.11 0 0.425 0.11 0 0.45 0.11 0 0.475
0.11 0 0.5 0.11 0 0.525 0.11 0 0.55 0.11
0 0.575 0.11 0 0.6 0.11 0 0.625 0.11 0
0.65 0.11 0 0.675 0.11 0 0.7 0.11 0 0.725
0.11 0 0.75 0.11 0 0.775 0.11 0 0.8 0.11
0 0.825 0.11 0 0.85 0.11 0 0.875 0.11 0
0.9 0.11 0 0.925 0.11 0 0.95 0.11 0 0.975
0.11 0 1 0.11 0 0 0.12 0 0.025 0.12
0 0.05 0.12 0 0.075 0.12 0 0.1 0.12 0
0.125 0.12 0 0.15 0.12 0 0.175 0.12 0 0.2
0.12 0 0.225 0.12 0 0.25 0.12 0 0.275 0.12
0 0.3 0.12 0 0.325 0.12 0 0.35 0.12 0
0.375 0.12 0 0.4 0.12 0 0.425 0.12 0 0.45
0.12 0 0.475 0.12 0 0.5 0.12 0 0.525 0.12
0 0.55 0.12 0 0.575 0.12 0 0.6 0.12 0
0.625 0.12 0 0.65 0.12 0 0.675 0.12 0 0.7
0.12 0 0.725 0.12 0 0.75 0.12 0 0.775 0.12
0 0.8 0.12 0 0.825 0.12 0 0.85 0.12 0
0.875 0.12 0 0.9 0.12 0 0.925 0.12 0 0.95
0.12 0 0.975 0.12 0 1 0.12 0 0 0.13
0 0.025 0.13 0 0.05 0.13 0 0.075 0.13 0
0.1 0.13 0 0.125 0.13 0 0.15 0.13 0 0.175
0.13 0 0.2 0.13 0 0.225 0.13 0 0.25 0.13
0 0.275 0.13 0 0.3 0.13 0 0.325 0.13 0
0.35 0.13 0 0.375 0.13 0 0.4 0.13 0 0.425
0.13 0 0.45 0.13 0 0.475 0.13 0 0.5 0.13
0 0.525 0.13 0 0.55 0.13 0 0.575 0.13 0
0.6 0.13 0 0.625 0.13 0 0.65 0.13 0 0.675
0.13 0 0.7 0.13 0 0.725 0.13 0 0.75 0.13
0 0.775 0.13 0 0.8 0.13 0 0.825 0.13 0
0.85 0.13 0 0.875 0.13 0 0.9 0.13 0 0.925
0.13 0 0.95 0.13 0 0.975 0.13 0 1 0.13
0 0 0.14 0 0.025 0.14 0 0.05 0.14 0
0.075 0.14 0 0.1 0.14 0 0.125 0.14 0 0.15
0.14 0 0.175 0.14 0 0.2 0.14 0 0.225 0.14
0 0.25 0.14 0 0.275 0.14 0 0.3 0.14 0
0.325 0.14 0 0.35 0.14 0 0.375 0.14 0 0.4
0.14 0 0.425 0.14 0 0.45 0.14 0 0.475 0.14
0 0.5 0.14 0 0.525 0.14 0 0.55 0.14 0
0.575 0.14 0 0.6 0.14 0 0.625 0.14 0 0.65
0.14 0 0.675 0.14 0 0.7 0.14 0 0.725 0.14
0 0.75 0.14 0 0.775 0.14 0 0.8 0.14 0
0.825 0.14 0 0.85 0.14 0 0.875 0.14 0 0.9
0.14 0 0.925 0.14 0 0.95 0.14 0 0.975 0.14
0 1 0.14 0 0 0.15 0 0.025 0.15 0
0.05 0.15 0 0.075 0.15 0 0.1 0.15 0 0.125
0.15 0 0.15 0.15 0 0.175 0.15 0 0.2 0.15
0 0.225 0.15 0 0.25 0.15 0 0.275 0.15 0
0.3 0.15 0 0.325 0.15 0 0.35 0.15 0 0.375
0.15 0 0.4 0.15 0 0.425 0.15 0 0.45 0.15
0 0.475 0.15 0 0.5 0.15 0 0.525 0.15 0
0.55 0.15 0 0.575 0.15 0 0.6 0.15 0 0.625
0.15 0 0.65 0.15 0 0.675 0.15 0 0.7 0.15
0 0.725 0.15 0 0.75 0.15 0 0.775 0.15 0
0.8 0.15 0 0.825 0.15 0 0.85 0.15 0 0.875
0.15 0 0.9 0.15 0 0.925 0.15 0 0.95 0.15
0 0.975 0.15 0 1 0.15 0 0 0.16 0
0.025 0.16 0 0.05 0.16 0 0.075 0.16 0 0.1
0.16 0 0.125 0.16 0 0.15 0.16 0 0.175 0.16
0 0.2 0.16 0 0.225 0.16 0 0.25 0.16 0
0.275 0.16 0 0.3 0.16 0 0.325 0.16 0 0.35
0.16 0 0.375 0.16 0 0.4 0.16 0 0.425 0.16
0 0.45 0.16 0 0.475 0.16 0 0.5 0.16 0
0.525 0.16 0 0.55 0.16 0 0.575 0.16 0 0.6
0.16 0 0.625 0.16 0 0.65 0.16 0 0.675 0.16
0 0.7 0.16 0 0.725 0.16 0 0.75 0.16 0
0.775 0.16 0 0.8 0.16 0 0.825 0.16 0 0.85
0.16 0 0.875 0.16 0 0.9 0.16 0 0.925 0.16
0 0.95 0.16 0 0.975 0.16 0 1 0.16 0
0 0.17 0 0.025 0.17 0 0.05 0.17 0 0.075
0.17 0 0.1 0.17 0 0.125 0.17 0 0.15 0.17
0 0.175 0.17 0 0.2 0.17 0 0.225 0.17 0
0.25 0.17 0 0.275 0.17 0 0.3 0.17 0 0.325
0.17 0 0.35 0.17 0 0.375 0.17 0 0.4 0.17
0 0.425 0.17 0 0.45 0.17 0 0.475 0.17 0
0.5 0.17 0 0.525 0.17 0 0.55 0.17 0 0.575
0.17 0 0.6 0.17 0 0.625 0.17 0 0.65 0.17
0 0.675 0.17 0 0.7 0.17 0 0.725 0.17 0
0.75 0.17 0 0.775 0.17 0 0.8 0.17 0 0.825
0.17 0 0.85 0.17 0 0.875 0.17 0 0.9 0.17
0 0.925 0.17 0 0.95 0.17 0 0.975 0.17 0
1 0.17 0 0 0.18 0 0.025 0.18 0 0.05
0.18 0 0.075 0.18 0 0.1 0.18 0 0.125 0.18
0 0.15 0.18 0 0.175 0.18 0 0.2 0.18 0
0.225 0.18 0 0.25 0.18 0 0.275 0.18 0 0.3
0.18 0 0.325 0.18 0 0.35 0.18 0 0.375 0.18
0 0.4 0.18 0 0.425 0.18 0 0.45 0.18 0
0.475 0.18 0 0.5 0.18 0 0.525 0.18 0 0.55
0.18 0 0.575 0.18 0 0.6 0.18 0 0.625 0.18
0 0.65 0.18 0 0.675 0.18 0 0.7 0.18 0
0.725 0.18 0 0.75 0.18 0 0.775 0.18 0 0.8
0.18 0 0.825 0.18 0 0.85 0.18 0 0.875 0.18
0 0.9 0.18 0 0.925 0.18 0 0.95 0.18 0
0.975 0.18 0 1 0.18 0 0 0.19 0 0.025
0.19 0 0.05 0.19 0 0.075 0.19 0 0.1 0.19
0 0.125 0.19 0 0.15 0.19 0 0.175 0.19 0
0.2 0.19 0 0.225 0.19 0 0.25 0.19 0 0.275
0.19 0 0.3 0.19 0 0.325 0.19 0 0.35 0.19
0 0.375 0.19 0 0.4 0.19 0 0.425 0.19 0
0.45 0.19 0 0.475 0.19 0 0.5 0.19 0 0.525
0.19 0 0.55 0.19 0 0.575 0.19 0 0.6 0.19
0 0.625 0.19 0 0.65 0.19 0 0.675 0.19 0
0.7 0.19 0 0.725 0.19 0 0.75 0.19 0 0.775
0.19 0 0.8 0.19 0 0.825 0.19 0 0.85 0.19
0 0.875 0.19 0 0.9 0.19 0 0.925 0.19 0
0.95 0.19 0 0.975 0.19 0 1 0.19 0 0
0.2 0 0.025 0.2 0 0.05 0.2 0 0.075 0.2
0 0.1 0.2 0 0.125 0.2 0 0.15 0.2 0
0.175 0.2 0 0.2 0.2 0 0.225 0.2 0 0.25
[...]
CELL_DATA 1600
FIELD attributes 6
cellID 1 1600 int
0 1 2 3 4 5 6 7 8 9 10
11 12 13 14 15 16 17 18 19 20
21 22 23 24 25 26 27 28 29 30
31 32 33 34 35 36 37 38 39 40
41 42 43 44 45 46 47 48 49 50
51 52 53 54 55 56 57 58 59 60
61 62 63 64 65 66 67 68 69 70
71 72 73 74 75 76 77 78 79 80
81 82 83 84 85 86 87 88 89 90
91 92 93 94 95 96 97 98 99 100
101 102 103 104 105 106 107 108 109 110
111 112 113 114 115 116 117 118 119 120
121 122 123 124 125 126 127 128 129 130
131 132 133 134 135 136 137 138 139 140
141 142 143 144 145 146 147 148 149 150
151 152 153 154 155 156 157 158 159 160
161 162 163 164 165 166 167 168 169 170
171 172 173 174 175 176 177 178 179 180
181 182 183 184 185 186 187 188 189 190
191 192 193 194 195 196 197 198 199 200
201 202 203 204 205 206 207 208 209 210
211 212 213 214 215 216 217 218 219 220
221 222 223 224 225 226 227 228 229 230
231 232 233 234 235 236 237 238 239 240
241 242 243 244 245 246 247 248 249 250
251 252 253 254 255 256 257 258 259 260
261 262 263 264 265 266 267 268 269 270
271 272 273 274 275 276 277 278 279 280
281 282 283 284 285 286 287 288 289 290
291 292 293 294 295 296 297 298 299 300
301 302 303 304 305 306 307 308 309 310
311 312 313 314 315 316 317 318 319 320
321 322 323 324 325 326 327 328 329 330
331 332 333 334 335 336 337 338 339 340
341 342 343 344 345 346 347 348 349 350
351 352 353 354 355 356 357 358 359 360
361 362 363 364 365 366 367 368 369 370
371 372 373 374 375 376 377 378 379 380
381 382 383 384 385 386 387 388 389 390
391 392 393 394 395 396 397 398 399 400
401 402 403 404 405 406 407 408 409 410
411 412 413 414 415 416 417 418 419 420
421 422 423 424 425 426 427 428 429 430
431 432 433 434 435 436 437 438 439 440
441 442 443 444 445 446 447 448 449 450
451 452 453 454 455 456 457 458 459 460
461 462 463 464 465 466 467 468 469 470
471 472 473 474 475 476 477 478 479 480
481 482 483 484 485 486 487 488 489 490
491 492 493 494 495 496 497 498 499 500
501 502 503 504 505 506 507 508 509 510
511 512 513 514 515 516 517 518 519 520
521 522 523 524 525 526 527 528 529 530
531 532 533 534 535 536 537 538 539 540
541 542 543 544 545 546 547 548 549 550
551 552 553 554 555 556 557 558 559 560
561 562 563 564 565 566 567 568 569 570
571 572 573 574 575 576 577 578 579 580
581 582 583 584 585 586 587 588 589 590
591 592 593 594 595 596 597 598 599 600
601 602 603 604 605 606 607 608 609 610
611 612 613 614 615 616 617 618 619 620
621 622 623 624 625 626 627 628 629 630
631 632 633 634 635 636 637 638 639 640
641 642 643 644 645 646 647 648 649 650
651 652 653 654 655 656 657 658 659 660
661 662 663 664 665 666 667 668 669 670
671 672 673 674 675 676 677 678 679 680
681 682 683 684 685 686 687 688 689 690
691 692 693 694 695 696 697 698 699 700
701 702 703 704 705 706 707 708 709 710
711 712 713 714 715 716 717 718 719 720
721 722 723 724 725 726 727 728 729 730
731 732 733 734 735 736 737 738 739 740
741 742 743 744 745 746 747 748 749 750
751 752 753 754 755 756 757 758 759 760
761 762 763 764 765 766 767 768 769 770
771 772 773 774 775 776 777 778 779 780
781 782 783 784 785 786 787 788 789 790
791 792 793 794 795 796 797 798 799 800
801 802 803 804 805 806 807 808 809 810
811 812 813 814 815 816 817 818 819 820
821 822 823 824 825 826 827 828 829 830
831 832 833 834 835 836 837 838 839 840
841 842 843 844 845 846 847 848 849 850
851 852 853 854 855 856 857 858 859 860
861 862 863 864 865 866 867 868 869 870
871 872 873 874 875 876 877 878 879 880
881 882 883 884 885 886 887 888 889 890
891 892 893 894 895 896 897 898 899 900
901 902 903 904 905 906 907 908 909 910
911 912 913 914 915 916 917 918 919 920
921 922 923 924 925 926 927 928 929 930
931 932 933 934 935 936 937 938 939 940
941 942 943 944 945 946 947 948 949 950
951 952 953 954 955 956 957 958 959 960
961 962 963 964 965 966 967 968 969 970
971 972 973 974 975 976 977 978 979 980
981 982 983 984 985 986 987 988 989 990
991 992 993 994 995 996 997 998 999 1000
1001 1002 1003 1004 1005 1006 1007 1008 1009 1010
1011 1012 1013 1014 1015 1016 1017 1018 1019 1020
1021 1022 1023 1024 1025 1026 1027 1028 1029 1030
1031 1032 1033 1034 1035 1036 1037 1038 1039 1040
1041 1042 1043 1044 1045 1046 1047 1048 1049 1050
1051 1052 1053 1054 1055 1056 1057 1058 1059 1060
1061 1062 1063 1064 1065 1066 1067 1068 1069 1070
1071 1072 1073 1074 1075 1076 1077 1078 1079 1080
1081 1082 1083 1084 1085 1086 1087 1088 1089 1090
1091 1092 1093 1094 1095 1096 1097 1098 1099 1100
1101 1102 1103 1104 1105 1106 1107 1108 1109 1110
1111 1112 1113 1114 1115 1116 1117 1118 1119 1120
1121 1122 1123 1124 1125 1126 1127 1128 1129 1130
1131 1132 1133 1134 1135 1136 1137 1138 1139 1140
1141 1142 1143 1144 1145 1146 1147 1148 1149 1150
1151 1152 1153 1154 1155 1156 1157 1158 1159 1160
1161 1162 1163 1164 1165 1166 1167 1168 1169 1170
1171 1172 1173 1174 1175 1176 1177 1178 1179 1180
1181 1182 1183 1184 1185 1186 1187 1188 1189 1190
1191 1192 1193 1194 1195 1196 1197 1198 1199 1200
1201 1202 1203 1204 1205 1206 1207 1208 1209 1210
1211 1212 1213 1214 1215 1216 1217 1218 1219 1220
1221 1222 1223 1224 1225 1226 1227 1228 1229 1230
1231 1232 1233 1234 1235 1236 1237 1238 1239 1240
1241 1242 1243 1244 1245 1246 1247 1248 1249 1250
1251 1252 1253 1254 1255 1256 1257 1258 1259 1260
1261 1262 1263 1264 1265 1266 1267 1268 1269 1270
1271 1272 1273 1274 1275 1276 1277 1278 1279 1280
1281 1282 1283 1284 1285 1286 1287 1288 1289 1290
1291 1292 1293 1294 1295 1296 1297 1298 1299 1300
1301 1302 1303 1304 1305 1306 1307 1308 1309 1310
1311 1312 1313 1314 1315 1316 1317 1318 1319 1320
1321 1322 1323 1324 1325 1326 1327 1328 1329 1330
1331 1332 1333 1334 1335 1336 1337 1338 1339 1340
1341 1342 1343 1344 1345 1346 1347 1348 1349 1350
1351 1352 1353 1354 1355 1356 1357 1358 1359 1360
1361 1362 1363 1364 1365 1366 1367 1368 1369 1370
1371 1372 1373 1374 1375 1376 1377 1378 1379 1380
1381 1382 1383 1384 1385 1386 1387 1388 1389 1390
1391 1392 1393 1394 1395 1396 1397 1398 1399 1400
1401 1402 1403 1404 1405 1406 1407 1408 1409 1410
1411 1412 1413 1414 1415 1416 1417 1418 1419 1420
1421 1422 1423 1424 1425 1426 1427 1428 1429 1430
1431 1432 1433 1434 1435 1436 1437 1438 1439 1440
1441 1442 1443 1444 1445 1446 1447 1448 1449 1450
1451 1452 1453 1454 1455 1456 1457 1458 1459 1460
1461 1462 1463 1464 1465 1466 1467 1468 1469 1470
1471 1472 1473 1474 1475 1476 1477 1478 1479 1480
1481 1482 1483 1484 1485 1486 1487 1488 1489 1490
1491 1492 1493 1494 1495 1496 1497 1498 1499 1500
1501 1502 1503 1504 1505 1506 1507 1508 1509 1510
1511 1512 1513 1514 1515 1516 1517 1518 1519 1520
1521 1522 1523 1524 1525 1526 1527 1528 1529 1530
1531 1532 1533 1534 1535 1536 1537 1538 1539 1540
1541 1542 1543 1544 1545 1546 1547 1548 1549 1550
1551 1552 1553 1554 1555 1556 1557 1558 1559 1560
1561 1562 1563 1564 1565 1566 1567 1568 1569 1570
1571 1572 1573 1574 1575 1576 1577 1578 1579 1580
1581 1582 1583 1584 1585 1586 1587 1588 1589 1590
1591 1592 1593 1594 1595 1596 1597 1598 1599 
T 1 1600 float
283.639 282.435 284.281 284.849 284.514 284.184 283.973 283.707 283.452 283.212 282.987
282.777 282.598 282.448 282.319 282.207 282.107 282.02 281.965 282.04 282.247
282.067 281.988 281.982 282.027 282.118 282.253 282.436 282.674 282.934 283.2
283.483 283.824 283.765 282.56 282.134 281.804 281.513 281.227 280.999 282.079
282.129 283.139 282.468 281.188 280.908 280.809 280.741 280.701 280.675 280.662
280.664 280.666 280.666 280.666 280.665 280.663 280.66 280.656 280.654 280.652
280.619 280.607 280.602 280.603 280.609 280.619 280.632 280.649 280.712 280.86
281.193 282.067 282.915 281.703 281.079 280.808 280.672 280.664 280.637 281.717
282.195 282.499 281.665 280.797 280.667 280.644 280.634 280.635 280.64 280.645
280.647 280.648 280.648 280.645 280.642 280.637 280.63 280.622 280.612 280.6
280.568 280.552 280.546 280.547 280.551 280.56 280.573 280.59 280.613 280.658
280.805 281.447 282.423 281.54 280.842 280.725 280.72 280.739 280.65 281.656
282.068 282.07 281.276 280.681 280.622 280.623 280.628 280.635 280.64 280.643
280.644 280.642 280.639 280.635 280.629 280.621 280.612 280.601 280.587 280.571
280.545 280.526 280.52 280.521 280.525 280.532 280.542 280.557 280.578 280.609
280.694 281.16 282.094 281.518 280.781 280.762 280.814 280.837 280.662 281.611
281.918 281.767 281.054 280.631 280.608 280.618 280.628 280.635 280.639 280.64
280.64 280.638 280.634 280.628 280.621 280.612 280.601 280.588 280.573 280.556
280.533 280.513 280.508 280.51 280.516 280.522 280.529 280.54 280.558 280.585
280.647 281.003 281.855 281.519 280.792 280.822 280.919 280.947 280.672 281.558
281.776 281.544 280.914 280.606 280.602 280.616 280.627 280.634 280.637 280.638
280.638 280.635 280.631 280.626 280.618 280.609 280.597 280.583 280.566 280.548
280.527 280.507 280.503 280.509 280.518 280.525 280.529 280.536 280.549 280.573
280.623 280.907 281.675 281.511 280.859 280.882 281.031 281.058 280.681 281.502
281.65 281.375 280.821 280.592 280.598 280.615 280.626 280.633 280.636 280.637
280.637 280.635 280.631 280.626 280.619 280.61 280.597 280.582 280.564 280.544
280.523 280.505 280.501 280.512 280.527 280.537 280.539 280.541 280.549 280.569
280.611 280.846 281.534 281.495 280.945 280.933 281.141 281.157 280.69 281.447
281.543 281.247 280.757 280.582 280.595 280.613 280.625 280.632 280.635 280.637
280.637 280.635 280.633 280.629 280.623 280.614 280.601 280.585 280.565 280.543
280.521 280.504 280.501 280.516 280.539 280.554 280.555 280.553 280.556 280.571
280.606 280.805 281.421 281.473 281.029 280.967 281.227 281.232 280.699 281.396
281.452 281.149 280.712 280.575 280.592 280.611 280.623 280.63 280.634 280.635
280.636 280.636 280.635 280.632 280.627 280.619 280.607 280.589 280.568 280.544
280.52 280.504 280.502 280.521 280.552 280.574 280.574 280.568 280.567 280.578
280.607 280.777 281.331 281.448 281.105 281.022 281.232 281.27 280.707 281.349
281.377 281.075 280.68 280.569 280.588 280.608 280.62 280.627 280.631 280.633
280.634 280.635 280.635 280.635 280.632 280.626 280.614 280.596 280.572 280.546
280.521 280.504 280.503 280.524 280.563 280.593 280.593 280.584 280.58 280.587
280.611 280.761 281.258 281.422 281.17 281.09 281.258 281.286 280.711 281.306
281.316 281.02 280.657 280.562 280.583 280.604 280.616 280.623 280.627 280.628
280.63 280.631 280.633 280.635 280.636 280.632 280.622 280.603 280.578 280.549
280.521 280.504 280.503 280.526 280.57 280.608 280.61 280.599 280.594 280.599
280.619 280.751 281.2 281.395 281.223 281.161 281.295 281.3 280.704 281.267
281.266 280.98 280.641 280.556 280.578 280.599 280.611 280.618 280.62 280.621
280.622 280.623 280.627 280.632 280.637 280.637 280.63 280.612 280.585 280.553
280.523 280.504 280.503 280.526 280.571 280.617 280.623 280.611 280.608 280.612
280.629 280.749 281.156 281.37 281.265 281.227 281.334 281.308 280.689 281.231
281.226 280.955 280.629 280.549 280.571 280.593 280.605 280.611 280.612 280.611
280.61 280.611 280.616 280.625 280.635 280.64 280.637 280.621 280.593 280.558
280.525 280.505 280.503 280.524 280.569 280.616 280.631 280.622 280.621 280.625
280.638 280.752 281.123 281.349 281.298 281.284 281.369 281.309 280.667 281.197
281.193 280.943 280.623 280.542 280.564 280.586 280.599 280.603 280.602 280.598
280.595 280.594 280.6 280.613 280.629 280.641 280.643 280.631 280.602 280.564
280.529 280.505 280.501 280.52 280.564 280.611 280.634 280.631 280.632 280.634
280.645 280.76 281.102 281.332 281.325 281.332 281.396 281.299 280.64 281.164
281.162 280.944 280.621 280.535 280.555 280.579 280.591 280.594 280.59 280.583
280.576 280.573 280.58 280.598 280.62 280.639 280.648 280.64 280.613 280.572
280.533 280.506 280.498 280.514 280.554 280.602 280.63 280.635 280.636 280.637
280.647 280.775 281.093 281.322 281.347 281.371 281.413 281.275 280.609 281.133
281.124 280.958 280.63 280.528 280.546 280.57 280.582 280.584 280.578 280.566
280.555 280.549 280.556 280.578 280.607 280.633 280.65 280.648 280.623 280.581
280.538 280.507 280.495 280.506 280.541 280.588 280.621 280.632 280.635 280.641
280.659 280.799 281.096 281.319 281.366 281.401 281.418 281.233 280.577 281.102
281.075 280.968 280.664 280.522 280.535 280.56 280.574 280.575 280.566 280.55
280.532 280.522 280.529 280.557 280.592 280.625 280.649 280.655 280.635 280.591
280.544 280.51 280.494 280.497 280.525 280.57 280.606 280.622 280.63 280.648
280.695 280.814 281.114 281.324 281.385 281.423 281.411 281.188 280.546 281.071
281.012 280.969 280.707 280.528 280.524 280.55 280.564 280.565 280.555 280.535
280.511 280.495 280.503 280.537 280.578 280.616 280.646 280.66 280.646 280.602
280.551 280.513 280.493 280.49 280.509 280.547 280.586 280.606 280.62 280.651
280.724 280.833 281.146 281.335 281.401 281.433 281.388 281.135 280.518 281.042
280.931 280.956 280.746 280.554 280.513 280.538 280.554 280.557 280.546 280.523
280.492 280.468 280.478 280.518 280.564 280.607 280.641 280.662 280.656 280.614
280.56 280.518 280.494 280.484 280.493 280.523 280.56 280.584 280.601 280.642
280.74 280.886 281.171 281.348 281.412 281.431 281.348 281.073 280.492 281.013
280.833 280.928 280.775 280.59 280.51 280.525 280.543 280.548 280.538 280.515
280.479 280.445 280.46 280.505 280.555 280.6 280.636 280.662 280.665 280.628
280.57 280.524 280.497 280.482 280.481 280.499 280.53 280.555 280.574 280.617
280.728 280.918 281.179 281.358 281.412 281.41 281.293 281.004 280.47 280.984
280.728 280.887 280.793 280.628 280.522 280.513 280.53 280.537 280.531 280.511
280.476 280.432 280.452 280.498 280.549 280.595 280.632 280.66 280.671 280.642
280.582 280.531 280.502 280.482 280.472 280.478 280.499 280.522 280.539 280.576
280.684 280.897 281.162 281.352 281.395 281.369 281.223 280.932 280.452 280.957
280.641 280.841 280.8 280.662 280.547 280.509 280.517 280.524 280.521 280.504
280.474 280.441 280.457 280.5 280.549 280.594 280.631 280.658 280.675 280.655
280.595 280.54 280.508 280.486 280.47 280.464 280.471 280.488 280.502 280.527
280.617 280.824 281.106 281.32 281.355 281.305 281.143 280.857 280.438 280.931
280.594 280.801 280.8 280.692 280.579 280.519 280.508 280.511 280.508 280.495
280.47 280.452 280.468 280.509 280.556 280.598 280.633 280.658 280.675 280.668
280.61 280.549 280.515 280.492 280.473 280.458 280.452 280.457 280.465 280.481
280.545 280.721 281.006 281.25 281.289 281.223 281.06 280.784 280.429 280.907
280.589 280.774 280.797 280.716 280.614 280.542 280.512 280.504 280.498 280.486
280.467 280.462 280.485 280.525 280.568 280.607 280.638 280.661 280.676 280.677
280.627 280.559 280.523 280.5 280.481 280.462 280.446 280.437 280.436 280.443
280.484 280.618 280.878 281.141 281.196 281.13 280.978 280.714 280.424 280.885
280.604 280.758 280.794 280.735 280.647 280.573 280.529 280.509 280.496 280.484
280.472 280.48 280.509 280.547 280.586 280.62 280.646 280.665 280.678 280.681
280.646 280.572 280.531 280.509 280.491 280.473 280.453 280.434 280.423 280.422
280.446 280.541 280.752 281.006 281.085 281.033 280.899 280.643 280.422 280.864
280.613 280.748 280.789 280.75 280.678 280.609 280.559 280.529 280.51 280.498
280.494 280.51 280.54 280.575 280.608 280.636 280.657 280.671 280.681 280.684
280.663 280.587 280.539 280.517 280.502 280.487 280.469 280.449 280.431 280.424
280.437 280.501 280.655 280.87 280.97 280.939 280.826 280.563 280.422 280.846
280.616 280.736 280.783 280.76 280.704 280.644 280.595 280.561 280.54 280.529
280.532 280.551 280.578 280.607 280.633 280.654 280.669 280.679 280.685 280.687
280.675 280.606 280.548 280.525 280.511 280.5 280.487 280.472 280.456 280.445
280.451 280.492 280.596 280.76 280.864 280.855 280.761 280.477 280.427 280.83
280.614 280.717 280.772 280.765 280.724 280.675 280.632 280.6 280.58 280.572
280.578 280.595 280.617 280.639 280.658 280.671 280.68 280.686 280.689 280.69
280.681 280.629 280.559 280.532 280.518 280.51 280.503 280.494 280.484 280.475
280.477 280.502 280.569 280.684 280.777 280.782 280.705 280.413 280.438 280.815
280.61 280.686 280.757 280.764 280.738 280.701 280.665 280.638 280.622 280.617
280.624 280.638 280.654 280.668 280.679 280.686 280.69 280.692 280.693 280.692
280.684 280.65 280.574 280.541 280.525 280.516 280.512 280.51 280.506 280.503
280.504 280.519 280.562 280.639 280.712 280.721 280.657 280.385 280.458 280.803
280.603 280.648 280.738 280.758 280.746 280.72 280.693 280.673 280.66 280.658
280.664 280.674 280.683 280.691 280.696 280.697 280.697 280.696 280.695 280.694
280.687 280.665 280.596 280.552 280.532 280.52 280.517 280.518 280.52 280.522
280.525 280.536 280.563 280.613 280.664 280.67 280.61 280.386 280.486 280.792
280.595 280.61 280.721 280.749 280.747 280.732 280.714 280.7 280.692 280.691
280.695 280.7 280.704 280.706 280.705 280.703 280.7 280.698 280.696 280.694
280.688 280.672 280.622 280.566 280.541 280.525 280.518 280.519 280.524 280.53
280.536 280.546 280.564 280.594 280.625 280.622 280.557 280.409 280.514 280.782
280.589 280.594 280.706 280.737 280.744 280.738 280.727 280.719 280.714 280.714
280.715 280.716 280.715 280.711 280.707 280.702 280.698 280.696 280.695 280.694
280.688 280.676 280.645 280.589 280.556 280.534 280.519 280.516 280.521 280.529
280.537 280.546 280.558 280.575 280.589 280.574 280.497 280.454 280.538 280.774
280.594 280.594 280.676 280.721 280.736 280.737 280.733 280.729 280.726 280.725
280.723 280.719 280.713 280.706 280.7 280.695 280.693 280.692 280.692 280.692
280.687 280.677 280.658 280.619 280.578 280.549 280.526 280.514 280.513 280.52
280.529 280.538 280.545 280.553 280.554 280.53 280.454 280.507 280.56 280.767
280.614 280.589 280.63 280.705 280.724 280.73 280.731 280.729 280.727 280.724
280.718 280.709 280.7 280.693 280.688 280.686 280.685 280.687 280.689 280.689
280.684 280.675 280.663 280.643 280.61 280.575 280.543 280.519 280.508 280.51
280.516 280.523 280.528 280.53 280.524 280.499 280.461 280.558 280.578 280.76
280.64 280.585 280.611 280.683 280.707 280.717 280.719 280.718 280.714 280.707
280.698 280.689 280.683 280.679 280.677 280.677 280.679 280.683 280.686 280.686
280.68 280.671 280.661 280.653 280.641 280.613 280.575 280.537 280.513 280.504
280.504 280.508 280.512 280.511 280.504 280.488 280.523 280.592 280.593 280.755
280.662 280.616 280.607 280.649 280.681 280.695 280.699 280.698 280.692 280.685
280.679 280.675 280.673 280.672 280.672 280.673 280.677 280.681 280.685 280.682
280.673 280.662 280.655 280.652 280.654 280.655 280.625 280.577 280.534 280.509
280.502 280.501 280.503 280.503 280.5 280.505 280.586 280.616 280.605 280.749
280.683 280.653 280.634 280.634 280.655 280.67 280.678 280.68 280.679 280.679
280.678 280.677 280.675 280.673 280.673 280.674 280.678 280.682 280.683 280.674
280.659 280.647 280.643 280.647 280.659 280.677 280.686 280.644 280.582 280.531
280.513 280.509 280.508 280.509 280.514 280.556 280.608 280.626 280.612 280.744
280.701 280.681 280.667 280.657 280.658 280.664 280.672 280.678 280.683 280.686
280.686 280.682 280.677 280.674 280.673 280.675 280.678 280.68 280.675 280.655
280.634 280.626 280.631 280.645 280.667 280.697 280.723 280.729 280.68 280.587
280.542 280.521 280.523 280.528 280.546 280.582 280.608 280.626 280.615 280.737
280.714 280.701 280.692 280.685 280.681 280.681 280.685 280.69 280.693 280.692
280.686 280.678 280.67 280.666 280.665 280.667 280.668 280.664 280.649 280.608
280.595 280.61 280.637 280.666 280.697 280.73 280.76 280.776 280.77 280.732
280.661 280.589 280.554 280.553 280.567 280.587 280.61 280.629 280.616 280.719
280.704 280.691 280.682 280.675 280.672 280.673 280.674 280.675 280.672 280.666
280.656 280.645 280.637 280.633 280.629 280.623 280.609 280.586 280.549 280.51
280.577 280.643 280.667 280.684 280.698 280.705 280.706 280.705 280.704 280.698
280.685 280.664 280.638 280.623 280.624 280.633 280.64 280.642 280.609 
alphat 1 1600 float
0 0 0 0 0 0 0 0 0 0 0
0 0 0 0 0 0 0 0 0 0
0 0 0 0 0 0 0 0 0 0
0 0 0 0 0 0 0 0 0 0
0 0 0 0 0 0 0 0 0 0
0 0 0 0 0 0 0 0 0 0
0 0 0 0 0 0 0 0 0 0
0 0 0 0 0 0 0 0 0 0
0 0 0 0 0 0 0 0 0 0
0 0 0 0 0 0 0 0 0 0
0 0 0 0 0 0 0 0 0 0
0 0 0 0 0 0 0 0 0 0
0 0 0 0 0 0 0 0 0 0
0 0 0 0 0 0 0 0 0 0
0 0 0 0 0 0 0 0 0 0
0 0 0 0 0 0 0 0 0 0
0 0 0 0 0 0 0 0 0 0
0 0 0 0 0 0 0 0 0 0
0 0 0 0 0 0 0 0 0 0