/*--------------------------------*- C++ -*----------------------------------*\
| =========                 |                                                 |
| \\      /  F ield         | OpenFOAM: The Open Source CFD Toolbox           |
|  \\    /   O peration     | Version:  4.1                                   |
|   \\  /    A nd           | Web:      www.OpenFOAM.org                      |
|    \\/     M anipulation  |                                                 |
\*---------------------------------------------------------------------------*/
FoamFile
{
    version     2.0;
    format      ascii;
    class       volScalarField;
    location    "1560";
    object      p_rgh;
}
// * * * * * * * * * * * * * * * * * * * * * * * * * * * * * * * * * * * * * //

dimensions      [0 2 -2 0 0 0 0];

internalField   nonuniform List<scalar> 
5000
(
0.0492011
0.0492168
0.0492189
0.0492113
0.0491971
0.0491796
0.0491612
0.0491439
0.0491298
0.0491206
0.0491169
0.049118
0.0491233
0.0491323
0.0491407
0.0491445
0.0491291
0.0491131
0.0491008
0.049095
0.049098
0.04911
0.049129
0.0491511
0.049173
0.0491925
0.0492087
0.0492213
0.0492306
0.0492362
0.0492394
0.04924
0.049238
0.0492342
0.049229
0.0492227
0.0492156
0.0492079
0.0491999
0.0491917
0.0491835
0.0491754
0.0491675
0.0491599
0.0491526
0.0491457
0.0491393
0.0491334
0.0491279
0.049123
0.0491185
0.0491146
0.0491113
0.0491085
0.0491062
0.0491045
0.0491035
0.049103
0.0491032
0.0491039
0.0491052
0.0491071
0.0491096
0.0491126
0.0491161
0.0491201
0.0491247
0.0491296
0.0491351
0.0491409
0.0491471
0.0491536
0.0491605
0.0491676
0.0491749
0.0491823
0.0491899
0.0491975
0.0492051
0.0492127
0.0492201
0.0492273
0.0492342
0.0492408
0.049247
0.0492527
0.0492579
0.0492624
0.0492662
0.0492691
0.0492711
0.049272
0.0492717
0.0492703
0.0492678
0.0492645
0.0492613
0.0492587
0.0492563
0.0492568
0.0491917
0.0492248
0.0492243
0.0492183
0.0492079
0.0491942
0.0491793
0.0491657
0.049156
0.0491504
0.0491483
0.049149
0.0491503
0.0491482
0.049138
0.04914
0.0491366
0.0491263
0.0491153
0.0491087
0.0491098
0.04912
0.0491388
0.0491617
0.0491847
0.0492054
0.0492225
0.0492357
0.0492457
0.0492536
0.049259
0.0492614
0.0492613
0.0492592
0.0492557
0.049251
0.0492455
0.0492393
0.0492328
0.049226
0.0492192
0.0492125
0.049206
0.0491997
0.0491938
0.0491883
0.0491833
0.0491787
0.0491746
0.0491711
0.0491681
0.0491656
0.0491637
0.0491624
0.0491616
0.0491613
0.0491615
0.0491621
0.0491633
0.0491649
0.049167
0.0491697
0.0491728
0.0491765
0.0491806
0.0491852
0.0491903
0.0491959
0.0492019
0.0492082
0.049215
0.0492221
0.0492294
0.0492371
0.0492449
0.0492528
0.0492609
0.049269
0.049277
0.049285
0.0492928
0.0493004
0.0493078
0.0493147
0.0493213
0.0493273
0.0493328
0.0493377
0.0493417
0.0493448
0.0493468
0.0493474
0.0493463
0.0493432
0.0493379
0.0493317
0.0493289
0.049331
0.0493186
0.0492952
0.0491773
0.0492201
0.049219
0.0492118
0.0492006
0.0491857
0.049169
0.0491533
0.0491424
0.0491386
0.0491408
0.0491466
0.0491512
0.0491455
0.0491172
0.0491101
0.0491231
0.0491167
0.0491025
0.0490915
0.0490904
0.0491012
0.0491224
0.0491481
0.0491733
0.0491954
0.0492135
0.0492275
0.0492387
0.0492474
0.049253
0.0492557
0.049256
0.0492543
0.0492511
0.0492466
0.0492413
0.0492353
0.049229
0.0492224
0.0492158
0.0492093
0.049203
0.0491969
0.0491912
0.0491859
0.049181
0.0491766
0.0491727
0.0491694
0.0491666
0.0491644
0.0491627
0.0491616
0.0491611
0.0491612
0.0491618
0.049163
0.0491647
0.049167
0.0491698
0.0491732
0.0491771
0.0491815
0.0491863
0.0491917
0.0491976
0.0492039
0.0492107
0.0492179
0.0492256
0.0492336
0.049242
0.0492508
0.0492598
0.0492692
0.0492787
0.0492883
0.0492981
0.0493079
0.0493176
0.0493271
0.0493365
0.0493456
0.0493543
0.0493625
0.0493702
0.0493771
0.0493833
0.0493886
0.0493926
0.0493953
0.0493962
0.049395
0.0493915
0.0493864
0.0493833
0.0493826
0.0493613
0.0493069
0.049165
0.0492181
0.0492163
0.049207
0.0491933
0.0491748
0.0491534
0.0491326
0.0491171
0.0491124
0.0491168
0.0491271
0.0491365
0.049132
0.0490914
0.0490672
0.0490969
0.0490948
0.0490779
0.0490634
0.0490612
0.0490733
0.0490992
0.0491296
0.0491583
0.0491827
0.0492024
0.049218
0.0492304
0.0492396
0.0492455
0.0492485
0.0492491
0.0492476
0.0492446
0.0492403
0.0492352
0.0492294
0.0492231
0.0492167
0.0492102
0.0492038
0.0491976
0.0491917
0.0491861
0.0491809
0.0491762
0.0491719
0.0491682
0.049165
0.0491624
0.0491603
0.0491588
0.0491579
0.0491575
0.0491578
0.0491586
0.04916
0.0491619
0.0491644
0.0491674
0.049171
0.0491751
0.0491797
0.0491848
0.0491905
0.0491966
0.0492032
0.0492102
0.0492178
0.0492258
0.0492342
0.049243
0.0492522
0.0492618
0.0492717
0.0492819
0.0492923
0.049303
0.0493138
0.0493246
0.0493355
0.0493463
0.0493569
0.0493674
0.0493775
0.0493871
0.0493962
0.0494047
0.0494122
0.0494188
0.049424
0.0494277
0.0494292
0.0494284
0.0494254
0.0494222
0.0494174
0.0493859
0.0492987
0.0491565
0.0492201
0.0492175
0.0492056
0.0491883
0.049165
0.0491377
0.0491095
0.0490853
0.0490748
0.0490813
0.049098
0.0491149
0.0491157
0.0490699
0.0490235
0.0490657
0.0490679
0.0490477
0.0490277
0.0490225
0.0490375
0.0490712
0.0491082
0.0491415
0.0491688
0.0491907
0.049208
0.0492213
0.0492308
0.0492371
0.0492404
0.0492412
0.04924
0.0492372
0.0492332
0.0492282
0.0492225
0.0492164
0.0492101
0.0492037
0.0491975
0.0491914
0.0491855
0.0491801
0.049175
0.0491704
0.0491662
0.0491626
0.0491596
0.0491571
0.0491551
0.0491538
0.049153
0.0491528
0.0491532
0.0491542
0.0491557
0.0491578
0.0491605
0.0491637
0.0491674
0.0491717
0.0491765
0.0491818
0.0491876
0.0491939
0.0492007
0.049208
0.0492157
0.0492239
0.0492325
0.0492416
0.0492511
0.0492609
0.0492711
0.0492817
0.0492925
0.0493036
0.0493149
0.0493264
0.0493379
0.0493496
0.0493612
0.0493727
0.049384
0.049395
0.0494056
0.0494157
0.0494251
0.0494336
0.049441
0.0494469
0.0494509
0.0494525
0.0494514
0.0494481
0.0494397
0.0493984
0.0492791
0.0491523
0.0492264
0.0492218
0.0492082
0.0491878
0.0491609
0.0491291
0.049095
0.0490619
0.0490409
0.0490493
0.0490714
0.0490947
0.0491019
0.0490559
0.0489862
0.0490346
0.049042
0.0490175
0.0489866
0.0489741
0.0489983
0.0490424
0.0490868
0.0491249
0.0491555
0.0491794
0.0491978
0.0492116
0.0492215
0.0492279
0.0492315
0.0492326
0.0492316
0.049229
0.0492252
0.0492203
0.0492149
0.0492089
0.0492028
0.0491966
0.0491905
0.0491845
0.0491788
0.0491735
0.0491685
0.049164
0.04916
0.0491565
0.0491536
0.0491512
0.0491494
0.0491482
0.0491475
0.0491474
0.049148
0.0491491
0.0491508
0.049153
0.0491558
0.0491592
0.049163
0.0491675
0.0491724
0.0491779
0.0491838
0.0491903
0.0491972
0.0492047
0.0492126
0.049221
0.0492298
0.0492391
0.0492488
0.0492589
0.0492693
0.0492801
0.0492913
0.0493027
0.0493143
0.0493262
0.0493383
0.0493504
0.0493626
0.0493748
0.0493869
0.0493988
0.0494104
0.0494216
0.0494323
0.0494422
0.0494511
0.0494587
0.0494644
0.0494678
0.0494681
0.0494648
0.0494536
0.0494034
0.0492537
0.0491514
0.0492356
0.0492298
0.0492158
0.0491945
0.0491663
0.0491321
0.0490947
0.0490593
0.0490343
0.0490318
0.0490515
0.0490782
0.0490907
0.0490487
0.048961
0.0490046
0.0490229
0.0489976
0.0489561
0.0489257
0.048966
0.0490191
0.0490692
0.0491112
0.0491442
0.0491693
0.0491881
0.049202
0.0492119
0.0492184
0.049222
0.0492232
0.0492224
0.04922
0.0492164
0.0492118
0.0492065
0.0492008
0.0491948
0.0491888
0.0491829
0.0491771
0.0491716
0.0491664
0.0491616
0.0491573
0.0491534
0.0491501
0.0491473
0.049145
0.0491434
0.0491423
0.0491417
0.0491418
0.0491425
0.0491437
0.0491455
0.0491478
0.0491508
0.0491542
0.0491582
0.0491628
0.0491678
0.0491734
0.0491795
0.049186
0.0491931
0.0492007
0.0492088
0.0492173
0.0492263
0.0492357
0.0492456
0.0492559
0.0492666
0.0492777
0.0492891
0.0493008
0.0493127
0.049325
0.0493374
0.0493499
0.0493625
0.0493752
0.0493879
0.0494004
0.0494127
0.0494247
0.0494362
0.049447
0.049457
0.0494656
0.0494726
0.0494772
0.0494785
0.0494753
0.049462
0.0494039
0.0492254
0.049153
0.0492458
0.0492405
0.0492286
0.0492093
0.0491825
0.0491487
0.0491101
0.0490716
0.049041
0.0490281
0.0490392
0.0490618
0.0490778
0.0490459
0.0489487
0.0489838
0.0490052
0.0489857
0.0489414
0.0489228
0.0489521
0.0490051
0.0490589
0.0491033
0.0491369
0.0491618
0.04918
0.0491933
0.0492027
0.0492089
0.0492123
0.0492135
0.0492127
0.0492104
0.0492069
0.0492025
0.0491974
0.049192
0.0491863
0.0491805
0.0491748
0.0491692
0.0491639
0.049159
0.0491544
0.0491502
0.0491465
0.0491434
0.0491407
0.0491386
0.0491371
0.0491362
0.0491358
0.049136
0.0491368
0.0491381
0.04914
0.0491425
0.0491455
0.0491491
0.0491532
0.0491578
0.0491629
0.0491686
0.0491748
0.0491814
0.0491886
0.0491962
0.0492044
0.049213
0.0492222
0.0492318
0.0492418
0.0492523
0.0492631
0.0492744
0.049286
0.049298
0.0493103
0.0493228
0.0493355
0.0493484
0.0493614
0.0493745
0.0493875
0.0494005
0.0494133
0.0494258
0.0494379
0.0494493
0.0494599
0.0494693
0.049477
0.0494824
0.0494844
0.0494812
0.0494663
0.0494013
0.0491956
0.049156
0.0492551
0.0492517
0.0492438
0.0492292
0.0492067
0.0491764
0.0491393
0.0490987
0.0490609
0.0490351
0.0490329
0.0490467
0.049061
0.0490435
0.0489473
0.0489736
0.0489922
0.0489763
0.0489376
0.0489269
0.0489585
0.0490108
0.0490628
0.0491047
0.0491356
0.0491579
0.0491741
0.0491859
0.0491942
0.0491996
0.0492026
0.0492035
0.0492026
0.0492003
0.0491969
0.0491927
0.0491878
0.0491826
0.0491772
0.0491717
0.0491662
0.049161
0.0491559
0.0491512
0.0491469
0.0491429
0.0491394
0.0491365
0.049134
0.0491321
0.0491307
0.0491299
0.0491297
0.0491301
0.049131
0.0491325
0.0491345
0.0491371
0.0491402
0.0491438
0.049148
0.0491527
0.0491579
0.0491636
0.0491698
0.0491765
0.0491837
0.0491915
0.0491997
0.0492084
0.0492176
0.0492273
0.0492374
0.049248
0.049259
0.0492705
0.0492823
0.0492945
0.049307
0.0493197
0.0493327
0.0493459
0.0493592
0.0493726
0.049386
0.0493993
0.0494125
0.0494254
0.0494378
0.0494497
0.0494607
0.0494705
0.0494787
0.0494846
0.049487
0.0494838
0.0494677
0.0493964
0.0491648
0.049159
0.0492624
0.0492612
0.0492582
0.0492501
0.0492351
0.0492121
0.0491808
0.0491425
0.0491007
0.0490622
0.0490378
0.0490369
0.0490439
0.0490369
0.0489547
0.048973
0.0489851
0.0489688
0.0489399
0.0489451
0.0489849
0.0490355
0.0490809
0.0491154
0.0491401
0.0491577
0.0491706
0.04918
0.0491867
0.049191
0.0491932
0.0491936
0.0491924
0.04919
0.0491866
0.0491825
0.0491779
0.0491729
0.0491678
0.0491626
0.0491575
0.0491525
0.0491478
0.0491433
0.0491392
0.0491355
0.0491322
0.0491295
0.0491272
0.0491255
0.0491243
0.0491237
0.0491236
0.0491241
0.0491251
0.0491267
0.0491289
0.0491316
0.0491348
0.0491385
0.0491427
0.0491475
0.0491527
0.0491585
0.0491647
0.0491714
0.0491787
0.0491864
0.0491946
0.0492034
0.0492126
0.0492223
0.0492326
0.0492432
0.0492544
0.0492659
0.0492779
0.0492902
0.0493029
0.0493159
0.0493292
0.0493426
0.0493562
0.0493698
0.0493835
0.0493971
0.0494105
0.0494237
0.0494364
0.0494485
0.0494597
0.0494698
0.0494783
0.0494845
0.0494871
0.0494839
0.0494667
0.0493899
0.0491334
0.0491614
0.0492678
0.0492678
0.0492686
0.0492671
0.0492611
0.0492488
0.0492287
0.0491999
0.0491624
0.0491185
0.0490745
0.0490486
0.0490389
0.0490292
0.0489717
0.0489798
0.0489844
0.0489674
0.0489563
0.0489861
0.0490326
0.049076
0.0491092
0.0491325
0.0491485
0.0491602
0.0491689
0.0491755
0.0491801
0.049183
0.0491842
0.0491839
0.0491823
0.0491798
0.0491763
0.0491723
0.0491679
0.0491632
0.0491584
0.0491535
0.0491487
0.0491441
0.0491397
0.0491355
0.0491316
0.0491282
0.0491251
0.0491226
0.0491205
0.049119
0.0491179
0.0491175
0.0491176
0.0491182
0.0491194
0.0491211
0.0491233
0.0491261
0.0491294
0.0491332
0.0491375
0.0491423
0.0491475
0.0491533
0.0491595
0.0491662
0.0491735
0.0491812
0.0491894
0.0491981
0.0492074
0.0492171
0.0492273
0.0492381
0.0492492
0.0492609
0.049273
0.0492854
0.0492983
0.0493114
0.0493248
0.0493385
0.0493523
0.0493662
0.04938
0.0493939
0.0494075
0.0494208
0.0494337
0.049446
0.0494574
0.0494676
0.0494762
0.0494825
0.0494852
0.0494819
0.0494638
0.0493819
0.0491016
0.049163
0.0492721
0.049272
0.0492743
0.0492765
0.0492775
0.0492757
0.0492695
0.0492567
0.0492351
0.0492031
0.0491603
0.0491104
0.0490753
0.0490485
0.0490047
0.0489962
0.0489974
0.0489916
0.0490184
0.049062
0.0490991
0.0491247
0.0491406
0.0491507
0.0491579
0.0491635
0.0491682
0.0491719
0.0491744
0.0491757
0.0491757
0.0491747
0.0491726
0.0491698
0.0491663
0.0491624
0.0491582
0.0491538
0.0491493
0.0491448
0.0491404
0.0491361
0.0491319
0.049128
0.0491245
0.0491212
0.0491184
0.049116
0.0491141
0.0491127
0.0491119
0.0491115
0.0491118
0.0491125
0.0491138
0.0491156
0.049118
0.0491208
0.0491242
0.049128
0.0491323
0.0491371
0.0491424
0.0491481
0.0491543
0.049161
0.0491682
0.0491759
0.0491841
0.0491927
0.0492019
0.0492116
0.0492219
0.0492326
0.0492438
0.0492555
0.0492676
0.0492801
0.0492931
0.0493063
0.0493199
0.0493337
0.0493477
0.0493617
0.0493758
0.0493897
0.0494035
0.049417
0.04943
0.0494423
0.0494538
0.0494641
0.0494727
0.049479
0.0494818
0.0494783
0.0494593
0.0493727
0.0490696
0.049164
0.049276
0.0492751
0.0492776
0.0492809
0.0492842
0.0492874
0.0492899
0.0492906
0.0492878
0.0492786
0.0492592
0.0492248
0.04918
0.0491361
0.0490866
0.0490498
0.0490605
0.0490872
0.0491299
0.0491537
0.0491637
0.0491662
0.0491658
0.0491653
0.0491656
0.0491666
0.0491679
0.0491689
0.0491694
0.049169
0.0491679
0.049166
0.0491635
0.0491604
0.0491569
0.0491531
0.0491492
0.0491451
0.049141
0.0491368
0.0491327
0.0491287
0.0491249
0.0491213
0.0491179
0.0491149
0.0491122
0.04911
0.0491083
0.049107
0.0491063
0.0491061
0.0491064
0.0491073
0.0491087
0.0491106
0.049113
0.0491159
0.0491193
0.0491231
0.0491274
0.0491322
0.0491375
0.0491432
0.0491493
0.049156
0.0491631
0.0491707
0.0491788
0.0491874
0.0491965
0.0492061
0.0492163
0.049227
0.0492381
0.0492498
0.0492619
0.0492745
0.0492875
0.0493008
0.0493145
0.0493284
0.0493424
0.0493566
0.0493708
0.0493849
0.0493988
0.0494123
0.0494254
0.0494378
0.0494492
0.0494595
0.0494681
0.0494743
0.049477
0.0494734
0.0494536
0.0493624
0.0490374
0.0491645
0.0492799
0.0492779
0.0492802
0.0492837
0.0492874
0.0492915
0.0492959
0.0493007
0.0493057
0.0493103
0.0493135
0.0493122
0.0492989
0.049274
0.049233
0.0491917
0.0492084
0.0492318
0.0492286
0.0492159
0.0492019
0.0491898
0.0491808
0.0491748
0.0491712
0.049169
0.0491676
0.0491663
0.0491648
0.049163
0.0491607
0.049158
0.049155
0.0491518
0.0491484
0.0491448
0.0491411
0.0491374
0.0491337
0.0491299
0.0491262
0.0491225
0.0491189
0.0491155
0.0491124
0.0491095
0.049107
0.0491048
0.0491032
0.049102
0.0491013
0.0491012
0.0491016
0.0491026
0.0491041
0.0491061
0.0491086
0.0491115
0.049115
0.0491188
0.0491232
0.0491279
0.0491331
0.0491388
0.0491449
0.0491514
0.0491584
0.0491659
0.0491739
0.0491823
0.0491913
0.0492008
0.0492109
0.0492214
0.0492325
0.0492441
0.0492562
0.0492687
0.0492817
0.049295
0.0493087
0.0493227
0.0493368
0.0493511
0.0493653
0.0493795
0.0493934
0.049407
0.0494201
0.0494325
0.0494439
0.0494541
0.0494626
0.0494687
0.0494713
0.0494674
0.0494468
0.0493513
0.0490049
0.0491645
0.0492836
0.0492803
0.0492822
0.0492858
0.0492897
0.0492938
0.0492982
0.049303
0.0493083
0.0493138
0.0493195
0.0493248
0.0493294
0.0493319
0.0493279
0.0493157
0.0493044
0.0492813
0.0492559
0.0492333
0.0492146
0.0492
0.049189
0.0491811
0.0491753
0.0491708
0.0491672
0.0491639
0.0491607
0.0491574
0.0491542
0.0491509
0.0491476
0.0491443
0.049141
0.0491377
0.0491345
0.0491312
0.0491278
0.0491244
0.049121
0.0491176
0.0491143
0.0491111
0.049108
0.0491052
0.0491027
0.0491007
0.049099
0.0490979
0.0490973
0.0490973
0.0490978
0.0490988
0.0491004
0.0491025
0.049105
0.0491081
0.0491116
0.0491154
0.0491198
0.0491245
0.0491296
0.0491352
0.0491412
0.0491476
0.0491545
0.0491618
0.0491696
0.0491778
0.0491866
0.0491959
0.0492058
0.0492162
0.0492271
0.0492385
0.0492505
0.0492629
0.0492758
0.0492891
0.0493028
0.0493167
0.0493309
0.0493452
0.0493595
0.0493737
0.0493877
0.0494013
0.0494143
0.0494267
0.049438
0.0494481
0.0494565
0.0494624
0.0494648
0.0494607
0.0494392
0.0493393
0.0489723
0.049164
0.0492872
0.0492825
0.0492838
0.0492875
0.0492916
0.0492956
0.0492996
0.0493037
0.0493078
0.0493117
0.0493153
0.0493184
0.0493207
0.0493217
0.0493197
0.049312
0.0492962
0.0492761
0.0492553
0.0492361
0.0492196
0.0492058
0.0491947
0.0491857
0.0491783
0.049172
0.0491664
0.0491614
0.0491567
0.0491524
0.0491484
0.0491447
0.0491413
0.0491381
0.0491351
0.0491322
0.0491294
0.0491266
0.0491236
0.0491206
0.0491175
0.0491144
0.0491112
0.0491081
0.0491051
0.0491023
0.0490998
0.0490977
0.0490961
0.049095
0.0490944
0.0490945
0.049095
0.0490962
0.0490979
0.0491001
0.0491028
0.0491059
0.0491094
0.0491134
0.0491177
0.0491224
0.0491275
0.049133
0.0491388
0.049145
0.0491517
0.0491588
0.0491663
0.0491743
0.0491828
0.0491918
0.0492014
0.0492115
0.0492221
0.0492333
0.0492451
0.0492574
0.0492701
0.0492833
0.0492969
0.0493108
0.0493249
0.0493392
0.0493535
0.0493677
0.0493816
0.0493952
0.0494082
0.0494205
0.0494318
0.0494417
0.0494499
0.0494557
0.0494579
0.0494533
0.0494309
0.0493268
0.0489397
0.0491632
0.0492904
0.0492844
0.049285
0.0492888
0.0492927
0.0492965
0.0493
0.0493031
0.0493057
0.0493078
0.0493094
0.0493102
0.0493102
0.0493086
0.0493045
0.0492967
0.0492845
0.0492692
0.0492529
0.0492371
0.0492228
0.04921
0.0491989
0.049189
0.0491802
0.0491723
0.0491651
0.0491586
0.0491528
0.0491478
0.0491433
0.0491395
0.0491363
0.0491334
0.0491309
0.0491285
0.0491262
0.0491238
0.0491213
0.0491186
0.0491158
0.0491128
0.0491097
0.0491066
0.0491036
0.0491008
0.0490983
0.0490962
0.0490945
0.0490934
0.0490929
0.049093
0.0490937
0.049095
0.0490969
0.0490993
0.0491022
0.0491054
0.0491091
0.0491131
0.0491175
0.0491222
0.0491272
0.0491325
0.0491381
0.0491441
0.0491505
0.0491573
0.0491644
0.049172
0.0491801
0.0491888
0.0491979
0.0492077
0.049218
0.0492288
0.0492403
0.0492523
0.0492648
0.0492778
0.0492912
0.049305
0.049319
0.0493332
0.0493475
0.0493616
0.0493755
0.0493891
0.049402
0.0494142
0.0494253
0.0494351
0.0494431
0.0494487
0.0494506
0.0494456
0.0494222
0.0493139
0.048907
0.0491619
0.049293
0.0492858
0.0492858
0.0492892
0.0492928
0.0492961
0.0492988
0.0493007
0.0493018
0.0493022
0.049302
0.0493012
0.0492995
0.0492966
0.0492921
0.0492851
0.0492755
0.0492638
0.0492509
0.0492378
0.0492251
0.049213
0.0492015
0.0491907
0.0491807
0.0491714
0.049163
0.0491555
0.0491491
0.0491437
0.0491393
0.0491357
0.0491328
0.0491305
0.0491285
0.0491266
0.0491248
0.0491229
0.0491208
0.0491184
0.0491157
0.0491129
0.0491098
0.0491067
0.0491037
0.0491008
0.0490982
0.0490961
0.0490944
0.0490934
0.049093
0.0490933
0.0490942
0.0490957
0.0490979
0.0491005
0.0491036
0.0491072
0.049111
0.0491152
0.0491196
0.0491242
0.0491291
0.0491343
0.0491397
0.0491454
0.0491514
0.0491577
0.0491644
0.0491715
0.0491791
0.0491872
0.0491958
0.049205
0.0492148
0.0492252
0.0492363
0.0492479
0.0492601
0.0492728
0.049286
0.0492996
0.0493135
0.0493275
0.0493417
0.0493557
0.0493696
0.049383
0.0493959
0.0494079
0.0494189
0.0494285
0.0494363
0.0494416
0.0494432
0.0494378
0.0494132
0.0493006
0.0488744
0.0491603
0.049295
0.0492867
0.0492861
0.0492887
0.0492916
0.0492939
0.0492952
0.0492957
0.0492956
0.0492949
0.0492938
0.0492923
0.0492902
0.0492874
0.0492833
0.0492776
0.0492701
0.0492607
0.0492501
0.0492386
0.0492266
0.0492145
0.0492024
0.0491907
0.0491795
0.0491693
0.0491601
0.0491523
0.0491457
0.0491404
0.0491363
0.0491332
0.0491309
0.0491292
0.0491278
0.0491265
0.0491252
0.0491237
0.0491219
0.0491198
0.0491173
0.0491145
0.0491115
0.0491084
0.0491052
0.0491023
0.0490997
0.0490976
0.049096
0.0490951
0.0490949
0.0490954
0.0490967
0.0490986
0.0491011
0.0491042
0.0491076
0.0491114
0.0491155
0.0491198
0.0491243
0.0491289
0.0491337
0.0491387
0.0491438
0.0491491
0.0491547
0.0491605
0.0491666
0.0491731
0.04918
0.0491874
0.0491953
0.0492039
0.049213
0.0492228
0.0492333
0.0492444
0.0492562
0.0492685
0.0492814
0.0492947
0.0493083
0.0493222
0.0493362
0.0493501
0.0493639
0.0493772
0.0493899
0.0494018
0.0494127
0.0494221
0.0494297
0.0494347
0.0494359
0.0494299
0.0494042
0.0492871
0.0488421
0.0491582
0.0492962
0.0492869
0.0492857
0.049287
0.0492884
0.0492888
0.0492889
0.0492886
0.0492882
0.0492876
0.0492868
0.0492857
0.0492842
0.049282
0.0492788
0.0492741
0.0492678
0.0492597
0.0492499
0.0492389
0.0492268
0.0492141
0.0492012
0.0491886
0.0491768
0.0491661
0.0491568
0.049149
0.0491428
0.0491381
0.0491346
0.0491322
0.0491306
0.0491295
0.0491287
0.0491279
0.0491271
0.0491259
0.0491245
0.0491225
0.0491202
0.0491175
0.0491145
0.0491113
0.0491082
0.0491053
0.0491027
0.0491007
0.0490993
0.0490987
0.0490988
0.0490998
0.0491015
0.0491039
0.0491069
0.0491103
0.0491141
0.0491182
0.0491225
0.0491269
0.0491314
0.049136
0.0491406
0.0491453
0.0491501
0.0491551
0.0491601
0.0491654
0.0491709
0.0491766
0.0491828
0.0491894
0.0491966
0.0492043
0.0492126
0.0492217
0.0492315
0.049242
0.0492532
0.049265
0.0492775
0.0492904
0.0493038
0.0493174
0.0493312
0.049345
0.0493586
0.0493718
0.0493844
0.0493961
0.0494068
0.049416
0.0494233
0.049428
0.0494288
0.0494223
0.0493952
0.0492737
0.0488099
0.0491556
0.0492966
0.0492863
0.0492841
0.0492835
0.0492823
0.0492811
0.0492812
0.0492817
0.0492823
0.0492828
0.049283
0.0492829
0.0492821
0.0492806
0.0492779
0.0492736
0.0492676
0.0492595
0.0492495
0.0492379
0.049225
0.0492115
0.0491979
0.0491848
0.0491728
0.0491622
0.0491533
0.0491462
0.0491407
0.0491368
0.0491341
0.0491324
0.0491315
0.049131
0.0491307
0.0491304
0.04913
0.0491293
0.0491281
0.0491264
0.0491242
0.0491215
0.0491186
0.0491155
0.0491124
0.0491096
0.0491072
0.0491054
0.0491044
0.0491042
0.0491049
0.0491064
0.0491086
0.0491115
0.0491149
0.0491186
0.0491227
0.0491269
0.0491312
0.0491355
0.0491399
0.0491443
0.0491487
0.0491531
0.0491576
0.0491622
0.0491668
0.0491715
0.0491765
0.0491816
0.0491871
0.0491929
0.0491992
0.0492061
0.0492136
0.0492218
0.0492308
0.0492406
0.0492512
0.0492624
0.0492744
0.0492869
0.0493
0.0493133
0.0493269
0.0493405
0.0493539
0.0493669
0.0493793
0.0493909
0.0494014
0.0494104
0.0494174
0.0494217
0.0494221
0.049415
0.0493865
0.0492603
0.0487781
0.0491526
0.0492963
0.0492849
0.0492808
0.0492767
0.0492731
0.049273
0.0492748
0.0492772
0.0492795
0.0492815
0.049283
0.0492837
0.0492836
0.0492823
0.0492795
0.0492748
0.0492679
0.0492587
0.0492476
0.0492347
0.0492208
0.0492065
0.0491925
0.0491795
0.0491679
0.0491581
0.0491502
0.0491441
0.0491396
0.0491365
0.0491346
0.0491336
0.0491332
0.0491332
0.0491335
0.0491337
0.0491337
0.0491333
0.0491324
0.0491309
0.0491289
0.0491264
0.0491235
0.0491205
0.0491176
0.049115
0.049113
0.0491116
0.0491111
0.0491115
0.0491127
0.0491147
0.0491174
0.0491206
0.0491242
0.049128
0.0491319
0.0491359
0.0491398
0.0491438
0.0491478
0.0491519
0.0491559
0.0491601
0.0491643
0.0491685
0.0491729
0.0491773
0.0491819
0.0491867
0.0491917
0.0491969
0.0492026
0.0492088
0.0492155
0.049223
0.0492312
0.0492403
0.0492501
0.0492608
0.0492722
0.0492843
0.0492969
0.04931
0.0493232
0.0493366
0.0493498
0.0493626
0.0493749
0.0493863
0.0493965
0.0494053
0.049412
0.049416
0.049416
0.0494081
0.0493782
0.0492472
0.0487468
0.049149
0.0492951
0.0492826
0.0492743
0.0492646
0.0492627
0.0492659
0.0492707
0.0492758
0.0492803
0.0492839
0.0492866
0.049288
0.0492879
0.0492861
0.0492821
0.0492758
0.049267
0.049256
0.049243
0.0492287
0.0492139
0.0491993
0.0491856
0.0491734
0.0491629
0.0491543
0.0491477
0.0491427
0.0491392
0.0491369
0.0491356
0.0491351
0.0491353
0.0491358
0.0491365
0.0491373
0.0491377
0.0491377
0.0491371
0.0491359
0.0491341
0.0491317
0.049129
0.0491263
0.0491236
0.0491214
0.0491198
0.049119
0.049119
0.0491199
0.0491216
0.0491239
0.0491267
0.0491298
0.0491331
0.0491365
0.0491398
0.0491431
0.0491464
0.0491497
0.0491531
0.0491566
0.0491603
0.0491641
0.049168
0.0491722
0.0491765
0.0491809
0.0491855
0.0491903
0.0491952
0.0492003
0.0492057
0.0492115
0.0492177
0.0492246
0.0492323
0.0492407
0.0492499
0.04926
0.0492709
0.0492825
0.0492947
0.0493074
0.0493204
0.0493335
0.0493465
0.0493591
0.0493712
0.0493824
0.0493924
0.0494009
0.0494074
0.049411
0.0494104
0.0494018
0.0493703
0.0492345
0.048716
0.0491441
0.0492919
0.0492784
0.0492579
0.0492491
0.0492533
0.0492616
0.0492706
0.0492788
0.0492856
0.0492906
0.0492938
0.049295
0.0492938
0.0492902
0.0492838
0.0492748
0.0492633
0.0492499
0.0492351
0.0492199
0.0492049
0.0491907
0.0491781
0.0491673
0.0491584
0.0491513
0.0491459
0.0491419
0.0491391
0.0491374
0.0491366
0.0491365
0.0491372
0.0491383
0.0491396
0.0491408
0.0491418
0.0491422
0.0491419
0.0491409
0.0491393
0.0491372
0.0491347
0.0491323
0.04913
0.0491282
0.0491271
0.0491268
0.0491272
0.0491284
0.0491301
0.0491323
0.0491346
0.0491371
0.0491396
0.049142
0.0491444
0.0491467
0.049149
0.0491514
0.049154
0.0491569
0.0491601
0.0491636
0.0491675
0.0491716
0.0491761
0.0491809
0.0491859
0.0491911
0.0491964
0.0492019
0.0492075
0.0492133
0.0492196
0.0492262
0.0492335
0.0492415
0.0492503
0.04926
0.0492704
0.0492816
0.0492934
0.0493058
0.0493184
0.0493313
0.049344
0.0493565
0.0493683
0.0493793
0.0493891
0.0493973
0.0494035
0.0494067
0.0494056
0.0493962
0.0493631
0.0492221
0.0486857
0.0491387
0.0492689
0.049264
0.0492327
0.0492365
0.0492493
0.0492639
0.0492773
0.0492881
0.0492962
0.0493014
0.0493038
0.0493031
0.0492992
0.0492921
0.0492821
0.0492696
0.0492553
0.0492399
0.0492242
0.0492089
0.0491946
0.0491819
0.0491709
0.0491619
0.0491546
0.0491488
0.0491444
0.049141
0.0491386
0.0491372
0.0491368
0.0491373
0.0491385
0.0491403
0.0491422
0.0491441
0.0491456
0.0491464
0.0491464
0.0491457
0.0491442
0.0491423
0.0491401
0.0491379
0.0491361
0.0491347
0.0491339
0.0491338
0.0491342
0.0491352
0.0491364
0.0491379
0.0491393
0.0491407
0.0491419
0.0491431
0.0491442
0.0491454
0.0491467
0.0491482
0.0491501
0.0491525
0.0491553
0.0491587
0.0491626
0.049167
0.0491719
0.0491773
0.0491831
0.0491891
0.0491952
0.0492015
0.0492077
0.0492141
0.0492206
0.0492275
0.0492348
0.0492427
0.0492512
0.0492605
0.0492706
0.0492814
0.0492929
0.049305
0.0493174
0.04933
0.0493425
0.0493547
0.0493663
0.0493771
0.0493867
0.0493946
0.0494004
0.0494033
0.0494017
0.0493914
0.0493565
0.0492104
0.0486561
0.0491402
0.0492302
0.0492181
0.0492173
0.0492347
0.0492566
0.0492765
0.0492923
0.0493037
0.049311
0.0493143
0.0493137
0.049309
0.0493006
0.049289
0.049275
0.0492595
0.0492432
0.0492269
0.0492114
0.0491971
0.0491845
0.0491737
0.0491648
0.0491574
0.0491513
0.0491463
0.0491422
0.0491391
0.0491369
0.0491359
0.049136
0.0491372
0.0491392
0.0491417
0.0491443
0.0491468
0.0491487
0.0491499
0.0491502
0.0491496
0.0491483
0.0491465
0.0491445
0.0491426
0.0491409
0.0491396
0.0491388
0.0491385
0.0491385
0.0491387
0.0491389
0.0491392
0.0491393
0.0491393
0.0491392
0.0491391
0.0491391
0.0491393
0.0491398
0.0491408
0.0491424
0.0491446
0.0491474
0.0491509
0.0491552
0.0491602
0.0491659
0.0491721
0.0491788
0.0491857
0.0491928
0.0491999
0.049207
0.0492141
0.0492212
0.0492284
0.049236
0.0492439
0.0492525
0.0492617
0.0492715
0.0492821
0.0492934
0.0493051
0.0493173
0.0493296
0.0493419
0.0493539
0.0493653
0.0493759
0.0493852
0.0493929
0.0493983
0.0494008
0.0493986
0.0493875
0.0493508
0.0491992
0.0486272
0.0491501
0.0491974
0.0491967
0.0492201
0.0492509
0.0492785
0.0492995
0.049314
0.0493228
0.0493264
0.0493253
0.0493194
0.0493092
0.0492956
0.0492798
0.0492627
0.0492454
0.0492285
0.0492127
0.0491985
0.0491861
0.0491756
0.0491668
0.0491595
0.0491532
0.0491476
0.0491427
0.0491386
0.0491355
0.0491337
0.0491332
0.049134
0.049136
0.0491389
0.0491421
0.0491455
0.0491485
0.0491508
0.0491522
0.0491526
0.0491521
0.0491509
0.0491492
0.0491472
0.0491453
0.0491435
0.049142
0.0491407
0.0491396
0.0491387
0.0491377
0.0491367
0.0491355
0.0491343
0.049133
0.0491318
0.0491307
0.0491301
0.0491299
0.0491302
0.0491313
0.0491332
0.0491359
0.0491394
0.0491438
0.0491489
0.0491549
0.0491613
0.0491683
0.0491756
0.0491831
0.0491908
0.0491986
0.0492063
0.049214
0.0492216
0.0492294
0.0492373
0.0492455
0.0492542
0.0492633
0.0492732
0.0492836
0.0492947
0.0493062
0.0493181
0.0493302
0.0493423
0.0493541
0.0493653
0.0493756
0.0493847
0.0493921
0.0493972
0.0493992
0.0493965
0.0493845
0.0493458
0.0491887
0.0485991
0.0491647
0.0491807
0.0492151
0.0492543
0.0492878
0.0493123
0.0493281
0.0493369
0.0493397
0.0493373
0.04933
0.0493181
0.0493025
0.0492848
0.0492662
0.0492476
0.0492298
0.0492136
0.0491992
0.0491869
0.0491767
0.0491681
0.0491607
0.0491541
0.0491479
0.0491422
0.049137
0.0491328
0.04913
0.0491287
0.049129
0.0491307
0.0491336
0.0491373
0.0491413
0.0491452
0.0491485
0.0491511
0.0491526
0.0491531
0.0491526
0.0491514
0.0491496
0.0491474
0.0491452
0.049143
0.0491408
0.0491387
0.0491366
0.0491345
0.0491322
0.0491299
0.0491276
0.0491252
0.0491231
0.0491213
0.04912
0.0491193
0.0491194
0.0491204
0.0491223
0.0491252
0.049129
0.0491338
0.0491394
0.0491457
0.0491525
0.0491595
0.0491667
0.0491742
0.049182
0.0491899
0.049198
0.0492062
0.0492143
0.0492224
0.0492306
0.0492389
0.0492474
0.0492563
0.0492656
0.0492755
0.0492859
0.0492968
0.0493082
0.04932
0.0493319
0.0493437
0.0493553
0.0493663
0.0493764
0.0493853
0.0493924
0.0493972
0.0493988
0.0493954
0.0493825
0.0493418
0.049179
0.0485718
0.0491792
0.0492406
0.0492828
0.0493128
0.0493336
0.0493466
0.0493529
0.0493534
0.049349
0.0493401
0.0493273
0.0493106
0.0492916
0.0492713
0.0492511
0.0492319
0.0492147
0.0491997
0.0491873
0.0491771
0.0491686
0.0491611
0.0491542
0.0491473
0.0491405
0.0491342
0.0491288
0.0491248
0.0491225
0.049122
0.0491233
0.0491259
0.0491297
0.0491341
0.0491386
0.0491428
0.0491464
0.049149
0.0491505
0.049151
0.0491505
0.0491491
0.0491471
0.0491446
0.0491419
0.0491391
0.0491361
0.049133
0.0491298
0.0491265
0.0491232
0.0491199
0.0491168
0.049114
0.0491117
0.0491099
0.049109
0.049109
0.04911
0.049112
0.049115
0.049119
0.0491239
0.0491297
0.0491362
0.0491434
0.0491508
0.0491582
0.0491658
0.0491735
0.0491816
0.0491898
0.0491982
0.0492066
0.0492151
0.0492236
0.0492322
0.0492409
0.0492497
0.0492589
0.0492684
0.0492784
0.0492888
0.0492997
0.0493111
0.0493227
0.0493345
0.0493462
0.0493576
0.0493684
0.0493783
0.0493869
0.0493937
0.0493982
0.0493994
0.0493954
0.0493816
0.0493388
0.0491702
0.0485454
0.0493359
0.0493525
0.0493577
0.0493623
0.0493666
0.0493684
0.049366
0.0493594
0.0493493
0.0493365
0.0493206
0.0493013
0.0492797
0.0492574
0.0492361
0.049217
0.0492008
0.0491876
0.0491771
0.0491684
0.0491607
0.0491532
0.0491455
0.0491377
0.0491302
0.0491235
0.0491182
0.0491147
0.0491132
0.0491136
0.0491158
0.0491193
0.0491236
0.0491285
0.0491332
0.0491376
0.0491412
0.0491438
0.0491453
0.0491457
0.0491452
0.0491437
0.0491415
0.0491387