/*--------------------------------*- C++ -*----------------------------------*\
| =========                 |                                                 |
| \\      /  F ield         | OpenFOAM: The Open Source CFD Toolbox           |
|  \\    /   O peration     | Version:  4.1                                   |
|   \\  /    A nd           | Web:      www.OpenFOAM.org                      |
|    \\/     M anipulation  |                                                 |
\*---------------------------------------------------------------------------*/
FoamFile
{
    version     2.0;
    format      ascii;
    class       volVectorField;
    location    "1560";
    object      U;
}
// * * * * * * * * * * * * * * * * * * * * * * * * * * * * * * * * * * * * * //

dimensions      [0 1 -1 0 0 0 0];

internalField   nonuniform List<vector> 
5000
(
(-0.00271402 0.00109457 0)
(-0.00172073 -0.0020743 0)
(0.00144454 -0.00239043 0)
(0.00366923 -0.00172833 0)
(0.00564725 -0.00131062 0)
(0.00727312 -0.000988215 0)
(0.00852415 -0.000685549 0)
(0.00936724 -0.000381921 0)
(0.00976115 -9.0906e-05 0)
(0.00967576 0.000164383 0)
(0.00913557 0.000391084 0)
(0.00817027 0.000614809 0)
(0.00673776 0.000922764 0)
(0.00475788 0.00158644 0)
(0.00173799 0.00313991 0)
(-0.00589258 0.00296247 0)
(-0.0086086 0.00148941 0)
(-0.0106284 0.000846848 0)
(-0.0120193 0.000486576 0)
(-0.0128288 0.0001889 0)
(-0.0130423 -0.000106942 0)
(-0.0126468 -0.000413999 0)
(-0.0117046 -0.000695671 0)
(-0.0103347 -0.00089243 0)
(-0.00870601 -0.000995267 0)
(-0.00696528 -0.00103009 0)
(-0.00520992 -0.00103713 0)
(-0.00348741 -0.00106756 0)
(-0.00180445 -0.00118648 0)
(0.000134038 -0.00107389 0)
(0.00158404 -0.000903032 0)
(0.00297395 -0.000773047 0)
(0.00426242 -0.000675897 0)
(0.00542953 -0.000596575 0)
(0.00648672 -0.000527531 0)
(0.00744639 -0.000466196 0)
(0.00831669 -0.000411471 0)
(0.00910425 -0.000362587 0)
(0.00981547 -0.000318858 0)
(0.0104566 -0.000279657 0)
(0.0110335 -0.000244423 0)
(0.0115513 -0.000212614 0)
(0.0120146 -0.000183683 0)
(0.0124274 -0.000157107 0)
(0.0127931 -0.000132438 0)
(0.0131144 -0.000109307 0)
(0.0133934 -8.74162e-05 0)
(0.013632 -6.65228e-05 0)
(0.0138316 -4.64584e-05 0)
(0.0139937 -2.71373e-05 0)
(0.0141193 -8.55237e-06 0)
(0.0142096 9.23396e-06 0)
(0.0142662 2.60687e-05 0)
(0.0142905 4.15949e-05 0)
(0.0142851 5.53096e-05 0)
(0.014254 6.72525e-05 0)
(0.014198 7.80581e-05 0)
(0.0141185 8.80597e-05 0)
(0.0140171 9.72942e-05 0)
(0.0138952 0.000105742 0)
(0.0137547 0.000113381 0)
(0.013597 0.000120204 0)
(0.0134238 0.00012624 0)
(0.0132366 0.000131549 0)
(0.0130368 0.000136217 0)
(0.0128257 0.000140335 0)
(0.0126043 0.000143995 0)
(0.0123736 0.000147287 0)
(0.0121344 0.000150294 0)
(0.0118871 0.000153092 0)
(0.0116322 0.000155741 0)
(0.01137 0.000158284 0)
(0.0111006 0.000160733 0)
(0.0108243 0.000163068 0)
(0.0105412 0.00016523 0)
(0.0102514 0.000167129 0)
(0.00995555 0.000168647 0)
(0.00965405 0.000169643 0)
(0.00934773 0.000169962 0)
(0.00903767 0.000169435 0)
(0.00872524 0.000167875 0)
(0.00841216 0.000165084 0)
(0.00810054 0.000160858 0)
(0.00779288 0.000155008 0)
(0.00749206 0.000147383 0)
(0.00720126 0.00013792 0)
(0.0069238 0.000126726 0)
(0.00666276 0.000114214 0)
(0.00642039 0.000101306 0)
(0.00619703 8.97273e-05 0)
(0.00598945 8.24357e-05 0)
(0.00578835 8.42881e-05 0)
(0.00557438 0.000103191 0)
(0.00531171 0.000151413 0)
(0.00494066 0.000240154 0)
(0.00439421 0.000335953 0)
(0.00372399 0.00026985 0)
(0.0032107 5.62924e-05 0)
(0.00274979 0.000534857 0)
(0.00154073 0.00107857 0)
(-0.00216285 0.00336771 0)
(-0.000357593 -0.00375886 0)
(0.00109308 -0.00384673 0)
(0.00291792 -0.00306677 0)
(0.0045327 -0.00254591 0)
(0.00599602 -0.00208401 0)
(0.00723206 -0.00155532 0)
(0.00815384 -0.000918368 0)
(0.00867821 -0.000214075 0)
(0.00874281 0.000466703 0)
(0.00830911 0.00110608 0)
(0.0074007 0.00175029 0)
(0.00600835 0.00257091 0)
(0.00401633 0.0040245 0)
(0.00201557 0.00666268 0)
(-0.00433294 0.00661552 0)
(-0.00712916 0.00413099 0)
(-0.00949317 0.00270013 0)
(-0.0111236 0.00173294 0)
(-0.0120814 0.000858145 0)
(-0.0123564 -3.93688e-05 0)
(-0.0119357 -0.000944234 0)
(-0.0109506 -0.00174432 0)
(-0.00952986 -0.0022883 0)
(-0.00785324 -0.00257244 0)
(-0.00606442 -0.00266981 0)
(-0.00425936 -0.00266664 0)
(-0.00249135 -0.00264114 0)
(-0.000683231 -0.00264517 0)
(0.000928568 -0.00245867 0)
(0.00239201 -0.0022208 0)
(0.00381554 -0.00201124 0)
(0.00514772 -0.00183403 0)
(0.00637806 -0.0016761 0)
(0.00751195 -0.00153043 0)
(0.00855675 -0.00139515 0)
(0.00951864 -0.00126984 0)
(0.0104032 -0.00115408 0)
(0.0112158 -0.00104737 0)
(0.011962 -0.000949098 0)
(0.0126466 -0.000858582 0)
(0.0132743 -0.000775032 0)
(0.0138491 -0.000697565 0)
(0.0143747 -0.000625288 0)
(0.0148542 -0.00055738 0)
(0.0152902 -0.000493107 0)
(0.0156848 -0.000431826 0)
(0.01604 -0.000373016 0)
(0.0163573 -0.000316305 0)
(0.0166382 -0.000261488 0)
(0.0168838 -0.000208502 0)
(0.0170955 -0.000157418 0)
(0.0172744 -0.000108449 0)
(0.0174216 -6.20286e-05 0)
(0.0175377 -1.86268e-05 0)
(0.017622 2.18259e-05 0)
(0.0176767 5.94364e-05 0)
(0.0177051 9.4393e-05 0)
(0.0177083 0.000127085 0)
(0.0176875 0.000157492 0)
(0.0176442 0.000185561 0)
(0.0175798 0.000211348 0)
(0.0174957 0.000234913 0)
(0.0173929 0.000256408 0)
(0.0172725 0.000276021 0)
(0.0171355 0.000293976 0)
(0.0169826 0.000310516 0)
(0.0168142 0.000325891 0)
(0.016631 0.000340352 0)
(0.0164332 0.00035414 0)
(0.0162209 0.000367469 0)
(0.0159944 0.000380513 0)
(0.0157536 0.000393379 0)
(0.0154986 0.000406099 0)
(0.0152294 0.000418617 0)
(0.0149461 0.000430792 0)
(0.0146487 0.000442406 0)
(0.0143377 0.000453165 0)
(0.0140133 0.000462714 0)
(0.0136765 0.000470635 0)
(0.0133281 0.00047645 0)
(0.0129696 0.000479632 0)
(0.0126024 0.000479632 0)
(0.0122286 0.000475915 0)
(0.0118502 0.000468031 0)
(0.0114696 0.000455726 0)
(0.0110889 0.000439135 0)
(0.0107098 0.000419092 0)
(0.0103329 0.000397587 0)
(0.00995691 0.000378429 0)
(0.0095777 0.000368225 0)
(0.00918648 0.000377775 0)
(0.00876814 0.000423942 0)
(0.00829975 0.000530969 0)
(0.00775114 0.000721405 0)
(0.00709738 0.000957448 0)
(0.00637803 0.00102036 0)
(0.00563165 0.000832761 0)
(0.00447078 0.0016535 0)
(0.00287527 0.00382127 0)
(-0.00175331 0.0047822 0)
(0.000196506 -0.0053248 0)
(0.000734404 -0.00529004 0)
(0.00222685 -0.00464462 0)
(0.00347588 -0.0041036 0)
(0.0047301 -0.00352089 0)
(0.00587772 -0.00277175 0)
(0.0068067 -0.00178834 0)
(0.0073935 -0.000609282 0)
(0.00751047 0.000601395 0)
(0.00706981 0.00175012 0)
(0.00615913 0.00286072 0)
(0.00487979 0.00414397 0)
(0.00311666 0.00619091 0)
(0.00204047 0.00983814 0)
(-0.00290505 0.0104601 0)
(-0.00545995 0.00694309 0)
(-0.00774855 0.00467225 0)
(-0.00944876 0.00303375 0)
(-0.0105372 0.00150196 0)
(-0.010918 -8.88591e-05 0)
(-0.0105246 -0.00166525 0)
(-0.00955243 -0.00303285 0)
(-0.00814002 -0.00392525 0)
(-0.00649358 -0.00437779 0)
(-0.00475615 -0.00453089 0)
(-0.00301408 -0.00452363 0)
(-0.00128585 -0.00444016 0)
(0.000438122 -0.00426204 0)
(0.00189645 -0.00398856 0)
(0.00333612 -0.00368459 0)
(0.00471404 -0.00339658 0)
(0.00601028 -0.0031298 0)
(0.00721855 -0.00288024 0)
(0.00833969 -0.00264553 0)
(0.00937761 -0.00242541 0)
(0.010337 -0.00222012 0)
(0.0112226 -0.00202961 0)
(0.0120397 -0.00185346 0)
(0.012793 -0.00169092 0)
(0.0134875 -0.00154099 0)
(0.0141275 -0.00140242 0)
(0.0147172 -0.00127384 0)
(0.0152601 -0.00115385 0)
(0.0157591 -0.00104115 0)
(0.0162167 -0.000934518 0)
(0.0166352 -0.000832899 0)
(0.0170162 -0.000735451 0)
(0.0173611 -0.000641573 0)
(0.0176711 -0.000550891 0)
(0.0179472 -0.000463234 0)
(0.0181903 -0.000378602 0)
(0.0184014 -0.000297142 0)
(0.018581 -0.000219089 0)
(0.01873 -0.000144639 0)
(0.0188492 -7.38772e-05 0)
(0.0189394 -7.1555e-06 0)
(0.0190001 5.53568e-05 0)
(0.0190346 0.000113744 0)
(0.0190441 0.000168386 0)
(0.0190291 0.000219386 0)
(0.0189912 0.000266845 0)
(0.0189314 0.000311004 0)
(0.0188505 0.000352148 0)
(0.0187496 0.000390618 0)
(0.0186292 0.000426773 0)
(0.01849 0.000460993 0)
(0.0183326 0.000493666 0)
(0.0181572 0.000525167 0)
(0.0179641 0.000555847 0)
(0.0177535 0.000586002 0)
(0.0175256 0.000615857 0)
(0.0172803 0.000645546 0)
(0.0170177 0.00067509 0)
(0.0167378 0.0007044 0)
(0.0164404 0.000733264 0)
(0.0161258 0.000761359 0)
(0.0157938 0.000788246 0)
(0.0154448 0.000813379 0)
(0.0150791 0.000836104 0)
(0.0146973 0.00085568 0)
(0.0143002 0.000871302 0)
(0.0138889 0.000882153 0)
(0.0134646 0.000887485 0)
(0.0130286 0.000886728 0)
(0.0125826 0.00087968 0)
(0.012128 0.000866793 0)
(0.0116658 0.0008496 0)
(0.0111967 0.00083132 0)
(0.0107202 0.000817698 0)
(0.0102346 0.000818125 0)
(0.00973604 0.000847053 0)
(0.00921881 0.000925423 0)
(0.00867561 0.00108016 0)
(0.00809903 0.00133161 0)
(0.00747452 0.00163853 0)
(0.00675275 0.00181747 0)
(0.0057824 0.00190715 0)
(0.0042615 0.00338725 0)
(0.00276373 0.0070382 0)
(-0.00138962 0.00556117 0)
(0.000379812 -0.0062907 0)
(0.000286747 -0.00618988 0)
(0.0013719 -0.00567946 0)
(0.00217175 -0.0051946 0)
(0.00311699 -0.00460671 0)
(0.00406597 -0.00376937 0)
(0.00492649 -0.00256956 0)
(0.00556531 -0.000987498 0)
(0.00583158 0.000749681 0)
(0.00549768 0.00236969 0)
(0.0047229 0.00384903 0)
(0.00372416 0.00542387 0)
(0.00238944 0.00775885 0)
(0.00199113 0.0120724 0)
(-0.0016052 0.0137736 0)
(-0.0039376 0.00953935 0)
(-0.00596872 0.00659693 0)
(-0.00759434 0.0044287 0)
(-0.0087335 0.00233252 0)
(-0.0091736 4.33184e-05 0)
(-0.00875001 -0.00230867 0)
(-0.00781075 -0.00427347 0)
(-0.00644601 -0.00548666 0)
(-0.00488179 -0.0060775 0)
(-0.00325556 -0.00626843 0)
(-0.00161503 -0.00624156 0)
(5.2432e-05 -0.00606347 0)
(0.0015254 -0.00578192 0)
(0.00294386 -0.00543124 0)
(0.00431756 -0.00506509 0)
(0.00562954 -0.00470412 0)
(0.00687034 -0.00435589 0)
(0.0080347 -0.00402301 0)
(0.00912126 -0.00370685 0)
(0.0101316 -0.00340869 0)
(0.0110689 -0.00312953 0)
(0.0119369 -0.00286981 0)
(0.0127401 -0.00262931 0)
(0.0134828 -0.00240722 0)
(0.0141696 -0.0022023 0)
(0.0148046 -0.00201291 0)
(0.0153918 -0.00183726 0)
(0.0159346 -0.00167346 0)
(0.0164359 -0.00151968 0)
(0.0168982 -0.00137424 0)
(0.0173236 -0.00123568 0)
(0.0177138 -0.0011028 0)
(0.0180702 -0.000974717 0)
(0.018394 -0.000850813 0)
(0.018686 -0.000730742 0)
(0.0189471 -0.000614385 0)
(0.019178 -0.000501804 0)
(0.0193792 -0.000393173 0)
(0.0195512 -0.000288703 0)
(0.0196945 -0.000188584 0)
(0.0198097 -9.30257e-05 0)
(0.0198975 -2.38354e-06 0)
(0.0199568 8.30905e-05 0)
(0.0199902 0.000163451 0)
(0.0199981 0.000239039 0)
(0.019981 0.000310068 0)
(0.0199397 0.000376855 0)
(0.0198751 0.000439761 0)
(0.0197876 0.000499218 0)
(0.0196777 0.000555704 0)
(0.0195461 0.000609698 0)
(0.019393 0.000661688 0)
(0.0192187 0.000712143 0)
(0.0190235 0.000761499 0)
(0.0188075 0.000810136 0)
(0.0185709 0.000858353 0)
(0.0183137 0.000906351 0)
(0.0180359 0.000954213 0)
(0.0177375 0.00100189 0)
(0.0174183 0.00104918 0)
(0.0170783 0.00109576 0)
(0.0167175 0.00114112 0)
(0.0163357 0.00118464 0)
(0.0159332 0.00122551 0)
(0.01551 0.00126282 0)
(0.0150665 0.00129558 0)
(0.0146031 0.00132276 0)
(0.0141206 0.00134342 0)
(0.0136198 0.00135686 0)
(0.0131016 0.0013628 0)
(0.0125671 0.00136177 0)
(0.0120173 0.00135553 0)
(0.011453 0.00134774 0)
(0.010875 0.00134488 0)
(0.0102837 0.00135736 0)
(0.00967927 0.00140084 0)
(0.00906183 0.00149724 0)
(0.00843148 0.00167378 0)
(0.007787 0.00195251 0)
(0.00711416 0.00231367 0)
(0.00634607 0.00266223 0)
(0.00532724 0.0031385 0)
(0.00374995 0.00523627 0)
(0.00247106 0.0101293 0)
(-0.000969072 0.00593073 0)
(0.00037488 -0.00670766 0)
(-0.000230191 -0.00654824 0)
(0.000338155 -0.00622711 0)
(0.00065578 -0.00586436 0)
(0.00121482 -0.00537497 0)
(0.00186283 -0.00457223 0)
(0.00255395 -0.00329816 0)
(0.00316783 -0.00144215 0)
(0.00362751 0.00079717 0)
(0.00353588 0.00287205 0)
(0.00307795 0.00461494 0)
(0.00253961 0.00630131 0)
(0.00179197 0.00868161 0)
(0.00191862 0.0133438 0)
(-0.000357874 0.0163063 0)
(-0.00242908 0.0117659 0)
(-0.00406828 0.00825624 0)
(-0.00543407 0.00566786 0)
(-0.00650615 0.0031209 0)
(-0.0069627 0.000166973 0)
(-0.0064379 -0.00300101 0)
(-0.00558786 -0.00550285 0)
(-0.00434474 -0.00696954 0)
(-0.00294482 -0.00766148 0)
(-0.00148997 -0.00786861 0)
(2.84017e-05 -0.00778672 0)
(0.00142089 -0.00753307 0)
(0.00276969 -0.00718344 0)
(0.00408805 -0.00678472 0)
(0.00536411 -0.00636654 0)
(0.00658904 -0.00594434 0)
(0.00775512 -0.00552785 0)
(0.00885663 -0.00512337 0)
(0.0098907 -0.00473518 0)
(0.010857 -0.00436644 0)
(0.0117571 -0.00401939 0)
(0.0125935 -0.00369528 0)
(0.0133697 -0.00339434 0)
(0.0140894 -0.00311596 0)
(0.0147564 -0.00285883 0)
(0.0153745 -0.00262109 0)
(0.0159474 -0.0024006 0)
(0.016478 -0.00219507 0)
(0.0169694 -0.00200223 0)
(0.0174237 -0.00181999 0)
(0.0178432 -0.00164651 0)
(0.0182295 -0.00148029 0)
(0.018584 -0.00132014 0)
(0.0189079 -0.00116523 0)
(0.0192024 -0.00101504 0)
(0.0194682 -0.000869305 0)
(0.0197061 -0.00072796 0)
(0.0199167 -0.000591084 0)
(0.0201006 -0.000458818 0)
(0.0202581 -0.000331317 0)
(0.0203897 -0.000208728 0)
(0.0204957 -9.11875e-05 0)
(0.0205762 2.10498e-05 0)
(0.0206305 0.000127763 0)
(0.0206598 0.000229092 0)
(0.020664 0.000325372 0)
(0.0206434 0.000416929 0)
(0.0205982 0.000504214 0)
(0.0205286 0.000587684 0)
(0.0204347 0.00066785 0)
(0.0203165 0.000745237 0)
(0.0201743 0.000820371 0)
(0.0200081 0.00089377 0)
(0.0198179 0.000965912 0)
(0.0196037 0.00103722 0)
(0.0193656 0.00110804 0)
(0.0191036 0.00117862 0)
(0.0188177 0.00124908 0)
(0.0185077 0.00131942 0)
(0.0181737 0.00138945 0)
(0.0178154 0.00145887 0)
(0.0174328 0.00152717 0)
(0.0170257 0.00159367 0)
(0.016594 0.00165754 0)
(0.0161375 0.00171776 0)
(0.0156562 0.00177322 0)
(0.0151501 0.00182277 0)
(0.0146194 0.00186531 0)
(0.0140642 0.00189997 0)
(0.013485 0.00192636 0)
(0.0128823 0.00194488 0)
(0.0122569 0.00195719 0)
(0.0116098 0.00196687 0)
(0.0109422 0.00198028 0)
(0.0102557 0.00200771 0)
(0.00955256 0.00206452 0)
(0.00883577 0.00217231 0)
(0.00810889 0.0023587 0)
(0.00737386 0.00265154 0)
(0.00662124 0.00305962 0)
(0.00579802 0.00356526 0)
(0.00479494 0.00437448 0)
(0.00326799 0.0069752 0)
(0.00218612 0.0128542 0)
(-0.00052298 0.00603582 0)
(0.000199675 -0.00657432 0)
(-0.000767454 -0.0064292 0)
(-0.000788264 -0.00628669 0)
(-0.000866815 -0.00609996 0)
(-0.000723982 -0.0057705 0)
(-0.000427447 -0.00508861 0)
(7.56879e-06 -0.00386054 0)
(0.000501998 -0.00188887 0)
(0.00109486 0.000831193 0)
(0.00157514 0.00320601 0)
(0.00155338 0.00499395 0)
(0.00150099 0.00665655 0)
(0.00131863 0.0089826 0)
(0.0018309 0.0137912 0)
(0.000816194 0.0180444 0)
(-0.000867301 0.0135458 0)
(-0.00208381 0.00952284 0)
(-0.00298786 0.00663042 0)
(-0.00382778 0.0038567 0)
(-0.00418673 0.000395777 0)
(-0.00349722 -0.00368626 0)
(-0.00283022 -0.00659945 0)
(-0.00181846 -0.00825353 0)
(-0.000680578 -0.0090262 0)
(0.000563225 -0.00922923 0)
(0.00175239 -0.00911197 0)
(0.00295292 -0.008826 0)
(0.00414744 -0.00844816 0)
(0.00532608 -0.0080197 0)
(0.00647889 -0.00756297 0)
(0.00759622 -0.00709305 0)
(0.00866916 -0.00662139 0)
(0.00969065 -0.00615683 0)
(0.0106561 -0.00570619 0)
(0.0115635 -0.00527474 0)
(0.0124126 -0.00486626 0)
(0.0132049 -0.00448307 0)
(0.0139426 -0.00412612 0)
(0.0146285 -0.00379515 0)
(0.0152657 -0.00348895 0)
(0.0158573 -0.00320553 0)
(0.0164064 -0.0029425 0)
(0.0169158 -0.00269726 0)
(0.0173878 -0.0024672 0)
(0.0178245 -0.00224989 0)
(0.018228 -0.0020432 0)
(0.0185998 -0.00184535 0)
(0.0189415 -0.00165494 0)
(0.0192542 -0.00147095 0)
(0.0195391 -0.0012927 0)
(0.0197974 -0.00111978 0)
(0.0200299 -0.000952012 0)
(0.0202375 -0.000789346 0)
(0.0204209 -0.000631807 0)
(0.0205805 -0.000479435 0)
(0.020717 -0.000332263 0)
(0.0208306 -0.00019029 0)
(0.0209214 -5.35301e-05 0)
(0.020989 7.79794e-05 0)
(0.0210332 0.000204023 0)
(0.0210541 0.000324934 0)
(0.021051 0.000441185 0)
(0.021024 0.000553223 0)
(0.0209726 0.000661542 0)
(0.0208964 0.000766642 0)
(0.0207952 0.000869051 0)
(0.0206684 0.00096929 0)
(0.0205159 0.00106786 0)
(0.0203373 0.00116524 0)
(0.0201324 0.00126184 0)
(0.0199009 0.001358 0)
(0.0196428 0.00145397 0)
(0.0193577 0.00154988 0)
(0.0190457 0.00164575 0)
(0.0187065 0.00174143 0)
(0.0183401 0.00183663 0)
(0.0179461 0.00193089 0)
(0.0175245 0.00202356 0)
(0.017075 0.00211382 0)
(0.0165973 0.00220065 0)
(0.0160911 0.00228292 0)
(0.0155561 0.00235944 0)
(0.0149921 0.00242901 0)
(0.0143988 0.00249064 0)
(0.0137761 0.00254378 0)
(0.0131242 0.0025886 0)
(0.0124434 0.00262652 0)
(0.0117345 0.00266071 0)
(0.0109988 0.00269701 0)
(0.0102382 0.00274493 0)
(0.00945575 0.00281893 0)
(0.00865563 0.00293976 0)
(0.00784298 0.00313533 0)
(0.00702223 0.00343898 0)
(0.00619023 0.00388186 0)
(0.00531202 0.00450038 0)
(0.00433036 0.00555143 0)
(0.00286795 0.00854624 0)
(0.00193802 0.015219 0)
(-0.000167191 0.00605025 0)
(-0.000100602 -0.00596807 0)
(-0.00129468 -0.00593673 0)
(-0.00179231 -0.00593917 0)
(-0.00222546 -0.00596201 0)
(-0.00243738 -0.0058195 0)
(-0.0024495 -0.00528368 0)
(-0.00227112 -0.00415724 0)
(-0.00190359 -0.00233819 0)
(-0.00125601 0.000137633 0)
(-0.00024668 0.00274495 0)
(0.000212771 0.00474983 0)
(0.000603569 0.00649193 0)
(0.000889613 0.00877392 0)
(0.00169328 0.0135628 0)
(0.00173896 0.0187978 0)
(0.000733929 0.0150654 0)
(-8.49659e-05 0.0103897 0)
(-0.000530351 0.0071319 0)
(-0.00121414 0.00451796 0)
(-0.000565163 0.000875507 0)
(-8.39696e-05 -0.00417855 0)
(0.000354129 -0.00740374 0)
(0.00103072 -0.00921183 0)
(0.00181615 -0.0100513 0)
(0.00269424 -0.0102917 0)
(0.00363464 -0.0101955 0)
(0.00461583 -0.00992126 0)
(0.00561967 -0.00954635 0)
(0.00663257 -0.00910952 0)
(0.00764139 -0.00863273 0)
(0.00863333 -0.00813175 0)
(0.009597 -0.00761975 0)
(0.0105233 -0.00710804 0)
(0.0114057 -0.00660608 0)
(0.0122406 -0.00612141 0)
(0.0130263 -0.00565957 0)
(0.0137628 -0.00522417 0)
(0.0144513 -0.00481702 0)
(0.0150937 -0.00443837 0)
(0.0156922 -0.00408716 0)
(0.0162492 -0.00376144 0)
(0.0167668 -0.00345866 0)
(0.0172474 -0.00317601 0)
(0.0176927 -0.00291066 0)
(0.0181045 -0.00265995 0)
(0.0184845 -0.00242153 0)
(0.0188342 -0.00219346 0)
(0.0191549 -0.00197422 0)
(0.0194479 -0.00176268 0)
(0.0197145 -0.00155806 0)
(0.019956 -0.00135987 0)
(0.0201734 -0.00116783 0)
(0.0203679 -0.00098177 0)
(0.0205405 -0.000801593 0)
(0.0206919 -0.000627191 0)
(0.0208227 -0.000458425 0)
(0.0209335 -0.000295109 0)
(0.0210245 -0.000137001 0)
(0.0210957 1.61105e-05 0)
(0.0211464 0.000164322 0)
(0.0211762 0.000307809 0)
(0.0211847 0.000447137 0)
(0.021171 0.000582821 0)
(0.0211345 0.000715395 0)
(0.0210744 0.000845387 0)
(0.0209897 0.000973302 0)
(0.0208796 0.00109963 0)
(0.0207433 0.00122481 0)
(0.0205802 0.00134927 0)
(0.0203896 0.00147335 0)
(0.0201709 0.00159733 0)
(0.0199235 0.00172139 0)
(0.0196473 0.00184562 0)
(0.0193416 0.00197001 0)
(0.0190064 0.00209438 0)
(0.0186414 0.00221846 0)
(0.0182462 0.0023418 0)
(0.0178207 0.00246378 0)
(0.0173645 0.00258362 0)
(0.0168772 0.00270038 0)
(0.0163586 0.00281296 0)
(0.0158081 0.00292017 0)
(0.0152251 0.00302083 0)
(0.0146092 0.00311387 0)
(0.0139601 0.00319859 0)
(0.0132774 0.00327494 0)
(0.0125611 0.00334398 0)
(0.0118118 0.00340841 0)
(0.0110304 0.00347335 0)
(0.010219 0.00354731 0)
(0.00938053 0.00364357 0)
(0.00851953 0.00378168 0)
(0.00764171 0.00398922 0)
(0.00675309 0.00430286 0)
(0.00585576 0.00476812 0)
(0.00492834 0.00545755 0)
(0.00395989 0.00667193 0)
(0.00255076 0.00997218 0)
(0.00172788 0.0173003 0)
(1.83667e-05 0.0060918 0)
(-0.000398553 -0.00504148 0)
(-0.00167374 -0.00512793 0)
(-0.00250599 -0.00527071 0)
(-0.00324969 -0.00549549 0)
(-0.00378978 -0.00557416 0)
(-0.00409933 -0.00527501 0)
(-0.00413746 -0.00440921 0)
(-0.00385107 -0.00286339 0)
(-0.00317155 -0.000667428 0)
(-0.00200214 0.0018758 0)
(-0.0010935 0.00403737 0)
(-0.000325607 0.0058936 0)
(0.000327488 0.00814911 0)
(0.00139141 0.0127625 0)
(0.00236078 0.0186614 0)
(0.00214089 0.015758 0)
(0.00188372 0.0110406 0)
(0.00180175 0.00732292 0)
(0.00140144 0.00433403 0)
(0.00267047 8.59967e-05 0)
(0.00330622 -0.00438084 0)
(0.0035721 -0.00771546 0)
(0.00390576 -0.00973626 0)
(0.00436442 -0.0107187 0)
(0.00493362 -0.0110508 0)
(0.00559628 -0.0110212 0)
(0.00633471 -0.0107957 0)
(0.00712988 -0.0104542 0)
(0.00796281 -0.0100348 0)
(0.00881501 -0.00955954 0)
(0.00966949 -0.00904571 0)
(0.0105118 -0.0085089 0)
(0.0113306 -0.00796343 0)
(0.0121179 -0.00742171 0)
(0.0128683 -0.00689384 0)
(0.0135792 -0.00638738 0)
(0.0142494 -0.00590738 0)
(0.014879 -0.00545662 0)
(0.015469 -0.00503589 0)
(0.0160206 -0.0046444 0)
(0.0165353 -0.00428027 0)
(0.0170147 -0.00394091 0)
(0.0174599 -0.0036234 0)
(0.0178725 -0.00332477 0)
(0.0182536 -0.00304224 0)
(0.0186044 -0.00277339 0)
(0.0189261 -0.00251622 0)
(0.0192201 -0.00226921 0)
(0.0194874 -0.00203121 0)
(0.0197295 -0.00180144 0)
(0.0199478 -0.00157939 0)
(0.0201435 -0.00136471 0)
(0.020318 -0.00115715 0)
(0.0204725 -0.000956495 0)
(0.0206081 -0.000762469 0)
(0.0207257 -0.000574739 0)
(0.020826 -0.000392886 0)
(0.0209093 -0.000216414 0)
(0.0209758 -4.47673e-05 0)
(0.0210255 0.000122517 0)
(0.0210572 0.000285696 0)
(0.0210705 0.000445446 0)
(0.0210645 0.000602453 0)
(0.0210382 0.000757314 0)
(0.0209903 0.000910642 0)
(0.0209198 0.00106295 0)
(0.0208252 0.00121471 0)
(0.0207054 0.00136632 0)
(0.0205592 0.00151811 0)
(0.0203855 0.00167033 0)
(0.0201833 0.00182317 0)
(0.0199518 0.0019767 0)
(0.0196902 0.00213092 0)
(0.0193979 0.0022857 0)
(0.0190744 0.00244084 0)
(0.0187192 0.002596 0)
(0.0183318 0.00275072 0)
(0.017912 0.0029044 0)
(0.0174594 0.00305629 0)
(0.0169734 0.00320552 0)
(0.0164537 0.00335105 0)
(0.0158997 0.00349175 0)
(0.0153107 0.00362647 0)
(0.0146861 0.00375414 0)
(0.0140254 0.00387396 0)
(0.013328 0.00398567 0)
(0.0125937 0.00408995 0)
(0.0118228 0.004189 0)
(0.0110159 0.00428717 0)
(0.0101749 0.00439196 0)
(0.00930249 0.00451534 0)
(0.00840306 0.00467546 0)
(0.00748236 0.00489892 0)
(0.00654715 0.00522366 0)
(0.00560307 0.00570346 0)
(0.00463675 0.00643463 0)
(0.00367519 0.00775578 0)
(0.0023067 0.011292 0)
(0.00155258 0.0191685 0)
(4.94304e-05 0.00622631 0)
(-0.000588685 -0.003984 0)
(-0.00180307 -0.00413314 0)
(-0.00281461 -0.00435138 0)
(-0.00380276 -0.00472614 0)
(-0.00464197 -0.00501415 0)
(-0.00525602 -0.00498448 0)
(-0.00556124 -0.00445749 0)
(-0.00547223 -0.0033193 0)
(-0.00490049 -0.00154481 0)
(-0.00376307 0.000747013 0)
(-0.00251836 0.00300528 0)
(-0.00143418 0.00499256 0)
(-0.000459672 0.00725261 0)
(0.000814193 0.0114016 0)
(0.00264369 0.0177153 0)
(0.00324595 0.0156131 0)
(0.00364404 0.0111498 0)
(0.00395599 0.00721057 0)
(0.00416748 0.00375349 0)
(0.0054318 -0.000505772 0)
(0.00616964 -0.00478608 0)
(0.00647614 -0.00803417 0)
(0.00663777 -0.0100476 0)
(0.00682588 -0.0110927 0)
(0.0071097 -0.0115179 0)
(0.0075083 -0.0115848 0)
(0.00801385 -0.0114431 0)
(0.00860595 -0.0111658 0)
(0.00926052 -0.0107889 0)
(0.00995416 -0.0103356 0)
(0.0106663 -0.00982585 0)
(0.0113803 -0.00927875 0)
(0.0120831 -0.00871226 0)
(0.0127656 -0.00814216 0)
(0.0134218 -0.00758133 0)
(0.0140481 -0.00703946 0)
(0.0146425 -0.00652313 0)
(0.0152044 -0.00603607 0)
(0.0157338 -0.00557965 0)
(0.0162312 -0.00515336 0)
(0.0166969 -0.00475544 0)
(0.0171318 -0.0043833 0)
(0.0175362 -0.00403398 0)
(0.0179108 -0.00370449 0)
(0.0182563 -0.00339205 0)
(0.0185734 -0.00309429 0)
(0.0188628 -0.0028093 0)
(0.0191258 -0.00253565 0)
(0.0193633 -0.00227231 0)
(0.0195768 -0.00201859 0)
(0.0197677 -0.00177401 0)
(0.0199375 -0.00153824 0)
(0.0200877 -0.00131098 0)
(0.0202197 -0.0010919 0)
(0.020335 -0.000880567 0)
(0.0204346 -0.00067644 0)
(0.0205195 -0.000478845 0)
(0.0205902 -0.000286993 0)
(0.020647 -0.000100013 0)
(0.0206902 8.29931e-05 0)
(0.0207185 0.000262632 0)
(0.0207316 0.000439661 0)
(0.0207286 0.000614998 0)
(0.0207082 0.000789414 0)
(0.0206692 0.000963647 0)
(0.0206099 0.00113828 0)
(0.0205289 0.0013138 0)
(0.0204245 0.00149058 0)
(0.0202953 0.00166888 0)
(0.0201397 0.00184887 0)
(0.0199563 0.00203062 0)
(0.019744 0.00221406 0)
(0.0195014 0.00239905 0)
(0.0192277 0.00258535 0)
(0.018922 0.00277263 0)
(0.0185836 0.00296046 0)
(0.0182118 0.00314832 0)
(0.0178062 0.00333558 0)
(0.0173661 0.00352151 0)
(0.016891 0.00370526 0)
(0.0163804 0.00388586 0)
(0.0158336 0.00406224 0)
(0.0152501 0.0042333 0)
(0.0146289 0.00439797 0)
(0.0139696 0.00455541 0)
(0.0132713 0.00470517 0)
(0.0125339 0.00484764 0)
(0.0117573 0.00498447 0)
(0.010942 0.00511929 0)
(0.0100895 0.00525861 0)
(0.00920234 0.00541312 0)
(0.00828444 0.00559947 0)
(0.00734132 0.00584289 0)
(0.00637979 0.00618118 0)
(0.00540775 0.00667226 0)
(0.00441523 0.00742781 0)
(0.00345863 0.0088181 0)
(0.00212219 0.0125368 0)
(0.00140711 0.0208743 0)
(-5.55017e-06 0.00646772 0)
(-0.000641298 -0.00298273 0)
(-0.00165945 -0.00311165 0)
(-0.0026642 -0.00328947 0)
(-0.00377584 -0.00371698 0)
(-0.0048474 -0.00416133 0)
(-0.00575462 -0.00438802 0)
(-0.00638044 -0.00421813 0)
(-0.00661273 -0.00353485 0)
(-0.00634778 -0.00228024 0)
(-0.00551055 -0.000477019 0)
(-0.00411366 0.0017292 0)
(-0.00277815 0.00381151 0)
(-0.00148476 0.00608551 0)
(-7.39708e-05 0.00957985 0)
(0.00254141 0.0159702 0)
(0.00397923 0.0146798 0)
(0.00503146 0.0106358 0)
(0.00579872 0.00669709 0)
(0.00660844 0.00290874 0)
(0.00788066 -0.00138925 0)
(0.00865123 -0.00532704 0)
(0.0089486 -0.00827765 0)
(0.00898794 -0.0101609 0)
(0.00898174 -0.0112199 0)
(0.00905178 -0.0117376 0)
(0.00924413 -0.0119211 0)
(0.009559 -0.0118875 0)
(0.00997599 -0.011696 0)
(0.0104687 -0.0113795 0)
(0.0110118 -0.0109628 0)
(0.0115835 -0.0104697 0)
(0.0121668 -0.0099238 0)
(0.0127486 -0.00934714 0)
(0.0133197 -0.00875898 0)
(0.0138741 -0.00817501 0)
(0.014408 -0.00760701 0)
(0.0149189 -0.00706294 0)
(0.0154057 -0.00654742 0)
(0.0158676 -0.0060623 0)
(0.0163043 -0.00560733 0)
(0.0167153 -0.00518082 0)
(0.0171004 -0.00478023 0)
(0.0174591 -0.00440263 0)
(0.0177915 -0.0040451 0)
(0.0180975 -0.00370501 0)
(0.0183772 -0.00338015 0)
(0.0186311 -0.00306885 0)
(0.0188601 -0.00276988 0)
(0.019065 -0.00248244 0)
(0.0192474 -0.00220603 0)
(0.0194085 -0.0019403 0)
(0.0195502 -0.00168497 0)
(0.0196739 -0.00143973 0)
(0.0197815 -0.00120416 0)
(0.0198744 -0.00097769 0)
(0.019954 -0.000759545 0)
(0.0200212 -0.00054878 0)
(0.020077 -0.000344296 0)
(0.0201217 -0.000144882 0)
(0.0201557 5.08005e-05 0)
(0.0201781 0.000243744 0)
(0.0201882 0.000434862 0)
(0.0201854 0.000625371 0)
(0.0201684 0.000816309 0)
(0.0201357 0.00100855 0)
(0.0200857 0.0012028 0)
(0.0200167 0.00139963 0)
(0.0199269 0.00159944 0)
(0.0198143 0.00180247 0)
(0.0196773 0.00200883 0)
(0.019514 0.00221845 0)
(0.0193229 0.00243117 0)
(0.0191024 0.00264667 0)
(0.0188512 0.00286458 0)
(0.0185681 0.00308441 0)
(0.0182521 0.00330561 0)
(0.0179022 0.00352755 0)
(0.0175177 0.00374954 0)
(0.0170979 0.00397081 0)
(0.016642 0.0041905 0)
(0.0161494 0.00440768 0)
(0.0156193 0.00462132 0)
(0.015051 0.00483036 0)
(0.0144439 0.00503375 0)
(0.013797 0.00523057 0)
(0.0131098 0.00542027 0)
(0.0123817 0.00560292 0)
(0.0116128 0.00577973 0)
(0.0108033 0.00595363 0)
(0.00995449 0.0061302 0)
(0.00906856 0.00631892 0)
(0.00814902 0.00653496 0)
(0.00720094 0.00680201 0)
(0.00623083 0.00715689 0)
(0.0052478 0.00765916 0)
(0.00424214 0.00843017 0)
(0.0032919 0.00986622 0)
(0.00198306 0.013728 0)
(0.00128605 0.0224541 0)
(-8.4526e-05 0.00677554 0)
(-0.000595368 -0.00217145 0)
(-0.00133268 -0.00223874 0)
(-0.00213349 -0.00225773 0)
(-0.00315972 -0.00259033 0)
(-0.00430564 -0.00307736 0)
(-0.00541845 -0.00348712 0)
(-0.00634848 -0.00362689 0)
(-0.00696004 -0.00337083 0)
(-0.00712989 -0.00264213 0)
(-0.0067489 -0.0014003 0)
(-0.00573708 0.000348022 0)
(-0.00429268 0.00238786 0)
(-0.00274726 0.00459893 0)
(-0.00115004 0.00754296 0)
(0.00197364 0.0133551 0)
(0.00429415 0.0130362 0)
(0.00590732 0.00949428 0)
(0.00718035 0.00569452 0)
(0.00854139 0.00173558 0)
(0.00989121 -0.00238091 0)
(0.0106471 -0.00586715 0)
(0.0108805 -0.00843149 0)
(0.0108277 -0.0101332 0)
(0.010709 -0.0111836 0)
(0.0106564 -0.0117902 0)
(0.0107203 -0.0120943 0)
(0.0109024 -0.0121748 0)
(0.0111835 -0.0120747 0)
(0.0115389 -0.0118238 0)
(0.0119452 -0.0114495 0)
(0.0123829 -0.0109798 0)
(0.0128369 -0.0104426 0)
(0.0132957 -0.00986391 0)
(0.0137516 -0.00926645 0)
(0.0141992 -0.00866836 0)
(0.014635 -0.0080832 0)
(0.0150567 -0.00752007 0)
(0.0154628 -0.00698422 0)
(0.0158521 -0.00647782 0)
(0.0162232 -0.00600075 0)
(0.0165749 -0.00555136 0)
(0.0169061 -0.00512713 0)
(0.0172156 -0.00472523 0)
(0.0175024 -0.00434291 0)
(0.0177659 -0.00397781 0)
(0.0180057 -0.00362805 0)
(0.0182219 -0.00329228 0)
(0.0184149 -0.00296965 0)
(0.0185858 -0.00265968 0)
(0.0187357 -0.00236213 0)
(0.0188661 -0.00207686 0)
(0.0189789 -0.00180372 0)
(0.0190758 -0.00154241 0)
(0.0191586 -0.00129245 0)
(0.019229 -0.00105309 0)
(0.0192885 -0.000823352 0)
(0.0193382 -0.000601999 0)
(0.0193791 -0.000387595 0)
(0.0194117 -0.000178557 0)
(0.0194361 2.68279e-05 0)
(0.0194524 0.000229974 0)
(0.0194592 0.000432108 0)
(0.019456 0.000634723 0)
(0.0194416 0.000839098 0)
(0.0194146 0.0010463 0)
(0.0193732 0.00125724 0)
(0.0193157 0.00147261 0)
(0.01924 0.00169291 0)
(0.0191442 0.00191838 0)
(0.0190262 0.00214909 0)
(0.018884 0.00238492 0)
(0.0187157 0.00262556 0)
(0.0185195 0.00287059 0)
(0.0182937 0.00311945 0)
(0.0180367 0.00337151 0)
(0.0177473 0.00362606 0)
(0.0174243 0.00388235 0)
(0.0170666 0.00413956 0)
(0.0166732 0.00439686 0)
(0.0162433 0.00465336 0)
(0.015776 0.00490809 0)
(0.0152705 0.00516005 0)
(0.014726 0.0054082 0)
(0.0141416 0.00565147 0)
(0.0135167 0.00588889 0)
(0.0128504 0.00611978 0)
(0.0121422 0.00634396 0)
(0.0113921 0.0065622 0)
(0.0106001 0.00677683 0)
(0.00976745 0.00699258 0)
(0.00889588 0.00721779 0)
(0.00798851 0.00746627 0)
(0.00704992 0.00776013 0)
(0.00608598 0.00813484 0)
(0.00510644 0.00865009 0)
(0.00409984 0.00943325 0)
(0.00315942 0.010902 0)
(0.00187691 0.0148794 0)
(0.00118441 0.0239345 0)
(-0.000155411 0.00710208 0)
(-0.000511613 -0.00160176 0)
(-0.00098233 -0.00164188 0)
(-0.00148696 -0.00147253 0)
(-0.00221146 -0.00158648 0)
(-0.00315578 -0.00194188 0)
(-0.00423714 -0.00238277 0)
(-0.00530374 -0.00271116 0)
(-0.00620665 -0.00278154 0)
(-0.00681541 -0.00250984 0)
(-0.00700303 -0.00184118 0)
(-0.00664607 -0.000722121 0)
(-0.00561188 0.000911948 0)
(-0.00407984 0.00287724 0)
(-0.00226902 0.00537994 0)