/*--------------------------------*- C++ -*----------------------------------*\
| =========                 |                                                 |
| \\      /  F ield         | OpenFOAM: The Open Source CFD Toolbox           |
|  \\    /   O peration     | Version:  4.1                                   |
|   \\  /    A nd           | Web:      www.OpenFOAM.org                      |
|    \\/     M anipulation  |                                                 |
\*---------------------------------------------------------------------------*/
FoamFile
{
    version     2.0;
    format      ascii;
    class       volVectorField;
    location    "70";
    object      U;
}
// * * * * * * * * * * * * * * * * * * * * * * * * * * * * * * * * * * * * * //

dimensions      [0 1 -1 0 0 0 0];

internalField   nonuniform List<vector> 
400
(
(-1.58607e-08 1.44282e-08 0)
(-1.79572e-08 -6.72904e-09 0)
(-4.33418e-09 -5.11939e-09 0)
(-3.0003e-09 -1.46581e-09 0)
(-6.25839e-10 -1.01145e-09 0)
(2.69631e-10 -4.05244e-10 0)
(8.59079e-10 -3.75917e-10 0)
(1.33942e-09 -1.41295e-10 0)
(1.02961e-09 3.39745e-10 0)
(2.77293e-10 4.15547e-10 0)
(-3.53602e-10 2.88528e-10 0)
(-6.04343e-10 8.77994e-11 0)
(-6.23705e-10 -1.99919e-11 0)
(-5.19739e-10 -6.40154e-11 0)
(-4.42425e-10 -4.47553e-11 0)
(-4.54517e-10 -2.37221e-11 0)
(-3.6067e-10 -2.89959e-11 0)
(-3.21796e-10 -1.6924e-10 0)
(1.65967e-10 -1.84732e-10 0)
(3.63698e-10 1.74095e-10 0)
(4.25452e-09 2.00265e-08 0)
(3.8927e-09 -8.51321e-09 0)
(-6.32023e-10 -6.79203e-09 0)
(-5.06901e-10 -2.56834e-09 0)
(-2.70199e-10 -1.96436e-09 0)
(2.95702e-10 -9.97654e-10 0)
(5.1359e-10 -6.7269e-10 0)
(3.6543e-10 -1.01005e-10 0)
(9.50942e-11 7.8936e-10 0)
(-1.21255e-10 8.64999e-10 0)
(-1.55908e-10 5.50142e-10 0)
(-2.23199e-10 1.83841e-10 0)
(-2.66818e-10 -7.10381e-11 0)
(-2.75022e-10 -1.27345e-10 0)
(-3.03341e-10 -3.11246e-11 0)
(-3.63016e-10 -6.10073e-12 0)
(-3.05577e-10 -1.08314e-10 0)
(-1.1295e-10 -4.51489e-10 0)
(-7.37667e-11 -3.34539e-10 0)
(-6.70044e-11 2.75078e-10 0)
(6.26084e-09 9.01209e-09 0)
(7.00091e-09 -2.49853e-09 0)
(8.76209e-10 -2.20585e-09 0)
(4.67614e-10 -2.26054e-09 0)
(3.69959e-10 -1.86072e-09 0)
(6.71647e-11 -1.11268e-09 0)
(9.43207e-11 -5.89313e-10 0)
(-1.82706e-10 3.41997e-10 0)
(-4.72471e-10 8.30412e-10 0)
(-1.31444e-10 7.00877e-10 0)
(1.04557e-10 4.45389e-10 0)
(1.09406e-10 2.25841e-10 0)
(-1.61891e-11 6.33774e-12 0)
(-2.18744e-10 -1.28057e-11 0)
(-3.40615e-10 5.36284e-11 0)
(-3.7981e-10 -3.7709e-12 0)
(-2.82371e-10 -1.89937e-10 0)
(-1.1489e-10 -5.31115e-10 0)
(-2.07725e-10 -2.4158e-10 0)
(-1.68154e-10 2.37033e-11 0)
(2.4047e-09 5.03186e-09 0)
(3.09096e-09 -8.96706e-10 0)
(1.30841e-09 -6.9607e-10 0)
(1.01015e-09 -2.04528e-09 0)
(5.13725e-10 -1.51083e-09 0)
(3.3644e-11 -7.76581e-10 0)
(-3.38378e-10 -4.21586e-10 0)
(-5.44521e-10 5.46171e-10 0)
(-3.69436e-10 6.28399e-10 0)
(-1.09614e-11 3.88996e-10 0)
(1.02639e-10 3.34098e-10 0)
(1.35295e-10 2.96293e-10 0)
(1.54084e-13 2.23189e-10 0)
(-2.37471e-10 2.14091e-10 0)
(-3.52785e-10 1.14263e-10 0)
(-3.40753e-10 -8.95517e-11 0)
(-1.53108e-10 -3.44172e-10 0)
(-3.95566e-11 -5.28222e-10 0)
(-1.26376e-10 -2.34992e-10 0)
(-7.97122e-11 -1.271e-10 0)
(1.13513e-09 2.73503e-09 0)
(1.5751e-09 -3.77649e-10 0)
(1.22627e-09 -4.09099e-10 0)
(1.06783e-09 -1.43575e-09 0)
(9.39074e-11 -8.82537e-10 0)
(-1.38029e-10 -4.09086e-10 0)
(-4.68597e-10 4.83767e-11 0)
(-6.93163e-10 3.53177e-10 0)
(-1.83958e-10 2.92459e-10 0)
(-1.5387e-11 2.39923e-10 0)
(1.76786e-13 2.8489e-10 0)
(4.11853e-12 3.44451e-10 0)
(-1.11273e-10 3.91967e-10 0)
(-2.4043e-10 3.58374e-10 0)
(-2.86621e-10 1.49684e-10 0)
(-1.47322e-10 -2.44297e-10 0)
(4.11194e-11 -5.26214e-10 0)
(7.02594e-11 -5.23393e-10 0)
(-4.47297e-11 -2.18167e-10 0)
(-6.79277e-11 -1.33379e-10 0)
(7.5014e-10 1.76199e-09 0)
(1.13383e-09 -4.40512e-10 0)
(9.09644e-10 -4.685e-10 0)
(6.13766e-10 -7.74593e-10 0)
(-7.11178e-11 -3.28707e-10 0)
(-3.73254e-10 -1.9012e-10 0)
(-5.73697e-10 3.0136e-10 0)
(-4.30825e-10 8.72145e-11 0)
(-1.00048e-10 6.40244e-12 0)
(-7.04408e-11 2.15069e-10 0)
(-8.2292e-11 2.9514e-10 0)
(-1.53325e-10 4.08627e-10 0)
(-2.40101e-10 4.81856e-10 0)
(-3.03987e-10 3.83386e-10 0)
(-2.20592e-10 6.03748e-11 0)
(3.81845e-12 -4.37828e-10 0)
(7.08151e-11 -5.68733e-10 0)
(-1.62989e-11 -4.3035e-10 0)
(-8.23432e-11 -1.73418e-10 0)
(-3.68288e-11 -1.97546e-10 0)
(6.40351e-10 7.82071e-10 0)
(8.06946e-10 -2.54202e-10 0)
(3.89345e-10 -1.36881e-10 0)
(3.61943e-11 -3.02115e-10 0)
(-1.31927e-10 -4.28372e-11 0)
(-4.1384e-10 1.82955e-10 0)
(-5.15479e-10 4.95333e-11 0)
(-1.07031e-10 -1.33422e-10 0)
(-1.57566e-10 -4.13258e-11 0)
(-1.60111e-10 2.11289e-10 0)
(-1.62236e-10 3.39933e-10 0)
(-2.84221e-10 5.33111e-10 0)
(-3.6504e-10 5.29483e-10 0)
(-3.55817e-10 3.01862e-10 0)
(-1.48324e-10 -1.26109e-10 0)
(3.23571e-11 -5.44052e-10 0)
(-2.28597e-11 -5.00911e-10 0)
(-1.42881e-10 -3.31711e-10 0)
(-9.27817e-11 -2.50113e-10 0)
(2.42393e-11 -2.45692e-10 0)
(3.61897e-10 1.80654e-10 0)
(2.86713e-10 4.75397e-12 0)
(8.15925e-11 1.24756e-10 0)
(-3.52729e-11 -7.49533e-11 0)
(-2.92105e-10 5.30293e-11 0)
(-3.0623e-10 3.20397e-10 0)
(-1.53379e-10 -1.84202e-10 0)
(-5.93617e-11 -1.87872e-10 0)
(-2.63235e-10 6.15803e-11 0)
(-2.71114e-10 2.05474e-10 0)
(-2.88083e-10 4.12364e-10 0)
(-3.98741e-10 6.32598e-10 0)
(-4.16242e-10 5.85022e-10 0)
(-3.23211e-10 1.1888e-10 0)
(-5.99108e-11 -3.23655e-10 0)
(7.2608e-11 -5.7773e-10 0)
(-7.20309e-11 -3.9469e-10 0)
(-1.97924e-10 -2.95125e-10 0)
(2.75448e-12 -4.17957e-10 0)
(1.3319e-10 -2.3418e-10 0)
(1.02358e-10 2.91014e-11 0)
(1.82415e-11 1.51304e-10 0)
(-2.91169e-11 1.12055e-10 0)
(7.56526e-11 8.74644e-11 0)
(-2.95935e-10 2.58702e-10 0)
(-1.31587e-10 7.83885e-12 0)
(6.20563e-11 -1.53976e-10 0)
(-2.70537e-10 -2.16292e-11 0)
(-3.02571e-10 1.27872e-10 0)
(-3.40723e-10 2.22646e-10 0)
(-3.92365e-10 5.12944e-10 0)
(-4.97995e-10 6.30548e-10 0)
(-3.49337e-10 4.87141e-10 0)
(-9.50487e-11 -9.95847e-11 0)
(8.95342e-11 -4.74784e-10 0)
(1.22043e-10 -5.35314e-10 0)
(-4.27679e-11 -2.86418e-10 0)
(-3.84072e-11 -3.62646e-10 0)
(2.07835e-10 -6.21067e-10 0)
(2.07448e-10 -7.41812e-11 0)
(-1.63283e-11 2.8126e-11 0)
(3.3656e-11 1.4459e-10 0)
(4.33566e-11 8.90216e-11 0)
(-8.97621e-11 1.81854e-10 0)
(-1.24524e-10 3.32835e-10 0)
(4.31262e-11 -1.47928e-10 0)
(-1.34913e-10 2.35748e-11 0)
(-3.49376e-10 1.281e-10 0)
(-2.69679e-10 1.26659e-10 0)
(-3.94999e-10 3.24383e-10 0)
(-4.85522e-10 5.82023e-10 0)
(-4.72413e-10 5.68175e-10 0)
(-2.01497e-10 1.74554e-10 0)
(1.57064e-10 -3.25003e-10 0)
(2.55405e-10 -5.51089e-10 0)
(2.35131e-10 -4.4629e-10 0)
(1.95004e-10 -2.6802e-10 0)
(2.61429e-10 -4.80458e-10 0)
(3.58875e-10 -7.10753e-10 0)
(1.93571e-10 2.14486e-10 0)
(-1.76354e-12 2.18066e-11 0)
(9.21414e-12 5.758e-11 0)
(9.23338e-11 2.18484e-10 0)
(-1.97993e-10 3.05786e-10 0)
(-2.50366e-11 1.27233e-10 0)
(1.19754e-11 5.64661e-11 0)
(-3.79707e-10 1.90304e-10 0)
(-2.16433e-10 9.10896e-11 0)
(-2.18628e-10 1.43127e-10 0)
(-3.75032e-10 4.81334e-10 0)
(-4.82166e-10 5.9141e-10 0)
(-3.29781e-10 3.84679e-10 0)
(-3.81367e-12 -1.64059e-10 0)
(2.88455e-10 -5.50869e-10 0)
(4.38947e-10 -6.21104e-10 0)
(4.68552e-10 -4.29125e-10 0)
(4.84379e-10 -3.13083e-10 0)
(4.82717e-10 -4.97335e-10 0)
(3.6257e-10 -5.94211e-10 0)
(1.22107e-10 4.98066e-10 0)
(6.56966e-11 1.95931e-11 0)
(-4.63922e-11 8.3284e-11 0)
(-1.41449e-10 2.90783e-10 0)
(-9.92092e-11 3.30817e-10 0)
(-4.40115e-12 4.27696e-11 0)
(-1.65714e-10 2.62512e-10 0)
(-1.52186e-10 1.37308e-10 0)
(4.70979e-11 4.63021e-11 0)
(-2.10671e-10 3.15334e-10 0)
(-3.73024e-10 5.65898e-10 0)
(-3.61079e-10 5.53934e-10 0)
(-1.35448e-10 8.1859e-11 0)
(1.97447e-10 -4.72069e-10 0)
(4.41882e-10 -7.59807e-10 0)
(5.73297e-10 -7.11955e-10 0)
(6.37912e-10 -4.72703e-10 0)
(6.49696e-10 -3.08703e-10 0)
(5.50033e-10 -3.67309e-10 0)
(2.60264e-10 -3.28579e-10 0)
(1.97464e-11 6.82834e-10 0)
(1.48724e-11 2.18966e-12 0)
(-2.99434e-11 2.36188e-10 0)
(-2.14542e-10 3.07165e-10 0)
(-2.91194e-12 1.58014e-10 0)
(-3.75238e-11 1.97317e-10 0)
(-1.508e-10 2.17591e-10 0)
(2.257e-10 -6.13669e-11 0)
(1.06974e-10 1.51463e-10 0)
(-1.87272e-10 6.11546e-10 0)
(-2.79276e-10 5.69277e-10 0)
(-1.4115e-10 4.02336e-10 0)
(1.37128e-10 -2.10537e-10 0)
(3.41753e-10 -7.3073e-10 0)
(5.21462e-10 -9.3174e-10 0)
(6.30821e-10 -8.01615e-10 0)
(7.068e-10 -5.1016e-10 0)
(6.67254e-10 -2.39081e-10 0)
(4.72467e-10 -1.22294e-10 0)
(8.6212e-11 -1.66877e-11 0)
(-9.36462e-11 7.45924e-10 0)
(-5.89012e-11 5.20602e-11 0)
(-1.2225e-10 2.81009e-10 0)
(-8.86262e-11 2.97413e-10 0)
(-3.94689e-11 1.00205e-10 0)
(-1.26108e-10 2.54641e-10 0)
(1.01197e-10 -4.13872e-11 0)
(3.29688e-10 -6.47746e-11 0)
(-1.74612e-11 3.8046e-10 0)
(-7.75098e-11 7.1236e-10 0)
(5.41318e-11 4.93601e-10 0)
(1.47753e-10 1.85384e-10 0)
(3.34536e-10 -3.81721e-10 0)
(4.2714e-10 -8.90281e-10 0)
(5.60811e-10 -1.069e-09 0)
(6.67122e-10 -8.85857e-10 0)
(6.84612e-10 -4.96688e-10 0)
(5.34016e-10 -6.63086e-11 0)
(2.63462e-10 1.89691e-10 0)
(-1.08064e-10 2.67782e-10 0)
(-1.72665e-10 6.60791e-10 0)
(-3.21135e-11 1.71012e-10 0)
(-1.90118e-10 3.00912e-10 0)
(-8.07527e-11 2.14663e-10 0)
(-1.17557e-10 2.17692e-10 0)
(-3.19849e-11 2.4489e-11 0)
(3.15156e-10 -2.6852e-10 0)
(1.81004e-10 1.15391e-10 0)
(-2.41168e-11 5.47038e-10 0)
(1.31247e-10 5.41683e-10 0)
(3.74098e-10 3.82735e-10 0)
(4.05066e-10 4.59395e-11 0)
(4.55288e-10 -4.39329e-10 0)
(5.26636e-10 -9.88141e-10 0)
(6.21798e-10 -1.17436e-09 0)
(6.39589e-10 -9.09989e-10 0)
(5.15724e-10 -3.63481e-10 0)
(2.53171e-10 2.06709e-10 0)
(-1.26598e-11 4.865e-10 0)
(-2.57851e-10 4.53903e-10 0)
(-2.03631e-10 4.42856e-10 0)
(-6.29264e-11 2.78244e-10 0)
(-1.05043e-10 3.40606e-10 0)
(-8.14335e-11 1.74441e-10 0)
(-5.88781e-11 1.24244e-10 0)
(1.95574e-10 -2.31484e-10 0)
(1.86845e-10 -1.96955e-10 0)
(-5.91945e-11 2.32676e-10 0)
(1.3335e-10 4.49187e-10 0)
(4.15672e-10 2.53308e-10 0)
(5.70469e-10 3.23586e-10 0)
(5.78549e-10 2.20147e-11 0)
(5.37727e-10 -4.61404e-10 0)
(5.75631e-10 -1.05588e-09 0)
(5.89423e-10 -1.1859e-09 0)
(4.59668e-10 -7.84248e-10 0)
(1.99109e-10 -1.07119e-10 0)
(-7.56835e-11 4.77174e-10 0)
(-2.29502e-10 6.68186e-10 0)
(-3.02121e-10 5.01359e-10 0)
(-1.77258e-10 1.7786e-10 0)
(-1.12052e-10 3.83298e-10 0)
(-3.93377e-14 2.70297e-10 0)
(3.02757e-12 1.90424e-10 0)
(7.75013e-11 -9.74098e-11 0)
(1.95082e-10 -2.25124e-10 0)
(-5.66531e-11 1.9807e-11 0)
(-3.57454e-11 1.16754e-10 0)
(3.60539e-10 1.33158e-10 0)
(6.07166e-10 4.0855e-11 0)
(5.78195e-10 3.12776e-10 0)
(5.72777e-10 5.17259e-11 0)
(5.42087e-10 -4.54753e-10 0)
(4.99476e-10 -1.03861e-09 0)
(3.84599e-10 -1.06276e-09 0)
(1.37181e-10 -5.33297e-10 0)
(-1.53527e-10 1.74758e-10 0)
(-3.23043e-10 6.4272e-10 0)
(-3.20245e-10 6.88122e-10 0)
(-2.51285e-10 4.38305e-10 0)
(-1.15546e-10 -5.6822e-11 0)
(4.84377e-11 3.76845e-10 0)
(8.70175e-11 2.16869e-10 0)
(1.2654e-10 1.43258e-10 0)
(2.04971e-10 -1.30585e-10 0)
(3.4515e-11 -4.90452e-11 0)
(-3.11728e-11 2.41316e-11 0)
(2.05865e-10 -1.90572e-10 0)
(4.49116e-10 -1.65952e-10 0)
(5.03987e-10 4.75984e-11 0)
(4.01272e-10 3.62983e-10 0)
(4.12132e-10 5.72808e-11 0)
(4.41589e-10 -4.27599e-10 0)
(3.19316e-10 -8.96533e-10 0)
(5.38719e-11 -8.21545e-10 0)
(-2.42087e-10 -2.62323e-10 0)
(-4.42877e-10 3.57398e-10 0)
(-4.4205e-10 6.51508e-10 0)
(-2.94151e-10 5.70858e-10 0)
(-1.41833e-10 3.21307e-10 0)
(-4.15383e-11 -1.96181e-10 0)
(8.73261e-11 2.52359e-10 0)
(1.73798e-10 2.03192e-10 0)
(2.55642e-10 3.48508e-11 0)
(2.60856e-10 -6.46509e-12 0)
(1.5333e-10 2.75164e-11 0)
(2.07828e-10 -1.61253e-10 0)
(3.00319e-10 -3.24036e-10 0)
(2.04363e-10 -1.85736e-10 0)
(1.21918e-10 1.42968e-10 0)
(1.85861e-10 3.59362e-10 0)
(2.95707e-10 6.97585e-12 0)
(3.03178e-10 -3.85556e-10 0)
(3.90528e-11 -6.31613e-10 0)
(-3.58465e-10 -4.84476e-10 0)
(-6.30763e-10 -2.90003e-11 0)
(-6.51285e-10 3.70699e-10 0)
(-4.51511e-10 4.84991e-10 0)
(-1.92992e-10 3.67664e-10 0)
(1.67933e-11 1.95371e-10 0)
(5.47883e-11 -2.27245e-10 0)
(6.55502e-11 8.93818e-11 0)
(2.73778e-10 8.71442e-11 0)
(3.67605e-10 -1.53732e-11 0)
(3.25191e-10 3.84457e-11 0)
(3.99411e-10 -2.27651e-13 0)
(3.0062e-10 -1.36944e-10 0)
(9.00018e-11 -1.51704e-10 0)
(-1.44901e-10 -4.85376e-11 0)
(-1.64734e-10 8.86387e-11 0)
(1.33389e-10 1.52755e-10 0)
(2.84008e-10 -1.86193e-11 0)
(1.46369e-10 -1.80062e-10 0)
(-2.83544e-10 -2.32472e-10 0)
(-7.19302e-10 -1.45688e-10 0)
(-8.73932e-10 3.71025e-11 0)
(-7.05333e-10 1.63788e-10 0)
(-3.46847e-10 1.75537e-10 0)
(-6.37199e-11 1.23421e-10 0)
(1.6814e-10 6.59661e-11 0)
(1.56676e-10 -1.10574e-10 0)
)
;

boundaryField
{
    floor
    {
        type            noSlip;
    }
    ceiling
    {
        type            noSlip;
    }
    fixedWalls
    {
        type            noSlip;
    }
    frontAndBack
    {
        type            empty;
    }
}


// ************************************************************************* //
