/*--------------------------------*- C++ -*----------------------------------*\
| =========                 |                                                 |
| \\      /  F ield         | OpenFOAM: The Open Source CFD Toolbox           |
|  \\    /   O peration     | Version:  4.1                                   |
|   \\  /    A nd           | Web:      www.OpenFOAM.org                      |
|    \\/     M anipulation  |                                                 |
\*---------------------------------------------------------------------------*/
FoamFile
{
    version     2.0;
    format      ascii;
    class       volScalarField;
    location    "1300";
    object      p_rgh;
}
// * * * * * * * * * * * * * * * * * * * * * * * * * * * * * * * * * * * * * //

dimensions      [0 2 -2 0 0 0 0];

internalField   nonuniform List<scalar> 
1600
(
0.0491793
0.0492077
0.049212
0.0492147
0.0492119
0.0492049
0.0491924
0.0491738
0.0491526
0.0491323
0.0491199
0.0491179
0.0491154
0.0491469
0.0491839
0.0491956
0.0491884
0.0491781
0.0491615
0.0491425
0.0491238
0.0491065
0.0490913
0.0490784
0.0490683
0.0490609
0.0490558
0.0490526
0.0490508
0.04905
0.0490499
0.0490509
0.0490485
0.0490293
0.0489841
0.0489453
0.0489404
0.0490158
0.049119
0.0490745
0.0491955
0.0492659
0.0492716
0.0492694
0.0492627
0.0492515
0.0492366
0.0492186
0.0491992
0.0491811
0.04917
0.0491628
0.0491243
0.0491552
0.0492006
0.0492112
0.0492091
0.049203
0.0491908
0.0491764
0.0491626
0.0491507
0.0491415
0.0491352
0.0491311
0.0491285
0.0491275
0.0491278
0.0491294
0.049133
0.0491399
0.0491456
0.0491434
0.0491232
0.0490621
0.0489749
0.0489216
0.0490291
0.0491277
0.049088
0.0491902
0.0492696
0.049274
0.0492709
0.0492636
0.0492516
0.0492361
0.0492177
0.0491978
0.0491784
0.049166
0.0491682
0.0491171
0.049154
0.049198
0.0492084
0.0492058
0.0492
0.0491884
0.0491746
0.0491613
0.0491497
0.0491407
0.0491348
0.0491323
0.0491331
0.0491365
0.0491418
0.0491482
0.0491552
0.0491626
0.0491684
0.0491681
0.0491529
0.0490969
0.048994
0.0489153
0.0490125
0.0491326
0.0490985
0.0491787
0.0492712
0.0492748
0.0492708
0.0492628
0.0492501
0.0492337
0.0492147
0.0491938
0.0491714
0.0491556
0.0491593
0.0491012
0.0491563
0.0491946
0.0492053
0.0492017
0.0491959
0.049185
0.0491719
0.0491591
0.0491478
0.0491389
0.0491329
0.0491303
0.0491314
0.0491357
0.0491424
0.0491507
0.0491596
0.0491681
0.0491752
0.0491784
0.0491706
0.0491241
0.0490178
0.0489405
0.049051
0.0491545
0.049111
0.0491663
0.0492728
0.0492755
0.0492705
0.0492618
0.0492482
0.0492309
0.0492111
0.0491885
0.0491609
0.0491383
0.0491348
0.0490835
0.0491766
0.0491911
0.0492016
0.0491972
0.0491909
0.0491806
0.0491685
0.0491566
0.049146
0.0491374
0.0491315
0.0491289
0.0491298
0.049134
0.049141
0.04915
0.0491598
0.0491695
0.0491782
0.0491847
0.0491843
0.0491516
0.0490548
0.048998
0.049109
0.0491876
0.0491223
0.0491539
0.0492744
0.0492764
0.0492704
0.0492609
0.0492463
0.0492279
0.0492072
0.0491819
0.0491461
0.0491074
0.0491003
0.0490662
0.0492043
0.0491884
0.0491974
0.0491922
0.0491849
0.0491749
0.0491638
0.0491531
0.0491435
0.0491357
0.0491305
0.0491281
0.049129
0.0491332
0.0491401
0.0491492
0.0491594
0.04917
0.0491803
0.0491895
0.0491953
0.0491783
0.0491039
0.0490751
0.0491681
0.0492199
0.0491299
0.0491418
0.0492763
0.0492775
0.0492705
0.0492601
0.0492445
0.049225
0.0492031
0.0491739
0.0491256
0.0490729
0.0490675
0.049049
0.0491989
0.0491868
0.0491926
0.0491866
0.0491781
0.0491679
0.0491575
0.0491477
0.0491393
0.0491328
0.0491288
0.0491275
0.049129
0.0491334
0.0491404
0.0491494
0.0491598
0.0491709
0.0491823
0.0491935
0.0492036
0.0492004
0.0491559
0.0491507
0.0492145
0.0492447
0.049133
0.0491301
0.0492783
0.0492788
0.0492709
0.0492597
0.0492429
0.0492223
0.049199
0.0491646
0.0491078
0.0490502
0.0490395
0.0490331
0.049192
0.049186
0.0491876
0.0491807
0.0491706
0.0491598
0.0491494
0.0491402
0.0491328
0.0491276
0.0491253
0.0491259
0.0491289
0.0491343
0.0491418
0.049151
0.0491616
0.0491729
0.0491848
0.0491973
0.0492099
0.0492163
0.0491994
0.0492078
0.049245
0.0492615
0.0491321
0.0491188
0.0492805
0.0492802
0.0492716
0.0492596
0.0492419
0.0492203
0.0491959
0.0491592
0.0491
0.0490392
0.0490179
0.0490178
0.0491868
0.0491856
0.0491829
0.0491746
0.0491629
0.0491508
0.0491398
0.0491304
0.0491233
0.0491191
0.0491185
0.0491215
0.049127
0.0491345
0.0491435
0.0491537
0.0491647
0.0491762
0.0491884
0.0492012
0.049215
0.0492266
0.0492284
0.0492419
0.0492626
0.0492723
0.0491283
0.0491081
0.0492828
0.0492818
0.0492727
0.0492601
0.0492416
0.0492193
0.0491949
0.0491596
0.0491037
0.0490415
0.0490069
0.0490046
0.0491837
0.0491851
0.0491787
0.0491685
0.0491552
0.0491415
0.0491291
0.0491187
0.0491109
0.0491069
0.0491075
0.0491128
0.0491217
0.0491324
0.049144
0.0491561
0.0491683
0.0491805
0.0491928
0.0492057
0.0492195
0.0492332
0.0492443
0.0492588
0.0492719
0.0492796
0.0491223
0.0490978
0.049285
0.0492835
0.0492741
0.0492612
0.0492421
0.0492194
0.0491959
0.0491654
0.0491187
0.0490591
0.0490134
0.0490017
0.0491827
0.0491844
0.0491748
0.0491628
0.0491479
0.0491325
0.0491182
0.0491059
0.0490965
0.0490914
0.0490922
0.0490991
0.0491116
0.0491262
0.0491416
0.0491569
0.0491714
0.0491849
0.0491978
0.0492106
0.049224
0.0492379
0.0492521
0.0492661
0.0492769
0.0492847
0.0491151
0.049088
0.0492873
0.0492852
0.0492758
0.0492629
0.0492435
0.0492205
0.0491982
0.0491738
0.0491392
0.0490908
0.049044
0.0490243
0.0491837
0.049183
0.049171
0.0491573
0.0491413
0.0491245
0.0491081
0.0490932
0.0490812
0.049074
0.0490735
0.0490808
0.0490959
0.0491148
0.049135
0.0491545
0.0491725
0.0491885
0.0492027
0.0492158
0.0492287
0.049242
0.0492563
0.0492694
0.0492801
0.0492885
0.049107
0.0490786
0.0492893
0.0492869
0.0492779
0.0492653
0.0492459
0.0492224
0.0492005
0.0491814
0.049159
0.0491283
0.0490952
0.0490807
0.0491854
0.0491808
0.0491674
0.0491524
0.0491355
0.0491177
0.0490995
0.0490821
0.049067
0.0490565
0.0490533
0.0490592
0.0490748
0.0490981
0.0491235
0.0491482
0.0491707
0.0491901
0.0492065
0.0492206
0.0492335
0.0492461
0.0492595
0.0492717
0.0492828
0.0492916
0.0490982
0.0490693
0.0492912
0.0492885
0.0492801
0.0492683
0.0492493
0.0492252
0.0492026
0.0491864
0.0491728
0.0491589
0.0491473
0.0491498
0.0491862
0.0491777
0.0491637
0.0491482
0.0491309
0.0491124
0.049093
0.0490734
0.0490551
0.0490409
0.049034
0.0490368
0.049051
0.0490771
0.0491073
0.0491377
0.0491654
0.0491892
0.0492088
0.0492247
0.0492381
0.0492503
0.0492627
0.0492741
0.0492854
0.0492943
0.0490888
0.04906
0.0492926
0.04929
0.0492826
0.0492719
0.0492537
0.0492289
0.0492044
0.0491885
0.0491792
0.0491751
0.0491788
0.0491926
0.0491847
0.0491739
0.0491601
0.0491448
0.0491277
0.0491089
0.0490886
0.0490675
0.0490465
0.0490286
0.0490175
0.0490161
0.0490268
0.049053
0.049087
0.049123
0.0491566
0.0491855
0.0492089
0.0492274
0.0492421
0.0492545
0.0492662
0.049277
0.0492882
0.0492969
0.049079
0.0490507
0.0492937
0.0492913
0.049285
0.049276
0.0492591
0.0492338
0.0492066
0.0491889
0.0491802
0.0491787
0.0491868
0.0491993
0.0491806
0.0491693
0.0491564
0.0491421
0.0491257
0.0491072
0.0490864
0.0490638
0.049041
0.04902
0.049005
0.0489991
0.0490049
0.0490273
0.0490637
0.0491049
0.0491445
0.0491789
0.0492068
0.0492285
0.0492452
0.0492583
0.0492698
0.0492801
0.049291
0.0492992
0.0490689
0.0490413
0.0492943
0.0492922
0.0492874
0.0492805
0.0492655
0.0492401
0.0492098
0.0491884
0.0491782
0.0491757
0.0491819
0.0491891
0.0491742
0.049164
0.0491527
0.0491398
0.0491248
0.049107
0.0490861
0.0490624
0.0490376
0.0490147
0.0489965
0.0489867
0.0489876
0.0490031
0.0490395
0.0490847
0.04913
0.0491701
0.0492028
0.0492281
0.0492472
0.0492617
0.0492734
0.0492834
0.0492939
0.0493015
0.0490587
0.0490316
0.0492944
0.0492927
0.0492896
0.0492853
0.0492728
0.049248
0.0492144
0.0491879
0.0491749
0.0491702
0.049173
0.0491763
0.0491665
0.049158
0.0491486
0.0491379
0.0491247
0.0491081
0.0490873
0.0490627
0.0490363
0.0490114
0.0489913
0.0489787
0.0489756
0.0489845
0.0490166
0.0490638
0.0491141
0.0491596
0.0491972
0.0492264
0.0492482
0.0492644
0.0492768
0.0492868
0.0492969
0.0493036
0.0490482
0.0490218
0.0492941
0.0492929
0.0492914
0.04929
0.0492808
0.0492575
0.0492212
0.049188
0.0491711
0.0491639
0.0491636
0.0491643
0.0491579
0.0491514
0.0491442
0.0491358
0.0491249
0.04911
0.0490897
0.0490644
0.0490363
0.0490097
0.0489883
0.0489741
0.0489684
0.0489724
0.0489963
0.0490433
0.0490978
0.0491485
0.0491908
0.0492238
0.0492485
0.0492665
0.0492799
0.0492901
0.0492998
0.0493057
0.0490378
0.0490117
0.0492934
0.0492926
0.0492926
0.0492943
0.0492891
0.0492685
0.0492305
0.0491896
0.0491674
0.0491573
0.0491543
0.0491533
0.0491489
0.049144
0.0491389
0.0491332
0.0491252
0.0491125
0.0490932
0.0490673
0.0490376
0.0490092
0.0489867
0.048972
0.0489651
0.0489661
0.0489807
0.0490248
0.0490822
0.0491376
0.0491842
0.0492208
0.0492483
0.0492683
0.0492828
0.0492934
0.0493028
0.0493078
0.0490273
0.0490014
0.0492924
0.0492919
0.0492932
0.0492981
0.0492973
0.0492804
0.0492425
0.0491936
0.0491641
0.0491509
0.0491453
0.0491429
0.0491394
0.0491358
0.0491327
0.0491297
0.0491249
0.0491152
0.0490974
0.0490712
0.04904
0.0490098
0.0489863
0.0489715
0.0489646
0.0489643
0.0489717
0.0490094
0.0490681
0.0491277
0.0491783
0.0492181
0.0492481
0.04927
0.0492857
0.0492967
0.0493059
0.04931
0.0490168
0.0489911
0.0492912
0.0492909
0.0492931
0.049301
0.049305
0.0492928
0.0492568
0.0492013
0.0491618
0.0491447
0.0491367
0.0491329
0.0491297
0.0491268
0.0491252
0.049125
0.0491238
0.0491178
0.0491024
0.0490763
0.0490434
0.0490114
0.0489871
0.0489725
0.0489662
0.0489662
0.048972
0.0489974
0.049055
0.0491192
0.0491737
0.0492163
0.0492485
0.049272
0.0492887
0.0493002
0.0493092
0.0493123
0.0490065
0.0489808
0.0492901
0.0492897
0.0492925
0.0493032
0.0493118
0.0493051
0.0492728
0.0492134
0.0491612
0.049139
0.0491285
0.0491233
0.0491199
0.0491171
0.0491165
0.0491186
0.0491215
0.04912
0.0491079
0.0490826
0.049048
0.049014
0.0489889
0.0489747
0.0489696
0.0489707
0.0489769
0.0489959
0.049046
0.0491113
0.0491687
0.0492152
0.0492498
0.0492746
0.0492922
0.049304
0.0493127
0.0493148
0.0489963
0.0489706
0.049289
0.0492888
0.0492919
0.0493046
0.0493174
0.0493166
0.0492897
0.0492302
0.0491638
0.0491341
0.0491209
0.0491144
0.0491103
0.049107
0.0491065
0.0491105
0.0491175
0.0491214
0.0491139
0.0490901
0.0490539
0.0490176
0.0489916
0.0489782
0.0489744
0.0489771
0.0489847
0.0490016
0.0490431
0.0491057
0.0491652
0.0492141
0.0492512
0.0492781
0.0492962
0.0493081
0.0493165
0.0493174
0.0489862
0.0489606
0.049288
0.0492882
0.0492917
0.0493057
0.0493217
0.0493269
0.0493064
0.0492505
0.0491714
0.0491304
0.0491144
0.0491066
0.0491018
0.0490974
0.0490958
0.0491006
0.0491114
0.0491215
0.0491201
0.049099
0.0490613
0.0490222
0.0489954
0.0489827
0.0489806
0.0489853
0.0489947
0.0490114
0.0490466
0.0491038
0.0491637
0.049214
0.0492527
0.0492816
0.049301
0.0493127
0.0493206
0.0493201
0.0489764
0.0489507
0.0492872
0.0492881
0.0492923
0.0493069
0.0493247
0.0493356
0.0493222
0.0492724
0.0491859
0.0491288
0.0491092
0.0491007
0.0490955
0.0490896
0.0490853
0.0490891
0.0491029
0.0491199
0.0491262
0.0491092
0.0490703
0.0490281
0.049
0.0489882
0.0489879
0.0489949
0.0490066
0.049024
0.0490553
0.0491062
0.0491643
0.0492153
0.0492552
0.0492851
0.049306
0.0493177
0.049325
0.049323
0.0489667
0.0489411
0.0492864
0.0492886
0.049294
0.0493088
0.0493267
0.0493426
0.0493365
0.0492935
0.0492074
0.0491306
0.049106
0.0490977
0.0490932
0.0490858
0.0490768
0.0490772
0.0490921
0.049116
0.0491318
0.0491208
0.0490812
0.0490352
0.0490056
0.0489947
0.0489964
0.0490057
0.0490199
0.0490387
0.0490679
0.049113
0.0491675
0.049218
0.0492587
0.0492891
0.0493108
0.0493231
0.0493298
0.0493259
0.0489573
0.0489316
0.0492857
0.04929
0.0492973
0.0493119
0.0493281
0.0493477
0.0493494
0.0493138
0.0492337
0.049138
0.0491053
0.0490987
0.0490984
0.0490888
0.0490728
0.0490664
0.0490795
0.0491093
0.0491361
0.0491336
0.0490941
0.0490437
0.0490121
0.0490022
0.0490057
0.0490173
0.0490341
0.0490548
0.0490832
0.0491237
0.0491737
0.0492224
0.049263
0.0492935
0.0493155
0.0493285
0.0493349
0.0493287
0.0489481
0.0489226
0.0492851
0.049293
0.0493027
0.0493167
0.0493295
0.0493511
0.0493607
0.0493338
0.0492619
0.0491545
0.0491076
0.0491042
0.049114
0.0491014
0.0490763
0.0490594
0.0490663
0.0490995
0.0491385
0.0491473
0.0491092
0.0490536
0.0490195
0.0490104
0.049016
0.0490298
0.0490489
0.0490717
0.0491002
0.0491375
0.0491828
0.0492286
0.0492681
0.0492984
0.0493203
0.0493335
0.0493401
0.0493313
0.0489392
0.0489141
0.0492844
0.049299
0.0493106
0.0493228
0.0493317
0.0493529
0.0493702
0.0493533
0.0492915
0.0491836
0.0491147
0.0491162
0.0491381
0.0491242
0.049089
0.0490591
0.049055
0.0490869
0.049138
0.0491616
0.0491268
0.0490651
0.0490277
0.0490194
0.0490271
0.0490431
0.0490644
0.0490892
0.0491184
0.0491535
0.0491946
0.0492367
0.049274
0.0493035
0.049325
0.0493379
0.0493455
0.0493335
0.0489308
0.048907
0.0492839
0.0493097
0.0493204
0.0493294
0.0493353
0.049354
0.0493776
0.0493716
0.0493232
0.0492256
0.0491289
0.0491371
0.0491632
0.0491479
0.0491075
0.0490671
0.049049
0.0490731
0.0491338
0.0491757
0.0491469
0.0490783
0.0490366
0.0490289
0.0490389
0.0490572
0.0490804
0.049107
0.0491371
0.0491709
0.0492084
0.0492465
0.0492808
0.0493087
0.0493294
0.049342
0.0493504
0.0493343
0.0489236
0.0489028
0.0492759
0.0493242
0.0493313
0.0493363
0.0493405
0.049356
0.0493826
0.049387
0.0493544
0.0492755
0.0491572
0.0491692
0.0491887
0.0491666
0.0491209
0.0490768
0.0490507
0.0490611
0.0491251
0.0491886
0.0491697
0.0490933
0.049046
0.0490386
0.0490511
0.0490721
0.0490972
0.0491252
0.0491561
0.0491891
0.0492236
0.0492577
0.0492884
0.0493139
0.0493331
0.0493451
0.0493535
0.0493202
0.0489201
0.0489045
0.0492451
0.049338
0.049344
0.0493442
0.0493487
0.0493615
0.0493847
0.0493943
0.0493815
0.0493321
0.0492073
0.0492136
0.0492169
0.0491804
0.0491276
0.0490815
0.0490545
0.0490554
0.0491124
0.0491987
0.0491951
0.0491104
0.0490557
0.0490477
0.0490627
0.0490869
0.0491145
0.0491438
0.049175
0.0492072
0.0492391
0.0492694
0.0492962
0.0493183
0.049335
0.0493453
0.0493485
0.0492895
0.0489232
0.0489153
0.0492006
0.0493028
0.0493572
0.0493555
0.0493605
0.0493709
0.0493778
0.0493779
0.0493797
0.0493767
0.0492756
0.0492645
0.049238
0.0491807
0.0491225
0.0490781
0.0490548
0.0490562
0.0490989
0.0492036
0.0492232
0.0491298
0.0490653
0.0490553
0.0490721
0.0490998
0.0491309
0.0491623
0.0491932
0.0492242
0.0492533
0.0492795
0.0493014
0.0493186
0.0493301
0.0493339
0.0493241
0.049247
0.0489347
0.0489373
0.0491526
0.0492311
0.0492581
0.0492807
0.0493067
0.0493189
0.0493152
0.0493103
0.0493123
0.049321
0.0493083
0.0492753
0.0492147
0.0491516
0.0490988
0.0490634
0.049049
0.0490566
0.0490926
0.0492006
0.0492533
0.0491518
0.0490746
0.0490598
0.0490763
0.0491063
0.0491411
0.0491757
0.0492071
0.0492355
0.0492602
0.0492799
0.0492939
0.0493017
0.0493025
0.0492945
0.0492729
0.0491983
0.0489557
0.0489706
0.0491063
0.0491459
0.0491577
0.0491692
0.0491723
0.0491729
0.0491727
0.0491753
0.0491814
0.0491891
0.0492027
0.0491736
0.0491281
0.0490868
0.0490547
0.049037
0.0490369
0.0490549
0.0490941
0.0491914
0.0492842
0.0491773
0.0490834
0.0490599
0.0490713
0.0490991
0.049134
0.0491696
0.0492012
0.0492252
0.0492406
0.0492486
0.0492497
0.0492449
0.0492348
0.0492198
0.0491993
0.0491494
0.0489867
0.0490136
0.0490659
0.0490592
0.0490534
0.0490553
0.0490556
0.0490546
0.0490548
0.0490577
0.0490626
0.0490668
0.049068
0.0490506
0.0490289
0.0490111
0.049002
0.049005
0.0490221
0.0490529
0.0490987
0.0491841
0.049314
0.0492077
0.0490929
0.0490552
0.0490547
0.0490714
0.0490966
0.0491236
0.049147
0.0491625
0.0491678
0.049164
0.0491557
0.0491452
0.049133
0.0491213
0.0491149
0.0491053
0.0490269
0.0490631
0.0490344
0.0489789
0.0489528
0.0489468
0.0489443
0.0489429
0.0489444
0.0489488
0.0489545
0.0489587
0.0489585
0.0489512
0.0489441
0.0489445
0.0489556
0.0489784
0.0490129
0.0490573
0.0491113
0.0491918
0.049341
0.049246
0.0491065
0.0490497
0.0490306
0.0490276
0.0490331
0.0490419
0.0490499
0.0490538
0.0490523
0.0490463
0.0490382
0.0490298
0.0490214
0.0490183
0.0490326
0.0490705
0.0490737
0.0491129
0.0490143
0.0489112
0.0488646
0.0488518
0.0488492
0.0488509
0.0488561
0.0488643
0.0488733
0.0488806
0.0488847
0.0488865
0.0488927
0.0489092
0.0489378
0.0489777
0.049027
0.0490834
0.0491468
0.0492285
0.0493803
0.0493007
0.0491345
0.0490568
0.0490174
0.0489925
0.0489756
0.0489643
0.0489563
0.0489496
0.0489429
0.0489359
0.0489291
0.0489233
0.0489205
0.0489268
0.0489633
0.0490486
0.0491225
0.049171
0.049039
0.0489069
0.0488532
0.0488461
0.0488524
0.0488633
0.0488778
0.0488953
0.0489136
0.0489305
0.0489443
0.0489558
0.0489699
0.0489921
0.0490243
0.0490662
0.0491171
0.0491784
0.0492581
0.0493694
0.0494972
0.049405
0.0492147
0.0491242
0.0490769
0.0490457
0.0490222
0.0490037
0.0489883
0.0489742
0.0489603
0.0489465
0.0489333
0.0489216
0.0489133
0.0489171
0.0489626
0.0490768
0.0491859
)
;

boundaryField
{
    floor
    {
        type            fixedFluxPressure;
        gradient        uniform 0;
        value           nonuniform List<scalar> 
40
(
0.0491793
0.0492077
0.049212
0.0492147
0.0492119
0.0492049
0.0491924
0.0491738
0.0491526
0.0491323
0.0491199
0.0491179
0.0491154
0.0491469
0.0491839
0.0491956
0.0491884
0.0491781
0.0491615
0.0491425
0.0491238
0.0491065
0.0490913
0.0490784
0.0490683
0.0490609
0.0490558
0.0490526
0.0490508
0.04905
0.0490499
0.0490509
0.0490485
0.0490293
0.0489841
0.0489453
0.0489404
0.0490158
0.049119
0.0490745
)
;
    }
    ceiling
    {
        type            fixedFluxPressure;
        gradient        nonuniform List<scalar> 
40
(
0.808728
0.805757
0.803907
0.802308
0.800756
0.799138
0.797429
0.79562
0.793709
0.791698
0.789596
0.787414
0.785149
0.782762
0.780172
0.777237
0.773701
0.769055
0.762196
0.750824
0.732103
0.708214
0.726155
0.760259
0.772447
0.775655
0.776325
0.776571
0.777008
0.7778
0.778979
0.780534
0.782432
0.784629
0.78707
0.789707
0.792531
0.795597
0.799064
0.803774
)
;
        value           nonuniform List<scalar> 
40
(
0.0532146
0.0530678
0.0529265
0.0528647
0.0528498
0.0528481
0.0528505
0.0528559
0.0528638
0.0528721
0.0528784
0.0528814
0.0528815
0.0528838
0.052893
0.0529105
0.0529347
0.0529624
0.0529894
0.0530123
0.05303
0.0530382
0.0530357
0.053016
0.0529864
0.0529552
0.0529273
0.0529051
0.0528888
0.0528773
0.0528691
0.052863
0.0528586
0.0528564
0.0528569
0.0528618
0.0528798
0.0529406
0.0530721
0.0532048
)
;
    }
    fixedWalls
    {
        type            fixedFluxPressure;
        gradient        uniform 0;
        value           nonuniform List<scalar> 
80
(
0.0491793
0.0491955
0.0491902
0.0491787
0.0491663
0.0491539
0.0491418
0.0491301
0.0491188
0.0491081
0.0490978
0.049088
0.0490786
0.0490693
0.04906
0.0490507
0.0490413
0.0490316
0.0490218
0.0490117
0.0490014
0.0489911
0.0489808
0.0489706
0.0489606
0.0489507
0.0489411
0.0489316
0.0489226
0.0489141
0.048907
0.0489028
0.0489045
0.0489153
0.0489373
0.0489706
0.0490136
0.0490631
0.0491129
0.049171
0.0490745
0.049088
0.0490985
0.049111
0.0491223
0.0491299
0.049133
0.0491321
0.0491283
0.0491223
0.0491151
0.049107
0.0490982
0.0490888
0.049079
0.0490689
0.0490587
0.0490482
0.0490378
0.0490273
0.0490168
0.0490065
0.0489963
0.0489862
0.0489764
0.0489667
0.0489573
0.0489481
0.0489392
0.0489308
0.0489236
0.0489201
0.0489232
0.0489347
0.0489557
0.0489867
0.0490269
0.0490737
0.0491225
0.0491859
)
;
    }
    frontAndBack
    {
        type            empty;
    }
}


// ************************************************************************* //
