/*--------------------------------*- C++ -*----------------------------------*\
| =========                 |                                                 |
| \\      /  F ield         | OpenFOAM: The Open Source CFD Toolbox           |
|  \\    /   O peration     | Version:  4.1                                   |
|   \\  /    A nd           | Web:      www.OpenFOAM.org                      |
|    \\/     M anipulation  |                                                 |
\*---------------------------------------------------------------------------*/
FoamFile
{
    version     2.0;
    format      ascii;
    class       volScalarField;
    location    "1300";
    object      T;
}
// * * * * * * * * * * * * * * * * * * * * * * * * * * * * * * * * * * * * * //

dimensions      [0 0 0 1 0 0 0];

internalField   nonuniform List<scalar> 
1600
(
287.686
286.953
287.055
286.812
286.623
286.427
286.322
286.365
286.468
286.61
286.68
286.88
286.934
286.023
285.364
285.285
285.509
285.685
285.868
286.066
286.285
286.531
286.81
287.124
287.438
287.742
288.041
288.338
288.636
288.94
289.248
289.403
289.402
289.608
290.173
290.693
289.324
287.239
285.529
287.293
286.248
284.213
284.201
284.189
284.181
284.177
284.18
284.187
284.194
284.204
284.218
284.593
285.991
285.293
284.431
284.41
284.403
284.398
284.395
284.392
284.391
284.39
284.39
284.39
284.425
284.502
284.613
284.745
284.88
284.978
284.97
284.936
284.985
285.258
286.368
288.466
289.102
286.073
284.842
286.361
285.784
284.153
284.144
284.143
284.146
284.154
284.165
284.175
284.184
284.198
284.215
284.322
285.671
285.137
284.424
284.415
284.408
284.401
284.395
284.39
284.386
284.384
284.381
284.377
284.373
284.373
284.38
284.398
284.423
284.443
284.442
284.437
284.48
284.669
285.499
287.381
288.49
286.455
284.866
285.981
285.547
284.146
284.14
284.143
284.152
284.165
284.182
284.197
284.213
284.241
284.276
284.323
285.54
285.005
284.426
284.422
284.416
284.408
284.399
284.392
284.387
284.384
284.383
284.383
284.383
284.38
284.377
284.374
284.373
284.371
284.367
284.363
284.381
284.489
285.09
286.642
287.659
285.978
284.746
285.7
285.4
284.144
284.141
284.148
284.16
284.179
284.202
284.223
284.249
284.307
284.381
284.481
285.434
284.714
284.432
284.429
284.425
284.418
284.407
284.395
284.386
284.379
284.376
284.376
284.378
284.38
284.379
284.377
284.372
284.366
284.359
284.352
284.354
284.407
284.81
286.018
286.734
285.392
284.56
285.486
285.3
284.144
284.143
284.153
284.169
284.192
284.221
284.251
284.295
284.401
284.587
284.711
285.333
284.417
284.439
284.438
284.438
284.433
284.421
284.406
284.391
284.377
284.368
284.364
284.364
284.368
284.371
284.372
284.37
284.366
284.359
284.351
284.345
284.366
284.607
285.459
285.858
284.909
284.405
285.33
285.226
284.144
284.145
284.158
284.177
284.205
284.241
284.282
284.352
284.536
284.806
284.917
285.276
284.427
284.446
284.449
284.452
284.452
284.443
284.427
284.407
284.386
284.368
284.355
284.348
284.349
284.353
284.357
284.359
284.359
284.354
284.347
284.34
284.345
284.472
284.995
285.165
284.59
284.309
285.22
285.17
284.145
284.148
284.162
284.185
284.218
284.262
284.316
284.421
284.65
284.942
285.081
285.256
284.443
284.454
284.46
284.468
284.473
284.469
284.455
284.434
284.408
284.381
284.357
284.339
284.331
284.33
284.334
284.339
284.342
284.342
284.338
284.332
284.33
284.39
284.664
284.712
284.408
284.258
285.143
285.124
284.146
284.15
284.166
284.191
284.229
284.28
284.346
284.468
284.706
285.008
285.198
285.272
284.453
284.462
284.472
284.485
284.496
284.498
284.489
284.47
284.443
284.411
284.376
284.345
284.323
284.313
284.311
284.314
284.319
284.322
284.323
284.32
284.317
284.342
284.464
284.465
284.315
284.231
285.088
285.086
284.147
284.152
284.169
284.196
284.238
284.296
284.367
284.485
284.706
285.006
285.251
285.308
284.461
284.471
284.483
284.5
284.517
284.528
284.526
284.513
284.489
284.455
284.414
284.371
284.333
284.308
284.295
284.292
284.294
284.299
284.302
284.303
284.303
284.313
284.359
284.346
284.27
284.216
285.046
285.053
284.148
284.154
284.172
284.199
284.244
284.306
284.377
284.478
284.657
284.936
285.218
285.317
284.469
284.48
284.495
284.515
284.536
284.554
284.562
284.558
284.541
284.511
284.468
284.416
284.363
284.321
284.294
284.279
284.274
284.276
284.28
284.284
284.287
284.292
284.306
284.29
284.246
284.207
285.013
285.024
284.149
284.156
284.173
284.2
284.248
284.313
284.381
284.459
284.589
284.811
285.082
285.224
284.477
284.489
284.506
284.528
284.552
284.576
284.592
284.598
284.592
284.57
284.531
284.477
284.413
284.354
284.31
284.28
284.264
284.259
284.26
284.264
284.268
284.273
284.276
284.262
284.232
284.2
284.985
284.997
284.15
284.157
284.173
284.2
284.248
284.316
284.383
284.443
284.526
284.67
284.871
285
284.485
284.498
284.515
284.538
284.564
284.591
284.614
284.63
284.635
284.624
284.595
284.546
284.48
284.406
284.343
284.296
284.266
284.25
284.245
284.246
284.25
284.255
284.255
284.244
284.221
284.193
284.962
284.973
284.152
284.157
284.172
284.197
284.245
284.315
284.385
284.435
284.485
284.56
284.667
284.733
284.492
284.505
284.521
284.544
284.571
284.601
284.628
284.651
284.667
284.668
284.651
284.613
284.552
284.469
284.39
284.327
284.281
284.252
284.237
284.232
284.234
284.237
284.238
284.229
284.21
284.187
284.94
284.951
284.153
284.158
284.17
284.192
284.239
284.311
284.386
284.434
284.467
284.502
284.543
284.56
284.498
284.509
284.525
284.546
284.573
284.604
284.634
284.663
284.686
284.699
284.694
284.67
284.62
284.538
284.449
284.369
284.307
284.263
284.237
284.224
284.221
284.222
284.222
284.215
284.2
284.18
284.921
284.93
284.154
284.158
284.167
284.186
284.23
284.303
284.384
284.436
284.464
284.483
284.499
284.504
284.503
284.512
284.525
284.545
284.57
284.601
284.634
284.666
284.694
284.716
284.723
284.712
284.677
284.608
284.513
284.42
284.341
284.283
284.244
284.222
284.212
284.209
284.208
284.202
284.19
284.173
284.903
284.911
284.155
284.158
284.164
284.179
284.218
284.291
284.379
284.439
284.467
284.483
284.493
284.5
284.507
284.513
284.524
284.54
284.564
284.594
284.628
284.664
284.696
284.723
284.739
284.738
284.718
284.67
284.577
284.474
284.382
284.309
284.258
284.225
284.208
284.2
284.196
284.191
284.18
284.167
284.887
284.893
284.156
284.158
284.162
284.171
284.205
284.275
284.369
284.44
284.472
284.488
284.498
284.504
284.509
284.513
284.52
284.534
284.555
284.584
284.619
284.657
284.694
284.724
284.745
284.752
284.743
284.714
284.634
284.528
284.425
284.339
284.276
284.233
284.207
284.194
284.187
284.181
284.171
284.16
284.872
284.877
284.157
284.158
284.159
284.164
284.19
284.255
284.354
284.438
284.476
284.494
284.503
284.508
284.51
284.512
284.517
284.527
284.544
284.571
284.607
284.648
284.688
284.723
284.746
284.757
284.755
284.738
284.681
284.578
284.467
284.37
284.296
284.243
284.21
284.19
284.179
284.172
284.163
284.154
284.859
284.862
284.159
284.159
284.158
284.157
284.175
284.233
284.333
284.432
284.479
284.499
284.508
284.511
284.511
284.512
284.514
284.52
284.534
284.558
284.594
284.637
284.681
284.719
284.744
284.757
284.758
284.748
284.715
284.621
284.506
284.4
284.316
284.255
284.214
284.188
284.173
284.164
284.155
284.149
284.846
284.849
284.16
284.161
284.158
284.152
284.161
284.209
284.306
284.42
284.481
284.503
284.512
284.514
284.513
284.512
284.512
284.515
284.524
284.545
284.58
284.625
284.673
284.714
284.74
284.753
284.754
284.748
284.733
284.655
284.539
284.426
284.334
284.266
284.218
284.188
284.169
284.157
284.148
284.143
284.835
284.838
284.162
284.163
284.159
284.148
284.148
284.185
284.275
284.401
284.48
284.506
284.516
284.518
284.516
284.514
284.512
284.512
284.517
284.533
284.565
284.612
284.663
284.708
284.735
284.747
284.747
284.741
284.729
284.681
284.569
284.448
284.348
284.275
284.222
284.187
284.165
284.151
284.142
284.139
284.824
284.827
284.164
284.166
284.161
284.146
284.138
284.163
284.242
284.373
284.475
284.509
284.52
284.521
284.519
284.518
284.515
284.512
284.512
284.522
284.551
284.598
284.653
284.701
284.73
284.74
284.738
284.729
284.716
284.683
284.589
284.467
284.363
284.282
284.224
284.186
284.161
284.145
284.135
284.134
284.815
284.818
284.166
284.168
284.164
284.146
284.13
284.143
284.209
284.336
284.465
284.51
284.523
284.525
284.523
284.523
284.521
284.516
284.51
284.514
284.537
284.583
284.642
284.694
284.723
284.732
284.727
284.715
284.699
284.67
284.596
284.482
284.375
284.289
284.226
284.183
284.156
284.139
284.13
284.13
284.806
284.81
284.168
284.169
284.165
284.146
284.125
284.126
284.178
284.295
284.445
284.51
284.525
284.527
284.526
284.528
284.529
284.524
284.514
284.509
284.524
284.568
284.631
284.686
284.717
284.723
284.714
284.698
284.679
284.65
284.59
284.488
284.382
284.294
284.228
284.181
284.151
284.134
284.124
284.126
284.798
284.803
284.169
284.17
284.166
284.146
284.122
284.113
284.15
284.252
284.414
284.506
284.526
284.528
284.527
284.531
284.537
284.535
284.522
284.509
284.514
284.553
284.618
284.678
284.709
284.713
284.701
284.681
284.657
284.627
284.574
284.486
284.385
284.296
284.229
284.179
284.146
284.128
284.118
284.122
284.791
284.797
284.171
284.17
284.164
284.145
284.121
284.104
284.126
284.214
284.372
284.498
284.524
284.525
284.523
284.529
284.543
284.548
284.536
284.514
284.506
284.537
284.604
284.67
284.702
284.703
284.687
284.662
284.633
284.601
284.552
284.475
284.382
284.296
284.227
284.176
284.141
284.122
284.113
284.118
284.785
284.792
284.172
284.169
284.159
284.141
284.121
284.097
284.106
284.178
284.324
284.481
284.52
284.517
284.508
284.518
284.543
284.561
284.554
284.525
284.503
284.523
284.59
284.661
284.694
284.692
284.672
284.643
284.609
284.573
284.526
284.459
284.374
284.292
284.224
284.173
284.137
284.116
284.108
284.115
284.78
284.789
284.172
284.165
284.151
284.134
284.12
284.094
284.089
284.146
284.274
284.451
284.512
284.504
284.478
284.493
284.533
284.568
284.573
284.543
284.505
284.509
284.574
284.652
284.687
284.682
284.657
284.623
284.585
284.546
284.499
284.437
284.362
284.285
284.22
284.169
284.133
284.111
284.103
284.113
284.777
284.787
284.172
284.156
284.139
284.125
284.117
284.092
284.076
284.115
284.225
284.403
284.498
284.483
284.437
284.454
284.51
284.566
284.591
284.566
284.514
284.498
284.558
284.642
284.679
284.671
284.641
284.603
284.561
284.518
284.47
284.413
284.345
284.276
284.214
284.165
284.13
284.108
284.099
284.11
284.777
284.788
284.17
284.139
284.124
284.116
284.112
284.091
284.066
284.089
284.176
284.336
284.474
284.45
284.397
284.416
284.48
284.553
284.603
284.593
284.53
284.49
284.541
284.632
284.673
284.66
284.625
284.582
284.537
284.491
284.442
284.387
284.326
284.263
284.206
284.161
284.127
284.105
284.095
284.11
284.78
284.792
284.178
284.117
284.108
284.106
284.105
284.089
284.06
284.067
284.13
284.259
284.431
284.401
284.359
284.387
284.459
284.54
284.604
284.619
284.555
284.487
284.523
284.622
284.667
284.651
284.61
284.562
284.513
284.464
284.414
284.361
284.305
284.249
284.198
284.156
284.124
284.104
284.094
284.134
284.785
284.796
284.225
284.096
284.089
284.094
284.093
284.081
284.058
284.058
284.092
284.175
284.357
284.335
284.318
284.367
284.451
284.536
284.603
284.636
284.587
284.49
284.505
284.611
284.662
284.644
284.596
284.542
284.489
284.438
284.387
284.335
284.283
284.234
284.189
284.152
284.125
284.107
284.106
284.188
284.79
284.8
284.3
284.148
284.07
284.078
284.076
284.068
284.068
284.082
284.095
284.112
284.259
284.262
284.288
284.367
284.46
284.545
284.61
284.645
284.62
284.502
284.486
284.599
284.659
284.64
284.587
284.526
284.466
284.412
284.361
284.312
284.265
284.221
284.184
284.155
284.135
284.128
284.147
284.266
284.794
284.804
284.391
284.254
284.209
284.183
284.151
284.141
284.156
284.177
284.19
284.19
284.213
284.246
284.32
284.409
284.496
284.571
284.626
284.655
284.643
284.525
284.466
284.586
284.658
284.642
284.587
284.52
284.454
284.394
284.343
284.297
284.256
284.222
284.197
284.181
284.176
284.188
284.229
284.36
284.798
284.809
284.491
284.385
284.351
284.336
284.335
284.341
284.351
284.361
284.368
284.369
284.355
284.384
284.439
284.5
284.561
284.614
284.651
284.667
284.653
284.554
284.445
284.569
284.659
284.651
284.6
284.534
284.466
284.404
284.352
284.312
284.284
284.266
284.259
284.26
284.272
284.296
284.345
284.463
284.801
284.813
284.594
284.522
284.498
284.49
284.491
284.499
284.508
284.517
284.524
284.528
284.53
284.547
284.573
284.605
284.637
284.664
284.68
284.679
284.656
284.577
284.424
284.546
284.659
284.667
284.629
284.575
284.518
284.466
284.424
284.395
284.381
284.379
284.384
284.394
284.41
284.435
284.478
284.567
284.804
284.818
284.691
284.651
284.638
284.635
284.639
284.645
284.652
284.658
284.663
284.666
284.67
284.677
284.686
284.696
284.704
284.706
284.699
284.681
284.647
284.575
284.402
284.511
284.652
284.682
284.667
284.637
284.604
284.574
284.551
284.536
284.531
284.532
284.538
284.547
284.56
284.578
284.608
284.664
284.806
284.825
284.773
284.758
284.754
284.755
284.759
284.761
284.763
284.763
284.763
284.763
284.761
284.759
284.753
284.744
284.731
284.712
284.687
284.653
284.606
284.532
284.359
284.45
284.623
284.68
284.689
284.685
284.679
284.673
284.669
284.667
284.668
284.671
284.675
284.681
284.688
284.699
284.715
284.742
284.807
284.815
284.798
284.787
284.777
284.768
284.758
284.748
284.737
284.726
284.714
284.701
284.688
284.675
284.661
284.645
284.628
284.607
284.579
284.538
284.471
284.359
284.217
284.324
284.527
284.599
284.618
284.622
284.624
284.627
284.631
284.638
284.647
284.659
284.672
284.686
284.702
284.719
284.737
284.758
284.786
)
;

boundaryField
{
    floor
    {
        type            fixedValue;
        value           uniform 340;
    }
    ceiling
    {
        type            fixedValue;
        value           uniform 280;
    }
    fixedWalls
    {
        type            zeroGradient;
    }
    frontAndBack
    {
        type            empty;
    }
}


// ************************************************************************* //
