/*--------------------------------*- C++ -*----------------------------------*\
| =========                 |                                                 |
| \\      /  F ield         | OpenFOAM: The Open Source CFD Toolbox           |
|  \\    /   O peration     | Version:  4.1                                   |
|   \\  /    A nd           | Web:      www.OpenFOAM.org                      |
|    \\/     M anipulation  |                                                 |
\*---------------------------------------------------------------------------*/
FoamFile
{
    version     2.0;
    format      ascii;
    class       volScalarField;
    location    "1800";
    object      p;
}
// * * * * * * * * * * * * * * * * * * * * * * * * * * * * * * * * * * * * * //

dimensions      [0 2 -2 0 0 0 0];

internalField   nonuniform List<scalar> 
1600
(
0
-4.31701e-05
-0.000116942
-0.000182021
-0.000231121
-0.00026843
-0.000297254
-0.000318921
-0.000334222
-0.000343961
-0.00034916
-0.000350988
-0.000350707
-0.000349686
-0.000349335
-0.000351126
-0.000355501
-0.000358143
-0.000360341
-0.000343021
-0.000324428
-0.000308826
-0.000296781
-0.000285938
-0.000296045
-0.000300894
-0.000305252
-0.000298457
-0.000291945
-0.000284062
-0.000273999
-0.000262112
-0.000248859
-0.000234556
-0.000219246
-0.00020253
-0.000183273
-0.000159936
-0.000134074
-0.000117921
-0.0984127
-0.0984521
-0.0985183
-0.0985785
-0.0986249
-0.0986601
-0.0986869
-0.0987066
-0.0987199
-0.0987274
-0.0987301
-0.0987291
-0.0987257
-0.0987212
-0.0987168
-0.0987134
-0.0987102
-0.098705
-0.0987119
-0.0987132
-0.0986974
-0.0986796
-0.098663
-0.0986458
-0.0986393
-0.0986389
-0.0986523
-0.0986535
-0.0986515
-0.0986464
-0.0986386
-0.0986285
-0.0986169
-0.0986042
-0.0985908
-0.0985764
-0.09856
-0.0985405
-0.09852
-0.0985081
-0.196832
-0.196869
-0.196928
-0.196984
-0.197028
-0.197062
-0.197088
-0.197108
-0.197121
-0.197128
-0.19713
-0.197127
-0.197122
-0.197116
-0.197109
-0.197102
-0.197093
-0.197081
-0.197086
-0.197096
-0.197087
-0.197072
-0.197055
-0.197036
-0.197011
-0.197016
-0.197038
-0.197045
-0.197045
-0.19704
-0.197032
-0.197023
-0.197011
-0.196999
-0.196986
-0.196972
-0.196956
-0.196938
-0.19692
-0.196909
-0.295254
-0.295287
-0.29534
-0.295391
-0.295433
-0.295465
-0.29549
-0.295509
-0.295521
-0.295528
-0.29553
-0.295527
-0.295522
-0.295514
-0.295506
-0.295498
-0.295486
-0.295469
-0.295467
-0.295477
-0.295475
-0.295464
-0.295448
-0.29543
-0.295399
-0.295408
-0.295431
-0.29544
-0.29544
-0.295435
-0.295428
-0.295418
-0.295406
-0.295394
-0.295381
-0.295368
-0.295353
-0.295337
-0.295321
-0.295311
-0.393676
-0.393707
-0.393753
-0.393799
-0.393837
-0.393868
-0.393892
-0.39391
-0.393922
-0.393928
-0.39393
-0.393927
-0.393921
-0.393913
-0.393904
-0.393895
-0.393882
-0.39386
-0.39385
-0.393859
-0.393863
-0.393857
-0.393842
-0.393824
-0.393794
-0.393806
-0.393828
-0.393835
-0.393836
-0.393831
-0.393824
-0.393814
-0.393802
-0.39379
-0.393777
-0.393764
-0.393751
-0.393736
-0.393722
-0.393714
-0.492096
-0.492125
-0.492165
-0.492206
-0.492241
-0.49227
-0.492293
-0.49231
-0.492321
-0.492328
-0.492329
-0.492326
-0.492319
-0.492311
-0.492302
-0.492293
-0.492279
-0.492253
-0.492235
-0.492242
-0.492251
-0.492251
-0.49224
-0.49222
-0.492195
-0.492207
-0.492226
-0.492232
-0.492232
-0.492228
-0.492221
-0.492211
-0.492199
-0.492186
-0.492174
-0.492162
-0.492149
-0.492136
-0.492123
-0.492116
-0.590516
-0.590542
-0.590577
-0.590614
-0.590645
-0.590672
-0.590693
-0.590709
-0.59072
-0.590726
-0.590727
-0.590724
-0.590717
-0.590709
-0.590699
-0.59069
-0.590675
-0.590645
-0.590621
-0.590627
-0.590641
-0.590647
-0.59064
-0.590618
-0.590597
-0.590609
-0.590625
-0.590631
-0.59063
-0.590626
-0.590618
-0.590608
-0.590596
-0.590584
-0.590572
-0.59056
-0.590548
-0.590536
-0.590525
-0.590518
-0.688934
-0.688957
-0.688988
-0.68902
-0.689049
-0.689073
-0.689093
-0.689108
-0.689119
-0.689125
-0.689126
-0.689122
-0.689115
-0.689106
-0.689096
-0.689087
-0.689071
-0.689036
-0.689007
-0.689014
-0.689033
-0.689044
-0.689039
-0.689017
-0.689
-0.689011
-0.689025
-0.68903
-0.689029
-0.689025
-0.689017
-0.689007
-0.688995
-0.688982
-0.68897
-0.688958
-0.688947
-0.688936
-0.688926
-0.68892
-0.787349
-0.787371
-0.787397
-0.787426
-0.787451
-0.787474
-0.787493
-0.787507
-0.787517
-0.787523
-0.787523
-0.787519
-0.787512
-0.787503
-0.787493
-0.787483
-0.787465
-0.787426
-0.787394
-0.787403
-0.787425
-0.787439
-0.787434
-0.787416
-0.787403
-0.787414
-0.787427
-0.78743
-0.787429
-0.787424
-0.787417
-0.787406
-0.787394
-0.787381
-0.787368
-0.787357
-0.787346
-0.787336
-0.787328
-0.787322
-0.885762
-0.885782
-0.885805
-0.88583
-0.885853
-0.885874
-0.885892
-0.885905
-0.885915
-0.88592
-0.88592
-0.885916
-0.885909
-0.885899
-0.885889
-0.885878
-0.885859
-0.885814
-0.885783
-0.885794
-0.885817
-0.885831
-0.885826
-0.885813
-0.885805
-0.885818
-0.885828
-0.88583
-0.885829
-0.885824
-0.885817
-0.885806
-0.885794
-0.88578
-0.885768
-0.885756
-0.885746
-0.885737
-0.885729
-0.885724
-0.984173
-0.98419
-0.98421
-0.984233
-0.984254
-0.984274
-0.98429
-0.984303
-0.984312
-0.984317
-0.984317
-0.984313
-0.984305
-0.984295
-0.984284
-0.984273
-0.98425
-0.9842
-0.984173
-0.984186
-0.984207
-0.984219
-0.984217
-0.984208
-0.984207
-0.984221
-0.98423
-0.984231
-0.984229
-0.984225
-0.984217
-0.984207
-0.984194
-0.984181
-0.984167
-0.984156
-0.984146
-0.984137
-0.984131
-0.984126
-1.08258
-1.0826
-1.08261
-1.08264
-1.08265
-1.08267
-1.08269
-1.0827
-1.08271
-1.08271
-1.08271
-1.08271
-1.0827
-1.08269
-1.08268
-1.08267
-1.08264
-1.08259
-1.08257
-1.08258
-1.0826
-1.08261
-1.08261
-1.0826
-1.08261
-1.08262
-1.08263
-1.08263
-1.08263
-1.08263
-1.08262
-1.08261
-1.0826
-1.08258
-1.08257
-1.08256
-1.08255
-1.08254
-1.08253
-1.08253
-1.18099
-1.181
-1.18102
-1.18104
-1.18105
-1.18107
-1.18109
-1.1811
-1.18111
-1.18111
-1.18111
-1.18111
-1.1811
-1.18109
-1.18107
-1.18106
-1.18103
-1.18097
-1.18096
-1.18097
-1.18098
-1.18099
-1.18099
-1.181
-1.18101
-1.18103
-1.18103
-1.18103
-1.18103
-1.18103
-1.18102
-1.18101
-1.181
-1.18098
-1.18097
-1.18096
-1.18095
-1.18094
-1.18093
-1.18093
-1.27939
-1.2794
-1.27942
-1.27944
-1.27945
-1.27947
-1.27948
-1.2795
-1.2795
-1.27951
-1.27951
-1.2795
-1.27949
-1.27948
-1.27947
-1.27946
-1.27941
-1.27936
-1.27936
-1.27936
-1.27937
-1.27938
-1.27938
-1.27939
-1.27941
-1.27943
-1.27943
-1.27943
-1.27943
-1.27943
-1.27942
-1.27941
-1.2794
-1.27938
-1.27937
-1.27936
-1.27935
-1.27934
-1.27933
-1.27933
-1.37779
-1.37781
-1.37782
-1.37784
-1.37785
-1.37787
-1.37788
-1.37789
-1.3779
-1.3779
-1.3779
-1.3779
-1.37789
-1.37788
-1.37786
-1.37785
-1.3778
-1.37775
-1.37775
-1.37775
-1.37776
-1.37776
-1.37777
-1.37778
-1.3778
-1.37783
-1.37783
-1.37783
-1.37783
-1.37783
-1.37782
-1.37781
-1.3778
-1.37778
-1.37777
-1.37776
-1.37775
-1.37774
-1.37773
-1.37773
-1.47619
-1.4762
-1.47622
-1.47623
-1.47625
-1.47627
-1.47628
-1.47629
-1.4763
-1.4763
-1.4763
-1.47629
-1.47628
-1.47627
-1.47626
-1.47624
-1.47618
-1.47614
-1.47614
-1.47614
-1.47614
-1.47615
-1.47615
-1.47617
-1.4762
-1.47622
-1.47623
-1.47623
-1.47623
-1.47622
-1.47622
-1.47621
-1.4762
-1.47618
-1.47617
-1.47616
-1.47615
-1.47614
-1.47613
-1.47613
-1.57459
-1.5746
-1.57461
-1.57463
-1.57465
-1.57466
-1.57468
-1.57469
-1.57469
-1.5747
-1.5747
-1.57469
-1.57468
-1.57466
-1.57465
-1.57462
-1.57457
-1.57454
-1.57453
-1.57453
-1.57453
-1.57453
-1.57454
-1.57456
-1.57459
-1.57462
-1.57463
-1.57463
-1.57462
-1.57462
-1.57462
-1.57461
-1.5746
-1.57458
-1.57457
-1.57456
-1.57455
-1.57454
-1.57453
-1.57453
-1.67299
-1.673
-1.67301
-1.67303
-1.67304
-1.67306
-1.67307
-1.67309
-1.67309
-1.67309
-1.67309
-1.67308
-1.67307
-1.67306
-1.67304
-1.67301
-1.67296
-1.67293
-1.67292
-1.67292
-1.67291
-1.67291
-1.67293
-1.67295
-1.67298
-1.67301
-1.67302
-1.67302
-1.67302
-1.67302
-1.67301
-1.67301
-1.673
-1.67298
-1.67297
-1.67296
-1.67295
-1.67294
-1.67293
-1.67293
-1.77138
-1.77139
-1.77141
-1.77142
-1.77144
-1.77146
-1.77147
-1.77148
-1.77149
-1.77149
-1.77149
-1.77148
-1.77147
-1.77145
-1.77143
-1.7714
-1.77135
-1.77132
-1.77131
-1.7713
-1.7713
-1.7713
-1.77131
-1.77134
-1.77137
-1.77141
-1.77142
-1.77142
-1.77142
-1.77141
-1.77141
-1.7714
-1.7714
-1.77138
-1.77137
-1.77136
-1.77135
-1.77134
-1.77133
-1.77133
-1.86978
-1.86979
-1.8698
-1.86982
-1.86984
-1.86985
-1.86987
-1.86988
-1.86989
-1.86989
-1.86988
-1.86987
-1.86986
-1.86985
-1.86982
-1.86979
-1.86974
-1.86972
-1.8697
-1.86969
-1.86968
-1.86968
-1.8697
-1.86972
-1.86976
-1.8698
-1.86981
-1.86981
-1.86981
-1.86981
-1.8698
-1.8698
-1.86979
-1.86978
-1.86977
-1.86976
-1.86975
-1.86974
-1.86973
-1.86972
-1.96817
-1.96818
-1.96819
-1.96821
-1.96823
-1.96825
-1.96827
-1.96828
-1.96829
-1.96829
-1.96828
-1.96827
-1.96825
-1.96824
-1.96821
-1.96817
-1.96813
-1.96811
-1.96809
-1.96808
-1.96807
-1.96807
-1.96808
-1.96811
-1.96815
-1.96819
-1.9682
-1.96821
-1.9682
-1.9682
-1.9682
-1.96819
-1.96819
-1.96818
-1.96817
-1.96816
-1.96814
-1.96813
-1.96813
-1.96812
-2.06656
-2.06657
-2.06658
-2.0666
-2.06662
-2.06664
-2.06666
-2.06667
-2.06668
-2.06668
-2.06667
-2.06666
-2.06665
-2.06663
-2.0666
-2.06656
-2.06652
-2.0665
-2.06648
-2.06647
-2.06646
-2.06645
-2.06647
-2.0665
-2.06653
-2.06657
-2.06659
-2.0666
-2.0666
-2.0666
-2.06659
-2.06659
-2.06658
-2.06658
-2.06657
-2.06655
-2.06654
-2.06653
-2.06652
-2.06652
-2.16494
-2.16496
-2.16497
-2.16499
-2.16502
-2.16504
-2.16506
-2.16507
-2.16508
-2.16508
-2.16507
-2.16506
-2.16504
-2.16502
-2.16499
-2.16495
-2.16491
-2.16489
-2.16487
-2.16486
-2.16484
-2.16484
-2.16485
-2.16488
-2.16492
-2.16496
-2.16498
-2.16499
-2.16499
-2.16499
-2.16499
-2.16498
-2.16498
-2.16497
-2.16496
-2.16495
-2.16494
-2.16493
-2.16492
-2.16491
-2.26333
-2.26334
-2.26336
-2.26338
-2.26341
-2.26343
-2.26345
-2.26347
-2.26347
-2.26347
-2.26346
-2.26345
-2.26343
-2.26341
-2.26338
-2.26334
-2.2633
-2.26328
-2.26326
-2.26325
-2.26323
-2.26323
-2.26324
-2.26326
-2.2633
-2.26334
-2.26337
-2.26338
-2.26338
-2.26338
-2.26338
-2.26338
-2.26337
-2.26337
-2.26336
-2.26335
-2.26333
-2.26332
-2.26331
-2.2633
-2.36171
-2.36173
-2.36175
-2.36177
-2.3618
-2.36182
-2.36184
-2.36186
-2.36187
-2.36187
-2.36186
-2.36184
-2.36182
-2.3618
-2.36176
-2.36173
-2.3617
-2.36168
-2.36166
-2.36164
-2.36162
-2.36162
-2.36163
-2.36165
-2.36169
-2.36173
-2.36176
-2.36177
-2.36178
-2.36178
-2.36178
-2.36177
-2.36177
-2.36176
-2.36175
-2.36174
-2.36173
-2.36172
-2.3617
-2.36169
-2.4601
-2.46011
-2.46013
-2.46016
-2.46018
-2.46021
-2.46023
-2.46025
-2.46026
-2.46026
-2.46025
-2.46023
-2.46021
-2.46018
-2.46015
-2.46012
-2.46009
-2.46007
-2.46005
-2.46003
-2.46001
-2.46001
-2.46002
-2.46004
-2.46007
-2.46011
-2.46014
-2.46016
-2.46016
-2.46017
-2.46017
-2.46017
-2.46016
-2.46016
-2.46015
-2.46014
-2.46012
-2.46011
-2.4601
-2.46008
-2.55848
-2.5585
-2.55852
-2.55854
-2.55857
-2.5586
-2.55862
-2.55864
-2.55865
-2.55865
-2.55864
-2.55862
-2.5586
-2.55857
-2.55853
-2.5585
-2.55848
-2.55846
-2.55844
-2.55842
-2.55841
-2.5584
-2.55841
-2.55843
-2.55846
-2.55849
-2.55852
-2.55854
-2.55855
-2.55856
-2.55856
-2.55856
-2.55856
-2.55855
-2.55854
-2.55853
-2.55852
-2.5585
-2.55849
-2.55847
-2.65685
-2.65688
-2.6569
-2.65693
-2.65696
-2.65699
-2.65701
-2.65703
-2.65704
-2.65704
-2.65703
-2.65701
-2.65698
-2.65695
-2.65692
-2.65689
-2.65687
-2.65685
-2.65683
-2.65681
-2.6568
-2.65679
-2.6568
-2.65682
-2.65684
-2.65688
-2.65691
-2.65693
-2.65694
-2.65695
-2.65695
-2.65695
-2.65695
-2.65694
-2.65693
-2.65692
-2.65691
-2.65689
-2.65687
-2.65686
-2.75523
-2.75525
-2.75528
-2.75531
-2.75534
-2.75537
-2.7554
-2.75542
-2.75543
-2.75543
-2.75542
-2.7554
-2.75537
-2.75533
-2.7553
-2.75528
-2.75526
-2.75524
-2.75522
-2.7552
-2.75519
-2.75519
-2.75519
-2.75521
-2.75523
-2.75527
-2.75529
-2.75531
-2.75532
-2.75533
-2.75534
-2.75534
-2.75534
-2.75533
-2.75533
-2.75531
-2.7553
-2.75528
-2.75526
-2.75525
-2.85361
-2.85363
-2.85366
-2.85369
-2.85372
-2.85375
-2.85378
-2.85381
-2.85382
-2.85382
-2.8538
-2.85378
-2.85374
-2.85371
-2.85368
-2.85367
-2.85365
-2.85363
-2.85361
-2.85359
-2.85358
-2.85358
-2.85359
-2.8536
-2.85362
-2.85365
-2.85368
-2.8537
-2.85371
-2.85372
-2.85373
-2.85373
-2.85373
-2.85372
-2.85371
-2.8537
-2.85368
-2.85366
-2.85365
-2.85363
-2.95198
-2.95201
-2.95204
-2.95207
-2.9521
-2.95214
-2.95217
-2.95219
-2.9522
-2.9522
-2.95219
-2.95216
-2.95212
-2.95208
-2.95206
-2.95205
-2.95204
-2.95202
-2.952
-2.95199
-2.95198
-2.95198
-2.95198
-2.95199
-2.95202
-2.95204
-2.95206
-2.95208
-2.9521
-2.95211
-2.95211
-2.95212
-2.95212
-2.95211
-2.9521
-2.95209
-2.95207
-2.95205
-2.95203
-2.95201
-3.05036
-3.05039
-3.05042
-3.05045
-3.05048
-3.05052
-3.05055
-3.05057
-3.05058
-3.05058
-3.05056
-3.05053
-3.05049
-3.05046
-3.05044
-3.05043
-3.05043
-3.05041
-3.05039
-3.05038
-3.05037
-3.05037
-3.05038
-3.05039
-3.05041
-3.05043
-3.05045
-3.05047
-3.05048
-3.05049
-3.0505
-3.0505
-3.0505
-3.0505
-3.05049
-3.05048
-3.05046
-3.05044
-3.05042
-3.0504
-3.14874
-3.14877
-3.1488
-3.14883
-3.14886
-3.1489
-3.14893
-3.14895
-3.14896
-3.14896
-3.14894
-3.14891
-3.14887
-3.14883
-3.14881
-3.14882
-3.14882
-3.1488
-3.14878
-3.14877
-3.14876
-3.14876
-3.14877
-3.14878
-3.1488
-3.14882
-3.14884
-3.14886
-3.14887
-3.14888
-3.14889
-3.14889
-3.14889
-3.14889
-3.14888
-3.14886
-3.14884
-3.14882
-3.1488
-3.14878
-3.24712
-3.24715
-3.24718
-3.24721
-3.24724
-3.24728
-3.24731
-3.24733
-3.24734
-3.24734
-3.24732
-3.24728
-3.24724
-3.2472
-3.24718
-3.2472
-3.2472
-3.24719
-3.24717
-3.24716
-3.24716
-3.24716
-3.24717
-3.24718
-3.24719
-3.24721
-3.24723
-3.24724
-3.24726
-3.24727
-3.24727
-3.24728
-3.24728
-3.24727
-3.24726
-3.24725
-3.24723
-3.24721
-3.24719
-3.24716
-3.3455
-3.34553
-3.34556
-3.34559
-3.34562
-3.34566
-3.34569
-3.34571
-3.34572
-3.34571
-3.34569
-3.34565
-3.34561
-3.34557
-3.34555
-3.34558
-3.34558
-3.34558
-3.34556
-3.34556
-3.34555
-3.34556
-3.34556
-3.34557
-3.34559
-3.3456
-3.34562
-3.34563
-3.34564
-3.34565
-3.34566
-3.34567
-3.34567
-3.34566
-3.34565
-3.34564
-3.34562
-3.34559
-3.34557
-3.34555
-3.44388
-3.44391
-3.44394
-3.44397
-3.44401
-3.44404
-3.44407
-3.44409
-3.4441
-3.44409
-3.44406
-3.44402
-3.44397
-3.44393
-3.44392
-3.44396
-3.44397
-3.44397
-3.44395
-3.44395
-3.44395
-3.44395
-3.44396
-3.44397
-3.44398
-3.444
-3.44401
-3.44402
-3.44403
-3.44404
-3.44405
-3.44405
-3.44405
-3.44405
-3.44404
-3.44403
-3.44401
-3.44398
-3.44396
-3.44394
-3.54227
-3.5423
-3.54233
-3.54236
-3.54239
-3.54242
-3.54245
-3.54247
-3.54247
-3.54247
-3.54244
-3.5424
-3.54234
-3.5423
-3.54229
-3.54233
-3.54235
-3.54235
-3.54235
-3.54235
-3.54235
-3.54235
-3.54236
-3.54237
-3.54238
-3.54239
-3.5424
-3.54241
-3.54242
-3.54243
-3.54244
-3.54244
-3.54244
-3.54244
-3.54243
-3.54241
-3.54239
-3.54237
-3.54235
-3.54233
-3.64067
-3.64069
-3.64071
-3.64074
-3.64077
-3.64081
-3.64083
-3.64085
-3.64086
-3.64085
-3.64082
-3.64077
-3.64072
-3.64067
-3.64066
-3.6407
-3.64074
-3.64074
-3.64074
-3.64074
-3.64074
-3.64075
-3.64075
-3.64076
-3.64077
-3.64078
-3.64079
-3.6408
-3.64081
-3.64082
-3.64083
-3.64083
-3.64083
-3.64083
-3.64082
-3.6408
-3.64078
-3.64076
-3.64074
-3.64072
-3.73907
-3.73909
-3.73911
-3.73914
-3.73916
-3.73919
-3.73922
-3.73923
-3.73924
-3.73923
-3.7392
-3.73915
-3.73909
-3.73904
-3.73904
-3.73907
-3.73912
-3.73913
-3.73913
-3.73913
-3.73914
-3.73914
-3.73915
-3.73916
-3.73917
-3.73918
-3.73919
-3.7392
-3.73921
-3.73921
-3.73922
-3.73922
-3.73922
-3.73922
-3.73921
-3.73919
-3.73917
-3.73915
-3.73913
-3.73912
-3.83748
-3.83749
-3.83751
-3.83753
-3.83756
-3.83759
-3.83761
-3.83763
-3.83763
-3.83762
-3.83759
-3.83754
-3.83748
-3.83742
-3.83741
-3.83745
-3.83751
-3.83753
-3.83753
-3.83753
-3.83753
-3.83754
-3.83755
-3.83755
-3.83756
-3.83757
-3.83758
-3.83759
-3.8376
-3.83761
-3.83761
-3.83762
-3.83762
-3.83761
-3.8376
-3.83759
-3.83757
-3.83755
-3.83753
-3.83752
)
;

boundaryField
{
    floor
    {
        type            calculated;
        value           nonuniform List<scalar> 
40
(
0.0491959
0.0491515
0.0490764
0.0490101
0.0489598
0.0489211
0.0488909
0.0488676
0.0488507
0.0488392
0.0488323
0.0488287
0.048827
0.048826
0.048824
0.0488197
0.0488119
0.0488041
0.0488049
0.0488337
0.0488528
0.0488655
0.0488738
0.0488815
0.0488652
0.0488531
0.0488521
0.0488623
0.0488718
0.048882
0.0488941
0.0489076
0.0489224
0.0489381
0.048955
0.0489736
0.0489952
0.0490212
0.0490501
0.0490696
)
;
    }
    ceiling
    {
        type            calculated;
        value           nonuniform List<scalar> 
40
(
-3.88669
-3.88669
-3.88671
-3.88673
-3.88676
-3.88679
-3.88681
-3.88682
-3.88683
-3.88681
-3.88678
-3.88673
-3.88667
-3.88662
-3.88661
-3.88664
-3.8867
-3.88673
-3.88673
-3.88673
-3.88673
-3.88674
-3.88674
-3.88675
-3.88676
-3.88677
-3.88678
-3.88679
-3.8868
-3.88681
-3.88681
-3.88682
-3.88682
-3.88681
-3.8868
-3.88679
-3.88677
-3.88675
-3.88673
-3.88672
)
;
    }
    fixedWalls
    {
        type            calculated;
        value           nonuniform List<scalar> 
80
(
-6.93889e-18
-0.0984127
-0.196832
-0.295254
-0.393676
-0.492096
-0.590516
-0.688934
-0.787349
-0.885762
-0.984173
-1.08258
-1.18099
-1.27939
-1.37779
-1.47619
-1.57459
-1.67299
-1.77138
-1.86978
-1.96817
-2.06656
-2.16494
-2.26333
-2.36171
-2.4601
-2.55848
-2.65685
-2.75523
-2.85361
-2.95198
-3.05036
-3.14874
-3.24712
-3.3455
-3.44388
-3.54227
-3.64067
-3.73907
-3.83748
-0.000117921
-0.0985081
-0.196909
-0.295311
-0.393714
-0.492116
-0.590518
-0.68892
-0.787322
-0.885724
-0.984126
-1.08253
-1.18093
-1.27933
-1.37773
-1.47613
-1.57453
-1.67293
-1.77133
-1.86972
-1.96812
-2.06652
-2.16491
-2.2633
-2.36169
-2.46008
-2.55847
-2.65686
-2.75525
-2.85363
-2.95201
-3.0504
-3.14878
-3.24716
-3.34555
-3.44394
-3.54233
-3.64072
-3.73912
-3.83752
)
;
    }
    frontAndBack
    {
        type            empty;
    }
}


// ************************************************************************* //
