/*--------------------------------*- C++ -*----------------------------------*\
| =========                 |                                                 |
| \\      /  F ield         | OpenFOAM: The Open Source CFD Toolbox           |
|  \\    /   O peration     | Version:  4.1                                   |
|   \\  /    A nd           | Web:      www.OpenFOAM.org                      |
|    \\/     M anipulation  |                                                 |
\*---------------------------------------------------------------------------*/
FoamFile
{
    version     2.0;
    format      ascii;
    class       volScalarField;
    location    "1800";
    object      p_rgh;
}
// * * * * * * * * * * * * * * * * * * * * * * * * * * * * * * * * * * * * * //

dimensions      [0 2 -2 0 0 0 0];

internalField   nonuniform List<scalar> 
5000
(
0.0491817
0.0491945
0.0491931
0.049169
0.0491559
0.0491541
0.0491536
0.0491535
0.0491546
0.0491575
0.049162
0.0491665
0.0491701
0.0491732
0.0491766
0.0491786
0.0491798
0.0491795
0.0491781
0.0491758
0.0491729
0.0491695
0.0491658
0.0491618
0.0491577
0.0491535
0.0491491
0.0491446
0.0491401
0.0491354
0.0491307
0.0491259
0.049121
0.049116
0.0491109
0.0491058
0.0491007
0.0490958
0.049091
0.0490864
0.0490822
0.0490783
0.049075
0.0490723
0.0490703
0.0490692
0.0490687
0.0490691
0.04907
0.0490715
0.0490733
0.0490753
0.0490775
0.0490796
0.0490815
0.0490833
0.0490849
0.0490862
0.0490873
0.0490883
0.0490896
0.0490916
0.0490929
0.0490923
0.049097
0.0491224
0.0491306
0.0491415
0.0491482
0.049154
0.0491585
0.049161
0.0491611
0.0491582
0.0491542
0.0491496
0.0491446
0.0491394
0.0491339
0.0491281
0.049122
0.0491158
0.0491094
0.0491029
0.0490962
0.0490896
0.049083
0.0490764
0.04907
0.049064
0.0490593
0.0490567
0.0490557
0.0490514
0.0490412
0.049034
0.0490451
0.0490577
0.049063
0.0490456
0.0491874
0.0492351
0.0492351
0.0492346
0.0492274
0.049232
0.0492348
0.0492336
0.0492338
0.0492362
0.0492356
0.0492347
0.0492337
0.0492326
0.0492313
0.0492297
0.0492279
0.0492259
0.0492236
0.0492211
0.0492185
0.0492158
0.0492132
0.0492107
0.0492083
0.0492059
0.0492037
0.0492014
0.0491992
0.049197
0.0491947
0.0491925
0.0491904
0.0491882
0.0491861
0.049184
0.0491815
0.0491783
0.0491746
0.0491705
0.0491663
0.0491623
0.0491588
0.0491561
0.0491544
0.0491539
0.0491546
0.0491564
0.049159
0.0491623
0.049166
0.0491698
0.0491736
0.0491772
0.0491805
0.0491836
0.0491863
0.049189
0.0491915
0.0491939
0.0491963
0.0491985
0.0492003
0.0491739
0.0491114
0.0491068
0.0491793
0.0491864
0.0491894
0.0491919
0.0491936
0.0491941
0.0491935
0.0491924
0.0491911
0.0491891
0.0491866
0.0491838
0.0491806
0.0491771
0.0491733
0.0491694
0.0491653
0.049161
0.0491568
0.0491526
0.0491486
0.0491447
0.0491411
0.0491375
0.0491337
0.0491294
0.0491241
0.0491167
0.0490936
0.0490498
0.0490346
0.0490452
0.0490674
0.0490454
0.0491757
0.049239
0.0492404
0.0492412
0.0492425
0.049242
0.0492411
0.0492404
0.0492395
0.0492382
0.049237
0.0492358
0.0492345
0.0492332
0.0492317
0.04923
0.049228
0.0492258
0.0492234
0.0492207
0.049218
0.0492153
0.0492127
0.0492103
0.049208
0.0492058
0.0492036
0.0492015
0.0491994
0.0491973
0.0491952
0.0491931
0.049191
0.0491891
0.0491872
0.0491855
0.0491839
0.0491826
0.0491813
0.0491802
0.0491791
0.0491781
0.0491773
0.0491765
0.0491761
0.0491759
0.049176
0.0491765
0.0491772
0.0491781
0.0491793
0.0491806
0.0491821
0.0491839
0.0491858
0.0491879
0.0491903
0.0491928
0.0491955
0.0491983
0.0492011
0.0492041
0.0492068
0.049196
0.0491178
0.0490778
0.0491337
0.0491863
0.0491887
0.0491902
0.0491909
0.0491909
0.0491902
0.0491893
0.0491882
0.0491867
0.0491846
0.0491821
0.0491791
0.0491757
0.0491721
0.0491682
0.0491641
0.04916
0.0491558
0.0491517
0.0491477
0.0491441
0.0491406
0.0491374
0.0491341
0.0491305
0.0491259
0.0491192
0.0491
0.0490499
0.0490196
0.0490291
0.0490597
0.0490597
0.0491627
0.0492407
0.0492419
0.0492415
0.0492412
0.0492405
0.0492395
0.0492386
0.0492377
0.0492367
0.0492357
0.0492348
0.0492338
0.0492327
0.0492313
0.0492296
0.0492276
0.0492252
0.0492226
0.0492197
0.0492168
0.049214
0.0492114
0.0492089
0.0492066
0.0492044
0.0492023
0.0492002
0.0491981
0.0491959
0.0491937
0.0491916
0.0491895
0.0491874
0.0491855
0.0491837
0.0491821
0.0491807
0.0491795
0.0491786
0.0491779
0.0491774
0.049177
0.0491768
0.0491766
0.0491766
0.0491767
0.0491769
0.0491773
0.049178
0.0491788
0.0491799
0.0491813
0.049183
0.049185
0.0491872
0.0491896
0.0491922
0.0491949
0.0491978
0.0492008
0.0492039
0.0492069
0.0492034
0.0491312
0.0490622
0.0490902
0.0491515
0.049188
0.0491872
0.0491862
0.0491855
0.0491849
0.0491844
0.0491836
0.0491824
0.0491806
0.0491782
0.0491754
0.0491721
0.0491686
0.0491647
0.0491607
0.0491566
0.0491524
0.0491483
0.0491444
0.0491408
0.0491375
0.0491345
0.0491317
0.0491289
0.0491253
0.0491194
0.0490989
0.049044
0.0490028
0.0490126
0.0490547
0.0490796
0.0491506
0.0492422
0.049243
0.0492415
0.0492402
0.0492389
0.0492378
0.0492369
0.0492362
0.0492356
0.0492352
0.0492347
0.0492341
0.0492332
0.0492318
0.04923
0.0492277
0.0492251
0.0492221
0.0492189
0.0492158
0.0492128
0.0492101
0.0492076
0.0492054
0.0492032
0.0492012
0.0491991
0.0491969
0.0491947
0.0491925
0.0491902
0.049188
0.0491858
0.0491838
0.0491819
0.0491802
0.0491787
0.0491774
0.0491763
0.0491755
0.0491749
0.0491745
0.0491742
0.0491741
0.0491742
0.0491744
0.0491747
0.0491753
0.0491761
0.0491771
0.0491784
0.04918
0.0491819
0.049184
0.0491864
0.0491889
0.0491917
0.0491945
0.0491975
0.0492006
0.0492037
0.0492066
0.0492064
0.0491501
0.0490634
0.0490609
0.0491067
0.0491802
0.0491828
0.0491801
0.049179
0.049179
0.0491791
0.0491789
0.049178
0.0491764
0.0491743
0.0491717
0.0491687
0.0491655
0.0491619
0.0491582
0.0491544
0.0491504
0.0491465
0.0491426
0.049139
0.0491357
0.049133
0.0491306
0.0491284
0.0491258
0.0491211
0.0490977
0.0490342
0.0489852
0.0490002
0.0490608
0.0490899
0.0491388
0.0492434
0.0492437
0.0492412
0.0492392
0.0492376
0.0492364
0.0492358
0.0492356
0.0492356
0.0492358
0.0492358
0.0492354
0.0492344
0.0492328
0.0492307
0.0492279
0.0492248
0.0492214
0.0492179
0.0492145
0.0492114
0.0492086
0.0492062
0.049204
0.0492021
0.0492001
0.0491981
0.049196
0.0491938
0.0491915
0.0491891
0.0491868
0.0491845
0.0491823
0.0491803
0.0491784
0.0491768
0.0491753
0.0491741
0.0491732
0.0491725
0.049172
0.0491717
0.0491716
0.0491717
0.049172
0.0491725
0.0491733
0.0491743
0.0491756
0.0491771
0.049179
0.0491811
0.0491834
0.049186
0.0491887
0.0491916
0.0491946
0.0491977
0.0492007
0.0492038
0.0492067
0.0492079
0.0491691
0.0490766
0.0490452
0.0490711
0.0491258
0.0491768
0.0491735
0.0491722
0.0491731
0.0491744
0.049175
0.0491746
0.0491736
0.0491718
0.0491697
0.0491673
0.0491646
0.0491616
0.0491583
0.0491549
0.0491512
0.0491475
0.0491438
0.0491402
0.0491369
0.0491342
0.0491322
0.0491305
0.0491285
0.0491248
0.0491001
0.0490234
0.0489711
0.0489983
0.0490742
0.0491003
0.0491274
0.0492444
0.049244
0.0492407
0.0492381
0.0492365
0.0492358
0.0492357
0.0492362
0.0492369
0.0492374
0.0492375
0.049237
0.0492358
0.0492337
0.049231
0.0492277
0.049224
0.0492202
0.0492163
0.0492127
0.0492095
0.0492068
0.0492045
0.0492025
0.0492008
0.0491992
0.0491974
0.0491954
0.0491932
0.0491909
0.0491885
0.049186
0.0491836
0.0491812
0.049179
0.049177
0.0491752
0.0491736
0.0491722
0.0491711
0.0491703
0.0491697
0.0491694
0.0491693
0.0491694
0.0491698
0.0491705
0.0491715
0.0491727
0.0491742
0.049176
0.0491781
0.0491805
0.0491831
0.0491858
0.0491888
0.0491919
0.049195
0.0491982
0.0492013
0.0492044
0.0492072
0.049209
0.0491849
0.049097
0.0490423
0.0490452
0.0490856
0.0491377
0.0491694
0.0491651
0.0491669
0.0491703
0.0491724
0.049173
0.0491726
0.0491716
0.04917
0.0491682
0.049166
0.0491633
0.0491604
0.0491572
0.0491538
0.0491502
0.0491467
0.0491433
0.0491402
0.0491377
0.0491359
0.0491344
0.0491331
0.0491303
0.049107
0.0490168
0.0489686
0.0490124
0.0490941
0.04911
0.0491165
0.0492451
0.0492438
0.0492399
0.0492376
0.0492364
0.0492361
0.0492367
0.0492377
0.0492388
0.0492395
0.0492394
0.0492385
0.0492367
0.0492341
0.0492307
0.0492267
0.0492224
0.049218
0.0492139
0.0492103
0.0492071
0.0492045
0.0492025
0.0492008
0.0491995
0.0491983
0.049197
0.0491953
0.0491933
0.049191
0.0491886
0.049186
0.0491834
0.0491809
0.0491785
0.0491762
0.0491742
0.0491724
0.0491708
0.0491696
0.0491686
0.0491679
0.0491674
0.0491673
0.0491675
0.049168
0.0491688
0.0491699
0.0491713
0.049173
0.0491751
0.0491774
0.04918
0.0491828
0.0491858
0.049189
0.0491923
0.0491956
0.0491989
0.0492021
0.0492052
0.049208
0.04921
0.0491964
0.049121
0.0490507
0.0490308
0.0490549
0.0490979
0.0491579
0.0491542
0.049159
0.0491663
0.0491711
0.0491728
0.0491733
0.0491729
0.0491718
0.0491702
0.0491682
0.0491656
0.0491628
0.0491596
0.0491563
0.049153
0.0491497
0.0491467
0.0491441
0.0491418
0.0491401
0.0491388
0.0491379
0.0491363
0.0491147
0.0490227
0.0489849
0.0490419
0.0491175
0.0491178
0.0491058
0.0492454
0.0492435
0.0492396
0.0492375
0.0492369
0.0492373
0.0492385
0.0492399
0.049241
0.0492414
0.0492409
0.0492395
0.049237
0.0492337
0.0492295
0.0492248
0.0492199
0.0492151
0.0492107
0.049207
0.0492041
0.0492019
0.0492002
0.049199
0.0491981
0.0491976
0.049197
0.0491958
0.049194
0.0491919
0.0491894
0.0491868
0.0491841
0.0491814
0.0491788
0.0491763
0.049174
0.049172
0.0491702
0.0491687
0.0491675
0.0491667
0.0491661
0.0491659
0.049166
0.0491665
0.0491674
0.0491686
0.0491701
0.049172
0.0491743
0.0491768
0.0491796
0.0491826
0.0491859
0.0491893
0.0491928
0.0491963
0.0491998
0.0492031
0.0492062
0.049209
0.0492111
0.0492041
0.0491451
0.0490675
0.0490273
0.049032
0.0490632
0.0490967
0.0491427
0.0491498
0.049162
0.0491708
0.0491738
0.0491751
0.0491751
0.0491741
0.0491724
0.0491701
0.0491674
0.0491644
0.0491611
0.0491578
0.0491546
0.0491517
0.0491494
0.0491478
0.0491459
0.049144
0.0491429
0.0491425
0.0491413
0.0491207
0.049047
0.04902
0.0490799
0.0491404
0.0491227
0.0490951
0.0492453
0.0492431
0.0492393
0.0492378
0.0492378
0.049239
0.0492406
0.049242
0.0492429
0.0492429
0.0492418
0.0492397
0.0492366
0.0492325
0.0492275
0.0492221
0.0492165
0.0492113
0.0492068
0.0492031
0.0492004
0.0491986
0.0491975
0.0491969
0.0491966
0.049197
0.0491972
0.0491966
0.0491952
0.0491933
0.049191
0.0491883
0.0491856
0.0491828
0.04918
0.0491773
0.0491748
0.0491725
0.0491705
0.0491688
0.0491674
0.0491663
0.0491656
0.0491653
0.0491653
0.0491657
0.0491666
0.0491678
0.0491695
0.0491715
0.0491738
0.0491765
0.0491795
0.0491827
0.0491861
0.0491897
0.0491934
0.0491971
0.0492007
0.0492042
0.0492074
0.0492102
0.0492123
0.0492091
0.0491667
0.0490897
0.0490337
0.04902
0.049039
0.0490691
0.0491117
0.049139
0.0491568
0.049172
0.0491763
0.049178
0.0491779
0.0491765
0.0491743
0.0491715
0.0491682
0.0491647
0.0491611
0.0491576
0.0491545
0.0491519
0.0491501
0.0491495
0.0491496
0.0491472
0.0491464
0.0491466
0.0491459
0.049132
0.0490813
0.0490656
0.0491171
0.0491595
0.0491244
0.0490843
0.0492446
0.0492423
0.0492389
0.0492381
0.049239
0.0492407
0.0492425
0.0492439
0.0492443
0.0492437
0.049242
0.0492393
0.0492354
0.0492305
0.0492248
0.0492186
0.0492124
0.0492068
0.0492021
0.0491986
0.0491961
0.0491947
0.0491941
0.0491942
0.0491946
0.0491961
0.0491974
0.0491974
0.0491965
0.0491949
0.0491927
0.0491902
0.0491875
0.0491847
0.0491819
0.0491791
0.0491765
0.049174
0.0491718
0.0491699
0.0491683
0.0491671
0.0491662
0.0491657
0.0491655
0.0491659
0.0491667
0.0491679
0.0491695
0.0491715
0.0491739
0.0491767
0.0491798
0.0491831
0.0491867
0.0491904
0.0491942
0.049198
0.0492018
0.0492054
0.0492086
0.0492115
0.0492136
0.0492125
0.049184
0.0491141
0.0490481
0.0490182
0.0490243
0.0490481
0.049073
0.0491206
0.049151
0.0491762
0.0491811
0.0491824
0.0491813
0.0491788
0.0491754
0.0491715
0.0491673
0.049163
0.0491589
0.0491551
0.0491519
0.0491494
0.049148
0.0491476
0.0491483
0.0491494
0.0491499
0.049151
0.0491515
0.0491446
0.049116
0.0491096
0.0491468
0.0491733
0.0491228
0.0490732
0.0492433
0.0492411
0.0492383
0.0492384
0.04924
0.0492422
0.0492441
0.0492452
0.0492451
0.0492439
0.0492416
0.0492382
0.0492336
0.0492279
0.0492213
0.0492143
0.0492075
0.0492015
0.0491967
0.0491932
0.0491911
0.0491901
0.04919
0.0491907
0.0491919
0.0491948
0.0491971
0.0491978
0.0491974
0.0491962
0.0491944
0.0491921
0.0491896
0.0491869
0.0491841
0.0491814
0.0491788
0.0491763
0.049174
0.049172
0.0491702
0.0491688
0.0491678
0.0491672
0.0491669
0.0491671
0.0491677
0.0491689
0.0491704
0.0491724
0.0491748
0.0491776
0.0491807
0.049184
0.0491876
0.0491914
0.0491953
0.0491992
0.049203
0.0492067
0.0492101
0.0492129
0.0492152
0.0492151
0.049197
0.0491379
0.0490675
0.0490245
0.0490181
0.0490355
0.0490586
0.0490818
0.0491473
0.0491852
0.0491888
0.0491882
0.0491851
0.0491805
0.0491752
0.0491696
0.0491639
0.0491585
0.0491535
0.0491493
0.049146
0.0491438
0.0491431
0.0491441
0.0491467
0.0491503
0.0491534
0.0491558
0.0491578
0.0491564
0.0491442
0.0491434
0.0491666
0.0491825
0.0491187
0.049062
0.0492413
0.0492395
0.0492375
0.0492384
0.0492408
0.0492434
0.0492452
0.0492458
0.0492452
0.0492435
0.0492406
0.0492366
0.0492313
0.0492247
0.0492172
0.0492093
0.0492018
0.0491954
0.0491904
0.049187
0.0491851
0.0491846
0.0491851
0.0491864
0.0491883
0.0491928
0.0491961
0.0491975
0.0491977
0.0491969
0.0491955
0.0491937
0.0491915
0.0491891
0.0491866
0.049184
0.0491815
0.0491791
0.0491769
0.0491748
0.0491731
0.0491716
0.0491705
0.0491698
0.0491694
0.0491694
0.0491699
0.0491709
0.0491724
0.0491743
0.0491766
0.0491793
0.0491823
0.0491856
0.0491892
0.0491929
0.0491968
0.0492007
0.0492046
0.0492082
0.0492116
0.0492145
0.0492168
0.0492174
0.0492061
0.0491591
0.0490892
0.0490363
0.0490187
0.0490303
0.0490545
0.0490797
0.0491353
0.0491971
0.0491984
0.0491944
0.0491881
0.0491807
0.0491728
0.049165
0.0491575
0.0491507
0.0491447
0.0491398
0.0491362
0.0491343
0.0491343
0.0491367
0.0491414
0.049148
0.0491553
0.0491611
0.0491646
0.0491665
0.0491636
0.0491651
0.0491785
0.0491886
0.0491131
0.0490506
0.0492388
0.0492375
0.0492363
0.0492382
0.0492413
0.049244
0.0492456
0.0492458
0.0492447
0.0492425
0.0492391
0.0492345
0.0492285
0.049221
0.0492124
0.0492035
0.0491952
0.0491883
0.0491831
0.0491798
0.0491782
0.049178
0.0491792
0.0491812
0.049184
0.0491898
0.0491941
0.0491963
0.0491971
0.049197
0.0491961
0.0491947
0.049193
0.0491911
0.049189
0.0491868
0.0491845
0.0491824
0.0491803
0.0491784
0.0491767
0.0491752
0.0491741
0.0491733
0.0491729
0.0491729
0.0491732
0.0491741
0.0491754
0.0491771
0.0491793
0.0491818
0.0491847
0.0491879
0.0491914
0.049195
0.0491988
0.0492026
0.0492064
0.04921
0.0492134
0.0492163
0.0492186
0.0492195
0.0492126
0.0491764
0.0491105
0.0490506
0.049023
0.049028
0.0490512
0.0490788
0.0491282
0.049207
0.0492071
0.0491988
0.0491887
0.049178
0.0491674
0.0491575
0.0491484
0.0491403
0.0491333
0.0491276
0.0491234
0.049121
0.0491208
0.0491231
0.0491284
0.0491365
0.0491472
0.0491595
0.0491705
0.0491752
0.0491761
0.0491776
0.0491858
0.0491933
0.0491066
0.049039
0.0492359
0.0492351
0.0492348
0.0492377
0.0492412
0.0492441
0.0492454
0.0492452
0.0492437
0.049241
0.0492372
0.0492321
0.0492252
0.0492167
0.0492069
0.0491968
0.0491876
0.0491801
0.0491747
0.0491714
0.0491701
0.0491705
0.0491723
0.0491753
0.0491789
0.049186
0.0491913
0.0491942
0.0491957
0.0491962
0.049196
0.0491953
0.0491942
0.0491928
0.0491912
0.0491895
0.0491877
0.0491859
0.0491841
0.0491824
0.0491809
0.0491796
0.0491785
0.0491778
0.0491773
0.0491772
0.0491775
0.0491782
0.0491793
0.0491809
0.0491828
0.0491852
0.0491879
0.0491909
0.0491941
0.0491976
0.0492012
0.0492048
0.0492085
0.049212
0.0492152
0.0492181
0.0492204
0.0492216
0.0492173
0.0491898
0.0491295
0.0490651
0.0490281
0.0490259
0.049047
0.049078
0.0491343
0.0492123
0.0492111
0.0491986
0.049185
0.0491718
0.0491595
0.0491483
0.0491384
0.0491298
0.0491223
0.0491162
0.0491114
0.0491083
0.0491071
0.0491081
0.0491117
0.049118
0.0491273
0.0491397
0.0491552
0.0491733
0.0491843
0.0491855
0.0491912
0.0491971
0.0490997
0.0490273
0.0492325
0.0492324
0.0492331
0.0492368
0.0492408
0.0492436
0.0492446
0.0492441
0.0492421
0.0492392
0.049235
0.0492293
0.0492216
0.0492118
0.0492007
0.0491893
0.049179
0.0491708
0.0491651
0.0491619
0.0491609
0.0491619
0.0491646
0.0491685
0.0491732
0.0491812
0.0491874
0.0491911
0.0491933
0.0491946
0.0491951
0.0491952
0.0491948
0.0491942
0.0491933
0.0491922
0.0491909
0.0491896
0.0491882
0.0491868
0.0491856
0.0491844
0.0491835
0.0491828
0.0491824
0.0491823
0.0491824
0.049183
0.049184
0.0491853
0.0491871
0.0491892
0.0491917
0.0491944
0.0491974
0.0492006
0.0492039
0.0492074
0.0492108
0.0492141
0.0492172
0.04922
0.0492222
0.0492235
0.0492207
0.0491996
0.0491454
0.049078
0.0490322
0.0490222
0.0490407
0.0490758
0.0491607
0.0492195
0.0492051
0.0491903
0.0491761
0.0491629
0.049151
0.0491403
0.0491308
0.0491224
0.0491152
0.0491092
0.0491044
0.049101
0.0490993
0.0490993
0.0491011
0.0491048
0.0491104
0.0491182
0.0491285
0.0491424
0.049163
0.0491862
0.0491959
0.0491988
0.0490913
0.0490155
0.0492288
0.0492294
0.049231
0.0492355
0.0492398
0.0492425
0.0492433
0.0492424
0.0492402
0.049237
0.0492326
0.0492263
0.0492176
0.0492065
0.0491937
0.0491808
0.0491693
0.0491604
0.0491543
0.0491511
0.0491505
0.0491523
0.049156
0.0491611
0.049167
0.0491755
0.0491827
0.0491872
0.0491901
0.0491921
0.0491935
0.0491944
0.049195
0.0491952
0.0491951
0.0491947
0.049194
0.0491932
0.0491923
0.0491913
0.0491904
0.0491895
0.0491887
0.0491881
0.0491877
0.0491876
0.0491878
0.0491882
0.0491891
0.0491903
0.0491918
0.0491937
0.0491958
0.0491983
0.049201
0.0492039
0.049207
0.0492101
0.0492132
0.0492163
0.0492192
0.0492218
0.0492239
0.0492251
0.0492231
0.0492065
0.0491575
0.049088
0.0490338
0.0490155
0.0490304
0.0490701
0.0491848
0.0492163
0.0492021
0.0491872
0.0491728
0.0491593
0.049147
0.049136
0.0491264
0.0491183
0.0491114
0.0491056
0.0491011
0.049098
0.0490963
0.0490962
0.0490974
0.0490999
0.0491034
0.0491077
0.0491127
0.0491188
0.0491283
0.0491489
0.049187
0.0491828
0.0490827
0.0490036
0.0492247
0.0492261
0.0492286
0.0492338
0.0492384
0.049241
0.0492415
0.0492403
0.049238
0.0492347
0.0492299
0.049223
0.0492133
0.0492006
0.0491861
0.0491714
0.0491586
0.0491487
0.0491423
0.0491392
0.0491391
0.0491418
0.0491466
0.049153
0.04916
0.0491688
0.049177
0.0491822
0.0491859
0.0491888
0.0491911
0.0491931
0.0491946
0.0491957
0.0491965
0.0491968
0.0491969
0.0491966
0.0491962
0.0491956
0.049195
0.0491943
0.0491937
0.0491933
0.049193
0.0491929
0.0491931
0.0491935
0.0491942
0.0491952
0.0491966
0.0491982
0.0492001
0.0492023
0.0492047
0.0492073
0.04921
0.0492129
0.0492157
0.0492185
0.0492211
0.0492234
0.0492253
0.0492263
0.0492247
0.0492109
0.0491661
0.0490947
0.049032
0.0490049
0.0490156
0.0490633
0.0491971
0.0492083
0.0491948
0.0491809
0.0491673
0.0491547
0.0491431
0.0491326
0.0491231
0.0491149
0.049108
0.0491025
0.0490983
0.0490956
0.0490943
0.0490946
0.0490962
0.0490989
0.0491021
0.0491054
0.0491079
0.0491091
0.0491096
0.0491136
0.0491332
0.0491498
0.0490793
0.0489916
0.0492205
0.0492226
0.0492261
0.0492318
0.0492366
0.049239
0.0492393
0.0492379
0.0492355
0.0492322
0.0492272
0.0492197
0.0492088
0.0491944
0.0491777
0.0491611
0.0491467
0.049136
0.0491292
0.0491262
0.0491268
0.0491305
0.0491365
0.0491442
0.0491524
0.0491614
0.0491703
0.0491764
0.0491809
0.0491846
0.049188
0.049191
0.0491936
0.0491957
0.0491973
0.0491985
0.0491992
0.0491995
0.0491996
0.0491994
0.049199
0.0491986
0.0491982
0.0491979
0.0491977
0.0491976
0.0491978
0.0491982
0.0491989
0.0491998
0.049201
0.0492025
0.0492042
0.0492061
0.0492083
0.0492106
0.049213
0.0492155
0.049218
0.0492205
0.0492228
0.0492248
0.0492263
0.0492271
0.0492255
0.0492133
0.0491713
0.0490977
0.0490264
0.0489904
0.0489968
0.0490617
0.0491927
0.0491947
0.0491831
0.049171
0.0491591
0.0491478
0.0491371
0.0491272
0.0491181
0.04911
0.0491031
0.0490977
0.0490938
0.0490914
0.0490907
0.0490917
0.0490941
0.0490978
0.0491023
0.0491069
0.0491105
0.0491121
0.0491104
0.0491056
0.0491024
0.0491141
0.0490828
0.0489796
0.0492161
0.049219
0.0492232
0.0492296
0.0492345
0.0492367
0.0492367
0.0492353
0.0492329
0.0492295
0.0492244
0.0492162
0.0492041
0.0491878
0.0491688
0.0491499
0.0491339
0.0491221
0.0491149
0.0491122
0.0491136
0.0491184
0.0491258
0.0491347
0.049144
0.0491532
0.0491627
0.0491696
0.0491749
0.0491796
0.049184
0.0491882
0.0491919
0.0491951
0.0491976
0.0491996
0.0492009
0.0492018
0.0492022
0.0492023
0.0492022
0.049202
0.0492018
0.0492015
0.0492014
0.0492014
0.0492017
0.0492021
0.0492028
0.0492037
0.0492048
0.0492061
0.0492077
0.0492095
0.0492114
0.0492135
0.0492157
0.0492179
0.0492201
0.0492222
0.0492241
0.0492258
0.0492269
0.0492272
0.0492254
0.0492139
0.0491735
0.049097
0.049017
0.0489719
0.0489776
0.0490624
0.0491801
0.0491781
0.0491684
0.0491584
0.0491483
0.0491384
0.0491287
0.0491194
0.0491108
0.049103
0.0490962
0.0490909
0.0490871
0.049085
0.0490846
0.0490861
0.0490893
0.0490942
0.0491003
0.0491073
0.0491145
0.0491206
0.0491241
0.0491233
0.0491164
0.0491038
0.0490906
0.0489675
0.0492115
0.0492152
0.0492202
0.049227
0.049232
0.0492341
0.0492339
0.0492325
0.0492302
0.0492269
0.0492216
0.0492128
0.0491994
0.0491809
0.0491594
0.049138
0.0491201
0.0491072
0.0490997
0.0490973
0.0490995
0.0491056
0.0491143
0.0491244
0.0491347
0.0491443
0.0491541
0.0491618
0.0491679
0.0491736
0.0491793
0.0491847
0.0491896
0.0491938
0.0491972
0.0491999
0.0492019
0.0492032
0.049204
0.0492044
0.0492045
0.0492044
0.0492042
0.0492041
0.049204
0.0492041
0.0492044
0.0492049
0.0492056
0.0492065
0.0492076
0.049209
0.0492105
0.0492122
0.049214
0.0492159
0.0492178
0.0492198
0.0492217
0.0492235
0.0492251
0.0492263
0.049227
0.0492268
0.0492244
0.049213
0.049173
0.049093
0.0490037
0.0489496
0.0489593
0.0490633
0.0491631
0.0491595
0.0491516
0.0491435
0.0491353
0.0491268
0.0491182
0.0491098
0.0491016
0.0490942
0.0490877
0.0490824
0.0490787
0.0490767
0.0490765
0.0490782
0.0490819
0.0490874
0.0490948
0.0491038
0.0491141
0.0491253
0.0491367
0.0491474
0.049155
0.0491508
0.0491137
0.0489555
0.0492069
0.0492113
0.049217
0.0492243
0.0492292
0.0492312
0.0492309
0.0492295
0.0492274
0.0492243
0.0492189
0.0492095
0.0491947
0.0491741
0.0491497
0.0491256
0.0491056
0.0490914
0.0490835
0.0490816
0.0490848
0.0490921
0.0491021
0.0491134
0.0491246
0.049135
0.0491445
0.0491531
0.0491601
0.0491668
0.0491737
0.0491804
0.0491865
0.0491918
0.0491961
0.0491995
0.049202
0.0492037
0.0492048
0.0492054
0.0492056
0.0492056
0.0492056
0.0492055
0.0492055
0.0492056
0.049206
0.0492065
0.0492073
0.0492083
0.0492095
0.0492108
0.0492124
0.049214
0.0492158
0.0492176
0.0492194
0.0492212
0.0492229
0.0492244
0.0492256
0.0492264
0.0492265
0.0492256
0.0492226
0.0492108
0.0491702
0.0490857
0.0489868
0.0489243
0.0489434
0.0490625
0.0491437
0.0491397
0.0491334
0.0491273
0.0491208
0.0491138
0.0491063
0.0490987
0.0490913
0.0490843
0.0490781
0.049073
0.0490694
0.0490674
0.0490672
0.0490689
0.0490727
0.0490785
0.0490864
0.0490963
0.0491081
0.0491217
0.0491372
0.0491548
0.0491744
0.0491924
0.0491996
0.0489434
0.0492022
0.0492073
0.0492137
0.0492212
0.0492263
0.0492281
0.0492278
0.0492265
0.0492247
0.0492217
0.0492162
0.0492065
0.0491905
0.0491675
0.04914
0.0491128
0.0490904
0.0490749
0.0490667
0.0490651
0.0490693
0.0490779
0.0490893
0.0491016
0.0491137
0.0491248
0.0491345
0.0491435
0.0491513
0.0491591
0.0491672
0.0491753
0.0491827
0.0491891
0.0491943
0.0491984
0.0492014
0.0492035
0.0492048
0.0492055
0.0492059
0.0492059
0.0492059
0.0492059
0.0492059
0.0492061
0.0492065
0.0492071
0.049208
0.0492091
0.0492104
0.0492118
0.0492134
0.0492152
0.049217
0.0492188
0.0492205
0.0492221
0.0492236
0.0492248
0.0492256
0.0492259
0.0492255
0.0492239
0.04922
0.0492073
0.0491654
0.0490756
0.0489657
0.0488981
0.0489304
0.0490589
0.0491231
0.0491193
0.0491146
0.0491102
0.0491053
0.0490998
0.0490936
0.0490869
0.0490803
0.0490739
0.0490681
0.0490631
0.0490595
0.0490575
0.0490572
0.0490588
0.0490625
0.0490684
0.0490764
0.0490866
0.0490987
0.0491129
0.049129
0.0491471
0.0491661
0.049182
0.0491879
0.0489313
0.0491974
0.0492033
0.0492102
0.049218
0.0492231
0.0492249
0.0492246
0.0492235
0.0492219
0.0492191
0.0492138
0.0492038
0.0491868
0.0491616
0.0491308
0.0491001
0.049075
0.0490579
0.0490492
0.049048
0.0490533
0.0490632
0.0490758
0.0490892
0.0491021
0.0491139
0.0491241
0.0491331
0.0491418
0.0491506
0.04916
0.0491695
0.0491782
0.0491858
0.0491919
0.0491967
0.0492001
0.0492025
0.0492041
0.0492049
0.0492054
0.0492055
0.0492055
0.0492055
0.0492056
0.0492059
0.0492063
0.049207
0.049208
0.0492092
0.0492105
0.0492121
0.0492138
0.0492157
0.0492175
0.0492193
0.0492211
0.0492226
0.0492239
0.0492248
0.0492253
0.0492251
0.049224
0.0492216
0.0492167
0.0492029
0.0491588
0.049063
0.0489402
0.0488729
0.0489199
0.0490524
0.0491022
0.0490987
0.0490956
0.0490928
0.0490896
0.0490854
0.0490805
0.0490749
0.0490691
0.0490634
0.049058
0.0490533
0.0490496
0.0490473
0.0490468
0.0490482
0.0490517
0.0490574
0.0490653
0.0490754
0.0490874
0.0491013
0.049117
0.0491341
0.0491514
0.0491657
0.049172
0.0489192
0.0491927
0.0491992
0.0492066
0.0492147
0.0492197
0.0492215
0.0492213
0.0492204
0.0492191
0.0492166
0.0492116
0.0492017
0.049184
0.0491567
0.0491224
0.0490878
0.0490595
0.0490406
0.0490312
0.0490305
0.0490367
0.0490479
0.0490617
0.0490761
0.0490899
0.0491023
0.0491131
0.0491223
0.0491315
0.0491413
0.0491521
0.049163
0.0491731
0.0491819
0.049189
0.0491944
0.0491984
0.0492011
0.0492028
0.0492038
0.0492044
0.0492046
0.0492047
0.0492048
0.049205
0.0492053
0.0492058
0.0492066
0.0492076
0.0492088
0.0492103
0.049212
0.0492138
0.0492157
0.0492177
0.0492195
0.0492213
0.0492227
0.0492239
0.0492245
0.0492246
0.0492239
0.0492221
0.0492189
0.0492129
0.0491976
0.0491508
0.0490482
0.0489115
0.0488495
0.0489113
0.0490434
0.0490814
0.0490787
0.049077
0.0490757
0.049074
0.0490712
0.0490676
0.0490631
0.0490582
0.0490531
0.0490481
0.0490435
0.0490397
0.0490371
0.0490361
0.0490371
0.0490402
0.0490457
0.0490533
0.049063
0.0490745
0.0490877
0.0491021
0.0491175
0.0491328
0.0491459
0.0491532
0.0489071
0.049188
0.0491951
0.0492029
0.0492112
0.0492163
0.049218
0.0492179
0.0492173
0.0492163
0.0492142
0.0492097
0.0492002
0.0491824
0.0491535
0.0491157
0.0490765
0.0490444
0.0490232
0.0490131
0.0490126
0.0490199
0.0490323
0.0490473
0.0490626
0.0490771
0.0490903
0.0491017
0.0491114
0.0491206
0.0491313
0.0491435
0.0491559
0.0491675
0.0491775
0.0491856
0.0491918
0.0491963
0.0491993
0.0492013
0.0492025
0.0492032
0.0492035
0.0492038
0.049204
0.0492043
0.0492047
0.0492053
0.0492062
0.0492072
0.0492085
0.0492101
0.0492118
0.0492137
0.0492156
0.0492176
0.0492195
0.0492212
0.0492226
0.0492236
0.049224
0.0492237
0.0492225
0.04922
0.0492159
0.0492087
0.0491917
0.0491416
0.0490297
0.0488818
0.0488283
0.0489043
0.0490326
0.0490615
0.0490595
0.0490591
0.0490593
0.0490589
0.0490576
0.0490552
0.0490519
0.0490479
0.0490434
0.0490388
0.0490342
0.0490301
0.049027
0.0490254
0.0490258
0.0490284
0.0490334
0.0490406
0.0490499
0.0490607
0.0490728
0.0490857
0.049099
0.0491123
0.0491243
0.0491328
0.0488951
0.0491835
0.0491911
0.0491991
0.0492076
0.0492127
0.0492145
0.0492146
0.0492142
0.0492135
0.0492118
0.049208
0.0491996
0.0491823
0.0491525
0.0491113
0.049067
0.0490303
0.0490062
0.0489949
0.0489946
0.0490029
0.0490166
0.0490327
0.0490489
0.0490641
0.0490778
0.0490898
0.0491001
0.0491096
0.0491209
0.0491343
0.0491483
0.0491614
0.0491728
0.049182
0.0491889
0.049194
0.0491974
0.0491997
0.0492011
0.049202
0.0492026
0.049203
0.0492034
0.0492039
0.0492045
0.0492052
0.0492061
0.0492072
0.0492085
0.0492101
0.0492118
0.0492137
0.0492156
0.0492176
0.0492195
0.0492212
0.0492225
0.0492233
0.0492235
0.0492228
0.049221
0.0492178
0.0492127
0.0492043
0.0491855
0.0491316
0.0490072
0.0488529
0.0488095
0.0488984
0.0490208
0.0490427
0.0490415
0.0490424
0.0490439
0.0490449
0.0490448
0.0490437
0.0490415
0.0490384
0.0490346
0.0490303
0.0490257
0.0490211
0.0490173
0.0490149
0.0490145
0.0490164
0.0490208
0.0490276
0.0490363
0.0490465
0.0490575
0.0490688
0.04908
0.0490911
0.0491021
0.0491119
0.0488831
0.0491791
0.0491871
0.0491954
0.0492041
0.0492092
0.0492111
0.0492113
0.0492111
0.0492106
0.0492094
0.0492066
0.0491996
0.0491838
0.0491542
0.0491102
0.0490604
0.0490178
0.0489901
0.0489771
0.0489768
0.048986
0.049001
0.0490183
0.0490353
0.049051
0.0490652
0.0490778
0.0490886
0.0490986
0.0491101
0.0491247
0.0491403
0.049155
0.0491678
0.0491781
0.0491859
0.0491916
0.0491955
0.0491981
0.0491998
0.049201
0.0492018
0.0492026
0.0492033
0.049204
0.0492049
0.0492058
0.0492068
0.0492079
0.0492092
0.0492107
0.0492123
0.0492141
0.049216
0.0492179
0.0492197
0.0492213
0.0492225
0.0492231
0.049223
0.0492219
0.0492195
0.0492156
0.0492095
0.0491998
0.049179
0.049121
0.0489815
0.0488252
0.0487933
0.0488934
0.0490089
0.0490255
0.0490251
0.0490271
0.0490298
0.049032
0.0490333
0.0490333
0.0490323
0.0490301
0.049027
0.0490229
0.0490181
0.0490129
0.0490081
0.0490047
0.0490033
0.0490044
0.0490082
0.0490145
0.0490228
0.0490324
0.0490424
0.0490522
0.0490613
0.0490704
0.0490803
0.0490916
0.0488712
0.049175
0.0491834
0.0491918
0.0492006
0.0492058
0.0492077
0.0492081
0.0492081
0.0492078
0.049207
0.0492052
0.0492003
0.049187
0.049159
0.0491135
0.0490579
0.0490081
0.0489754
0.0489601
0.0489595
0.0489696
0.048986
0.0490044
0.049022
0.049038
0.0490526
0.0490657
0.0490769
0.0490875
0.0490995
0.0491146
0.0491318
0.0491482
0.0491625
0.049174
0.0491828
0.0491893
0.0491937
0.0491967
0.0491988
0.0492003
0.0492015
0.0492026
0.0492037
0.0492048
0.049206
0.0492072
0.0492083
0.0492095
0.0492107
0.0492121
0.0492135
0.0492151
0.0492169
0.0492186
0.0492202
0.0492217
0.0492227
0.0492231
0.0492226
0.0492211
0.0492182
0.0492136
0.0492065
0.0491954
0.0491724
0.0491097
0.0489532
0.0487994
0.0487799
0.0488894
0.0489976
0.0490101
0.0490105
0.0490135
0.0490173
0.0490206
0.049023
0.0490243
0.0490243
0.0490231
0.0490206
0.0490167
0.0490116
0.0490056
0.0489997
0.0489951
0.0489926
0.0489928
0.0489959
0.0490017
0.0490097
0.0490189
0.0490282
0.0490367
0.0490439
0.0490511
0.0490599
0.0490725
0.0488594
0.0491713
0.04918
0.0491884
0.0491972
0.0492025
0.0492045
0.049205
0.0492052
0.049205
0.0492044
0.0492037
0.0492012
0.0491915
0.0491669
0.049122
0.0490612
0.0490025
0.048963
0.0489444
0.048943
0.048954
0.0489719
0.0489914
0.0490095
0.0490256
0.0490404
0.0490538
0.0490654
0.0490763
0.049089
0.0491049
0.049123
0.0491411
0.0491571
0.0491699
0.0491798
0.049187
0.0491921
0.0491956
0.0491981
0.0492
0.0492016
0.0492032
0.0492047
0.0492063
0.0492079