/*--------------------------------*- C++ -*----------------------------------*\
| =========                 |                                                 |
| \\      /  F ield         | OpenFOAM: The Open Source CFD Toolbox           |
|  \\    /   O peration     | Version:  4.1                                   |
|   \\  /    A nd           | Web:      www.OpenFOAM.org                      |
|    \\/     M anipulation  |                                                 |
\*---------------------------------------------------------------------------*/
FoamFile
{
    version     2.0;
    format      ascii;
    class       volScalarField;
    location    "1800";
    object      T;
}
// * * * * * * * * * * * * * * * * * * * * * * * * * * * * * * * * * * * * * //

dimensions      [0 0 0 1 0 0 0];

internalField   nonuniform List<scalar> 
5000
(
287.456
286.74
286.685
288.081
288.851
288.921
288.924
288.916
288.856
288.715
288.446
288.177
287.967
287.779
287.547
287.387
287.247
287.179
287.146
287.14
287.157
287.194
287.249
287.317
287.398
287.489
287.587
287.692
287.802
287.918
288.038
288.164
288.295
288.433
288.576
288.723
288.865
288.993
289.11
289.215
289.311
289.396
289.471
289.534
289.587
289.628
289.658
289.679
289.692
289.7
289.706
289.713
289.723
289.74
289.764
289.799
289.846
289.907
289.978
290.054
290.111
290.108
290.151
290.3
289.93
287.653
287.255
286.872
286.768
286.64
286.526
286.446
286.408
286.507
286.631
286.75
286.862
286.972
287.082
287.193
287.304
287.416
287.528
287.644
287.762
287.885
288.014
288.152
288.294
288.422
288.478
288.366
288.117
288.021
288.25
288.497
287.469
286.18
285.807
286.755
286.422
284.897
284.899
284.977
285.258
285.127
285.031
285.059
285.04
284.945
284.939
284.94
284.941
284.943
284.944
284.946
284.948
284.95
284.953
284.956
284.959
284.962
284.965
284.968
284.971
284.974
284.976
284.978
284.98
284.982
284.984
284.986
284.988
284.989
284.991
284.997
285.017
285.06
285.123
285.201
285.286
285.371
285.447
285.505
285.54
285.548
285.529
285.486
285.425
285.353
285.279
285.209
285.147
285.096
285.058
285.034
285.021
285.017
285.019
285.024
285.03
285.041
285.069
285.989
287.907
287.502
284.905
284.766
284.769
284.777
284.787
284.797
284.805
284.811
284.815
284.818
284.823
284.828
284.833
284.839
284.845
284.851
284.857
284.862
284.868
284.873
284.878
284.883
284.888
284.892
284.896
284.901
284.909
284.956
285.498
286.763
287.04
286.359
285.626
286.395
286.117
284.863
284.851
284.858
284.865
284.87
284.877
284.884
284.892
284.899
284.907
284.914
284.92
284.924
284.928
284.931
284.933
284.936
284.94
284.944
284.948
284.952
284.956
284.96
284.964
284.966
284.969
284.97
284.971
284.971
284.971
284.97
284.969
284.967
284.965
284.962
284.96
284.958
284.958
284.961
284.966
284.975
284.984
284.992
284.997
284.997
284.993
284.986
284.976
284.966
284.957
284.949
284.942
284.937
284.933
284.93
284.927
284.924
284.922
284.92
284.918
284.918
284.925
285.217
286.751
287.257
285.794
284.752
284.767
284.787
284.808
284.826
284.838
284.843
284.844
284.845
284.848
284.852
284.856
284.861
284.865
284.87
284.875
284.879
284.883
284.886
284.888
284.889
284.89
284.89
284.89
284.892
284.898
284.93
285.203
286.13
286.718
286.505
285.89
286.005
285.957
284.864
284.855
284.866
284.875
284.884
284.893
284.902
284.91
284.917
284.923
284.926
284.927
284.926
284.926
284.926
284.927
284.93
284.935
284.94
284.947
284.954
284.961
284.967
284.973
284.978
284.983
284.986
284.989
284.991
284.992
284.992
284.992
284.991
284.99
284.988
284.986
284.983
284.981
284.978
284.975
284.973
284.971
284.97
284.968
284.967
284.964
284.962
284.959
284.957
284.954
284.951
284.948
284.945
284.942
284.938
284.935
284.931
284.928
284.924
284.921
284.918
284.918
285.011
286.034
286.855
286.218
285.243
284.792
284.82
284.851
284.874
284.886
284.89
284.892
284.894
284.897
284.901
284.905
284.91
284.915
284.919
284.923
284.926
284.928
284.93
284.932
284.933
284.933
284.933
284.933
284.932
284.932
284.949
285.157
285.887
286.533
286.5
285.974
285.684
285.858
284.865
284.859
284.874
284.886
284.898
284.907
284.915
284.921
284.923
284.923
284.92
284.917
284.913
284.911
284.91
284.912
284.917
284.923
284.932
284.941
284.951
284.96
284.969
284.978
284.985
284.991
284.996
285.001
285.004
285.006
285.008
285.008
285.008
285.008
285.007
285.005
285.003
285
284.998
284.995
284.992
284.989
284.986
284.983
284.98
284.977
284.974
284.971
284.967
284.963
284.959
284.955
284.951
284.946
284.942
284.937
284.933
284.928
284.924
284.92
284.916
284.914
284.946
285.577
286.44
286.307
285.695
284.862
284.855
284.892
284.916
284.927
284.93
284.931
284.933
284.936
284.94
284.943
284.945
284.946
284.947
284.946
284.945
284.944
284.943
284.944
284.945
284.947
284.949
284.951
284.951
284.949
284.957
285.149
285.807
286.436
286.417
285.846
285.553
285.791
284.867
284.864
284.882
284.896
284.908
284.916
284.919
284.919
284.915
284.909
284.903
284.897
284.893
284.891
284.893
284.897
284.904
284.914
284.925
284.937
284.949
284.961
284.972
284.982
284.99
284.997
285.003
285.008
285.012
285.015
285.018
285.019
285.02
285.02
285.019
285.018
285.016
285.014
285.011
285.008
285.005
285.002
284.998
284.994
284.99
284.986
284.982
284.977
284.972
284.967
284.961
284.956
284.95
284.944
284.939
284.933
284.928
284.923
284.918
284.914
284.91
284.908
284.92
285.285
286.063
286.232
285.896
285.33
284.881
284.926
284.951
284.957
284.956
284.956
284.957
284.957
284.958
284.957
284.954
284.95
284.945
284.939
284.934
284.929
284.925
284.923
284.924
284.929
284.935
284.94
284.944
284.946
284.953
285.13
285.788
286.358
286.256
285.659
285.448
285.741
284.869
284.87
284.89
284.904
284.912
284.915
284.913
284.907
284.898
284.889
284.881
284.876
284.873
284.874
284.879
284.886
284.896
284.908
284.923
284.937
284.951
284.964
284.976
284.986
284.995
285.002
285.008
285.013
285.016
285.019
285.022
285.024
285.025
285.026
285.025
285.025
285.023
285.022
285.019
285.016
285.013
285.009
285.005
285
284.995
284.99
284.984
284.978
284.972
284.966
284.959
284.953
284.946
284.939
284.933
284.926
284.92
284.915
284.91
284.905
284.902
284.899
284.904
285.102
285.741
286.075
285.963
285.587
285.157
284.951
284.979
284.98
284.972
284.967
284.964
284.961
284.957
284.951
284.944
284.935
284.926
284.918
284.909
284.902
284.896
284.892
284.891
284.896
284.904
284.914
284.925
284.933
284.944
285.094
285.768
286.235
286.02
285.462
285.361
285.702
284.871
284.877
284.896
284.906
284.909
284.906
284.899
284.888
284.877
284.867
284.86
284.857
284.857
284.862
284.869
284.88
284.894
284.909
284.925
284.94
284.955
284.969
284.981
284.991
284.999
285.005
285.009
285.012
285.015
285.018
285.02
285.022
285.024
285.025
285.025
285.025
285.024
285.023
285.021
285.018
285.015
285.011
285.006
285.001
284.996
284.99
284.983
284.977
284.97
284.962
284.955
284.948
284.94
284.932
284.925
284.918
284.911
284.905
284.9
284.895
284.892
284.889
284.892
284.994
285.476
285.882
285.94
285.719
285.402
284.975
285.01
285.002
284.983
284.97
284.964
284.956
284.948
284.939
284.93
284.919
284.909
284.9
284.89
284.881
284.873
284.866
284.863
284.864
284.874
284.889
284.906
284.921
284.936
285.07
285.691
286.031
285.74
285.284
285.293
285.668
284.873
284.881
284.896
284.902
284.9
284.892
284.881
284.868
284.856
284.848
284.843
284.843
284.846
284.854
284.865
284.879
284.896
284.913
284.93
284.947
284.962
284.974
284.985
284.994
285.001
285.004
285.006
285.007
285.009
285.011
285.013
285.014
285.016
285.017
285.018
285.018
285.018
285.017
285.015
285.013
285.01
285.006
285.002
284.997
284.991
284.985
284.979
284.972
284.964
284.956
284.948
284.94
284.932
284.924
284.916
284.909
284.902
284.895
284.889
284.884
284.881
284.878
284.88
284.931
285.27
285.681
285.856
285.77
285.54
285.294
285.048
285.032
284.997
284.971
284.961
284.951
284.941
284.931
284.921
284.911
284.902
284.892
284.883
284.873
284.864
284.854
284.847
284.842
284.852
284.871
284.893
284.913
284.936
285.068
285.533
285.758
285.466
285.139
285.245
285.639
284.875
284.882
284.894
284.895
284.888
284.876
284.862
284.849
284.838
284.832
284.83
284.832
284.839
284.85
284.864
284.881
284.9
284.92
284.938
284.955
284.969
284.981
284.99
284.997
285.001
285.001
284.999
284.999
284.999
284.999
285
285.001
285.002
285.003
285.004
285.005
285.005
285.004
285.003
285.002
284.999
284.996
284.992
284.987
284.982
284.976
284.969
284.962
284.955
284.947
284.939
284.931
284.922
284.914
284.906
284.898
284.891
284.884
284.878
284.873
284.869
284.867
284.868
284.894
285.116
285.491
285.738
285.761
285.621
285.432
285.187
285.076
285.019
284.973
284.961
284.95
284.94
284.93
284.921
284.913
284.905
284.897
284.888
284.879
284.87
284.859
284.849
284.841
284.841
284.865
284.888
284.91
284.938
285.038
285.344
285.475
285.241
285.035
285.214
285.612
284.875
284.882
284.89
284.886
284.875
284.86
284.845
284.833
284.824
284.82
284.821
284.826
284.835
284.848
284.866
284.886
284.907
284.928
284.947
284.964
284.977
284.988
284.995
285
285.001
284.997
284.991
284.988
284.986
284.985
284.985
284.985
284.985
284.986
284.986
284.987
284.987
284.986
284.986
284.984
284.982
284.979
284.976
284.972
284.967
284.961
284.955
284.949
284.941
284.934
284.926
284.918
284.91
284.902
284.894
284.886
284.879
284.872
284.866
284.861
284.857
284.855
284.855
284.87
285.008
285.323
285.604
285.711
285.653
285.516
285.375
285.153
285.056
284.978
284.964
284.954
284.945
284.938
284.932
284.926
284.92
284.914
284.908
284.9
284.891
284.881
284.872
284.864
284.862
284.87
284.889
284.908
284.934
285
285.173
285.239
285.085
284.967
285.197
285.588
284.875
284.88
284.884
284.876
284.862
284.845
284.83
284.819
284.813
284.811
284.814
284.821
284.833
284.849
284.869
284.892
284.915
284.937
284.957
284.973
284.986
284.995
285.001
285.003
285.001
284.992
284.983
284.977
284.974
284.971
284.969
284.967
284.966
284.966
284.966
284.965
284.965
284.964
284.963
284.962
284.96
284.957
284.954
284.951
284.946
284.941
284.936
284.93
284.923
284.916
284.909
284.902
284.894
284.886
284.879
284.872
284.865
284.858
284.852
284.848
284.844
284.842
284.843
284.852
284.935
285.184
285.468
285.634
285.648
285.564
285.454
285.352
285.115
284.984
284.97
284.963
284.957
284.954
284.951
284.949
284.947
284.944
284.94
284.934
284.927
284.918
284.908
284.898
284.89
284.887
284.893
284.908
284.927
284.965
285.05
285.079
284.99
284.926
285.189
285.565
284.874
284.878
284.878
284.867
284.85
284.832
284.818
284.809
284.805
284.805
284.81
284.819
284.833
284.852
284.874
284.9
284.925
284.948
284.968
284.984
284.995
285.003
285.007
285.007
285.003
284.988
284.976
284.968
284.961
284.956
284.953
284.949
284.947
284.945
284.943
284.942
284.941
284.939
284.938
284.936
284.934
284.931
284.928
284.925
284.921
284.917
284.912
284.907
284.901
284.895
284.888
284.881
284.875
284.868
284.861
284.855
284.849
284.843
284.838
284.833
284.83
284.829
284.83
284.836
284.887
285.074
285.342
285.544
285.617
285.582
285.501
285.417
285.212
284.993
284.979
284.976
284.975
284.977
284.979
284.981
284.982
284.983
284.981
284.978
284.973
284.965
284.955
284.943
284.929
284.916
284.906
284.907
284.918
284.938
284.974
284.985
284.939
284.901
285.188
285.544
284.874
284.875
284.872
284.857
284.839
284.821
284.808
284.801
284.799
284.801
284.807
284.818
284.834
284.855
284.881
284.909
284.936
284.96
284.98
284.995
285.006
285.012
285.014
285.011
285.004
284.985
284.97
284.959
284.95
284.943
284.937
284.932
284.928
284.924
284.92
284.918
284.915
284.912
284.91
284.908
284.905
284.902
284.899
284.896
284.892
284.888
284.884
284.879
284.874
284.869
284.864
284.858
284.852
284.847
284.841
284.836
284.83
284.826
284.821
284.818
284.816
284.815
284.816
284.822
284.855
284.991
285.232
285.454
285.57
285.579
285.525
285.448
285.283
285.009
284.99
284.992
284.998
285.004
285.011
285.016
285.021
285.024
285.025
285.025
285.023
285.019
285.012
285.002
284.989
284.972
284.952
284.929
284.912
284.917
284.932
284.937
284.911
284.884
285.19
285.525
284.873
284.871
284.865
284.849
284.829
284.812
284.801
284.795
284.795
284.798
284.806
284.818
284.836
284.86
284.888
284.918
284.948
284.973
284.993
285.008
285.017
285.022
285.022
285.016
285.006
284.982
284.965
284.951
284.94
284.931
284.923
284.915
284.909
284.903
284.897
284.893
284.889
284.885
284.881
284.878
284.874
284.871
284.867
284.864
284.86
284.857
284.853
284.849
284.845
284.841
284.836
284.832
284.827
284.823
284.818
284.814
284.81
284.807
284.804
284.802
284.8
284.8
284.802
284.808
284.831
284.931
285.141
285.369
285.519
285.564
285.535
285.464
285.296
285.029
285.005
285.013
285.024
285.033
285.041
285.048
285.052
285.055
285.057
285.059
285.06
285.06
285.058
285.056
285.05
285.042
285.027
285.006
284.974
284.932
284.908
284.91
284.893
284.873
285.193
285.507
284.871
284.868
284.859
284.841
284.821
284.806
284.796
284.792
284.792
284.797
284.805
284.819
284.839
284.865
284.896
284.929
284.96
284.987
285.007
285.021
285.03
285.032
285.029
285.021
285.007
284.981
284.961
284.945
284.932
284.92
284.909
284.899
284.89
284.882
284.875
284.868
284.862
284.857
284.852
284.847
284.843
284.839
284.835
284.831
284.827
284.824
284.821
284.817
284.814
284.81
284.807
284.804
284.8
284.797
284.794
284.791
284.789
284.787
284.785
284.784
284.784
284.785
284.788
284.794
284.812
284.888
285.068
285.295
285.469
285.544
285.536
285.467
285.229
285.026
285.038
285.047
285.054
285.059
285.063
285.065
285.066
285.067
285.068
285.069
285.071
285.073
285.076
285.078
285.08
285.081
285.079
285.073
285.059
285.031
284.975
284.907
284.879
284.868
285.202
285.49
284.87
284.865
284.854
284.834
284.815
284.8
284.792
284.789
284.791
284.796
284.805
284.82
284.842
284.871
284.905
284.941
284.974
285.002
285.022
285.036
285.043
285.043
285.037
285.026
285.009
284.982
284.958
284.94
284.924
284.91
284.897
284.885
284.873
284.863
284.853
284.844
284.836
284.829
284.823
284.817
284.811
284.807
284.802
284.798
284.794
284.791
284.787
284.785
284.782
284.779
284.777
284.775
284.772
284.771
284.769
284.768
284.767
284.766
284.766
284.766
284.767
284.77
284.774
284.78
284.796
284.856
285.011
285.233
285.424
285.525
285.533
285.46
285.149
285.036
285.047
285.055
285.06
285.062
285.063
285.062
285.061
285.061
285.06
285.061
285.062
285.065
285.069
285.074
285.079
285.085
285.092
285.097
285.099
285.095
285.073
285.015
284.905
284.917
285.218
285.474
284.868
284.861
284.849
284.828
284.81
284.796
284.79
284.788
284.79
284.796
284.805
284.821
284.845
284.877
284.915
284.954
284.989
285.018
285.038
285.051
285.056
285.054
285.045
285.03
285.01
284.982
284.956
284.936
284.918
284.902
284.886
284.871
284.857
284.844
284.833
284.822
284.812
284.803
284.795
284.788
284.782
284.776
284.771
284.766
284.762
284.759
284.755
284.753
284.751
284.749
284.747
284.746
284.745
284.744
284.744
284.744
284.744
284.745
284.746
284.748
284.751
284.754
284.76
284.767
284.782
284.831
284.968
285.183
285.388
285.508
285.529
285.441
285.087
285.042
285.051
285.056
285.057
285.056
285.053
285.05
285.047
285.046
285.045
285.045
285.046
285.049
285.053
285.058
285.064
285.072
285.081
285.091
285.103
285.115
285.122
285.114
285.063
285.022
285.234
285.46
284.867
284.858
284.844
284.824
284.806
284.794
284.788
284.787
284.79
284.796
284.806
284.823
284.849
284.884
284.925
284.967
285.005
285.034
285.055
285.066
285.07
285.065
285.053
285.034
285.012
284.984
284.956
284.934
284.914
284.895
284.877
284.86
284.843
284.828
284.814
284.801
284.789
284.779
284.769
284.761
284.754
284.748
284.742
284.737
284.733
284.729
284.726
284.723
284.721
284.72
284.719
284.718
284.718
284.719
284.719
284.72
284.722
284.724
284.727
284.73
284.734
284.739
284.746
284.755
284.77
284.813
284.935
285.145
285.36
285.497
285.526
285.397
285.062
285.045
285.052
285.053
285.05
285.046
285.04
285.035
285.031
285.029
285.028
285.028
285.029
285.031
285.035
285.04
285.045
285.052
285.061
285.071
285.084
285.101
285.123
285.147
285.166
285.149
285.251
285.446
284.866
284.856
284.84
284.82
284.802
284.792
284.787
284.787
284.79
284.796
284.806
284.824
284.852
284.89
284.936
284.981
285.021
285.051
285.072
285.082
285.083
285.075
285.06
285.039
285.014
284.986
284.957
284.933
284.911
284.891
284.87
284.85
284.831
284.813
284.796
284.782
284.769
284.757
284.746
284.737
284.729
284.722
284.716
284.711
284.706
284.703
284.699
284.697
284.695
284.694
284.693
284.693
284.694
284.695
284.696
284.699
284.701
284.704
284.708
284.713
284.718
284.724
284.732
284.742
284.758
284.798
284.91
285.115
285.34
285.49
285.518
285.339
285.051
285.046
285.05
285.048
285.042
285.034
285.027
285.021
285.016
285.013
285.012
285.012
285.013
285.016
285.019
285.024
285.03
285.036
285.043
285.051
285.06
285.073
285.091
285.119
285.162
285.219
285.269
285.434
284.864
284.853
284.837
284.816
284.8
284.791
284.787
284.787
284.79
284.796
284.806
284.825
284.855
284.897
284.946
284.995
285.037
285.069
285.089
285.098
285.096
285.086
285.068
285.044
285.017
284.989
284.959
284.934
284.91
284.887
284.864
284.841
284.82
284.8
284.781
284.765
284.751
284.738
284.726
284.717
284.708
284.701
284.694
284.689
284.684
284.68
284.677
284.674
284.672
284.671
284.671
284.671
284.672
284.674
284.676
284.678
284.682
284.686
284.691
284.696
284.703
284.71
284.72
284.731
284.748
284.785
284.891
285.094
285.328
285.489
285.501
285.28
285.047
285.047
285.047
285.041
285.032
285.023
285.014
285.006
285.001
284.997
284.996
284.996
284.998
285.001
285.005
285.011
285.017
285.023
285.03
285.036
285.043
285.05
285.059
285.071
285.094
285.143
285.25
285.422
284.863
284.851
284.834
284.814
284.798
284.79
284.787
284.788
284.79
284.796
284.806
284.826
284.858
284.903
284.956
285.009
285.053
285.086
285.105
285.113
285.109
285.096
285.075
285.049
285.021
284.992
284.963
284.936
284.911
284.886
284.86
284.835
284.811
284.789
284.769
284.751
284.735
284.721
284.709
284.699
284.69
284.682
284.676
284.67
284.665
284.661
284.658
284.655
284.653
284.652
284.652
284.652
284.653
284.655
284.657
284.66
284.664
284.669
284.675
284.681
284.689
284.697
284.708
284.72
284.738
284.775
284.877
285.08
285.322
285.491
285.476
285.227
285.045
285.046
285.042
285.034
285.022
285.011
285
284.992
284.986
284.982
284.981
284.981
284.983
284.987
284.992
284.998
285.005
285.012
285.02
285.027
285.034
285.04
285.045
285.049
285.051
285.052
285.054
285.411
284.861
284.848
284.831
284.811
284.797
284.79
284.787
284.788
284.79
284.795
284.806
284.826
284.859
284.907
284.965
285.022
285.069
285.103
285.122
285.128
285.122
285.106
285.083
285.055
285.026
284.996
284.967
284.939
284.913
284.886
284.858
284.83
284.804
284.78
284.758
284.739
284.722
284.708
284.695
284.684
284.675
284.667
284.661
284.655
284.65
284.645
284.642
284.639
284.637
284.636
284.636
284.636
284.637
284.638
284.641
284.644
284.649
284.654
284.66
284.667
284.675
284.685
284.697
284.711
284.729
284.767
284.867
285.071
285.323
285.493
285.445
285.182
285.044
285.044
285.037
285.026
285.012
284.999
284.987
284.978
284.971
284.967
284.965
284.966
284.968
284.973
284.979
284.986
284.994
285.002
285.011
285.019
285.027
285.035
285.041
285.045
285.048
285.047
285.046
285.401
284.86
284.846
284.829
284.81
284.796
284.789
284.787
284.788
284.79
284.795
284.805
284.825
284.86
284.91
284.972
285.034
285.085
285.119
285.138
285.142
285.134
285.116
285.091
285.062
285.031
285.001
284.972
284.944
284.916
284.888
284.857
284.827
284.799
284.772
284.749
284.729
284.711
284.696
284.683
284.672
284.663
284.655
284.648
284.642
284.637
284.632
284.629
284.626
284.624
284.623
284.622
284.622
284.623
284.625
284.627
284.63
284.635
284.64
284.647
284.654
284.663
284.674
284.686
284.702
284.722
284.76
284.86
285.067
285.332
285.49
285.41
285.147
285.043
285.041
285.032
285.018
285.002
284.987
284.974
284.963
284.955
284.951
284.949
284.95
284.954
284.959
284.966
284.974
284.983
284.992
285.002
285.011
285.021
285.03
285.037
285.043
285.046
285.046
285.041
285.392
284.859
284.845
284.827
284.808
284.795
284.789
284.788
284.788
284.789
284.794
284.804
284.823
284.858
284.911
284.978
285.044
285.099
285.135
285.153
285.156
285.146
285.125
285.099
285.069
285.038
285.007
284.977
284.949
284.921
284.891
284.859
284.826
284.795
284.767
284.742
284.721
284.702
284.687
284.673
284.662
284.652
284.644
284.637
284.631
284.626
284.621
284.617
284.615
284.612
284.611
284.61
284.61
284.611
284.612
284.615
284.618
284.623
284.628
284.635
284.643
284.653
284.664
284.677
284.694
284.715
284.754
284.855
285.066
285.346
285.484
285.375
285.12
285.042
285.038
285.026
285.009
284.992
284.975
284.96
284.949
284.94
284.935
284.934
284.935
284.94
284.946
284.954
284.964
284.973
284.983
284.993
285.004
285.014
285.024
285.034
285.041
285.045
285.045
285.039
285.384
284.858
284.843
284.826
284.807
284.795
284.789
284.788
284.788
284.789
284.793
284.802
284.821
284.855
284.909
284.98
285.052
285.111
285.149
285.168
285.17
285.157
285.135
285.106
285.076
285.044
285.013
284.983
284.954
284.926
284.895
284.861
284.826
284.793
284.763
284.737
284.714
284.695
284.679
284.665
284.653
284.643
284.635
284.628
284.621
284.616
284.611
284.607
284.604
284.602
284.6
284.6
284.6
284.6
284.602
284.604
284.607
284.612
284.618
284.624
284.633
284.643
284.655
284.669
284.687
284.709
284.75
284.852
285.071
285.36
285.474
285.339
285.1
285.041
285.034
285.02
285.001
284.982
284.964
284.948
284.935
284.926
284.921
284.919
284.921
284.927
284.935
284.944
284.955
284.965
284.976
284.986
284.997
285.008
285.019
285.03
285.039
285.045
285.045
285.036
285.377
284.857
284.842
284.824
284.806
284.795
284.789
284.787
284.787
284.789
284.792
284.8
284.817
284.849
284.904
284.978
285.057
285.121
285.162
285.182
285.182
285.168
285.143
285.114
285.083
285.051
285.02
284.989
284.961
284.933
284.901
284.865
284.828
284.793
284.761
284.733
284.709
284.689
284.672
284.658
284.646
284.636
284.627
284.619
284.612
284.606
284.601
284.597
284.594
284.592
284.591
284.59
284.59
284.591
284.592
284.595
284.598
284.602
284.608
284.615
284.624
284.634
284.647
284.662
284.68
284.704
284.747
284.852
285.083
285.373
285.461
285.306
285.085
285.04
285.031
285.014
284.994
284.973
284.953
284.936
284.922
284.912
284.907
284.905
284.908
284.915
284.925
284.936
284.948
284.959
284.971
284.981
284.992
285.003
285.015
285.027
285.038
285.045
285.045
285.035
285.37
284.856
284.841
284.824
284.806
284.795
284.789
284.787
284.787
284.788
284.791
284.798
284.812
284.841
284.894
284.971
285.056
285.128
285.173
285.194
285.194
285.178
285.152
285.121
285.09
285.058
285.027
284.996
284.967
284.939
284.907
284.87
284.831
284.794
284.759
284.73
284.705
284.684
284.667
284.652
284.639
284.629
284.619
284.611
284.604
284.597
284.592
284.588
284.584
284.582
284.581
284.58
284.58
284.581
284.583
284.586
284.589
284.594
284.6
284.607
284.616
284.627
284.64
284.656
284.675
284.7
284.744
284.853
285.101
285.384
285.447
285.276
285.074
285.038
285.028
285.009
284.987
284.965
284.943
284.925
284.91
284.9
284.894
284.893
284.897
284.905
284.917
284.93
284.943
284.956
284.967
284.978
284.988
284.999
285.011
285.023
285.036
285.045
285.046
285.033
285.364
284.855
284.84
284.823
284.806
284.795
284.789
284.787
284.787
284.788
284.79
284.795
284.806
284.831
284.88
284.957
285.05
285.13
285.182
285.205
285.204
285.187
285.159
285.127
285.096
285.065
285.034
285.004
284.975
284.946
284.914
284.877
284.836
284.796
284.76
284.729
284.702
284.68
284.662
284.647
284.634
284.622
284.612
284.603
284.596
284.589
284.583
284.578
284.574
284.572
284.571
284.571
284.571
284.572
284.575
284.577
284.581
284.586
284.592
284.6
284.609
284.62
284.634
284.65
284.671
284.697
284.743
284.855
285.124
285.392
285.43
285.249
285.065
285.037
285.025
285.005
284.981
284.957
284.935
284.915
284.9
284.888
284.882
284.881
284.887
284.897
284.91
284.926
284.941
284.954
284.966
284.977
284.987
284.996
285.008
285.021
285.034
285.044
285.046
285.032
285.359
284.855
284.839
284.823
284.806
284.795
284.789
284.787
284.786
284.787
284.79
284.793
284.8
284.82
284.862
284.937
285.035
285.127
285.187
285.213
285.213
285.194
285.165
285.132
285.101
285.071
285.041
285.011
284.983
284.954
284.921
284.883
284.841
284.8
284.761
284.729
284.701
284.678
284.659
284.643
284.629
284.617
284.606
284.596
284.588
284.58
284.574
284.568
284.564
284.562
284.561
284.561
284.562
284.564
284.566
284.57
284.574
284.579
284.585
284.593
284.603
284.615
284.629
284.646
284.667
284.695
284.743
284.864
285.147
285.398
285.413
285.225
285.059
285.036
285.022
285.001
284.977
284.952
284.928
284.907
284.891
284.878
284.872
284.872
284.878
284.89
284.906
284.923
284.94
284.955
284.967
284.978
284.987
284.995
285.005
285.018
285.032
285.044
285.047
285.031
285.355
284.854
284.838
284.823
284.806
284.795
284.789
284.787
284.786
284.787
284.789
284.792
284.796
284.808
284.842
284.91
285.01
285.115
285.187
285.22
285.221
285.2
285.169
285.136
285.106
285.077
285.048
285.019
284.991
284.962
284.929
284.89
284.848
284.805
284.765
284.73
284.701
284.676
284.656
284.639
284.625
284.612
284.6
284.59
284.58
284.572
284.564
284.558
284.554
284.551
284.55
284.551
284.552
284.555
284.558
284.562
284.567
284.573
284.579
284.588
284.598
284.61
284.625
284.643
284.665
284.694
284.744
284.88
285.17
285.401
285.396
285.204
285.054
285.035
285.02
284.998
284.973
284.947
284.923
284.902
284.884
284.871
284.864
284.863
284.87
284.884
284.903
284.922
284.941
284.957
284.97
284.98
284.988
284.996
285.004
285.016
285.031
285.044
285.048
285.03
285.352
284.853
284.838
284.823
284.807
284.795
284.79
284.787
284.786
284.787
284.79
284.792
284.793
284.798
284.822
284.878
284.974
285.091
285.181
285.222
285.226
285.205
285.171
285.137
285.108
285.082
285.055
285.027
284.999
284.971
284.938
284.899
284.855
284.81
284.769
284.733
284.702
284.676
284.655
284.637
284.622
284.608
284.596
284.584
284.574
284.564
284.556
284.549
284.543
284.54
284.539
284.54
284.543
284.546
284.551
284.555
284.561
284.567
284.574
284.583
284.593
284.606
284.621
284.64
284.663
284.693
284.747
284.903
285.192
285.403
285.379
285.186
285.051
285.035
285.019
284.997
284.971
284.945
284.92
284.898
284.88
284.866
284.858
284.858
284.865
284.88
284.901
284.923
284.942
284.96
284.974
284.984
284.991
284.997
285.004
285.016
285.03
285.044
285.049
285.03
285.349
284.853
284.838
284.824
284.808
284.796
284.79
284.787
284.786
284.787
284.79
284.793
284.791
284.791
284.804
284.845
284.929
285.052
285.165
285.22
285.228
285.207
285.171
285.137
285.109
285.086
285.061
285.034
285.007
284.98
284.948
284.908
284.863
284.817
284.774
284.736
284.704
284.677
284.655
284.636
284.62
284.605
284.592
284.58
284.569
284.558
284.549
284.541
284.534
284.529
284.528
284.53
284.534
284.539
284.544
284.55
284.556
284.562
284.57
284.579
284.59
284.603
284.619
284.638
284.662
284.694
284.756
284.93
285.214
285.402
285.362
285.171
285.048
285.035
285.019
284.997
284.971
284.945
284.92
284.897
284.879
284.865
284.856
284.854
284.861
284.878
284.901
284.924
284.945
284.963
284.978
284.988
284.995
285
285.006
285.015
285.029
285.044
285.049
285.029
285.347
284.853
284.838
284.824
284.809
284.797
284.791
284.788
284.786
284.787
284.791
284.794
284.792
284.788
284.791
284.815
284.88
284.997
285.134
285.211
285.227
285.206
285.169
285.133
285.108
285.088
285.066
285.041
285.015
284.989
284.958
284.918
284.872
284.825
284.781
284.741
284.707
284.679
284.656
284.636
284.619
284.603
284.59
284.577
284.565
284.554
284.544
284.535
284.528
284.523
284.522
284.524
284.528
284.533
284.539
284.545
284.552
284.559
284.567
284.577
284.588
284.602
284.618
284.638
284.663
284.697
284.771
284.96
285.234
285.4
285.345
285.157
285.046
285.035
285.02
284.998
284.973
284.947
284.922
284.9
284.881
284.867
284.858
284.856
284.86
284.879
284.903
284.927
284.948
284.967
284.982
284.993
284.999
285.003
285.007
285.016
285.029
285.044
285.05
285.028
285.346
284.852
284.838
284.825
284.81
284.799
284.792
284.789
284.787
284.788
284.792
284.795
284.794
284.788
284.784
284.793
284.836
284.932
285.081
285.192
285.221
285.202
285.163
285.126
285.103
285.088
285.07
285.048
285.023
284.998
284.969
284.929
284.883
284.835
284.789
284.748
284.713
284.683
284.658
284.637
284.619
284.603
284.589
284.576
284.563
284.552
284.542
284.533
284.525
284.521
284.52
284.521
284.525
284.53
284.536
284.542
284.549
284.557
284.565
284.575
284.587
284.601
284.618
284.639
284.665
284.704
284.794
284.994
285.253
285.396
285.328
285.145
285.045
285.036
285.022
285.001
284.976
284.95
284.926
284.905
284.887
284.873
284.865
284.864
284.871
284.888
284.909
284.931
284.952
284.971
284.986
284.997
285.004
285.007
285.01
285.017
285.03
285.044
285.051
285.028
285.346
284.852
284.838
284.827
284.812
284.801
284.794
284.79
284.788
284.789
284.792
284.796
284.796
284.79
284.782
284.78
284.802
284.87
285.007
285.154
285.207
285.193
285.153
285.116
285.096
285.086
285.073
285.054
285.031
285.008
284.98
284.941
284.895
284.846
284.799
284.757
284.72
284.689
284.663
284.641
284.622
284.605
284.59
284.577
284.564
284.553
284.542
284.534
284.527
284.522
284.521
284.522
284.525
284.53
284.535
284.542
284.549
284.557
284.566
284.576
284.588
284.603
284.62
284.642
284.67
284.717
284.823
285.029
285.271
285.391
285.312
285.135
285.044
285.038
285.024
285.004
284.98
284.956
284.934
284.913
284.897
284.884
284.878
284.878
284.885
284.899
284.918
284.938
284.958
284.976
284.991
285.002
285.008
285.011
285.013
285.019
285.03
285.045
285.051
285.028
285.346
284.852
284.837
284.828
284.814
284.804
284.796
284.792
284.791
284.791
284.794
284.797
284.797
284.793
284.784
284.776
284.782
284.822
284.928
285.094
285.176
285.177
285.139
285.102
285.085
285.081
285.074
285.059
285.038
285.017
284.991
284.955
284.909
284.86
284.811
284.767
284.729
284.696
284.669
284.646
284.626
284.609
284.594
284.58
284.568
284.556
284.546
284.538
284.532
284.527
284.525
284.526
284.528
284.532
284.537
284.543
284.55
284.558
284.568
284.578
284.591
284.606
284.624
284.647
284.68
284.738
284.86
285.067
285.287
285.383
285.295
285.126
285.044
285.039
285.027
285.008
284.986
284.964
284.943
284.925
284.91
284.899
284.894
284.894
284.901
284.914
284.93
284.948
284.966
284.983
284.997
285.007
285.012
285.014
285.016
285.021