/*--------------------------------*- C++ -*----------------------------------*\
| =========                 |                                                 |
| \\      /  F ield         | OpenFOAM: The Open Source CFD Toolbox           |
|  \\    /   O peration     | Version:  4.1                                   |
|   \\  /    A nd           | Web:      www.OpenFOAM.org                      |
|    \\/     M anipulation  |                                                 |
\*---------------------------------------------------------------------------*/
FoamFile
{
    version     2.0;
    format      ascii;
    class       surfaceScalarField;
    location    "860";
    object      phi;
}
// * * * * * * * * * * * * * * * * * * * * * * * * * * * * * * * * * * * * * //

dimensions      [0 3 -1 0 0 0 0];

internalField   nonuniform List<scalar> 
9850
(
-5.57804e-06
5.57804e-06
-6.97922e-06
1.40118e-06
-6.08748e-06
-8.91736e-07
-4.45614e-06
-1.63134e-06
-3.03412e-06
-1.42202e-06
-2.36911e-06
-6.65017e-07
-2.25032e-06
-1.18785e-07
-2.20703e-06
-4.32875e-08
-2.04574e-06
-1.6129e-07
-1.74898e-06
-2.96761e-07
-1.37435e-06
-3.74631e-07
-9.51257e-07
-4.23095e-07
-4.77926e-07
-4.73331e-07
7.24365e-08
-5.50363e-07
6.98109e-07
-6.25673e-07
1.09576e-06
-3.97651e-07
1.08543e-06
1.03296e-08
1.60245e-06
-5.17016e-07
2.63125e-06
-1.02881e-06
3.69159e-06
-1.06034e-06
4.71698e-06
-1.02539e-06
5.69536e-06
-9.78372e-07
6.62634e-06
-9.30987e-07
7.51192e-06
-8.85578e-07
8.35343e-06
-8.41511e-07
9.1506e-06
-7.97168e-07
9.90151e-06
-7.50912e-07
1.0603e-05
-7.01456e-07
1.12509e-05
-6.47887e-07
1.18404e-05
-5.8956e-07
1.23664e-05
-5.26004e-07
1.28233e-05
-4.56905e-07
1.32055e-05
-3.82138e-07
1.35073e-05
-3.01866e-07
1.3724e-05
-2.16694e-07
1.3852e-05
-1.27941e-07
1.38902e-05
-3.82595e-08
1.38403e-05
4.98764e-08
1.37046e-05
1.35739e-07
1.34851e-05
2.19549e-07
1.31848e-05
3.00244e-07
1.28082e-05
3.76662e-07
1.23603e-05
4.47833e-07
1.18472e-05
5.13115e-07
1.12749e-05
5.7227e-07
1.06494e-05
6.2558e-07
9.97537e-06
6.7399e-07
9.256e-06
7.19364e-07
8.49106e-06
7.64942e-07
7.67486e-06
8.16197e-07
6.79225e-06
8.82612e-07
5.81042e-06
9.81831e-07
4.65991e-06
1.15051e-06
3.18315e-06
1.47676e-06
9.76583e-07
2.20657e-06
-2.74195e-06
3.71853e-06
-7.16631e-06
4.42436e-06
-9.71465e-06
2.54834e-06
-1.08933e-05
1.17868e-06
-1.13348e-05
4.41426e-07
-1.13973e-05
6.2553e-08
-1.12908e-05
-1.06535e-07
-1.11128e-05
-1.78003e-07
-1.09027e-05
-2.10108e-07
-1.06689e-05
-2.33733e-07
-1.04132e-05
-2.55739e-07
-1.01367e-05
-2.76472e-07
-9.84123e-06
-2.95486e-07
-9.52783e-06
-3.13401e-07
-9.19643e-06
-3.31404e-07
-8.84579e-06
-3.50636e-07
-8.47416e-06
-3.71636e-07
-8.07995e-06
-3.94212e-07
-7.6625e-06
-4.17447e-07
-7.22282e-06
-4.39676e-07
-6.76429e-06
-4.5853e-07
-6.29318e-06
-4.71114e-07
-5.81902e-06
-4.74154e-07
-5.35485e-06
-4.64178e-07
-4.91704e-06
-4.37803e-07
-4.52482e-06
-3.92218e-07
-4.19885e-06
-3.25978e-07
-3.95859e-06
-2.40255e-07
-3.8183e-06
-1.40294e-07
-3.78581e-06
-3.24909e-08
-3.86394e-06
7.81322e-08
-4.03405e-06
1.70113e-07
-4.26631e-06
2.32254e-07
-4.49872e-06
2.32414e-07
-4.68335e-06
1.84628e-07
-4.79051e-06
1.07159e-07
-4.78934e-06
-1.16193e-09
-4.67539e-06
-1.13952e-07
-4.39617e-06
-2.79226e-07
-3.87881e-06
-5.17352e-07
-3.02611e-06
-8.52705e-07
-1.68691e-06
-1.3392e-06
5.31166e-07
-2.21808e-06
2.56406e-06
-2.03289e-06
2.56406e-06
-3.61897e-06
9.19701e-06
-4.69383e-06
2.47603e-06
-4.26129e-06
-1.32427e-06
-3.55303e-06
-2.3396e-06
-2.99305e-06
-1.982e-06
-2.47283e-06
-1.18523e-06
-1.92487e-06
-6.66747e-07
-1.49112e-06
-4.77037e-07
-1.16982e-06
-4.82588e-07
-9.10718e-07
-5.55864e-07
-6.42084e-07
-6.43265e-07
-3.28601e-07
-7.36578e-07
3.72783e-08
-8.3921e-07
4.38785e-07
-9.5187e-07
8.69305e-07
-1.05619e-06
1.54392e-06
-1.07226e-06
2.61608e-06
-1.06184e-06
3.41871e-06
-1.31964e-06
4.03002e-06
-1.64012e-06
4.76115e-06
-1.79147e-06
5.55917e-06
-1.82341e-06
6.39351e-06
-1.81271e-06
7.24417e-06
-1.78165e-06
8.09464e-06
-1.73605e-06
8.93164e-06
-1.67851e-06
9.74465e-06
-1.61018e-06
1.05251e-05
-1.53135e-06
1.12656e-05
-1.44197e-06
1.19596e-05
-1.3419e-06
1.2601e-05
-1.23095e-06
1.31839e-05
-1.10888e-06
1.37025e-05
-9.75503e-07
1.41511e-05
-8.3079e-07
1.45244e-05
-6.75134e-07
1.48173e-05
-5.09603e-07
1.50256e-05
-3.36215e-07
1.51455e-05
-1.58161e-07
1.51735e-05
2.18609e-08
1.51076e-05
2.01619e-07
1.49488e-05
3.78335e-07
1.46998e-05
5.49311e-07
1.43642e-05
7.12226e-07
1.39469e-05
8.65102e-07
1.34534e-05
1.00663e-06
1.28893e-05
1.13638e-06
1.22598e-05
1.25507e-06
1.1569e-05
1.3648e-06
1.08188e-05
1.4696e-06
1.00074e-05
1.57631e-06
9.1273e-06
1.6963e-06
8.16108e-06
1.84883e-06
7.07473e-06
2.06818e-06
5.80554e-06
2.4197e-06
4.24401e-06
3.03829e-06
2.21636e-06
4.23422e-06
-6.73986e-07
6.60888e-06
-4.89479e-06
8.64517e-06
-8.32094e-06
5.9745e-06
-1.02181e-05
3.07584e-06
-1.11374e-05
1.36068e-06
-1.15133e-05
4.38467e-07
-1.16009e-05
-1.89117e-08
-1.1548e-05
-2.30928e-07
-1.14198e-05
-3.38285e-07
-1.12415e-05
-4.11989e-07
-1.10217e-05
-4.75559e-07
-1.07646e-05
-5.33572e-07
-1.04727e-05
-5.87458e-07
-1.01471e-05
-6.39006e-07
-9.7881e-06
-6.90359e-07
-9.39521e-06
-7.43521e-07
-8.96726e-06
-7.99588e-07
-8.50326e-06
-8.58208e-07
-8.00313e-06
-9.17579e-07
-7.4681e-06
-9.74707e-07
-6.90105e-06
-1.02558e-06
-6.30691e-06
-1.06525e-06
-5.69329e-06
-1.08778e-06
-5.07121e-06
-1.08626e-06
-4.45611e-06
-1.0529e-06
-3.8688e-06
-9.79528e-07
-3.33599e-06
-8.58796e-07
-2.8898e-06
-6.86439e-07
-2.5637e-06
-4.66396e-07
-2.37668e-06
-2.19507e-07
-2.36484e-06
6.62838e-08
-2.45956e-06
2.64842e-07
-2.61593e-06
3.88616e-07
-2.81526e-06
4.31745e-07
-3.01274e-06
3.82114e-07
-3.16569e-06
2.60103e-07
-3.24873e-06
8.1882e-08
-3.23113e-06
-1.31554e-07
-3.07678e-06
-4.33576e-07
-2.72834e-06
-8.65791e-07
-2.11495e-06
-1.4661e-06
-1.20531e-06
-2.24883e-06
-7.10564e-08
-3.35233e-06
1.43892e-06
-3.54286e-06
4.00297e-06
-2.3181e-06
1.15151e-05
-2.1567e-06
2.31464e-06
-1.91132e-06
-1.56966e-06
-2.00193e-06
-2.24899e-06
-2.05641e-06
-1.92752e-06
-1.93882e-06
-1.30283e-06
-1.69726e-06
-9.08301e-07
-1.43629e-06
-7.38016e-07
-1.19867e-06
-7.20203e-07
-9.68286e-07
-7.86249e-07
-7.13989e-07
-8.97561e-07
-4.12008e-07
-1.03856e-06
-4.96986e-08
-1.20152e-06
3.7813e-07
-1.3797e-06
9.02322e-07
-1.58038e-06
1.59117e-06
-1.76111e-06
2.46118e-06
-1.93185e-06
3.30169e-06
-2.16016e-06
4.05931e-06
-2.39774e-06
4.82427e-06
-2.55642e-06
5.62642e-06
-2.62556e-06
6.45312e-06
-2.63941e-06
7.28992e-06
-2.61845e-06
8.12439e-06
-2.57052e-06
8.94531e-06
-2.49943e-06
9.74285e-06
-2.40772e-06
1.05086e-05
-2.29711e-06
1.12354e-05
-2.16874e-06
1.19168e-05
-2.02331e-06
1.25469e-05
-1.8611e-06
1.31201e-05
-1.68204e-06
1.36305e-05
-1.48588e-06
1.40722e-05
-1.27248e-06
1.44392e-05
-1.04214e-06
1.47257e-05
-7.96086e-07
1.49262e-05
-5.36788e-07
1.50361e-05
-2.68072e-07
1.50531e-05
4.93714e-09
1.4976e-05
2.78726e-07
1.48059e-05
5.48403e-07
1.45451e-05
8.10106e-07
1.41973e-05
1.06005e-06
1.37672e-05
1.29521e-06
1.32602e-05
1.5136e-06
1.26819e-05
1.71465e-06
1.20375e-05
1.89944e-06
1.13312e-05
2.07111e-06
1.05653e-05
2.2355e-06
9.73931e-06
2.40234e-06
8.8482e-06
2.5874e-06
7.8804e-06
2.81663e-06
6.81446e-06
3.13412e-06
5.61552e-06
3.61863e-06
4.23476e-06
4.41905e-06
2.62779e-06
5.84119e-06
6.78554e-07
8.55812e-06
-2.44252e-06
1.17662e-05
-5.97474e-06
9.50673e-06
-8.14574e-06
5.24683e-06
-9.36084e-06
2.57579e-06
-1.00398e-05
1.11738e-06
-1.0419e-05
3.60357e-07
-1.061e-05
-3.99616e-08
-1.0671e-05
-2.77235e-07
-1.06425e-05
-4.40576e-07
-1.05469e-05
-5.71109e-07
-1.0396e-05
-6.84494e-07
-1.01961e-05
-7.87324e-07
-9.95043e-06
-8.84687e-07
-9.65952e-06
-9.81274e-07
-9.32256e-06
-1.08048e-06
-8.93834e-06
-1.18381e-06
-8.50572e-06
-1.29083e-06
-8.0239e-06
-1.3994e-06
-7.49264e-06
-1.50596e-06
-6.91249e-06
-1.60573e-06
-6.28491e-06
-1.69283e-06
-5.61239e-06
-1.7603e-06
-4.89866e-06
-1.79999e-06
-4.14896e-06
-1.8026e-06
-3.37057e-06
-1.75792e-06
-2.57371e-06
-1.65566e-06
-1.77387e-06
-1.48629e-06
-1.00284e-06
-1.23743e-06
-3.50414e-07
-8.71929e-07
6.65799e-08
-3.5071e-07
9.53152e-08
2.36106e-07
-1.95099e-07
6.7903e-07
-6.37369e-07
8.74015e-07
-1.10744e-06
8.52188e-07
-1.50811e-06
6.60769e-07
-1.79495e-06
3.68724e-07
-1.90899e-06
-1.75099e-08
-1.89444e-06
-4.48127e-07
-1.7294e-06
-1.03084e-06
-1.3418e-06
-1.85369e-06
-7.65359e-07
-2.82527e-06
-7.95949e-08
-4.0381e-06
8.52219e-07
-4.47468e-06
4.85519e-06
-1.77619e-06
1.32913e-05
-8.31531e-07
1.36998e-06
-7.3902e-07
-1.66217e-06
-1.18505e-06
-1.80296e-06
-1.55585e-06
-1.55672e-06
-1.66281e-06
-1.19587e-06
-1.60704e-06
-9.64074e-07
-1.47561e-06
-8.6944e-07
-1.30984e-06
-8.8598e-07
-1.11157e-06
-9.84513e-07
-8.64981e-07
-1.14415e-06
-5.52398e-07
-1.35114e-06
-1.61201e-07
-1.59272e-06
3.19979e-07
-1.86088e-06
9.17056e-07
-2.17746e-06
1.63534e-06
-2.47939e-06
2.44901e-06
-2.74552e-06
3.27832e-06
-2.98947e-06
4.08175e-06
-3.20117e-06
4.87807e-06
-3.35275e-06
5.68768e-06
-3.43517e-06
6.50902e-06
-3.46075e-06
7.33315e-06
-3.44258e-06
8.15055e-06
-3.38792e-06
8.95209e-06
-3.30097e-06
9.72929e-06
-3.18492e-06
1.04747e-05
-3.04252e-06
1.11819e-05
-2.87598e-06
1.18454e-05
-2.68681e-06
1.246e-05
-2.47568e-06
1.30205e-05
-2.24251e-06
1.35213e-05
-1.98666e-06
1.39561e-05
-1.70735e-06
1.43183e-05
-1.40429e-06
1.46006e-05
-1.07837e-06
1.4796e-05
-7.3224e-07
1.48987e-05
-3.70745e-07
1.49045e-05
-8.1537e-10
1.48123e-05
3.70905e-07
1.46226e-05
7.3812e-07
1.43377e-05
1.09497e-06
1.39616e-05
1.4361e-06
1.34996e-05
1.7572e-06
1.29577e-05
2.05553e-06
1.23422e-05
2.33022e-06
1.1659e-05
2.58262e-06
1.09135e-05
2.81661e-06
1.01097e-05
3.03928e-06
9.24995e-06
3.26208e-06
8.33434e-06
3.50301e-06
7.36033e-06
3.79065e-06
6.32283e-06
4.17162e-06
5.21603e-06
4.72543e-06
4.0391e-06
5.59598e-06
2.81518e-06
7.06511e-06
1.55031e-06
9.82298e-06
-5.99741e-07
1.39163e-05
-4.00594e-06
1.29129e-05
-6.41464e-06
7.65554e-06
-7.91097e-06
4.07211e-06
-8.85827e-06
2.06469e-06
-9.47096e-06
9.73041e-07
-9.86345e-06
3.52532e-07
-1.00973e-05
-4.33687e-08
-1.02136e-05
-3.24337e-07
-1.02453e-05
-5.39386e-07
-1.02099e-05
-7.19914e-07
-1.0115e-05
-8.82175e-07
-9.96423e-06
-1.03547e-06
-9.75863e-06
-1.18687e-06
-9.49807e-06
-1.34104e-06
-9.18183e-06
-1.50005e-06
-8.80927e-06
-1.66339e-06
-8.38016e-06
-1.8285e-06
-7.89479e-06
-1.99133e-06
-7.3539e-06
-2.14663e-06
-6.75863e-06
-2.2881e-06
-6.1106e-06
-2.40832e-06
-5.41208e-06
-2.49851e-06
-4.66613e-06
-2.54855e-06
-3.8768e-06
-2.54724e-06
-3.04933e-06
-2.48313e-06
-2.18998e-06
-2.34563e-06
-1.29983e-06
-2.12758e-06
-3.4349e-07
-1.82827e-06
6.93501e-07
-1.3877e-06
1.54856e-06
-6.18954e-07
1.94153e-06
2.86061e-07
1.89103e-06
9.24513e-07
1.56741e-06
1.17581e-06
1.0515e-06
1.17668e-06
4.11799e-07
1.00842e-06
-1.90277e-07
5.84566e-07
-5.55442e-07
-8.29619e-08
-6.0526e-07
-9.81022e-07
-4.92903e-07
-1.96605e-06
-2.44112e-07
-3.07406e-06
6.40157e-08
-4.34623e-06
5.58533e-07
-4.96919e-06
5.41373e-06
-1.42832e-06
1.47196e-05
-5.24659e-07
4.66329e-07
-7.10302e-07
-1.47652e-06
-1.08959e-06
-1.42367e-06
-1.41375e-06
-1.23255e-06
-1.56582e-06
-1.0438e-06
-1.59279e-06
-9.37099e-07
-1.53891e-06
-9.23321e-07
-1.42459e-06
-1.0003e-06
-1.2477e-06
-1.1614e-06
-9.94865e-07
-1.39699e-06
-6.52574e-07
-1.69343e-06
-2.13243e-07
-2.03205e-06
3.30428e-07
-2.40455e-06
9.85244e-07
-2.83228e-06
1.72422e-06
-3.21836e-06
2.51631e-06
-3.53761e-06
3.32472e-06
-3.79788e-06
4.12696e-06
-4.00341e-06
4.92431e-06
-4.1501e-06
5.72501e-06
-4.23586e-06
6.5297e-06
-4.26544e-06
7.3326e-06
-4.24548e-06
8.12568e-06
-4.181e-06
8.90063e-06
-4.07592e-06
9.64989e-06
-3.93418e-06
1.03671e-05
-3.75976e-06
1.10474e-05
-3.55621e-06
1.16866e-05
-3.32603e-06
1.22812e-05
-3.0703e-06
1.28273e-05
-2.78865e-06
1.33202e-05
-2.47949e-06
1.37535e-05
-2.14069e-06
1.41196e-05
-1.77043e-06
1.44096e-05
-1.3683e-06
1.46138e-05
-9.36413e-07
1.47233e-05
-4.80243e-07
1.47315e-05
-9.09538e-09
1.46356e-05
4.66803e-07
1.44358e-05
9.37958e-07
1.41346e-05
1.39615e-06
1.37368e-05
1.83394e-06
1.32485e-05
2.2455e-06
1.26769e-05
2.62716e-06
1.20293e-05
2.97781e-06
1.13128e-05
3.29903e-06
1.05341e-05
3.59531e-06
9.69889e-06
3.87454e-06
8.81205e-06
4.14893e-06
7.87821e-06
4.43685e-06
6.9025e-06
4.76636e-06
5.89249e-06
5.18163e-06
4.86205e-06
5.75587e-06
3.8376e-06
6.62043e-06
2.86851e-06
8.0342e-06
2.04341e-06
1.06481e-05
8.0078e-07
1.51589e-05
-2.29137e-06
1.60051e-05
-4.98961e-06
1.03538e-05
-6.71378e-06
5.79629e-06
-7.86611e-06
3.21702e-06
-8.6576e-06
1.76453e-06
-9.20716e-06
9.02097e-07
-9.5855e-06
3.34966e-07
-9.83239e-06
-7.74475e-08
-9.97659e-06
-3.95182e-07
-1.00422e-05
-6.54265e-07
-1.00393e-05
-8.85067e-07
-9.97199e-06
-1.10283e-06
-9.84174e-06
-1.31712e-06
-9.64909e-06
-1.5337e-06
-9.39429e-06
-1.75485e-06
-9.07785e-06
-1.97983e-06
-8.70066e-06
-2.20569e-06
-8.26388e-06
-2.42811e-06
-7.76879e-06
-2.64172e-06
-7.21672e-06
-2.84018e-06
-6.6092e-06
-3.01583e-06
-5.94833e-06
-3.15938e-06
-5.2372e-06
-3.25968e-06
-4.48048e-06
-3.30397e-06
-3.68491e-06
-3.2787e-06
-2.85941e-06
-3.17113e-06
-2.01485e-06
-2.97213e-06
-1.16504e-06
-2.67809e-06
-2.68381e-07
-2.28436e-06
7.90362e-07
-1.6777e-06
1.81286e-06
-7.36433e-07
2.41529e-06
3.22078e-07
2.5597e-06
1.0314e-06
2.46729e-06
1.26909e-06
2.24693e-06
1.22878e-06
1.84694e-06
9.84562e-07
1.26371e-06
5.0026e-07
6.97396e-07
-4.14703e-07
3.90803e-07
-1.65946e-06
2.66116e-07
-2.94938e-06
2.90854e-07
-4.37097e-06
4.01719e-07
-5.08006e-06
5.81544e-06
-1.15558e-06
1.58752e-05
-7.04906e-07
1.56591e-08
-8.88727e-07
-1.2927e-06
-1.16717e-06
-1.14523e-06
-1.41443e-06
-9.85298e-07
-1.56881e-06
-8.8942e-07
-1.63525e-06
-8.70661e-07
-1.62377e-06
-9.34792e-07
-1.53425e-06
-1.08982e-06
-1.35637e-06
-1.33928e-06
-1.07767e-06
-1.67569e-06
-6.9115e-07
-2.07995e-06
-1.98262e-07
-2.52494e-06
3.99608e-07
-3.00242e-06
1.08492e-06
-3.51759e-06
1.82095e-06
-3.95438e-06
2.58527e-06
-4.30193e-06
3.36046e-06
-4.57307e-06
4.13626e-06
-4.77921e-06
4.91155e-06
-4.92539e-06
5.68862e-06
-5.01292e-06
6.46618e-06
-5.04301e-06
7.23826e-06
-5.01756e-06
7.99656e-06
-4.9393e-06
8.73289e-06
-4.81225e-06
9.44059e-06
-4.64188e-06
1.01152e-05
-4.43433e-06
1.07541e-05
-4.19517e-06
1.13563e-05
-3.92825e-06
1.19211e-05
-3.63504e-06
1.2447e-05
-3.31452e-06
1.29309e-05
-2.96346e-06
1.33675e-05
-2.57727e-06
1.37483e-05
-2.15122e-06
1.40621e-05
-1.68207e-06
1.42955e-05
-1.16985e-06
1.44348e-05
-6.19555e-07
1.44681e-05
-4.23852e-08
1.43893e-05
5.45651e-07
1.41974e-05
1.12981e-06
1.38954e-05
1.69814e-06
1.34891e-05
2.24026e-06
1.29864e-05
2.74822e-06
1.23964e-05
3.21718e-06
1.17284e-05
3.64575e-06
1.09915e-05
4.03596e-06
1.01937e-05
4.39306e-06
9.34256e-06
4.72573e-06
8.44495e-06
5.04654e-06
7.50841e-06
5.37338e-06
6.54259e-06
5.73218e-06
5.56178e-06
6.16244e-06
4.58916e-06
6.72848e-06
3.66332e-06
7.54628e-06
2.84606e-06
8.85146e-06
2.26256e-06
1.12316e-05
1.60904e-06
1.58124e-05
-8.48721e-07
1.84628e-05
-3.79434e-06
1.32994e-05
-5.69102e-06
7.69297e-06
-7.00369e-06
4.52968e-06
-7.93623e-06
2.69707e-06
-8.61183e-06
1.5777e-06
-9.1047e-06
8.27839e-07
-9.45981e-06
2.77656e-07
-9.70172e-06
-1.53273e-07
-9.85089e-06
-5.05089e-07
-9.92357e-06
-8.12391e-07
-9.92464e-06
-1.10175e-06
-9.85645e-06
-1.38531e-06
-9.72059e-06
-1.66956e-06
-9.51865e-06
-1.95679e-06
-9.25251e-06
-2.24597e-06
-8.92421e-06
-2.53399e-06
-8.53573e-06
-2.81659e-06
-8.08869e-06
-3.08876e-06
-7.58439e-06
-3.34448e-06
-7.02401e-06
-3.5762e-06
-6.40927e-06
-3.77413e-06
-5.74309e-06
-3.92586e-06
-5.03057e-06
-4.01649e-06
-4.27973e-06
-4.02954e-06
-3.50205e-06
-3.94881e-06
-2.71311e-06
-3.76108e-06
-1.93319e-06
-3.458e-06
-1.18312e-06
-3.03442e-06
-3.75041e-07
-2.48578e-06
6.0615e-07
-1.71762e-06
1.56273e-06
-6.34498e-07
2.12855e-06
4.65569e-07
2.3315e-06
1.06614e-06
2.32021e-06
1.24008e-06
2.16124e-06
1.14353e-06
1.89097e-06
7.70529e-07
1.4619e-06
1.43711e-08
1.0088e-06
-1.20636e-06
6.21384e-07
-2.56196e-06
4.77489e-07
-4.22707e-06
3.31833e-07
-4.9344e-06
6.14728e-06
-9.66164e-07
1.68413e-05
-8.51464e-07
-9.90407e-08
-1.01611e-06
-1.12806e-06
-1.24843e-06
-9.12903e-07
-1.46463e-06
-7.69103e-07
-1.62333e-06
-7.3072e-07
-1.71039e-06
-7.83594e-07
-1.71561e-06
-9.29571e-07
-1.6254e-06
-1.18003e-06
-1.42568e-06
-1.53901e-06
-1.10849e-06
-1.99288e-06
-6.76124e-07
-2.51232e-06
-1.40299e-07
-3.06076e-06
4.86239e-07
-3.62896e-06
1.16856e-06
-4.19991e-06
1.87683e-06
-4.66266e-06
2.59937e-06
-5.02447e-06
3.32963e-06
-5.30333e-06
4.0644e-06
-5.51398e-06
4.80295e-06
-5.66394e-06
5.54386e-06
-5.75384e-06
6.28218e-06
-5.78133e-06
7.00933e-06
-5.74471e-06
7.71562e-06
-5.64559e-06
8.39298e-06
-5.48961e-06
9.03654e-06
-5.28544e-06
9.64497e-06
-5.04277e-06
1.02199e-05
-4.77006e-06
1.07645e-05
-4.47292e-06
1.12826e-05
-4.15314e-06
1.17767e-05
-3.80854e-06
1.22466e-05
-3.43338e-06
1.26887e-05
-3.01937e-06
1.30946e-05
-2.55711e-06
1.34508e-05
-2.03836e-06
1.37397e-05
-1.45867e-06
1.39403e-05
-8.20194e-07
1.40322e-05
-1.34309e-07
1.40023e-05
5.75543e-07
1.38473e-05
1.28488e-06
1.35694e-05
1.97602e-06
1.31758e-05
2.63385e-06
1.26768e-05
3.24717e-06
1.20845e-05
3.80949e-06
1.14112e-05
4.31908e-06
1.06685e-05
4.77863e-06
9.86699e-06
5.19459e-06
9.01594e-06
5.57678e-06
8.12405e-06
5.93843e-06
7.2005e-06
6.29693e-06
6.25677e-06
6.67591e-06
5.30932e-06
7.10989e-06
4.38368e-06
7.65413e-06
3.52138e-06
8.40857e-06
2.78936e-06
9.58348e-06
2.32329e-06
1.16977e-05
2.05544e-06
1.60803e-05
3.73668e-07
2.01446e-05
-2.67928e-06
1.63523e-05
-4.78286e-06
9.79656e-06
-6.2376e-06
5.98442e-06
-7.2872e-06
3.74667e-06
-8.06507e-06
2.35557e-06
-8.65031e-06
1.41308e-06
-9.08974e-06
7.17081e-07
-9.41141e-06
1.68399e-07
-9.63049e-06
-2.86002e-07
-9.76332e-06
-6.79568e-07
-9.8191e-06
-1.04597e-06
-9.80143e-06
-1.40297e-06
-9.71336e-06
-1.75763e-06
-9.55801e-06
-2.11214e-06
-9.33865e-06
-2.46533e-06
-9.05839e-06
-2.81425e-06
-8.71979e-06
-3.15519e-06
-8.32459e-06
-3.48396e-06
-7.87371e-06
-3.79536e-06
-7.36775e-06
-4.08216e-06
-6.80776e-06
-4.33412e-06
-6.19626e-06
-4.53735e-06
-5.53843e-06
-4.67433e-06
-4.84307e-06
-4.7249e-06
-4.1234e-06
-4.66847e-06
-3.39735e-06
-4.48713e-06
-2.68634e-06
-4.16902e-06
-2.00992e-06
-3.71084e-06
-1.37724e-06
-3.11847e-06
-6.95414e-07
-2.39945e-06
1.5279e-07
-1.4827e-06
9.36396e-07
-3.18037e-07
1.31959e-06
6.82954e-07
1.46142e-06
1.09824e-06
1.44714e-06
1.15781e-06
1.35062e-06
8.6705e-07
1.21632e-06
1.48674e-07
9.55983e-07
-9.46026e-07
6.21552e-07
-2.22753e-06
5.43087e-07
-4.14861e-06
3.01039e-07
-4.69236e-06
6.44832e-06
-8.18782e-07
1.76601e-05
-8.85414e-07
-3.24086e-08
-1.08349e-06
-9.29983e-07
-1.31663e-06
-6.79768e-07
-1.53392e-06
-5.51808e-07
-1.70114e-06
-5.63507e-07
-1.79633e-06
-6.88399e-07
-1.79865e-06
-9.27251e-07
-1.68924e-06
-1.28944e-06
-1.45644e-06
-1.77182e-06
-1.10056e-06
-2.34876e-06
-6.34148e-07
-2.97873e-06
-7.77422e-08
-3.61717e-06
5.44542e-07
-4.25124e-06
1.19434e-06
-4.84971e-06
1.85525e-06
-5.32356e-06
2.52386e-06
-5.69308e-06
3.20007e-06
-5.97954e-06
3.88417e-06
-6.19808e-06
4.57469e-06
-6.35446e-06
5.26604e-06
-6.44519e-06
5.94825e-06
-6.46354e-06
6.60896e-06
-6.40543e-06
7.23711e-06
-6.27373e-06
7.82582e-06
-6.07832e-06
8.37374e-06
-5.83337e-06
8.88464e-06
-5.55367e-06
9.36597e-06
-5.25139e-06
9.82703e-06
-4.93399e-06
1.02772e-05
-4.60327e-06
1.07238e-05
-4.25516e-06
1.11709e-05
-3.88054e-06
1.16176e-05
-3.46605e-06
1.20564e-05
-2.99591e-06
1.24727e-05
-2.45462e-06
1.28443e-05
-1.83029e-06
1.3143e-05
-1.11885e-06
1.33366e-05
-3.27961e-07
1.33992e-05
5.12916e-07
1.33212e-05
1.36293e-06
1.31026e-05
2.19467e-06
1.27517e-05
2.98475e-06
1.22818e-05
3.71707e-06
1.17087e-05
4.38256e-06
1.10488e-05
4.97897e-06
1.03175e-05
5.50994e-06
9.52834e-06
5.98374e-06
8.69305e-06
6.41208e-06
7.82195e-06
6.80953e-06
6.92522e-06
7.19366e-06
6.01463e-06
7.5865e-06
5.10623e-06
8.01829e-06
4.22428e-06
8.53608e-06
3.40823e-06
9.22462e-06
2.72458e-06
1.02671e-05
2.30532e-06
1.21169e-05
2.25679e-06
1.61288e-05
1.22937e-06
2.1172e-05
-1.63119e-06
1.92129e-05
-3.97623e-06
1.21416e-05
-5.54959e-06
7.55777e-06
-6.69768e-06
4.89477e-06
-7.55975e-06
3.21764e-06
-8.21955e-06
2.07288e-06
-8.72606e-06
1.22359e-06
-9.10884e-06
5.51184e-07
-9.38457e-06
-1.02707e-08
-9.56502e-06
-4.99121e-07
-9.66435e-06
-9.46642e-07
-9.68829e-06
-1.37904e-06
-9.64153e-06
-1.80439e-06
-9.52876e-06
-2.22491e-06
-9.35452e-06
-2.63957e-06
-9.12278e-06
-3.04599e-06
-8.83643e-06
-3.44154e-06
-8.49702e-06
-3.82337e-06
-8.10493e-06
-4.18746e-06
-7.65993e-06
-4.52716e-06
-7.16224e-06
-4.83181e-06
-6.61379e-06
-5.0858e-06
-6.01958e-06
-5.26854e-06
-5.38881e-06
-5.35567e-06
-4.73567e-06
-5.3216e-06
-4.07918e-06
-5.14363e-06
-3.44108e-06
-4.80711e-06
-2.84125e-06
-4.31068e-06
-2.29115e-06
-3.66856e-06
-1.78601e-06
-2.90459e-06
-1.23381e-06
-2.0349e-06
-5.13589e-07
-1.03826e-06
5.99334e-08
1.09432e-07
2.99815e-07
8.58363e-07
4.36088e-07
1.02153e-06
5.37866e-07
7.65273e-07
5.98229e-07
8.83104e-08
5.14862e-07
-8.62659e-07
3.48825e-07
-2.06149e-06
4.92457e-07
-4.29224e-06
2.80998e-07
-4.4809e-06
6.72931e-06
-6.9351e-07
1.83536e-05
-8.70284e-07
1.44366e-07
-1.11691e-06
-6.83356e-07
-1.37583e-06
-4.20849e-07
-1.60778e-06
-3.19855e-07
-1.7836e-06
-3.87692e-07
-1.87689e-06
-5.95109e-07
-1.86364e-06
-9.405e-07
-1.7265e-06
-1.42658e-06
-1.46106e-06
-2.03726e-06
-1.07773e-06
-2.73208e-06
-5.98179e-07
-3.45828e-06
-4.87165e-08
-4.16663e-06
5.38809e-07
-4.83877e-06
1.13478e-06
-5.44568e-06
1.73456e-06
-5.92334e-06
2.34033e-06
-6.29886e-06
2.95536e-06
-6.59456e-06
3.58031e-06
-6.82303e-06
4.21058e-06
-6.98473e-06
4.83476e-06
-7.06937e-06
5.43701e-06
-7.06579e-06
6.00152e-06
-6.96994e-06
6.51734e-06
-6.78955e-06
6.98119e-06
-6.54217e-06
7.39776e-06
-6.24994e-06
7.77814e-06
-5.93405e-06
8.1373e-06
-5.61055e-06
8.49158e-06
-5.28827e-06
8.8564e-06
-4.96809e-06
9.24411e-06
-4.64286e-06
9.66254e-06
-4.29897e-06
1.01132e-05
-3.91673e-06
1.05899e-05
-3.47261e-06
1.10775e-05
-2.94224e-06
1.15515e-05
-2.30425e-06
1.1978e-05
-1.54534e-06
1.23156e-05
-6.65613e-07
1.25199e-05
3.08683e-07
1.25655e-05
1.3173e-06
1.24482e-05
2.31196e-06
1.21766e-05
3.25636e-06
1.17668e-05
4.12682e-06
1.12393e-05
4.91011e-06
1.06153e-05
5.60297e-06
9.91491e-06
6.21033e-06
9.15557e-06
6.74308e-06
8.35179e-06
7.21585e-06
7.51573e-06
7.64559e-06
6.6583e-06
8.05109e-06
5.79095e-06
8.45385e-06
4.92813e-06
8.88111e-06
4.09116e-06
9.37305e-06
3.31482e-06
1.0001e-05
2.66095e-06
1.0921e-05
2.25178e-06
1.25261e-05
2.29579e-06
1.60848e-05
1.76718e-06
2.17006e-05
-6.56689e-07
2.16368e-05
-3.25675e-06
1.47417e-05
-4.92539e-06
9.22641e-06
-6.15729e-06
6.12666e-06
-7.08999e-06
4.15034e-06
-7.81071e-06
2.7936e-06
-8.3702e-06
1.78308e-06
-8.79946e-06
9.80441e-07
-9.11886e-06
3.09132e-07
-9.33904e-06
-2.7894e-07
-9.47356e-06
-8.1212e-07
-9.53285e-06
-1.31975e-06
-9.52328e-06
-1.81396e-06
-9.45092e-06
-2.29727e-06
-9.32135e-06
-2.76914e-06
-9.13912e-06
-3.22822e-06
-8.9072e-06
-3.67346e-06
-8.62678e-06
-4.10379e-06
-8.29751e-06
-4.51673e-06
-7.91828e-06
-4.90639e-06
-7.48844e-06
-5.26165e-06
-7.00922e-06
-5.56502e-06
-6.4852e-06
-5.79256e-06
-5.92559e-06
-5.91529e-06
-5.34486e-06
-5.90233e-06
-4.76229e-06
-5.72619e-06
-4.19957e-06
-5.36984e-06
-3.67627e-06
-4.83398e-06
-3.20397e-06
-4.14086e-06
-2.77934e-06
-3.32921e-06
-2.37453e-06
-2.43972e-06
-1.91765e-06
-1.49514e-06
-1.30708e-06
-5.01133e-07
-8.24839e-07
3.76117e-07
-5.29038e-07
7.25732e-07
-2.73789e-07
5.10024e-07
-1.10274e-07
-7.52037e-08
-8.16508e-08
-8.91282e-07
3.36287e-08
-2.17677e-06
4.04489e-07
-4.6631e-06
2.64128e-07
-4.34053e-06
6.99344e-06
-5.83999e-07
1.89376e-05
-8.3695e-07
3.97316e-07
-1.1346e-06
-3.85706e-07
-1.42687e-06
-1.28576e-07
-1.67706e-06
-6.96635e-08
-1.85886e-06
-2.05901e-07
-1.94379e-06
-5.10176e-07
-1.90999e-06
-9.74299e-07
-1.74642e-06
-1.59015e-06
-1.45847e-06
-2.32521e-06
-1.06644e-06
-3.12411e-06
-5.98538e-07
-3.92618e-06
-8.30132e-08
-4.68216e-06
4.47595e-07
-5.36938e-06
9.75659e-07
-5.97375e-06
1.50516e-06
-6.45285e-06
2.04156e-06
-6.83525e-06
2.58867e-06
-7.14168e-06
3.14439e-06
-7.37875e-06
3.69827e-06
-7.53861e-06
4.23172e-06
-7.60281e-06
4.72354e-06
-7.55762e-06
5.15665e-06
-7.40304e-06
5.52351e-06
-7.15642e-06
5.82803e-06
-6.84668e-06
6.08412e-06
-6.50603e-06
6.31246e-06
-6.16238e-06
6.53666e-06
-5.83475e-06
6.77999e-06
-5.5316e-06
7.06275e-06
-5.25085e-06
7.39982e-06
-4.97993e-06
7.80012e-06
-4.69927e-06
8.26483e-06
-4.38145e-06
8.78678e-06
-3.99455e-06
9.34987e-06
-3.50532e-06
9.92847e-06
-2.88285e-06
1.04878e-05
-2.10471e-06
1.09867e-05
-1.16447e-06
1.13675e-05
-7.21139e-08
1.15707e-05
1.11411e-06
1.15903e-05
2.29236e-06
1.14314e-05
3.41529e-06
1.11116e-05
4.44654e-06
1.06559e-05
5.36582e-06
1.0091e-05
6.16793e-06
9.44192e-06
6.85937e-06
8.73049e-06
7.4545e-06
7.97428e-06
7.97206e-06
7.18729e-06
8.43259e-06
6.38108e-06
8.85729e-06
5.56654e-06
9.2684e-06
4.75624e-06
9.69141e-06
3.96796e-06
1.01613e-05
3.23085e-06
1.07381e-05
2.59915e-06
1.15527e-05
2.18243e-06
1.29428e-05
2.23089e-06
1.60363e-05
2.06218e-06
2.18693e-05
1.97559e-07
2.35014e-05
-2.56e-06
1.74992e-05
-4.34416e-06
1.10106e-05
-5.65537e-06
7.43788e-06
-6.6508e-06
5.14576e-06
-7.42285e-06
3.56565e-06
-8.0254e-06
2.38563e-06
-8.49171e-06
1.44674e-06
-8.8438e-06
6.61221e-07
-9.0968e-06
-2.59381e-08
-9.26147e-06
-6.4745e-07
-9.35251e-06
-1.22871e-06
-9.37802e-06
-1.78845e-06
-9.34527e-06
-2.33002e-06
-9.26057e-06
-2.85384e-06
-9.12875e-06
-3.36004e-06
-8.95266e-06
-3.84955e-06
-8.733e-06
-4.32345e-06
-8.46869e-06
-4.78103e-06
-8.15782e-06
-5.21727e-06
-7.7989e-06
-5.62057e-06
-7.39243e-06
-5.97148e-06
-6.94242e-06
-6.24258e-06
-6.45759e-06
-6.40011e-06
-5.95203e-06
-6.40789e-06
-5.44445e-06
-6.23377e-06
-4.9557e-06
-5.85858e-06
-4.50424e-06
-5.28544e-06
-4.10033e-06
-4.54476e-06
-3.74027e-06
-3.68928e-06
-3.40186e-06
-2.77812e-06
-3.03698e-06
-1.86003e-06
-2.56215e-06
-9.75961e-07
-1.99396e-06
-1.92068e-07
-1.51426e-06
2.4603e-07
-1.16115e-06
1.56914e-07
-9.00853e-07
-3.35501e-07
-6.40335e-07
-1.1518e-06
-2.21147e-07
-2.59596e-06
3.29632e-07
-5.21388e-06
2.48874e-07
-4.25978e-06
7.24232e-06
-4.87293e-07
1.94249e-05
-7.99022e-07
7.09045e-07
-1.14588e-06
-3.88443e-08
-1.46903e-06
1.94569e-07
-1.73669e-06
1.98e-07
-1.92198e-06
-2.0613e-08
-1.99676e-06
-4.35392e-07
-1.94447e-06
-1.0266e-06
-1.76326e-06
-1.77136e-06
-1.46905e-06
-2.61942e-06
-1.09019e-06
-3.50297e-06
-6.58024e-07
-4.35835e-06
-1.99255e-07
-5.14092e-06
2.61367e-07
-5.83e-06
7.1276e-07
-6.42514e-06
1.16609e-06
-6.90618e-06
1.62758e-06
-7.29674e-06
2.09881e-06
-7.6129e-06
2.57179e-06
-7.85174e-06
3.02828e-06
-7.9951e-06
3.44273e-06
-8.01726e-06
3.7913e-06
-7.90619e-06
4.06004e-06
-7.67178e-06
4.24991e-06
-7.34629e-06
4.37651e-06
-6.97328e-06
4.46648e-06
-6.596e-06
4.55176e-06
-6.24767e-06
4.66413e-06
-5.94712e-06
4.83112e-06
-5.69859e-06
5.07347e-06
-5.49319e-06
5.40277e-06
-5.30924e-06
5.82317e-06
-5.11966e-06
6.33003e-06
-4.88831e-06
6.91153e-06
-4.57606e-06
7.54883e-06
-4.14262e-06
8.21555e-06
-3.54957e-06
8.87739e-06
-2.76655e-06
9.49282e-06
-1.7799e-06
1.00153e-05
-5.94586e-07
1.03836e-05
7.45757e-07
1.05564e-05
2.11965e-06
1.05284e-05
3.44328e-06
1.03178e-05
4.65713e-06
9.95311e-06
5.73049e-06
9.46605e-06
6.65499e-06
8.88653e-06
7.43889e-06
8.24008e-06
8.10095e-06
7.54702e-06
8.66512e-06
6.82287e-06
9.15674e-06
6.07962e-06
9.60055e-06
5.32741e-06
1.00206e-05
4.5769e-06
1.04419e-05
3.84238e-06
1.08958e-05
3.14737e-06
1.14331e-05
2.53746e-06
1.21626e-05
2.10863e-06
1.33716e-05
2.11377e-06
1.60312e-05
2.19697e-06
2.17862e-05
8.48073e-07
2.48503e-05
-1.87432e-06
2.02216e-05
-3.8003e-06
1.29365e-05
-5.18641e-06
8.82399e-06
-6.2395e-06
6.19885e-06
-7.0565e-06
4.38265e-06
-7.69533e-06
3.02447e-06
-8.1916e-06
1.94301e-06
-8.57005e-06
1.03967e-06
-8.84994e-06
2.53953e-07
-9.04307e-06
-4.54316e-07
-9.16441e-06
-1.10737e-06
-9.22452e-06
-1.72834e-06
-9.23155e-06
-2.32299e-06
-9.19218e-06
-2.89321e-06
-9.11123e-06
-3.441e-06
-8.99124e-06
-3.96953e-06
-8.83243e-06
-4.48226e-06
-8.63312e-06
-4.98034e-06
-8.39075e-06
-5.45964e-06
-8.10318e-06
-5.90814e-06
-7.77022e-06
-6.30444e-06
-7.39509e-06
-6.61771e-06
-6.98559e-06
-6.80961e-06
-6.55461e-06
-6.83887e-06
-6.11935e-06
-6.66902e-06
-5.69885e-06
-6.27909e-06
-5.30963e-06
-5.67466e-06
-4.96033e-06
-4.89406e-06
-4.64676e-06
-4.00285e-06
-4.34886e-06
-3.07603e-06
-4.02968e-06
-2.1792e-06
-3.638e-06
-1.36764e-06
-3.1203e-06
-7.09763e-07
-2.56145e-06
-3.12821e-07
-2.07883e-06
-3.25706e-07
-1.62862e-06
-7.85715e-07
-1.06953e-06
-1.71089e-06
-3.59309e-07
-3.30618e-06
2.92131e-07
-5.86532e-06
2.38167e-07
-4.20581e-06
7.48048e-06
-4.01746e-07
1.98267e-05
-7.63465e-07
1.07076e-06
-1.15286e-06
3.50546e-07
-1.50452e-06
5.46236e-07
-1.78831e-06
4.81788e-07
-1.97578e-06
1.66854e-07
-2.04231e-06
-3.68858e-07
-1.97829e-06
-1.09062e-06
-1.79267e-06
-1.95698e-06
-1.51098e-06
-2.90111e-06
-1.1665e-06
-3.84745e-06
-7.90008e-07
-4.73484e-06
-4.03824e-07
-5.52711e-06
-2.174e-08
-6.21208e-06
3.48694e-07
-6.79557e-06
7.22288e-07
-7.27977e-06
1.10325e-06
-7.6777e-06
1.48824e-06
-7.9979e-06
1.86146e-06
-8.22496e-06
2.19664e-06
-8.33028e-06
2.46427e-06
-8.28489e-06
2.64324e-06
-8.08516e-06
2.72934e-06
-7.75788e-06
2.73823e-06
-7.35518e-06
2.70221e-06
-6.93726e-06
2.66285e-06
-6.55663e-06
2.66177e-06
-6.24659e-06
2.73376e-06
-6.01911e-06
2.9027e-06
-5.86753e-06
3.18068e-06
-5.77117e-06
3.56786e-06
-5.69642e-06
4.05741e-06
-5.60921e-06
4.63538e-06
-5.46628e-06
5.28494e-06
-5.22562e-06
5.98559e-06
-4.84326e-06
6.71218e-06
-4.27616e-06
7.43306e-06
-3.48744e-06
8.10984e-06
-2.45668e-06
8.70691e-06
-1.19165e-06
9.16936e-06
2.83297e-07
9.4483e-06
1.84071e-06
9.5269e-06
3.36468e-06
9.41652e-06
4.7675e-06
9.14434e-06
6.00267e-06
8.74328e-06
7.05606e-06
8.24523e-06
7.93694e-06
7.67748e-06
8.6687e-06
7.06147e-06
9.28113e-06
6.41313e-06
9.80507e-06
5.74418e-06
1.02695e-05
5.06374e-06
1.0701e-05
4.38055e-06
1.11251e-05
3.70575e-06
1.15706e-05
3.05781e-06
1.2081e-05
2.47394e-06
1.27465e-05
2.03687e-06
1.38087e-05
1.98064e-06
1.60874e-05
2.22346e-06
2.15433e-05
1.30231e-06
2.57714e-05
-1.21784e-06
2.27418e-05
-3.2995e-06
1.50182e-05
-4.74955e-06
1.0274e-05
-5.8545e-06
7.3038e-06
-6.71146e-06
5.23961e-06
-7.38223e-06
3.69523e-06
-7.90519e-06
2.46597e-06
-8.30807e-06
1.44255e-06
-8.61189e-06
5.57781e-07
-8.83258e-06
-2.33628e-07
-8.98398e-06
-9.55975e-07
-9.07938e-06
-1.63293e-06
-9.12703e-06
-2.27534e-06
-9.13347e-06
-2.88678e-06
-9.10321e-06