/*--------------------------------*- C++ -*----------------------------------*\
| =========                 |                                                 |
| \\      /  F ield         | OpenFOAM: The Open Source CFD Toolbox           |
|  \\    /   O peration     | Version:  4.1                                   |
|   \\  /    A nd           | Web:      www.OpenFOAM.org                      |
|    \\/     M anipulation  |                                                 |
\*---------------------------------------------------------------------------*/
FoamFile
{
    version     2.0;
    format      ascii;
    class       volScalarField;
    location    "860";
    object      T;
}
// * * * * * * * * * * * * * * * * * * * * * * * * * * * * * * * * * * * * * //

dimensions      [0 0 0 1 0 0 0];

internalField   nonuniform List<scalar> 
5000
(
285.691
285.04
284.542
284.277
284.441
284.947
285.394
285.46
285.298
285.11
284.962
284.845
284.743
284.653
284.591
284.74
285.042
284.5
283.989
283.82
283.761
283.745
283.747
283.758
283.772
283.79
283.81
283.832
283.857
283.885
283.917
283.954
283.996
284.044
284.1
284.163
284.236
284.314
284.391
284.468
284.547
284.626
284.707
284.79
284.876
284.966
285.059
285.158
285.262
285.372
285.49
285.617
285.756
285.912
286.094
286.267
285.867
285.429
285.218
285.074
284.949
284.827
284.711
284.621
284.553
284.503
284.467
284.443
284.429
284.422
284.42
284.422
284.427
284.435
284.447
284.462
284.483
284.509
284.543
284.584
284.633
284.688
284.744
284.792
284.815
284.787
284.691
284.564
284.421
284.266
284.1
283.922
283.73
283.544
283.366
283.199
283.037
282.859
282.983
283.556
285.044
283.476
282.574
282.35
282.297
282.303
282.313
282.32
282.325
282.33
282.334
282.339
282.343
282.348
282.354
282.361
282.367
282.372
282.377
282.382
282.387
282.392
282.396
282.4
282.403
282.406
282.409
282.411
282.413
282.414
282.415
282.416
282.416
282.415
282.414
282.412
282.41
282.413
282.426
282.45
282.484
282.529
282.584
282.65
282.725
282.812
282.908
283.015
283.134
283.265
283.414
283.585
283.79
284.054
284.441
285.066
285.253
284.264
283.408
282.868
282.554
282.404
282.35
282.33
282.32
282.315
282.312
282.309
282.308
282.306
282.305
282.303
282.302
282.301
282.3
282.298
282.296
282.295
282.292
282.289
282.285
282.28
282.273
282.266
282.263
282.279
282.323
282.352
282.341
282.306
282.268
282.245
282.248
282.25
282.252
282.252
282.249
282.242
282.217
283.064
284.794
283.166
282.505
282.312
282.275
282.283
282.291
282.3
282.31
282.319
282.328
282.337
282.346
282.354
282.363
282.372
282.38
282.387
282.395
282.403
282.41
282.416
282.422
282.428
282.432
282.437
282.441
282.444
282.446
282.448
282.449
282.45
282.45
282.449
282.447
282.444
282.441
282.437
282.433
282.429
282.426
282.426
282.429
282.437
282.452
282.474
282.506
282.549
282.606
282.678
282.771
282.89
283.05
283.277
283.638
284.291
284.933
284.052
283.115
282.631
282.416
282.331
282.3
282.288
282.282
282.278
282.276
282.275
282.274
282.274
282.274
282.274
282.275
282.275
282.276
282.277
282.278
282.279
282.28
282.282
282.284
282.286
282.289
282.292
282.294
282.293
282.279
282.266
282.261
282.259
282.259
282.263
282.269
282.275
282.278
282.275
282.266
282.251
282.222
282.906
284.585
282.732
282.289
282.274
282.282
282.297
282.309
282.32
282.33
282.341
282.35
282.36
282.369
282.377
282.386
282.394
282.402
282.41
282.418
282.426
282.434
282.442
282.45
282.457
282.463
282.469
282.474
282.478
282.482
282.484
282.486
282.487
282.487
282.486
282.484
282.481
282.477
282.473
282.467
282.461
282.454
282.448
282.441
282.435
282.431
282.43
282.433
282.443
282.462
282.492
282.539
282.609
282.716
282.884
283.176
283.748
284.605
284.064
283.078
282.59
282.39
282.313
282.284
282.272
282.267
282.264
282.263
282.263
282.263
282.263
282.263
282.264
282.264
282.265
282.265
282.265
282.265
282.265
282.265
282.265
282.265
282.266
282.267
282.269
282.273
282.281
282.302
282.324
282.33
282.328
282.319
282.312
282.312
282.317
282.318
282.304
282.284
282.261
282.227
282.825
284.407
282.373
282.255
282.274
282.294
282.31
282.323
282.335
282.347
282.358
282.368
282.377
282.385
282.393
282.401
282.408
282.417
282.426
282.435
282.445
282.456
282.466
282.475
282.484
282.492
282.499
282.505
282.511
282.515
282.518
282.52
282.521
282.521
282.519
282.517
282.514
282.509
282.504
282.498
282.49
282.483
282.474
282.465
282.455
282.445
282.437
282.429
282.424
282.424
282.432
282.45
282.487
282.552
282.668
282.888
283.356
284.239
284.133
283.124
282.602
282.392
282.311
282.281
282.27
282.265
282.264
282.263
282.264
282.265
282.266
282.266
282.267
282.268
282.268
282.268
282.268
282.267
282.266
282.265
282.264
282.262
282.261
282.259
282.258
282.257
282.257
282.26
282.275
282.306
282.326
282.339
282.35
282.366
282.378
282.364
282.334
282.299
282.267
282.231
282.773
284.269
282.275
282.265
282.286
282.305
282.321
282.336
282.349
282.361
282.372
282.382
282.39
282.396
282.403
282.41
282.419
282.429
282.44
282.452
282.465
282.477
282.49
282.501
282.512
282.521
282.529
282.536
282.542
282.546
282.55
282.552
282.553
282.553
282.551
282.548
282.544
282.539
282.533
282.525
282.517
282.508
282.498
282.487
282.476
282.464
282.451
282.439
282.428
282.419
282.414
282.417
282.431
282.467
282.543
282.703
283.07
283.887
284.162
283.216
282.636
282.406
282.317
282.284
282.272
282.268
282.267
282.268
282.269
282.27
282.272
282.273
282.274
282.275
282.275
282.275
282.275
282.274
282.273
282.272
282.27
282.268
282.265
282.262
282.26
282.257
282.255
282.253
282.254
282.266
282.294
282.317
282.34
282.362
282.379
282.382
282.349
282.306
282.268
282.232
282.734
284.158
282.272
282.275
282.296
282.315
282.332
282.347
282.361
282.373
282.383
282.391
282.397
282.403
282.409
282.418
282.428
282.441
282.455
282.47
282.486
282.501
282.515
282.528
282.539
282.55
282.558
282.566
282.572
282.577
282.58
282.583
282.584
282.583
282.581
282.578
282.574
282.568
282.56
282.552
282.542
282.531
282.52
282.507
282.494
282.481
282.467
282.452
282.438
282.424
282.412
282.405
282.406
282.422
282.468
282.581
282.861
283.573
284.106
283.358
282.685
282.426
282.327
282.29
282.277
282.272
282.272
282.272
282.274
282.276
282.277
282.279
282.28
282.281
282.282
282.282
282.282
282.282
282.281
282.279
282.277
282.274
282.271
282.268
282.264
282.261
282.257
282.254
282.253
282.254
282.267
282.29
282.316
282.341
282.359
282.356
282.328
282.297
282.262
282.229
282.7
284.064
282.276
282.282
282.305
282.325
282.342
282.357
282.371
282.382
282.39
282.397
282.402
282.407
282.415
282.425
282.439
282.455
282.473
282.491
282.509
282.526
282.541
282.555
282.567
282.577
282.587
282.594
282.6
282.605
282.609
282.611
282.612
282.611
282.609
282.606
282.601
282.595
282.587
282.577
282.566
282.554
282.541
282.527
282.512
282.496
282.48
282.464
282.447
282.431
282.415
282.402
282.394
282.397
282.423
282.499
282.709
283.304
283.986
283.498
282.746
282.452
282.338
282.296
282.281
282.276
282.275
282.276
282.277
282.279
282.281
282.283
282.285
282.286
282.287
282.288
282.288
282.288
282.287
282.286
282.284
282.281
282.277
282.273
282.269
282.265
282.261
282.257
282.255
282.254
282.257
282.271
282.295
282.317
282.327
282.315
282.298
282.284
282.252
282.224
282.671
283.982
282.279
282.289
282.313
282.334
282.352
282.367
282.379
282.388
282.395
282.4
282.405
282.411
282.421
282.435
282.452
282.472
282.493
282.513
282.533
282.551
282.567
282.58
282.593
282.603
282.612
282.62
282.626
282.631
282.634
282.636
282.636
282.635
282.632
282.629
282.624
282.618
282.61
282.6
282.588
282.575
282.56
282.544
282.528
282.511
282.493
282.475
282.456
282.438
282.42
282.403
282.389
282.384
282.395
282.444
282.599
283.08
283.831
283.606
282.825
282.481
282.352
282.303
282.285
282.279
282.278
282.278
282.279
282.281
282.283
282.285
282.287
282.289
282.291
282.292
282.293
282.294
282.293
282.292
282.29
282.287
282.283
282.278
282.274
282.269
282.265
282.261
282.258
282.257
282.257
282.263
282.278
282.293
282.297
282.289
282.285
282.277
282.24
282.219
282.645
283.908
282.283
282.295
282.321
282.342
282.36
282.374
282.385
282.392
282.398
282.402
282.408
282.416
282.428
282.446
282.467
282.491
282.514
282.536
282.557
282.575
282.59
282.604
282.616
282.626
282.635
282.643
282.648
282.652
282.654
282.654
282.653
282.65
282.646
282.642
282.637
282.632
282.627
282.618
282.607
282.594
282.578
282.561
282.543
282.524
282.504
282.484
282.464
282.444
282.424
282.405
282.388
282.376
282.377
282.407
282.519
282.9
283.659
283.659
282.933
282.515
282.367
282.31
282.289
282.282
282.279
282.279
282.28
282.281
282.283
282.285
282.288
282.29
282.293
282.295
282.297
282.298
282.298
282.297
282.295
282.292
282.288
282.283
282.278
282.273
282.268
282.264
282.262
282.26
282.26
282.263
282.269
282.278
282.282
282.282
282.281
282.269
282.229
282.214
282.622
283.839
282.285
282.301
282.328
282.35
282.367
282.38
282.389
282.395
282.399
282.404
282.411
282.422
282.439
282.46
282.485
282.511
282.536
282.559
282.579
282.596
282.611
282.624
282.636
282.646
282.654
282.661
282.665
282.667
282.666
282.663
282.658
282.652
282.645
282.639
282.634
282.631
282.629
282.626
282.619
282.608
282.593
282.576
282.556
282.536
282.515
282.493
282.471
282.449
282.428
282.407
282.387
282.372
282.365
282.381
282.46
282.756
283.482
283.665
283.048
282.552
282.383
282.318
282.293
282.283
282.279
282.278
282.278
282.279
282.281
282.284
282.287
282.29
282.294
282.297
282.3
282.302
282.303
282.302
282.301
282.297
282.293
282.288
282.282
282.276
282.272
282.268
282.265
282.264
282.264
282.266
282.27
282.274
282.279
282.28
282.275
282.258
282.22
282.212
282.602
283.775
282.288
282.307
282.334
282.356
282.372
282.384
282.392
282.396
282.4
282.406
282.416
282.431
282.451
282.476
282.504
282.531
282.557
282.579
282.598
282.615
282.629
282.641
282.652
282.662
282.669
282.673
282.674
282.672
282.666
282.658
282.648
282.637
282.626
282.617
282.611
282.609
282.611
282.616
282.618
282.613
282.602
282.587
282.568
282.546
282.524
282.5
282.477
282.454
282.431
282.409
282.387
282.369
282.357
282.363
282.417
282.645
283.309
283.635
283.156
282.596
282.401
282.326
282.297
282.284
282.279
282.276
282.275
282.276
282.278
282.281
282.284
282.289
282.293
282.298
282.302
282.305
282.307
282.307
282.306
282.302
282.298
282.292
282.286
282.28
282.275
282.27
282.268
282.267
282.268
282.27
282.273
282.276
282.277
282.275
282.265
282.245
282.213
282.211
282.583
283.713
282.291
282.312
282.34
282.361
282.377
282.387
282.393
282.397
282.401
282.41
282.423
282.442
282.466
282.494
282.523
282.551
282.576
282.597
282.615
282.629
282.642
282.654
282.664
282.672
282.677
282.677
282.673
282.665
282.654
282.64
282.624
282.608
282.592
282.579
282.57
282.568
282.573
282.585
282.6
282.607
282.604
282.593
282.576
282.555
282.532
282.507
282.482
282.457
282.433
282.41
282.387
282.367
282.351
282.349
282.385
282.558
283.147
283.581
283.246
282.648
282.421
282.335
282.3
282.285
282.277
282.273
282.271
282.272
282.273
282.276
282.281
282.286
282.292
282.298
282.304
282.308
282.311
282.312
282.311
282.308
282.303
282.297
282.29
282.283
282.277
282.273
282.27
282.269
282.269
282.271
282.273
282.274
282.272
282.266
282.253
282.234
282.207
282.211
282.567
283.653
282.294
282.317
282.345
282.366
282.38
282.389
282.394
282.397
282.403
282.414
282.432
282.455
282.482
282.512
282.541
282.569
282.592
282.611
282.627
282.64
282.652
282.663
282.671
282.676
282.676
282.671
282.662
282.649
282.633
282.614
282.593
282.573
282.552
282.535
282.522
282.518
282.524
282.54
282.564
282.586
282.596
282.594
282.581
282.562
282.538
282.512
282.486
282.46
282.434
282.41
282.386
282.365
282.347
282.339
282.362
282.492
282.998
283.509
283.31
282.713
282.441
282.344
282.304
282.286
282.276
282.27
282.267
282.266
282.268
282.271
282.276
282.283
282.29
282.298
282.305
282.311
282.315
282.316
282.316
282.313
282.308
282.302
282.294
282.287
282.28
282.275
282.271
282.27
282.269
282.269
282.269
282.268
282.264
282.255
282.242
282.225
282.203
282.213
282.552
283.596
282.296
282.321
282.35
282.37
282.382
282.39
282.394
282.398
282.406
282.421
282.442
282.468
282.498
282.529
282.559
282.584
282.605
282.622
282.636
282.647
282.658
282.666
282.671
282.672
282.667
282.658
282.644
282.628
282.609
282.588
282.564
282.54
282.516
282.495
282.478
282.47
282.474
282.491
282.521
282.556
282.58
282.589
282.583
282.566
282.542
282.516
282.488
282.461
282.434
282.409
282.385
282.362
282.343
282.331
282.343
282.44
282.867
283.426
283.349
282.785
282.463
282.354
282.308
282.286
282.274
282.266
282.261
282.26
282.261
282.265
282.271
282.279
282.288
282.297
282.305
282.313
282.318
282.321
282.321
282.319
282.314
282.307
282.299
282.291
282.283
282.277
282.272
282.269
282.267
282.266
282.264
282.261
282.255
282.246
282.234
282.219
282.203
282.215
282.538
283.54
282.299
282.325
282.354
282.373
282.384
282.39
282.394
282.4
282.411
282.428
282.453
282.482
282.514
282.545
282.573
282.596
282.615
282.629
282.641
282.65
282.659
282.664
282.665
282.662
282.654
282.641
282.625
282.607
282.587
282.565
282.541
282.515
282.488
282.463
282.442
282.43
282.432
282.449
282.482
282.525
282.561
282.581
282.582
282.568
282.545
282.518
282.489
282.461
282.433
282.407
282.382
282.359
282.339
282.325
282.329
282.401
282.753
283.336
283.366
282.856
282.486
282.364
282.312
282.287
282.271
282.261
282.255
282.253
282.254
282.259
282.266
282.275
282.285
282.295
282.305
282.314
282.321
282.325
282.326
282.325
282.321
282.314
282.305
282.296
282.287
282.279
282.273
282.269
282.265
282.263
282.259
282.254
282.247
282.238
282.227
282.216
282.206
282.218
282.526
283.485
282.302
282.329
282.358
282.375
282.385
282.39
282.394
282.402
282.416
282.437
282.464
282.495
282.527
282.558
282.584
282.605
282.621
282.633
282.642
282.649
282.655
282.657
282.655
282.649
282.638
282.624
282.608
282.59
282.57
282.548
282.523
282.497
282.468
282.439
282.415
282.4
282.4
282.419
282.455
282.503
282.548
282.575
282.58
282.568
282.545
282.518
282.488
282.459
282.431
282.404
282.379
282.355
282.334
282.319
282.318
282.37
282.658
283.242
283.367
282.922
282.511
282.374
282.316
282.287
282.269
282.256
282.249
282.246
282.247
282.252
282.26
282.27
282.282
282.294
282.305
282.315
282.324
282.329
282.332
282.331
282.328
282.321
282.313
282.303
282.293
282.284
282.276
282.269
282.264
282.26
282.255
282.249
282.242
282.234
282.225
282.217
282.213
282.221
282.515
283.433
282.304
282.333
282.361
282.377
282.386
282.39
282.395
282.405
282.422
282.445
282.475
282.507
282.539
282.568
282.593
282.611
282.624
282.633
282.64
282.644
282.647
282.647
282.643
282.634
282.623
282.609
282.594
282.577
282.558
282.536
282.511
282.483
282.453
282.423
282.396
282.378
282.378
282.399
282.442
282.498
282.547
282.575
282.58
282.567
282.544
282.515
282.485
282.455
282.426
282.399
282.374
282.351
282.329
282.313
282.308
282.345
282.578
283.146
283.355
282.982
282.536
282.385
282.32
282.287
282.266
282.252
282.242
282.239
282.24
282.246
282.254
282.266
282.278
282.291
282.304
282.316
282.326
282.333
282.337
282.338
282.335
282.33
282.322
282.312
282.301
282.29
282.28
282.272
282.265
282.259
282.253
282.247
282.24
282.233
282.226
282.222
282.222
282.225
282.505
283.382
282.307
282.337
282.364
282.379
282.386
282.391
282.397
282.409
282.428
282.454
282.484
282.517
282.549
282.576
282.598
282.614
282.624
282.63
282.634
282.637
282.637
282.635
282.629
282.62
282.609
282.596
282.582
282.567
282.549
282.529
282.504
282.475
282.444
282.411
282.383
282.364
282.362
282.386
282.439
282.513
282.562
282.582
282.58
282.564
282.538
282.509
282.478
282.448
282.42
282.393
282.368
282.345
282.324
282.306
282.299
282.325
282.512
283.051
283.332
283.035
282.561
282.396
282.325
282.288
282.264
282.247
282.236
282.232
282.233
282.239
282.249
282.261
282.275
282.289
282.303
282.316
282.327
282.335
282.341
282.344
282.343
282.339
282.332
282.322
282.311
282.3
282.288
282.278
282.269
282.262
282.255
282.248
282.242
282.236
282.231
282.23
282.233
282.23
282.495
283.333
282.309
282.34
282.366
282.38
282.387
282.391
282.398
282.412
282.434
282.461
282.492
282.525
282.556
282.581
282.601
282.614
282.622
282.626
282.627
282.627
282.625
282.621
282.615
282.606
282.596
282.585
282.573
282.56
282.544
282.525
282.501
282.472
282.439
282.405
282.374
282.354
282.352
282.378
282.436
282.515
282.575
282.585
282.576
282.555
282.529
282.499
282.469
282.439
282.411
282.385
282.361
282.338
282.317
282.3
282.291
282.309
282.458
282.959
283.3
283.08
282.588
282.406
282.329
282.288
282.261
282.242
282.23
282.225
282.226
282.233
282.243
282.256
282.271
282.286
282.3
282.314
282.326
282.336
282.344
282.349
282.35
282.348
282.343
282.335
282.324
282.312
282.3
282.289
282.278
282.269
282.261
282.254
282.248
282.243
282.239
282.24
282.245
282.236
282.487
283.286
282.312
282.343
282.368
282.381
282.387
282.391
282.4
282.416
282.439
282.467
282.499
282.531
282.56
282.584
282.602
282.613
282.618
282.62
282.619
282.616
282.613
282.607
282.6
282.592
282.584
282.575
282.565
282.555
282.541
282.524
282.502
282.473
282.44
282.404
282.371
282.347
282.341
282.364
282.42
282.498
282.56
282.573
282.562
282.541
282.514
282.485
282.456
282.427
282.401
282.375
282.352
282.33
282.31
282.293
282.283
282.295
282.414
282.87
283.262
283.115
282.617
282.417
282.333
282.289
282.259
282.237
282.223
282.218
282.22
282.227
282.238
282.252
282.266
282.282
282.297
282.312
282.325
282.336
282.346
282.352
282.356
282.357
282.354
282.347
282.339
282.327
282.315
282.303
282.291
282.281
282.272
282.264
282.257
282.252
282.248
282.252
282.259
282.243
282.479
283.242
282.314
282.346
282.37
282.381
282.387
282.392
282.402
282.419
282.443
282.472
282.503
282.534
282.562
282.585
282.601
282.611
282.614
282.613
282.61
282.605
282.6
282.594
282.587
282.579
282.572
282.565
282.558
282.551
282.54
282.526
282.505
282.478
282.445
282.408
282.372
282.343
282.331
282.344
282.388
282.457
282.522
282.544
282.538
282.52
282.495
282.467
282.439
282.413
282.387
282.364
282.342
282.321
282.302
282.286
282.275
282.283
282.378
282.787
283.218
283.141
282.646
282.428
282.338
282.29
282.257
282.233
282.218
282.212
282.214
282.222
282.233
282.247
282.262
282.278
282.293
282.308
282.322
282.334
282.345
282.354
282.36
282.363
282.363
282.36
282.353
282.344
282.333
282.32
282.308
282.296
282.286
282.276
282.268
282.262
282.258
282.263
282.274
282.251
282.471
283.199
282.316
282.348
282.371
282.382
282.387
282.393
282.404
282.422
282.446
282.474
282.505
282.535
282.562
282.584
282.599
282.607
282.609
282.607
282.602
282.595
282.588
282.581
282.574
282.567
282.561
282.556
282.552
282.547
282.54
282.529
282.511
282.487
282.455
282.418
282.379
282.345
282.323
282.323
282.35
282.405
282.469
282.5
282.502
282.49
282.469
282.445
282.42
282.395
282.372
282.35
282.33
282.311
282.294
282.279
282.268
282.272
282.347
282.71
283.17
283.16
282.673
282.439
282.343
282.291
282.255
282.229
282.213
282.207
282.209
282.217
282.229
282.244
282.259
282.275
282.29
282.304
282.318
282.331
282.343
282.353
282.362
282.368
282.371
282.371
282.367
282.36
282.351
282.339
282.326
282.314
282.302
282.29
282.28
282.272
282.268
282.275
282.289
282.26
282.465
283.16
282.319
282.35
282.372
282.382
282.387
282.393
282.405
282.423
282.447
282.474
282.504
282.533
282.56
282.582
282.597
282.604
282.605
282.601
282.595
282.586
282.578
282.569
282.562
282.556
282.551
282.548
282.546
282.544
282.54
282.533
282.519
282.498
282.469
282.433
282.393
282.354
282.323
282.308
282.316
282.351
282.406
282.445
282.457
282.452
282.437
282.418
282.397
282.375
282.354
282.335
282.317
282.3
282.284
282.27
282.26
282.262
282.323
282.64
283.12
283.172
282.698
282.449
282.348
282.292
282.254
282.226
282.208
282.202
282.205
282.214
282.227
282.241
282.257
282.272
282.287
282.302
282.315
282.328
282.34
282.351
282.361
282.369
282.375
282.378
282.378
282.374
282.367
282.358
282.346
282.332
282.319
282.305
282.293
282.283
282.278
282.287
282.304
282.272
282.46
283.122
282.32
282.352
282.373
282.382
282.386
282.393
282.405
282.423
282.446
282.472
282.501
282.529
282.556
282.578
282.593
282.601
282.602
282.598
282.59
282.58
282.57
282.56
282.552
282.545
282.541
282.539
282.539
282.54
282.54
282.536
282.528
282.511
282.486
282.453
282.414
282.372
282.334
282.305
282.294
282.305
282.34
282.383
282.404
282.407
282.4
282.386
282.37
282.352
282.334
282.317
282.302
282.287
282.274
282.262
282.253
282.254
282.302
282.578
283.07
283.18
282.721
282.46
282.353
282.295
282.253
282.223
282.205
282.199
282.203
282.213
282.226
282.241
282.257
282.272
282.287
282.301
282.314
282.326
282.337
282.348
282.359
282.368
282.376
282.382
282.386
282.386
282.382
282.374
282.364
282.351
282.336
282.32
282.305
282.292
282.287
282.298
282.319
282.288
282.457
283.087
282.322
282.354
282.374
282.382
282.386
282.392
282.404
282.421
282.443
282.468
282.495
282.523
282.549
282.571
282.588
282.598
282.6
282.596
282.587
282.577
282.565
282.554
282.545
282.537
282.532
282.531
282.532
282.535
282.538
282.539
282.536
282.525
282.506
282.477
282.44
282.399
282.356
282.318
282.291
282.28
282.291
282.323
282.347
282.358
282.358
282.351
282.34
282.326
282.312
282.299
282.286
282.274
282.263
282.253
282.245
282.246
282.286
282.527
283.023
283.184
282.742
282.471
282.36
282.298
282.254
282.222
282.203
282.197
282.202
282.213
282.228
282.244
282.261
282.276
282.291
282.304
282.316
282.327
282.337
282.347
282.357
282.366
282.375
282.383
282.389
282.393
282.393
282.389
282.38
282.368
282.352
282.334
282.316
282.301
282.295
282.308
282.334
282.316
282.455
283.055
282.324
282.355
282.374
282.381
282.385
282.391
282.402
282.418
282.438
282.461
282.486
282.513
282.539
282.563
282.581
282.593
282.598
282.596
282.588
282.577
282.564
282.552
282.54
282.532
282.526
282.523
282.524
282.528
282.534
282.54
282.542
282.538
282.525
282.503
282.471
282.432
282.389
282.346
282.308
282.281
282.268
282.275
282.296
282.309
282.315
282.314
282.308
282.3
282.29
282.28
282.27
282.261
282.253
282.245
282.239
282.241
282.275
282.487
282.983
283.186
282.762
282.483
282.367
282.302
282.256
282.222
282.202
282.197
282.203
282.217
282.233
282.251
282.269
282.285
282.3
282.313
282.323
282.333
282.341
282.349
282.357
282.365
282.374
282.382
282.39
282.396
282.4
282.399
282.394
282.384
282.368
282.349
282.327
282.309
282.302
282.318
282.348
282.35
282.453
283.026
282.325
282.356
282.374
282.381
282.384
282.389
282.398
282.412
282.43
282.451
282.475
282.5
282.526
282.551
282.572
282.588
282.596
282.597
282.591
282.581
282.568
282.554
282.541
282.53
282.522
282.517
282.517
282.521
282.528
282.537
282.544
282.548
282.543
282.529
282.504
282.47
282.43
282.387
282.345
282.307
282.277
282.261
282.263
282.273
282.279
282.281
282.28
282.276
282.27
282.263
282.257
282.25
282.244
282.238
282.235
282.238
282.27
282.463
282.955
283.187
282.782
282.497
282.376
282.309
282.26
282.224
282.203
282.198
282.206
282.222
282.242
282.262
282.282
282.299
282.315
282.327
282.337
282.345
282.351
282.357
282.362
282.368
282.374
282.381
282.389
282.397
282.403
282.406
282.405
282.397
282.383
282.362
282.339
282.317
282.309
282.325
282.36
282.379
282.452
282.999
282.326
282.356
282.374
282.38
282.383
282.386
282.394
282.406
282.421
282.439
282.46
282.484
282.509
282.534
282.558
282.578
282.591
282.597
282.595
282.587
282.575
282.561
282.546
282.533
282.522
282.515
282.512
282.514
282.521
282.531
282.543
282.552
282.556
282.552
282.536
282.51
282.476
282.436
282.394
282.353
282.315
282.285
282.265
282.261
282.262
282.263
282.262
282.26
282.257
282.253
282.248
282.244
282.24
282.236
282.235
282.24
282.274
282.456
282.939
283.187
282.803
282.513
282.387
282.317
282.267
282.228
282.205
282.201
282.211
282.229
282.252
282.276
282.298
282.318
282.334
282.347
282.356
282.363
282.368
282.371
282.374
282.376
282.379
282.383
282.389
282.396
282.403
282.409
282.412
282.408
282.396
282.376
282.35
282.325
282.314
282.33
282.369
282.401
282.451
282.974
282.327
282.357
282.374
282.38
282.381
282.384
282.39
282.399
282.411
282.426
282.443
282.464
282.488
282.513
282.539
282.563
282.582
282.594
282.598
282.595
282.585
282.572
282.556
282.541
282.527
282.516
282.51
282.508
282.513
282.522
282.536
282.551
282.563
282.568
282.564
282.548
282.523
282.49
282.452
282.412
282.372
282.335
282.304
282.281
282.273
282.268
282.264
282.261
282.257
282.253
282.249
282.246
282.243
282.241
282.242
282.25
282.288
282.468
282.936
283.187
282.823
282.536
282.401
282.329
282.276
282.235
282.209
282.203
282.215
282.237
282.263
282.291
282.317
282.339
282.356
282.368
282.378
282.385
282.389
282.391
282.391
282.39
282.389
282.389
282.391
282.396
282.403
282.41
282.415
282.416
282.408
282.389
282.362
282.333
282.318
282.332
282.373
282.415
282.45
282.953
282.327
282.357
282.374
282.379
282.38
282.381
282.385
282.391
282.4
282.411
282.426
282.442
282.463
282.487
282.513
282.54
282.565
282.584
282.596
282.599
282.595
282.585
282.571
282.555
282.538
282.524
282.513
282.506
282.506
282.512
282.525
282.543
282.561
282.576
282.584
282.58
282.566
282.542
282.512
282.477
282.441
282.404
282.37
282.339
282.314
282.301
282.291
282.283
282.276
282.27
282.265
282.26
282.257
282.256
282.259
282.272
282.317
282.497
282.941
283.186
282.845
282.564
282.424
282.345
282.29
282.246
282.215
282.206
282.217
282.242
282.272
282.305
282.335
282.358
282.374
282.386
282.397
282.406
282.412
282.415
282.414
282.411
282.406
282.402
282.399
282.399
282.403
282.409
282.416
282.421
282.417
282.401
282.374
282.342
282.322
282.33
282.372
282.422
282.448
282.934
282.327
282.357
282.374
282.379
282.379
282.379
282.381
282.385
282.39
282.398
282.408
282.421
282.437
282.458
282.482
282.51
282.538
282.564
282.585
282.597
282.601
282.597
282.587
282.572
282.555
282.538
282.522
282.51
282.503
282.504
282.513
282.529
282.551
282.573
282.592
282.602
282.601
282.589
282.568
282.542
282.512
282.479
282.446
282.413
282.382
282.36
282.343
282.328
282.316
282.306
282.298
282.291
282.286
282.285
282.289
282.307
282.362
282.54
282.946
283.183
282.867
282.597
282.452
282.369
282.312
282.263
282.225
282.21
282.217
282.242
282.275
282.312
282.346
282.371
282.384
282.395
282.407
282.42
282.431
282.438
282.439
282.436
282.429
282.421
282.413
282.407
282.406
282.41
282.416
282.423
282.423
282.413
282.387
282.353
282.326
282.327
282.366
282.421
282.448
282.918
282.327
282.356
282.374
282.378
282.378
282.377
282.378
282.38
282.383
282.387
282.393
282.402
282.413
282.429
282.449
282.474
282.503
282.533
282.561
282.584
282.598
282.604
282.6
282.59
282.575
282.558
282.539
282.521
282.508
282.501
282.502
282.513
282.533
282.559
282.587
282.61
282.623
282.625
282.617
282.6
282.579
282.554
282.526
282.497
282.467
282.437
282.414
282.394
282.377
282.362
282.349
282.338
282.331
282.329
282.335
282.357
282.42
282.591
282.953
283.179
282.891
282.635
282.487
282.4
282.341
282.291
282.247
282.219
282.216
282.236
282.268
282.306
282.345
282.374
282.378
282.389
282.406
282.425
282.443
282.456
282.463
282.462
282.456
282.445
282.433
282.421
282.414
282.412
282.416
282.423
282.427
282.422
282.4
282.365
282.331
282.322
282.355
282.415
282.448
282.904
282.326
282.355
282.373
282.378
282.378
282.376
282.376
282.377
282.378
282.381
282.384
282.389
282.395
282.404
282.418
282.437
282.463
282.493
282.525
282.556
282.581
282.598
282.605
282.603
282.594
282.579
282.561
282.541
282.521
282.506
282.497
282.499
282.512
282.536
282.568
282.601
282.629
282.646
282.652
282.648
282.637
282.621
282.601
282.579
282.553
282.525
282.499
282.475
282.453
282.434
282.416
282.402
282.392
282.388
282.395
282.42
282.486
282.644
282.959
283.173
282.917
282.678
282.529
282.438
282.377
282.328
282.282
282.245
282.228
282.233
282.256
282.288
282.321
282.341
282.355
282.372
282.396
282.422
282.447
282.467
282.481
282.486
282.483
282.472
282.457
282.441
282.427
282.419
282.418
282.423
282.429
282.428
282.412
282.378
282.339
282.319
282.34
282.403
282.455
282.892
282.325
282.353
282.372
282.378
282.378
282.376
282.375
282.375
282.377
282.379
282.381
282.383
282.385
282.389
282.396
282.407
282.424
282.449
282.48
282.514
282.548
282.575
282.595
282.604
282.605
282.597
282.583
282.564
282.543
282.521
282.503
282.492
282.494
282.51
282.538
282.576
282.614
282.647
282.669
282.679
282.68
282.675
282.665
282.651
282.633
282.611
282.586
282.562
282.539
282.516
282.496
282.478
282.466
282.46
282.466
282.492
282.555
282.695
282.966
283.164
282.943
282.725
282.578
282.483
282.42
282.371
282.327
282.288
282.26
282.251
282.258
282.275
282.296
282.312
282.33
282.356
282.387
282.418
282.449
282.475
282.495
282.506
282.507
282.499
282.484
282.464
282.445
282.43
282.423
282.424
282.429
282.432
282.422
282.392
282.35
282.318
282.325
282.385
282.471
282.883
282.323
282.351
282.371
282.378
282.378
282.376
282.375
282.374
282.376
282.379
282.382
282.384
282.384
282.384
282.385
282.388
282.396
282.411
282.434
282.465
282.5
282.536
282.566
282.588
282.601
282.604
282.599
282.587
282.568
282.545
282.521
282.499
282.486
282.487
282.505
282.538
282.581
282.626
282.664
282.69
282.705
282.711
282.711
282.707
282.698
282.685
282.666
282.646
282.624
282.602
282.581
282.562
282.547
282.54
282.544
282.567
282.624
282.744
282.972
283.152
282.968
282.774
282.631
282.535
282.469
282.42
282.378
282.341
282.311
282.292
282.286
282.29
282.3
282.312
282.331
282.359
282.391
282.425
282.458
282.486
282.509
282.524
282.529
282.524
282.511
282.49
282.467
282.446
282.432
282.427
282.43
282.434
282.43
282.406
282.363
282.322
282.31
282.358
282.476
282.876
282.322
282.349
282.369
282.377
282.378
282.377
282.375
282.375
282.376
282.378
282.382
282.386
282.388
282.386
282.385
282.383
282.383
282.387
282.398
282.418
282.447
282.483
282.52
282.553
282.577
282.593
282.6
282.598
282.589
282.572
282.548
282.521
282.495
282.478
282.477
282.497
282.534
282.583
282.634
282.677
282.708
282.727
282.737
282.742
282.743
282.74
282.731
282.718
282.701
282.683
282.664
282.645
282.63
282.621
282.623
282.642
282.69
282.787
282.978
283.137
282.991
282.822
282.688
282.592
282.524
282.475
282.435
282.401
282.373
282.352
282.339
282.335
282.339
282.348
282.364
282.389
282.418
282.449
282.479
282.506
282.529
282.544
282.551
282.548
282.536
282.515
282.49
282.464
282.444