/*--------------------------------*- C++ -*----------------------------------*\
| =========                 |                                                 |
| \\      /  F ield         | OpenFOAM: The Open Source CFD Toolbox           |
|  \\    /   O peration     | Version:  4.1                                   |
|   \\  /    A nd           | Web:      www.OpenFOAM.org                      |
|    \\/     M anipulation  |                                                 |
\*---------------------------------------------------------------------------*/
FoamFile
{
    version     2.0;
    format      ascii;
    class       volVectorField;
    location    "860";
    object      U;
}
// * * * * * * * * * * * * * * * * * * * * * * * * * * * * * * * * * * * * * //

dimensions      [0 1 -1 0 0 0 0];

internalField   nonuniform List<vector> 
5000
(
(-0.00565739 0.00316065 0)
(-0.00669633 0.000350752 0)
(-0.00655957 -0.000837238 0)
(-0.00514919 -0.00121982 0)
(-0.00370273 -0.000979056 0)
(-0.00268203 -0.000389898 0)
(-0.0022948 6.63943e-06 0)
(-0.00224311 3.76016e-05 0)
(-0.00213819 -9.14316e-05 0)
(-0.00190192 -0.000188302 0)
(-0.00156549 -0.000233604 0)
(-0.00116572 -0.00025905 0)
(-0.000714957 -0.000283906 0)
(-0.000222498 -0.000317941 0)
(0.000387319 -0.000342754 0)
(0.000944612 -0.000131265 0)
(0.00101737 0.000366402 0)
(0.00129312 -0.000194184 0)
(0.00215978 -0.000691589 0)
(0.00314677 -0.000763314 0)
(0.00418707 -0.000722752 0)
(0.00520247 -0.000661934 0)
(0.00616465 -0.000602916 0)
(0.00707476 -0.000550155 0)
(0.00793869 -0.00050365 0)
(0.00875872 -0.000461967 0)
(0.00953385 -0.000423317 0)
(0.0102613 -0.000386074 0)
(0.0109374 -0.00034895 0)
(0.0115576 -0.000310983 0)
(0.0121169 -0.000271479 0)
(0.01261 -0.00022997 0)
(0.0130312 -0.0001862 0)
(0.0133749 -0.000140151 0)
(0.0136357 -9.21083e-05 0)
(0.0138094 -4.27877e-05 0)
(0.0138926 6.33884e-06 0)
(0.0138866 5.34433e-05 0)
(0.0137944 9.83537e-05 0)
(0.0136167 0.000141284 0)
(0.0133564 0.000182093 0)
(0.0130173 0.000220498 0)
(0.0126041 0.000256164 0)
(0.0121225 0.000288861 0)
(0.0115786 0.000318522 0)
(0.0109783 0.000345329 0)
(0.0103274 0.000369809 0)
(0.00962989 0.000392981 0)
(0.00888759 0.000416622 0)
(0.00809799 0.000443784 0)
(0.00725157 0.000479907 0)
(0.00632616 0.000535385 0)
(0.00527485 0.000632423 0)
(0.0039972 0.000827027 0)
(0.00242119 0.00128961 0)
(5.82301e-05 0.00244935 0)
(-0.00570651 0.00275632 0)
(-0.00900368 0.00138268 0)
(-0.0105292 0.000573165 0)
(-0.0112181 0.000196893 0)
(-0.0114138 1.7776e-05 0)
(-0.0113658 -5.86677e-05 0)
(-0.0112142 -8.72252e-05 0)
(-0.0110171 -0.000101298 0)
(-0.0107937 -0.000112529 0)
(-0.010548 -0.000123009 0)
(-0.0102811 -0.000132389 0)
(-0.00999426 -0.000140546 0)
(-0.00968923 -0.000147838 0)
(-0.00936673 -0.000154705 0)
(-0.00902577 -0.000161943 0)
(-0.00866448 -0.000170325 0)
(-0.0082813 -0.000179977 0)
(-0.00787506 -0.000190271 0)
(-0.00744559 -0.00020015 0)
(-0.00699491 -0.000208392 0)
(-0.00652791 -0.00021366 0)
(-0.0060526 -0.000214474 0)
(-0.00558029 -0.000209275 0)
(-0.00512572 -0.000196687 0)
(-0.00470688 -0.000175847 0)
(-0.00434395 -0.000146661 0)
(-0.00405699 -0.000109798 0)
(-0.00386376 -6.62038e-05 0)
(-0.00377966 -1.58533e-05 0)
(-0.00380962 3.79118e-05 0)
(-0.00393957 6.94366e-05 0)
(-0.00415147 7.27211e-05 0)
(-0.00439323 4.83736e-05 0)
(-0.00460936 5.30868e-06 0)
(-0.00476334 -4.96612e-05 0)
(-0.00482875 -0.000116598 0)
(-0.00478089 -0.000206255 0)
(-0.00459143 -0.000332406 0)
(-0.00418547 -0.000514789 0)
(-0.00347286 -0.000784912 0)
(-0.00236024 -0.00120363 0)
(-0.00065807 -0.00195696 0)
(0.00166145 -0.00156138 0)
(0.00254099 0.00110114 0)
(-0.00424402 0.00707751 0)
(-0.00425251 0.00177236 0)
(-0.00440281 -0.00126936 0)
(-0.00374919 -0.00217276 0)
(-0.00326225 -0.00183186 0)
(-0.00277884 -0.000995055 0)
(-0.00221853 -0.000391671 0)
(-0.00171097 -0.000216607 0)
(-0.00133174 -0.000311698 0)
(-0.0010453 -0.000435897 0)
(-0.000783378 -0.000522125 0)
(-0.000492333 -0.000592545 0)
(-0.000157967 -0.000667322 0)
(0.000222505 -0.00075984 0)
(0.000633643 -0.000841829 0)
(0.00118792 -0.000729144 0)
(0.00208275 -0.00044871 0)
(0.00299973 -0.000849414 0)
(0.00373078 -0.00125656 0)
(0.00440332 -0.00139737 0)
(0.00514895 -0.00140787 0)
(0.00596479 -0.00137804 0)
(0.00681295 -0.00133631 0)
(0.00766772 -0.00128922 0)
(0.0085142 -0.0012379 0)
(0.00934151 -0.0011819 0)
(0.0101404 -0.00112028 0)
(0.0109028 -0.00105211 0)
(0.0116218 -0.00097665 0)
(0.0122912 -0.000893362 0)
(0.012905 -0.000801835 0)
(0.0134573 -0.000701791 0)
(0.0139425 -0.000593162 0)
(0.0143549 -0.000476239 0)
(0.0146895 -0.000351866 0)
(0.0149414 -0.000221708 0)
(0.0151074 -8.86789e-05 0)
(0.0151831 4.42114e-05 0)
(0.0151644 0.000175344 0)
(0.0150522 0.000303475 0)
(0.014848 0.000427024 0)
(0.0145552 0.000544407 0)
(0.0141779 0.000654232 0)
(0.0137214 0.000755556 0)
(0.0131913 0.000848053 0)
(0.0125933 0.000932201 0)
(0.0119322 0.00100951 0)
(0.0112112 0.00108291 0)
(0.0104308 0.00115738 0)
(0.00958677 0.00124129 0)
(0.00866783 0.00134897 0)
(0.00765038 0.00150645 0)
(0.0064906 0.00176495 0)
(0.00511053 0.00223589 0)
(0.00337796 0.00319056 0)
(0.00170179 0.00509233 0)
(-0.00312043 0.00647014 0)
(-0.00725797 0.00410208 0)
(-0.00954904 0.00197323 0)
(-0.0108227 0.000772343 0)
(-0.0114013 0.000150039 0)
(-0.0115989 -0.000138111 0)
(-0.0115967 -0.00025573 0)
(-0.011498 -0.00031172 0)
(-0.0113422 -0.000351883 0)
(-0.0111416 -0.000388559 0)
(-0.0109023 -0.000422863 0)
(-0.0106272 -0.000454536 0)
(-0.0103179 -0.000484586 0)
(-0.00997538 -0.000514603 0)
(-0.00959953 -0.000546087 0)
(-0.00918909 -0.000579678 0)
(-0.00874286 -0.00061483 0)
(-0.00826029 -0.000649935 0)
(-0.00774187 -0.000682485 0)
(-0.00718957 -0.000709059 0)
(-0.00660725 -0.000725339 0)
(-0.00600107 -0.000726236 0)
(-0.00538013 -0.000706113 0)
(-0.00475739 -0.000659203 0)
(-0.00415067 -0.000580507 0)
(-0.00358338 -0.00046762 0)
(-0.00308425 -0.000324002 0)
(-0.0026854 -0.000163874 0)
(-0.00242557 -1.44898e-05 0)
(-0.00235857 0.000103531 0)
(-0.00240878 0.000218799 0)
(-0.00253609 0.000333503 0)
(-0.0027223 0.000363502 0)
(-0.00292855 0.000323349 0)
(-0.00311325 0.000230706 0)
(-0.00324479 9.87623e-05 0)
(-0.00328666 -8.02763e-05 0)
(-0.00319873 -0.000325976 0)
(-0.00293121 -0.000678266 0)
(-0.00242896 -0.001175 0)
(-0.00169274 -0.00186262 0)
(-0.000559522 -0.00292245 0)
(0.000449959 -0.00291171 0)
(0.00200597 0.00313534 0)
(-0.00328951 0.010387 0)
(-0.00213486 0.0027372 0)
(-0.00175306 -0.00128839 0)
(-0.00184249 -0.00234448 0)
(-0.00206491 -0.00204525 0)
(-0.00205447 -0.00131972 0)
(-0.00184459 -0.000843068 0)
(-0.00157734 -0.000642601 0)
(-0.00132386 -0.000617922 0)
(-0.00109093 -0.000679382 0)
(-0.000850237 -0.000774346 0)
(-0.000572874 -0.000887472 0)
(-0.000245094 -0.00101588 0)
(0.000141219 -0.00115718 0)
(0.000622819 -0.0013057 0)
(0.001234 -0.00141053 0)
(0.0020216 -0.00151508 0)
(0.00287413 -0.00176516 0)
(0.00367873 -0.00202261 0)
(0.00444312 -0.0021658 0)
(0.00522182 -0.00222072 0)
(0.00603393 -0.00222808 0)
(0.00686758 -0.00220664 0)
(0.00770607 -0.00216315 0)
(0.00853625 -0.00210094 0)
(0.00934768 -0.00202209 0)
(0.0101314 -0.0019279 0)
(0.0108795 -0.00181913 0)
(0.0115853 -0.00169616 0)
(0.0122426 -0.00155914 0)
(0.0128458 -0.00140799 0)
(0.0133891 -0.00124256 0)
(0.0138667 -0.00106285 0)
(0.0142727 -0.000869338 0)
(0.014601 -0.000663248 0)
(0.014846 -0.00044691 0)
(0.0150026 -0.000223874 0)
(0.0150674 2.11889e-06 0)
(0.0150381 0.000228463 0)
(0.0149148 0.000451799 0)
(0.0146992 0.000668632 0)
(0.0143944 0.000875738 0)
(0.0140046 0.00107051 0)
(0.013535 0.00125124 0)
(0.0129912 0.00141737 0)
(0.0123787 0.00156975 0)
(0.0117024 0.00171099 0)
(0.0109657 0.00184602 0)
(0.0101699 0.00198312 0)
(0.00931258 0.00213588 0)
(0.00838626 0.00232687 0)
(0.00737581 0.00259512 0)
(0.00625584 0.00301234 0)
(0.00499194 0.00371948 0)
(0.00349377 0.00502224 0)
(0.00217153 0.00753699 0)
(-0.000580321 0.0101706 0)
(-0.00487534 0.00757574 0)
(-0.00734417 0.00404476 0)
(-0.00889348 0.0018821 0)
(-0.00976844 0.000704506 0)
(-0.0102681 0.000104315 0)
(-0.0105459 -0.000193721 0)
(-0.0106642 -0.000355509 0)
(-0.010674 -0.000467208 0)
(-0.0106089 -0.000560397 0)
(-0.0104838 -0.000643403 0)
(-0.0103073 -0.000719491 0)
(-0.010084 -0.000791833 0)
(-0.00981575 -0.000863825 0)
(-0.00950197 -0.000938025 0)
(-0.00914131 -0.00101555 0)
(-0.00873268 -0.00109601 0)
(-0.00827527 -0.0011776 0)
(-0.00776845 -0.00125705 0)
(-0.00721223 -0.00132975 0)
(-0.00660759 -0.0013899 0)
(-0.00595657 -0.00143069 0)
(-0.00526225 -0.00144411 0)
(-0.00452903 -0.00142094 0)
(-0.00376303 -0.00135084 0)
(-0.00297272 -0.00122298 0)
(-0.0021704 -0.00102655 0)
(-0.00137822 -0.000750096 0)
(-0.00064245 -0.000380983 0)
(-2.8501e-05 6.54791e-05 0)
(0.000170077 0.000436363 0)
(-4.63127e-06 0.000558029 0)
(-0.000428832 0.000598124 0)
(-0.000899162 0.000496305 0)
(-0.00134269 0.000292229 0)
(-0.00169567 4.99978e-05 0)
(-0.0019154 -0.000205675 0)
(-0.00194228 -0.00055288 0)
(-0.00182655 -0.00108896 0)
(-0.00152729 -0.00180264 0)
(-0.00112818 -0.00267387 0)
(-0.000210379 -0.00381825 0)
(-2.60553e-05 -0.0041646 0)
(0.00162012 0.00447042 0)
(-0.00275622 0.0125626 0)
(-0.00100456 0.00216652 0)
(-0.000590548 -0.00161829 0)
(-0.000864092 -0.00203373 0)
(-0.00142463 -0.00176483 0)
(-0.00165776 -0.00126918 0)
(-0.00166134 -0.000954374 0)
(-0.00155614 -0.000819593 0)
(-0.0014037 -0.000814491 0)
(-0.00122205 -0.000891481 0)
(-0.00100122 -0.0010214 0)
(-0.000722557 -0.00118981 0)
(-0.000373251 -0.00138705 0)
(4.90393e-05 -0.00160614 0)
(0.000603108 -0.00186422 0)
(0.00126753 -0.00211234 0)
(0.0020363 -0.00234077 0)
(0.00285817 -0.00258007 0)
(0.00367711 -0.00279928 0)
(0.00447911 -0.00295097 0)
(0.00528122 -0.00302958 0)
(0.00609566 -0.00305263 0)
(0.00691923 -0.00303493 0)
(0.0077419 -0.00298448 0)
(0.00855344 -0.00290578 0)
(0.00934477 -0.00280194 0)
(0.0101079 -0.00267527 0)
(0.0108359 -0.00252744 0)
(0.0115227 -0.00235951 0)
(0.0121631 -0.00217197 0)
(0.012752 -0.00196477 0)
(0.0132841 -0.00173753 0)
(0.0137535 -0.00148992 0)
(0.0141538 -0.0012221 0)
(0.0144778 -0.000935275 0)
(0.0147185 -0.000632124 0)
(0.0148693 -0.000317006 0)
(0.0149251 4.34153e-06 0)
(0.0148828 0.000326071 0)
(0.0147423 0.000643266 0)
(0.0145048 0.000951098 0)
(0.0141737 0.00124514 0)
(0.0137538 0.00152188 0)
(0.0132506 0.00177903 0)
(0.0126704 0.00201596 0)
(0.0120197 0.00223389 0)
(0.0113042 0.00243637 0)
(0.0105286 0.00262987 0)
(0.00969642 0.00282503 0)
(0.00880902 0.00303889 0)
(0.0078655 0.00329896 0)
(0.00686259 0.00365096 0)
(0.00579572 0.00417471 0)
(0.00466659 0.00501814 0)
(0.00345467 0.00647923 0)
(0.00232649 0.00925239 0)
(0.00120343 0.0129693 0)
(-0.00273948 0.0111608 0)
(-0.00550123 0.00637412 0)
(-0.00730684 0.00326203 0)
(-0.00846119 0.0015395 0)
(-0.00921271 0.000622668 0)
(-0.00970265 0.000117021 0)
(-0.0100114 -0.00019618 0)
(-0.0101781 -0.000412432 0)
(-0.0102464 -0.000581951 0)
(-0.0102423 -0.000726853 0)
(-0.0101761 -0.000857672 0)
(-0.0100528 -0.000981343 0)
(-0.00987442 -0.00110356 0)
(-0.00964135 -0.00122842 0)
(-0.00935279 -0.00135798 0)
(-0.00900812 -0.00149192 0)
(-0.00860705 -0.00162789 0)
(-0.00814951 -0.00176197 0)
(-0.00763591 -0.00188908 0)
(-0.00706718 -0.00200311 0)
(-0.00644481 -0.0020969 0)
(-0.00577075 -0.00216205 0)
(-0.00504764 -0.00218896 0)
(-0.00427911 -0.00216712 0)
(-0.00346967 -0.0020859 0)
(-0.00262388 -0.00193557 0)
(-0.0017477 -0.00170778 0)
(-0.000859297 -0.00139091 0)
(0.000138939 -0.000880297 0)
(0.00124941 -3.45013e-05 0)
(0.00183946 0.00074365 0)
(0.00195725 0.00111302 0)
(0.00177368 0.00119716 0)
(0.00136197 0.00105285 0)
(0.00078497 0.000736105 0)
(1.90394e-05 0.000168515 0)
(-0.000479044 -0.000482628 0)
(-0.000574987 -0.00115672 0)
(-0.000521895 -0.00203769 0)
(-0.000490878 -0.00305864 0)
(0.000152399 -0.00428578 0)
(-0.000114894 -0.00482939 0)
(0.00132327 0.0052373 0)
(-0.00240242 0.0140924 0)
(-0.000467986 0.000861772 0)
(-0.000618931 -0.00161791 0)
(-0.000837208 -0.00161357 0)
(-0.00128339 -0.00138893 0)
(-0.0015226 -0.00112374 0)
(-0.00160199 -0.000959025 0)
(-0.00158238 -0.000904926 0)
(-0.00149675 -0.000948599 0)
(-0.00135234 -0.00107346 0)
(-0.0011391 -0.00126562 0)
(-0.000841703 -0.0015126 0)
(-0.000452116 -0.00179965 0)
(2.52766e-05 -0.00211851 0)
(0.000647464 -0.00249483 0)
(0.0013498 -0.00284704 0)
(0.00211574 -0.00314666 0)
(0.00291644 -0.00340186 0)
(0.00372315 -0.00360976 0)
(0.00452413 -0.0037574 0)
(0.00532328 -0.00384151 0)
(0.00612594 -0.00386998 0)
(0.00693056 -0.00385188 0)
(0.00773013 -0.00379324 0)
(0.00851599 -0.00369817 0)
(0.00927986 -0.0035701 0)
(0.0100147 -0.00341224 0)
(0.0107147 -0.00322729 0)
(0.0113755 -0.00301716 0)
(0.0119934 -0.00278271 0)
(0.0125648 -0.00252375 0)
(0.0130855 -0.00223931 0)
(0.0135501 -0.00192815 0)
(0.0139518 -0.00158948 0)
(0.0142821 -0.00122384 0)
(0.0145316 -0.000833883 0)
(0.0146908 -0.000424929 0)
(0.0147523 -5.03471e-06 0)
(0.0147096 0.000417422 0)
(0.0145621 0.000835141 0)
(0.0143114 0.00124124 0)
(0.0139611 0.00162949 0)
(0.0135169 0.0019949 0)
(0.0129854 0.0023343 0)
(0.0123741 0.00264668 0)
(0.0116905 0.00293347 0)
(0.0109414 0.00319885 0)
(0.0101331 0.00345026 0)
(0.00927104 0.00369959 0)
(0.00835998 0.0039652 0)
(0.00740473 0.00427576 0)
(0.00641139 0.00467738 0)
(0.00539026 0.00524758 0)
(0.00436255 0.00612634 0)
(0.00336493 0.00758844 0)
(0.00240312 0.0103172 0)
(0.00206199 0.0146884 0)
(-0.000819761 0.0145516 0)
(-0.00397179 0.00893948 0)
(-0.00600542 0.00488335 0)
(-0.00737887 0.00259743 0)
(-0.00832003 0.0013308 0)
(-0.00897453 0.000592817 0)
(-0.00942816 0.000113411 0)
(-0.00973672 -0.000231736 0)
(-0.00992489 -0.000493005 0)
(-0.0100264 -0.000710519 0)
(-0.0100566 -0.000905296 0)
(-0.0100208 -0.00108905 0)
(-0.00992168 -0.00127021 0)
(-0.00976007 -0.00145415 0)
(-0.009536 -0.0016431 0)
(-0.00924988 -0.00183643 0)
(-0.00890261 -0.00203131 0)
(-0.00849518 -0.0022235 0)
(-0.0080287 -0.00240762 0)
(-0.00750447 -0.00257728 0)
(-0.00692399 -0.00272494 0)
(-0.00628907 -0.00284158 0)
(-0.00560219 -0.00291671 0)
(-0.00486719 -0.00293859 0)
(-0.00408962 -0.00289517 0)
(-0.00327684 -0.00277571 0)
(-0.00243929 -0.00257353 0)
(-0.00159536 -0.00228688 0)
(-0.000771984 -0.00190066 0)
(0.000220779 -0.00123098 0)
(0.00135226 -0.000225551 0)
(0.00223219 0.000725455 0)
(0.0025596 0.00118333 0)
(0.00256075 0.0013139 0)
(0.00236837 0.00123139 0)
(0.00208381 0.000967426 0)
(0.00162256 0.000376098 0)
(0.00091294 -0.000653072 0)
(0.000542938 -0.00183007 0)
(0.000213934 -0.00305099 0)
(0.000461979 -0.00439502 0)
(-6.84006e-05 -0.0050753 0)
(0.00104971 0.00569616 0)
(-0.00211338 0.0153494 0)
(-0.000333706 0.000131664 0)
(-0.000902808 -0.00139991 0)
(-0.000987974 -0.00128122 0)
(-0.00130916 -0.00110398 0)
(-0.00151412 -0.000967721 0)
(-0.00162183 -0.000907827 0)
(-0.00164798 -0.000932188 0)
(-0.00159846 -0.00104481 0)
(-0.00146652 -0.0012456 0)
(-0.00123897 -0.00152756 0)
(-0.000904812 -0.00187557 0)
(-0.000465627 -0.00226736 0)
(6.95828e-05 -0.00269438 0)
(0.000738897 -0.00317341 0)
(0.00145091 -0.00359184 0)
(0.00220002 -0.0039297 0)
(0.00296966 -0.00419722 0)
(0.00374571 -0.00440273 0)
(0.00452188 -0.00454803 0)
(0.00529854 -0.00463407 0)
(0.00607654 -0.00466425 0)
(0.00685261 -0.00464261 0)
(0.00761949 -0.00457276 0)
(0.00836858 -0.00445837 0)
(0.00909211 -0.00430378 0)
(0.00978434 -0.00411373 0)
(0.0104418 -0.0038925 0)
(0.0110628 -0.00364312 0)
(0.0116465 -0.00336685 0)
(0.0121922 -0.00306307 0)
(0.0126979 -0.00272955 0)
(0.0131596 -0.00236323 0)
(0.0135703 -0.0019612 0)
(0.0139204 -0.00152207 0)
(0.0141973 -0.00104737 0)
(0.0143872 -0.000542689 0)
(0.014478 -1.82348e-05 0)
(0.0144569 0.000512364 0)
(0.0143221 0.00103804 0)
(0.0140748 0.00154907 0)
(0.0137197 0.00203691 0)
(0.0132635 0.00249489 0)
(0.0127152 0.00291891 0)
(0.012084 0.00330775 0)
(0.0113795 0.00366318 0)
(0.0106102 0.00399002 0)
(0.00978406 0.00429648 0)
(0.00890811 0.00459492 0)
(0.00798953 0.00490354 0)
(0.00703658 0.00524955 0)
(0.00606054 0.00567532 0)
(0.00507918 0.00625053 0)
(0.00412089 0.0071004 0)
(0.0032513 0.00847423 0)
(0.00243516 0.0109972 0)
(0.00235661 0.0156105 0)
(0.000722809 0.017414 0)
(-0.00261472 0.0117434 0)
(-0.00492081 0.00670168 0)
(-0.00644853 0.00383715 0)
(-0.00753646 0.00220026 0)
(-0.00832196 0.00121343 0)
(-0.0088941 0.000557444 0)
(-0.00931014 7.76452e-05 0)
(-0.00960588 -0.00029612 0)
(-0.00979558 -0.000597604 0)
(-0.00990484 -0.000865201 0)
(-0.00994087 -0.00111758 0)
(-0.00990675 -0.00136556 0)
(-0.00980429 -0.00161535 0)
(-0.00963476 -0.00186924 0)
(-0.00939992 -0.00212632 0)
(-0.009102 -0.00238351 0)
(-0.00874303 -0.00263641 0)
(-0.00832472 -0.00287974 0)
(-0.00784848 -0.00310725 0)
(-0.00731556 -0.00331126 0)
(-0.00672735 -0.00348223 0)
(-0.00608601 -0.00360845 0)
(-0.00539539 -0.00367626 0)
(-0.0046619 -0.00367089 0)
(-0.00389527 -0.00357824 0)
(-0.00310963 -0.00338753 0)
(-0.0023244 -0.00309293 0)
(-0.00156213 -0.00268914 0)
(-0.000834418 -0.00215705 0)
(5.37498e-05 -0.00130975 0)
(0.00111325 -0.000136837 0)
(0.00197876 0.000784847 0)
(0.00230687 0.00119582 0)
(0.00237408 0.00127443 0)
(0.00227535 0.00110927 0)
(0.00206082 0.00071123 0)
(0.00173506 -7.70278e-05 0)
(0.00124634 -0.00131793 0)
(0.000721828 -0.00269651 0)
(0.000668759 -0.00426154 0)
(5.48294e-05 -0.00501275 0)
(0.000810059 0.00602229 0)
(-0.00185529 0.0164041 0)
(-0.000303797 -9.35373e-05 0)
(-0.00108514 -0.00122028 0)
(-0.00110379 -0.00103186 0)
(-0.00137035 -0.000877819 0)
(-0.00156235 -0.000811751 0)
(-0.00168649 -0.000828562 0)
(-0.00173453 -0.000931243 0)
(-0.00169437 -0.00113047 0)
(-0.00155058 -0.0014314 0)
(-0.00129102 -0.00182475 0)
(-0.00091259 -0.00228704 0)
(-0.000428909 -0.00278654 0)
(0.000149006 -0.00331458 0)
(0.000829736 -0.00386549 0)
(0.00152229 -0.00431989 0)
(0.00223574 -0.00467701 0)
(0.00296151 -0.00495269 0)
(0.00369407 -0.00516057 0)
(0.0044312 -0.00530783 0)
(0.00517188 -0.00539639 0)
(0.00591296 -0.00542621 0)
(0.00664758 -0.00539731 0)
(0.00736628 -0.00531141 0)
(0.00805977 -0.00517275 0)
(0.00872128 -0.00498784 0)
(0.00934761 -0.00476411 0)
(0.00993898 -0.00450828 0)
(0.0104981 -0.00422495 0)
(0.0110287 -0.00391576 0)
(0.0115342 -0.00357925 0)
(0.0120162 -0.00321119 0)
(0.0124731 -0.00280544 0)
(0.0128991 -0.00235539 0)
(0.0132835 -0.00185585 0)
(0.0136104 -0.00130524 0)
(0.0138603 -0.000707754 0)
(0.0140139 -7.49077e-05 0)
(0.0140485 0.000572751 0)
(0.0139569 0.00121722 0)
(0.01374 0.00184407 0)
(0.013403 0.00244119 0)
(0.0129545 0.00299943 0)
(0.0124061 0.00351331 0)
(0.0117703 0.00398133 0)
(0.0110595 0.0044058 0)
(0.0102849 0.00479248 0)
(0.00945642 0.00515051 0)
(0.00858294 0.0054927 0)
(0.00767317 0.00583666 0)
(0.006737 0.00620721 0)
(0.0057876 0.00664158 0)
(0.00484486 0.00719994 0)
(0.00393805 0.00799089 0)
(0.00313802 0.0092381 0)
(0.00243366 0.0114961 0)
(0.00237575 0.0160276 0)
(0.00173894 0.0194675 0)
(-0.00128222 0.0148281 0)
(-0.00397705 0.00870276 0)
(-0.00562065 0.0052253 0)
(-0.00683656 0.00319555 0)
(-0.007729 0.00194401 0)
(-0.00839717 0.00110036 0)
(-0.00890076 0.000478903 0)
(-0.00927614 -9.54071e-06 0)
(-0.00954402 -0.000411198 0)
(-0.00971606 -0.000759359 0)
(-0.00980913 -0.0010864 0)
(-0.00982731 -0.00140622 0)
(-0.00977364 -0.00172558 0)
(-0.00965095 -0.00204669 0)
(-0.00946251 -0.00236842 0)
(-0.00921179 -0.00268766 0)
(-0.00890173 -0.00300031 0)
(-0.00853435 -0.00330166 0)
(-0.00811088 -0.00358601 0)
(-0.00763205 -0.00384591 0)
(-0.00709857 -0.00407134 0)
(-0.00651201 -0.00424923 0)
(-0.005876 -0.00436349 0)
(-0.00519739 -0.004396 0)
(-0.00448732 -0.00432852 0)
(-0.00376184 -0.00414548 0)
(-0.00304136 -0.00383672 0)
(-0.00234773 -0.00339841 0)
(-0.00169887 -0.00283151 0)
(-0.00109066 -0.00213578 0)
(-0.000351658 -0.00113929 0)
(0.00062365 0.000116257 0)
(0.00125229 0.000865063 0)
(0.00146429 0.00115859 0)
(0.00150421 0.00115475 0)
(0.00143279 0.000847071 0)
(0.00131427 0.000123351 0)
(0.00112715 -0.00101672 0)
(0.00071606 -0.00233536 0)
(0.000665101 -0.00411685 0)
(0.000171113 -0.00479493 0)
(0.000626628 0.00631065 0)
(-0.00162441 0.0172893 0)
(-0.000258797 -9.14933e-05 0)
(-0.00115412 -0.00103764 0)
(-0.00118044 -0.000801631 0)
(-0.00143877 -0.000663954 0)
(-0.00163588 -0.000648663 0)
(-0.00177053 -0.00073533 0)
(-0.00182257 -0.000924702 0)
(-0.00177114 -0.00122816 0)
(-0.00159954 -0.00164731 0)
(-0.00130185 -0.00216331 0)
(-0.000885239 -0.00274087 0)
(-0.000374052 -0.00333899 0)
(0.000218262 -0.00394722 0)
(0.000874667 -0.00453767 0)
(0.00152506 -0.00500852 0)
(0.00218727 -0.00537523 0)
(0.00285874 -0.00565787 0)
(0.00353883 -0.005872 0)
(0.00422698 -0.00602511 0)
(0.00491967 -0.00611656 0)
(0.00560887 -0.00614213 0)
(0.00628291 -0.00609865 0)
(0.00692948 -0.00598762 0)
(0.00753917 -0.00581592 0)
(0.00810768 -0.00559425 0)
(0.00863626 -0.00533436 0)
(0.00913074 -0.00504635 0)
(0.00959985 -0.00473671 0)
(0.0100533 -0.0044074 0)
(0.0104999 -0.00405554 0)
(0.0109458 -0.003674 0)
(0.0113928 -0.00325233 0)
(0.0118373 -0.00277839 0)
(0.0122683 -0.00224078 0)
(0.0126677 -0.00163197 0)
(0.0130098 -0.000951684 0)
(0.013266 -0.000209922 0)
(0.0134029 0.000564967 0)
(0.0133971 0.00134258 0)
(0.0132482 0.00210032 0)
(0.0129618 0.00282029 0)
(0.0125485 0.00348959 0)
(0.0120233 0.00410077 0)
(0.0114028 0.00465198 0)
(0.0107034 0.00514635 0)
(0.00993979 0.00559109 0)
(0.00912472 0.00599679 0)
(0.00826906 0.0063772 0)
(0.00738272 0.00674967 0)
(0.00647621 0.00713693 0)
(0.00556264 0.00757133 0)
(0.00466102 0.00810403 0)
(0.00379892 0.00882737 0)
(0.00303901 0.00993829 0)
(0.00241106 0.0119225 0)
(0.00228604 0.0161508 0)
(0.00228665 0.0207884 0)
(-7.79472e-05 0.0178557 0)
(-0.00310713 0.0109111 0)
(-0.00488388 0.00674213 0)
(-0.00620515 0.00429748 0)
(-0.00718626 0.00276718 0)
(-0.00793258 0.00172627 0)
(-0.00850631 0.000955705 0)
(-0.00894458 0.000346468 0)
(-0.00927155 -0.000161284 0)
(-0.00949583 -0.000600092 0)
(-0.00963328 -0.00100657 0)
(-0.0096936 -0.00140129 0)
(-0.00968098 -0.00179171 0)
(-0.00959991 -0.00217995 0)
(-0.00945509 -0.00256489 0)
(-0.00925107 -0.00294373 0)
(-0.0089914 -0.0033132 0)
(-0.00867818 -0.00366966 0)
(-0.0083122 -0.00400842 0)
(-0.00789345 -0.00432249 0)
(-0.00742178 -0.00460141 0)
(-0.00689802 -0.00483049 0)
(-0.00632537 -0.00499079 0)
(-0.0057108 -0.00506018 0)
(-0.00506615 -0.00501565 0)
(-0.00440843 -0.00483689 0)
(-0.00375866 -0.00451053 0)
(-0.00313858 -0.00403413 0)
(-0.00256621 -0.00341748 0)
(-0.00204829 -0.00267667 0)
(-0.00155899 -0.00182331 0)
(-0.000963143 -0.000766448 0)
(-5.68221e-05 0.000477539 0)
(0.000265039 0.000999429 0)
(0.000420827 0.00111074 0)
(0.000521883 0.000839265 0)
(0.000594218 0.000140299 0)
(0.000608866 -0.000881803 0)
(0.000333234 -0.0020956 0)
(0.000498028 -0.00414845 0)
(0.000238904 -0.00456454 0)
(0.000499539 0.00659206 0)
(-0.00141708 0.0180395 0)
(-0.000207536 4.54827e-05 0)
(-0.00116874 -0.000815388 0)
(-0.00123406 -0.000556267 0)
(-0.00150709 -0.000440528 0)
(-0.00171649 -0.000476398 0)
(-0.00185536 -0.000639493 0)
(-0.00189837 -0.000928886 0)
(-0.00182376 -0.00135139 0)
(-0.00161974 -0.00189827 0)
(-0.00128996 -0.00253679 0)
(-0.000851951 -0.00321942 0)
(-0.000336806 -0.00389837 0)
(0.000236897 -0.00455865 0)
(0.000842825 -0.00516465 0)
(0.00143503 -0.00564142 0)
(0.00203487 -0.00601412 0)
(0.00264431 -0.00630502 0)
(0.00326466 -0.00652869 0)
(0.00389404 -0.00668908 0)
(0.00452417 -0.00677988 0)
(0.00514081 -0.00679206 0)
(0.0057272 -0.00672081 0)
(0.00626923 -0.00657033 0)
(0.00675941 -0.00635328 0)
(0.00719845 -0.00608706 0)
(0.00759449 -0.00578929 0)
(0.00796097 -0.00547407 0)
(0.00831402 -0.00514975 0)
(0.00867003 -0.00481806 0)
(0.00904331 -0.0044739 0)
(0.00944438 -0.00410639 0)
(0.00987832 -0.00369948 0)
(0.0103432 -0.00323393 0)
(0.0108287 -0.00269011 0)
(0.0113153 -0.00205168 0)
(0.0117737 -0.00131027 0)
(0.0121658 -0.000469965 0)
(0.0124562 0.00043885 0)
(0.0125854 0.00136679 0)
(0.0125496 0.00227622 0)
(0.0123531 0.00313874 0)
(0.0120087 0.00393569 0)
(0.011535 0.00465647 0)
(0.0109538 0.00529857 0)
(0.0102866 0.00586627 0)
(0.00955229 0.00636898 0)
(0.00876709 0.00681967 0)
(0.0079442 0.00723386 0)
(0.00709477 0.00762954 0)
(0.00622946 0.0080283 0)
(0.0053605 0.00845867 0)
(0.00450461 0.00896412 0)
(0.00368641 0.0096224 0)
(0.0029556 0.010603 0)
(0.00237346 0.0123282 0)
(0.00216855 0.0161274 0)
(0.00248532 0.021537 0)
(0.000916474 0.0205585 0)
(-0.00224805 0.0133617 0)
(-0.00424077 0.00836558 0)
(-0.00562782 0.00548966 0)
(-0.00668584 0.00366686 0)
(-0.00749658 0.00241888 0)
(-0.0081268 0.00149104 0)
(-0.00861433 0.000755058 0)
(-0.00898373 0.00014007 0)
(-0.00925225 -0.000398701 0)
(-0.0094251 -0.000888053 0)
(-0.00952018 -0.00135844 0)
(-0.00954345 -0.00181899 0)
(-0.0095009 -0.00227197 0)
(-0.00939846 -0.00271653 0)
(-0.00924149 -0.00315067 0)
(-0.00903386 -0.00357246 0)
(-0.00877752 -0.00397983 0)
(-0.00847267 -0.00436947 0)
(-0.00811845 -0.00473506 0)
(-0.00771379 -0.00506572 0)
(-0.00725873 -0.00534493 0)
(-0.00675589 -0.0055505 0)
(-0.00621204 -0.00565581 0)
(-0.00563912 -0.00563267 0)
(-0.00505443 -0.00545594 0)
(-0.00447905 -0.0051097 0)
(-0.00393437 -0.00459345 0)
(-0.00343719 -0.0039251 0)
(-0.00299441 -0.00313569 0)
(-0.00259528 -0.00225537 0)
(-0.00219045 -0.00130055 0)
(-0.00164112 -0.000248367 0)
(-0.000916696 0.000685364 0)
(-0.000642048 0.000913453 0)
(-0.000369621 0.000662391 0)
(-0.000162653 1.83734e-05 0)
(-3.77207e-05 -0.000853002 0)
(-0.000172937 -0.00206181 0)
(0.000319067 -0.00443542 0)
(0.000265936 -0.00439526 0)
(0.000414559 0.00686414 0)
(-0.00122844 0.0186743 0)
(-0.000160045 0.000265027 0)
(-0.00115909 -0.000543225 0)
(-0.00127458 -0.000280113 0)
(-0.00157045 -0.00019781 0)
(-0.00179224 -0.000296561 0)
(-0.00192967 -0.00054945 0)
(-0.00195674 -0.000952411 0)
(-0.00185635 -0.00150325 0)
(-0.00162562 -0.00217819 0)
(-0.00127879 -0.0029292 0)
(-0.000841983 -0.00369873 0)
(-0.000348279 -0.00443641 0)
(0.000177813 -0.00512158 0)
(0.000717341 -0.00572955 0)
(0.00124068 -0.00620788 0)
(0.00177053 -0.00658648 0)
(0.00231169 -0.00688773 0)
(0.00286446 -0.00712195 0)
(0.00342245 -0.00728608 0)
(0.00397028 -0.00736591 0)
(0.00448701 -0.00734827 0)
(0.0049523 -0.00722986 0)
(0.00535312 -0.0070218 0)
(0.00568754 -0.00674622 0)
(0.00596473 -0.00642967 0)
(0.00620252 -0.0060966 0)
(0.0064237 -0.00576487 0)
(0.00665232 -0.00544382 0)
(0.0069108 -0.00513379 0)
(0.00721709 -0.0048259 0)
(0.00758355 -0.00450429 0)
(0.00801531 -0.00414601 0)
(0.00850978 -0.00372358 0)
(0.00905544 -0.00320808 0)
(0.00963173 -0.00257315 0)
(0.0102087 -0.00180067 0)
(0.010742 -0.000887126 0)
(0.0112152 0.000155206 0)
(0.011517 0.00124785 0)
(0.0116307 0.00233129 0)
(0.0115587 0.00336026 0)
(0.0113149 0.00430607 0)
(0.0109208 0.0051531 0)
(0.0104035 0.00589753 0)
(0.00978989 0.00654505 0)
(0.00910402 0.0071081 0)
(0.00836568 0.0076031 0)
(0.00759057 0.00804851 0)
(0.00679105 0.00846412 0)
(0.00597782 0.00887157 0)
(0.00516192 0.00929699 0)
(0.00435738 0.00977771 0)
(0.00358533 0.010379 0)
(0.00288265 0.011244 0)
(0.0023253 0.012737 0)
(0.00205068 0.016064 0)
(0.00246424 0.0218593 0)
(0.00162383 0.0226977 0)
(-0.00134964 0.016099 0)
(-0.00366591 0.0100916 0)
(-0.00508645 0.0067627 0)
(-0.00622026 0.00463257 0)
(-0.00708642 0.00316713 0)
(-0.0077631 0.00207409 0)
(-0.00828996 0.00120491 0)
(-0.00869348 0.000477052 0)
(-0.00899349 -0.000160825 0)
(-0.00919831 -0.000737358 0)
(-0.00932325 -0.00128244 0)
(-0.00937961 -0.00181045 0)
(-0.00937421 -0.00232415 0)
(-0.00931394 -0.00282339 0)
(-0.00920463 -0.00330747 0)
(-0.00905022 -0.00377624 0)
(-0.00885235 -0.00422963 0)
(-0.00861058 -0.00466602 0)
(-0.00832324 -0.0050799 0)
(-0.00798842 -0.00545994 0)
(-0.00760538 -0.00578765 0)
(-0.00717609 -0.00603738 0)
(-0.00670678 -0.00617773 0)
(-0.00620895 -0.00617515 0)
(-0.00569936 -0.00599973 0)
(-0.00519839 -0.00563328 0)
(-0.00472638 -0.0050776 0)
(-0.00429856 -0.00435894 0)
(-0.00392004 -0.00352306 0)
(-0.00358079 -0.00261984 0)
(-0.00324459 -0.0016878 0)
(-0.00283136 -0.000758765 0)
(-0.00222513 8.98778e-05 0)
(-0.00165122 0.000519762 0)
(-0.00128581 0.000351922 0)
(-0.00100801 -0.000170266 0)
(-0.000756962 -0.000963792 0)
(-0.000599946 -0.00231136 0)
(0.000213312 -0.00491392 0)
(0.00027082 -0.00429225 0)
(0.000355679 0.00712215 0)
(-0.00105527 0.0192067 0)
(-0.00012063 0.000548423 0)
(-0.00113978 -0.000217341 0)
(-0.00130562 3.11186e-05 0)
(-0.00162499 6.36668e-05 0)
(-0.00185721 -0.000111756 0)
(-0.00198998 -0.000469494 0)
(-0.00200057 -0.000996432 0)
(-0.00187966 -0.00167807 0)
(-0.00163515 -0.00247314 0)
(-0.00129112 -0.00331941 0)
(-0.000879241 -0.00415359 0)
(-0.000430738 -0.00492758 0)
(2.81853e-05 -0.00561803 0)
(0.00049135 -0.00622119 0)
(0.000939704 -0.00670096 0)
(0.00139435 -0.00708706 0)
(0.00186088 -0.00739923 0)
(0.00233577 -0.00764033 0)
(0.00280528 -0.00779745 0)
(0.00324578 -0.00784789 0)
(0.00363123 -0.00777734 0)
(0.00394147 -0.00758897 0)
(0.00416957 -0.007306 0)
(0.00432408 -0.00696371 0)
(0.00442677 -0.00659939 0)
(0.00450785 -0.00624404 0)
(0.00460005 -0.00591778 0)
(0.00473382 -0.00562866 0)
(0.00493416 -0.00537304 0)
(0.00521695 -0.00513524 0)
(0.00559097 -0.00489254 0)
(0.00605477 -0.00461325 0)
(0.00660089 -0.00426121 0)
(0.00721347 -0.00379888 0)
(0.0078703 -0.00319091 0)
(0.00854139 -0.00241046 0)
(0.00918701 -0.00144724 0)
(0.0097664 -0.000305583 0)
(0.0102489 0.000956256 0)
(0.0105277 0.0022329 0)
(0.0105976 0.00345386 0)
(0.0104731 0.0045729 0)
(0.0101779 0.00556588 0)
(0.0097435 0.00642666 0)
(0.0092021 0.00716272 0)
(0.00858228 0.00779048 0)
(0.00790718 0.00833107 0)
(0.00719456 0.00880718 0)
(0.00645776 0.0092416 0)
(0.00570734 0.00965725 0)
(0.00495297 0.0100792 0)
(0.00420602 0.0105404 0)
(0.00348402 0.0110957 0)
(0.00281347 0.0118645 0)
(0.00227129 0.0131581 0)
(0.0019427 0.0160274 0)
(0.00233341 0.021879 0)
(0.00205724 0.0242815 0)
(-0.000498261 0.0188915 0)
(-0.00311813 0.011942 0)
(-0.00457823 0.0081125 0)
(-0.00578552 0.00565797 0)
(-0.00670093 0.00396284 0)
(-0.00741738 0.00269589 0)
(-0.00797688 0.00168723 0)
(-0.00840782 0.000843785 0)
(-0.00873166 0.000108089 0)
(-0.00896614 -0.000557915 0)
(-0.00911899 -0.00117579 0)
(-0.00920754 -0.0017673 0)
(-0.00923926 -0.00233671 0)
(-0.00922157 -0.00288508 0)
(-0.00916043 -0.0034134 0)
(-0.00905963 -0.00392368 0)