/*--------------------------------*- C++ -*----------------------------------*\
| =========                 |                                                 |
| \\      /  F ield         | OpenFOAM: The Open Source CFD Toolbox           |
|  \\    /   O peration     | Version:  4.1                                   |
|   \\  /    A nd           | Web:      www.OpenFOAM.org                      |
|    \\/     M anipulation  |                                                 |
\*---------------------------------------------------------------------------*/
FoamFile
{
    version     2.0;
    format      ascii;
    class       surfaceScalarField;
    location    "1020";
    object      phi;
}
// * * * * * * * * * * * * * * * * * * * * * * * * * * * * * * * * * * * * * //

dimensions      [0 3 -1 0 0 0 0];

internalField   nonuniform List<scalar> 
9850
(
-4.5423e-06
4.5423e-06
-6.91591e-06
2.37361e-06
-8.40678e-06
1.49087e-06
-9.55917e-06
1.15239e-06
-1.05295e-05
9.7036e-07
-1.13663e-05
8.36772e-07
-1.20841e-05
7.17813e-07
-1.26831e-05
5.99001e-07
-1.31553e-05
4.72222e-07
-1.34883e-05
3.32963e-07
-1.36674e-05
1.79106e-07
-1.36764e-05
9.03226e-09
-1.35024e-05
-1.74008e-07
-1.31415e-05
-3.60914e-07
-1.26049e-05
-5.36616e-07
-1.19155e-05
-6.89434e-07
-1.11019e-05
-8.13559e-07
-1.01935e-05
-9.08455e-07
-9.21643e-06
-9.77025e-07
-8.19297e-06
-1.02346e-06
-7.14103e-06
-1.05194e-06
-6.075e-06
-1.06604e-06
-5.00621e-06
-1.06879e-06
-3.943e-06
-1.06321e-06
-2.89178e-06
-1.05122e-06
-1.85462e-06
-1.03716e-06
-8.1693e-07
-1.03769e-06
2.84105e-07
-1.10104e-06
1.53861e-06
-1.2545e-06
2.53609e-06
-9.97485e-07
3.42397e-06
-8.87876e-07
4.22439e-06
-8.00417e-07
4.95704e-06
-7.32658e-07
5.63207e-06
-6.75022e-07
6.25228e-06
-6.20215e-07
6.81797e-06
-5.65691e-07
7.32853e-06
-5.10556e-07
7.78282e-06
-4.54294e-07
8.17948e-06
-3.96654e-07
8.51719e-06
-3.37709e-07
8.79504e-06
-2.77855e-07
9.01278e-06
-2.1774e-07
9.17112e-06
-1.58335e-07
9.27201e-06
-1.00894e-07
9.31873e-06
-4.67245e-08
9.31508e-06
3.65914e-09
9.26864e-06
4.64338e-08
9.18326e-06
8.53811e-08
9.06735e-06
1.15906e-07
8.93754e-06
1.29817e-07
8.82601e-06
1.11522e-07
8.78724e-06
3.87706e-08
8.88542e-06
-9.81756e-08
9.16245e-06
-2.77034e-07
9.56628e-06
-4.03824e-07
9.88589e-06
-3.19616e-07
9.77078e-06
1.15116e-07
8.94776e-06
8.23022e-07
7.36898e-06
1.57878e-06
4.62304e-06
2.74594e-06
-1.16267e-07
4.7393e-06
-2.5812e-06
2.46493e-06
-3.20261e-06
6.21413e-07
-2.55769e-06
-6.44922e-07
-5.37103e-06
2.81334e-06
-7.52137e-06
2.15034e-06
-8.26393e-06
7.42556e-07
-8.5213e-06
2.57379e-07
-8.68612e-06
1.64819e-07
-8.71492e-06
2.87979e-08
-8.46314e-06
-2.51778e-07
-7.83462e-06
-6.28527e-07
-6.83889e-06
-9.9573e-07
-5.57374e-06
-1.26515e-06
-4.17466e-06
-1.39908e-06
-2.76654e-06
-1.40812e-06
-1.44877e-06
-1.31777e-06
-2.41408e-07
-1.20736e-06
9.30131e-07
-1.17154e-06
2.18169e-06
-1.25155e-06
3.40343e-06
-1.22174e-06
4.50162e-06
-1.09819e-06
5.48562e-06
-9.83996e-07
6.35998e-06
-8.74363e-07
7.12184e-06
-7.61862e-07
7.76521e-06
-6.43365e-07
8.28339e-06
-5.18182e-07
8.67068e-06
-3.87289e-07
8.92426e-06
-2.53576e-07
9.04625e-06
-1.21993e-07
9.04578e-06
4.72166e-10
8.93553e-06
1.10243e-07
8.72761e-06
2.07925e-07
8.43484e-06
2.92765e-07
8.06777e-06
3.67072e-07
7.62384e-06
4.43933e-07
7.05383e-06
5.70009e-07
6.15534e-06
8.98494e-07
4.26055e-06
1.89478e-06
4.26055e-06
-3.99621e-06
8.5385e-06
-6.50608e-06
4.88349e-06
-8.18087e-06
3.16566e-06
-9.4594e-06
2.43092e-06
-1.05023e-05
2.01325e-06
-1.13705e-05
1.70495e-06
-1.20864e-05
1.4337e-06
-1.2654e-05
1.16661e-06
-1.30669e-05
8.85159e-07
-1.33128e-05
5.78858e-07
-1.33765e-05
2.42815e-07
-1.32454e-05
-1.22054e-07
-1.29229e-05
-4.96522e-07
-1.24199e-05
-8.63923e-07
-1.17531e-05
-1.20342e-06
-1.09481e-05
-1.49445e-06
-1.00345e-05
-1.72712e-06
-9.04069e-06
-1.90228e-06
-7.9905e-06
-2.02721e-06
-6.90326e-06
-2.1107e-06
-5.79423e-06
-2.16097e-06
-4.67546e-06
-2.1848e-06
-3.55706e-06
-2.1872e-06
-2.44541e-06
-2.17485e-06
-1.34482e-06
-2.1518e-06
-2.44924e-07
-2.13706e-06
8.5583e-07
-2.13844e-06
1.87401e-06
-2.11922e-06
2.68073e-06
-2.06123e-06
3.57271e-06
-1.88946e-06
4.40928e-06
-1.72445e-06
5.19525e-06
-1.58638e-06
5.92576e-06
-1.46318e-06
6.59952e-06
-1.34878e-06
7.21731e-06
-1.23801e-06
7.77931e-06
-1.12768e-06
8.28486e-06
-1.01611e-06
8.73284e-06
-9.0228e-07
9.12187e-06
-7.85681e-07
9.45046e-06
-6.66304e-07
9.71732e-06
-5.44706e-07
9.92162e-06
-4.22043e-07
1.00634e-05
-3.00141e-07
1.01442e-05
-1.81626e-07
1.01676e-05
-7.02057e-08
1.014e-05
3.13333e-08
1.00634e-05
1.22976e-07
9.94547e-06
2.03332e-07
9.7948e-06
2.66577e-07
9.62485e-06
2.99765e-07
9.45708e-06
2.79296e-07
9.31411e-06
1.81743e-07
9.19789e-06
1.80391e-08
9.13548e-06
-2.14625e-07
9.11597e-06
-3.8431e-07
9.06482e-06
-2.68468e-07
8.79431e-06
3.85629e-07
8.1852e-06
1.43213e-06
7.32137e-06
2.4426e-06
6.32248e-06
3.74483e-06
5.54748e-06
5.5143e-06
2.87242e-06
5.14e-06
-4.60395e-07
3.95423e-06
-3.32964e-06
2.22432e-06
-5.71084e-06
5.19454e-06
-7.51948e-06
3.95898e-06
-8.49905e-06
1.72212e-06
-8.90722e-06
6.65557e-07
-8.93999e-06
1.97583e-07
-8.64736e-06
-2.63828e-07
-8.02977e-06
-8.6937e-07
-7.10425e-06
-1.55405e-06
-5.93176e-06
-2.16822e-06
-4.62042e-06
-2.57648e-06
-3.2702e-06
-2.7493e-06
-1.93366e-06
-2.74466e-06
-6.13008e-07
-2.63842e-06
7.0581e-07
-2.52618e-06
1.97746e-06
-2.44319e-06
3.06012e-06
-2.33421e-06
4.05639e-06
-2.21801e-06
5.02808e-06
-2.06988e-06
5.94398e-06
-1.8999e-06
6.78778e-06
-1.71816e-06
7.5458e-06
-1.51989e-06
8.20305e-06
-1.30061e-06
8.74474e-06
-1.05988e-06
9.15838e-06
-8.00929e-07
9.43521e-06
-5.30407e-07
9.57175e-06
-2.58528e-07
9.56994e-06
2.28477e-09
9.43299e-06
2.47189e-07
9.16628e-06
4.74641e-07
8.77768e-06
6.81366e-07
8.27137e-06
8.73373e-07
7.63837e-06
1.07694e-06
6.82965e-06
1.37872e-06
5.67319e-06
2.05496e-06
3.64788e-06
3.92009e-06
7.90844e-06
-3.20301e-06
1.17415e-05
-5.34009e-06
7.02056e-06
-6.87713e-06
4.70271e-06
-8.09157e-06
3.64535e-06
-9.08845e-06
3.01014e-06
-9.91361e-06
2.53011e-06
-1.05851e-05
2.10515e-06
-1.11053e-05
1.68685e-06
-1.14673e-05
1.24719e-06
-1.16587e-05
7.70226e-07
-1.16667e-05
2.50771e-07
-1.14829e-05
-3.05847e-07
-1.11074e-05
-8.71996e-07
-1.05488e-05
-1.42252e-06
-9.8296e-06
-1.9226e-06
-8.9812e-06
-2.34285e-06
-8.0371e-06
-2.67122e-06
-7.02607e-06
-2.91331e-06
-5.96986e-06
-3.08343e-06
-4.88526e-06
-3.1953e-06
-3.78567e-06
-3.26055e-06
-2.68129e-06
-3.28919e-06
-1.58265e-06
-3.28584e-06
-4.91616e-07
-3.26589e-06
5.95123e-07
-3.23854e-06
1.63565e-06
-3.17759e-06
2.57943e-06
-3.08222e-06
3.42918e-06
-2.96897e-06
4.20055e-06
-2.83259e-06
4.96883e-06
-2.65774e-06
5.71493e-06
-2.47056e-06
6.42008e-06
-2.29153e-06
7.07789e-06
-2.12099e-06
7.68475e-06
-1.95563e-06
8.23909e-06
-1.79236e-06
8.74019e-06
-1.62878e-06
9.18731e-06
-1.46322e-06
9.57958e-06
-1.29455e-06
9.91603e-06
-1.12212e-06
1.01956e-05
-9.45849e-07
1.04172e-05
-7.66314e-07
1.058e-05
-5.84864e-07
1.06836e-05
-4.03699e-07
1.07279e-05
-2.25922e-07
1.07132e-05
-5.55604e-08
1.0641e-05
1.0358e-07
1.05161e-05
2.47863e-07
1.03456e-05
3.73774e-07
1.01374e-05
4.74858e-07
9.89639e-06
5.40728e-07
9.61859e-06
5.57096e-07
9.28927e-06
5.11059e-07
8.90529e-06
4.02027e-07
8.44424e-06
2.46416e-07
7.93017e-06
1.29761e-07
7.42962e-06
2.32084e-07
7.02366e-06
7.91593e-07
6.7063e-06
1.74949e-06
6.48626e-06
2.66265e-06
6.46905e-06
3.76204e-06
6.43208e-06
5.55126e-06
5.12087e-06
6.45121e-06
2.65631e-06
6.41879e-06
-7.53418e-07
5.63405e-06
-3.68158e-06
8.1227e-06
-5.87866e-06
6.15606e-06
-7.21868e-06
3.06215e-06
-8.01663e-06
1.46351e-06
-8.32993e-06
5.10875e-07
-8.19433e-06
-3.99424e-07
-7.64713e-06
-1.41657e-06
-6.7113e-06
-2.48988e-06
-5.47514e-06
-3.40438e-06
-4.10799e-06
-3.94364e-06
-2.74691e-06
-4.11038e-06
-1.43879e-06
-4.05277e-06
-1.71531e-07
-3.90569e-06
1.01148e-06
-3.7092e-06
2.10061e-06
-3.53231e-06
3.1217e-06
-3.35531e-06
4.08622e-06
-3.18253e-06
5.01133e-06
-2.995e-06
5.89314e-06
-2.78171e-06
6.71449e-06
-2.53951e-06
7.45756e-06
-2.26296e-06
8.10434e-06
-1.94739e-06
8.63711e-06
-1.59264e-06
9.04001e-06
-1.20383e-06
9.30046e-06
-7.90865e-07
9.40947e-06
-3.67539e-07
9.36201e-06
4.97479e-08
9.15428e-06
4.54917e-07
8.79072e-06
8.38205e-07
8.27402e-06
1.19806e-06
7.60542e-06
1.54197e-06
6.78035e-06
1.90202e-06
5.78089e-06
2.37818e-06
4.54836e-06
3.28749e-06
2.81611e-06
5.65233e-06
1.07246e-05
-2.62424e-06
1.43658e-05
-4.35834e-06
8.75466e-06
-5.66787e-06
6.01224e-06
-6.7439e-06
4.72138e-06
-7.64254e-06
3.90877e-06
-8.38829e-06
3.27586e-06
-8.98972e-06
2.70658e-06
-9.44536e-06
2.14249e-06
-9.74696e-06
1.54879e-06
-9.88211e-06
9.05372e-07
-9.83859e-06
2.07253e-07
-9.60937e-06
-5.35065e-07
-9.19115e-06
-1.29022e-06
-8.59296e-06
-2.02071e-06
-7.83791e-06
-2.67765e-06
-6.96351e-06
-3.21725e-06
-6.00688e-06
-3.62786e-06
-4.99591e-06
-3.92428e-06
-3.94866e-06
-4.13067e-06
-2.87892e-06
-4.26505e-06
-1.79944e-06
-4.34003e-06
-7.17653e-07
-4.37097e-06
3.65315e-07
-4.36881e-06
1.41665e-06
-4.31722e-06
2.39313e-06
-4.21502e-06
3.30101e-06
-4.08547e-06
4.1542e-06
-3.9354e-06
4.95247e-06
-3.76725e-06
5.7e-06
-3.58012e-06
6.41472e-06
-3.37245e-06
7.09689e-06
-3.15273e-06
7.73721e-06
-2.93185e-06
8.32986e-06
-2.71364e-06
8.87175e-06
-2.49751e-06
9.3613e-06
-2.28192e-06
9.79782e-06
-2.06529e-06
1.01809e-05
-1.84631e-06
1.05103e-05
-1.62392e-06
1.07856e-05
-1.39747e-06
1.10066e-05
-1.16682e-06
1.11728e-05
-9.3249e-07
1.12837e-05
-6.95797e-07
1.1339e-05
-4.58965e-07
1.13382e-05
-2.25131e-07
1.12814e-05
1.19691e-09
1.11697e-05
2.15286e-07
1.10042e-05
4.13334e-07
1.0788e-05
5.89999e-07
1.05243e-05
7.38567e-07
1.02141e-05
8.50946e-07
9.85245e-06
9.1873e-07
9.42694e-06
9.36569e-07
8.92066e-06
9.08308e-07
8.31277e-06
8.54305e-07
7.61298e-06
8.29546e-07
6.89714e-06
9.47931e-07
6.32039e-06
1.36834e-06
5.99273e-06
2.07715e-06
5.89444e-06
2.76094e-06
6.07152e-06
3.58497e-06
6.34519e-06
5.2776e-06
5.78383e-06
7.01257e-06
4.08939e-06
8.11322e-06
1.38454e-06
8.33891e-06
-1.31636e-06
1.08236e-05
-4.06344e-06
8.90314e-06
-5.88675e-06
4.88546e-06
-7.05073e-06
2.62749e-06
-7.64087e-06
1.10101e-06
-7.70545e-06
-3.34841e-07
-7.29122e-06
-1.8308e-06
-6.39917e-06
-3.38193e-06
-5.13093e-06
-4.67262e-06
-3.73303e-06
-5.34154e-06
-2.38922e-06
-5.45419e-06
-1.14533e-06
-5.29667e-06
4.77823e-09
-5.05579e-06
1.07088e-06
-4.7753e-06
2.07197e-06
-4.53341e-06
3.03706e-06
-4.32039e-06
3.97016e-06
-4.11563e-06
4.87227e-06
-3.89711e-06
5.73714e-06
-3.64657e-06
6.54884e-06
-3.35122e-06
7.28745e-06
-3.00156e-06
7.93197e-06
-2.59191e-06
8.46174e-06
-2.12241e-06
8.85792e-06
-1.60001e-06
9.10511e-06
-1.03806e-06
9.19234e-06
-4.54767e-07
9.11134e-06
1.30747e-07
8.85939e-06
7.06872e-07
8.43504e-06
1.26255e-06
7.83876e-06
1.79434e-06
7.07122e-06
2.30951e-06
6.1341e-06
2.83915e-06
5.03445e-06
3.47782e-06
3.78906e-06
4.53288e-06
2.2957e-06
7.14569e-06
1.30203e-05
-2.19148e-06
1.65572e-05
-3.60917e-06
1.01724e-05
-4.69053e-06
7.0936e-06
-5.5864e-06
5.61725e-06
-6.33382e-06
4.6562e-06
-6.94798e-06
3.89002e-06
-7.43342e-06
3.19202e-06
-7.78804e-06
2.49711e-06
-8.00456e-06
1.76531e-06
-8.071e-06
9.71812e-07
-7.97238e-06
1.08635e-07
-7.69903e-06
-8.08422e-07
-7.24648e-06
-1.74276e-06
-6.61924e-06
-2.64795e-06
-5.84341e-06
-3.45348e-06
-4.96381e-06
-4.09686e-06
-4.01757e-06
-4.57409e-06
-3.02805e-06
-4.91381e-06
-2.00823e-06
-5.15049e-06
-9.69003e-07
-5.30427e-06
8.53739e-08
-5.39441e-06
1.12986e-06
-5.41546e-06
2.12364e-06
-5.36259e-06
3.06485e-06
-5.25843e-06
3.96761e-06
-5.11779e-06
4.82962e-06
-4.94748e-06
5.64679e-06
-4.75257e-06
6.4162e-06
-4.53666e-06
7.13813e-06
-4.30205e-06
7.81672e-06
-4.05105e-06
8.45263e-06
-3.78863e-06
9.04187e-06
-3.52109e-06
9.5805e-06
-3.25228e-06
1.00662e-05
-2.98317e-06
1.04977e-05
-2.71342e-06
1.08746e-05
-2.44223e-06
1.1197e-05
-2.16874e-06
1.14653e-05
-1.89215e-06
1.16797e-05
-1.61193e-06
1.18408e-05
-1.32795e-06
1.1949e-05
-1.04067e-06
1.20045e-05
-7.51316e-07
1.20076e-05
-4.62024e-07
1.19585e-05
-1.76025e-07
1.18564e-05
1.03336e-07
1.17006e-05
3.71025e-07
1.14914e-05
6.22534e-07
1.12293e-05
8.52116e-07
1.09148e-05
1.05303e-06
1.05473e-05
1.21847e-06
1.0123e-05
1.34307e-06
9.63412e-06
1.42544e-06
9.07049e-06
1.47193e-06
8.42374e-06
1.50106e-06
7.70208e-06
1.55121e-06
6.9595e-06
1.69051e-06
6.32313e-06
2.00471e-06
5.91472e-06
2.48556e-06
5.72186e-06
2.95379e-06
5.77276e-06
3.53407e-06
6.05879e-06
4.99157e-06
5.88968e-06
7.18168e-06
4.83959e-06
9.16331e-06
2.95871e-06
1.02198e-05
9.31228e-07
1.28511e-05
-1.99014e-06
1.18245e-05
-4.39814e-06
7.29346e-06
-5.94312e-06
4.17247e-06
-6.84628e-06
2.00417e-06
-7.14313e-06
-3.7985e-08
-6.8878e-06
-2.08614e-06
-6.08116e-06
-4.18857e-06
-4.81903e-06
-5.93475e-06
-3.42551e-06
-6.73506e-06
-2.12957e-06
-6.75013e-06
-9.71581e-07
-6.45465e-06
6.52402e-08
-6.09261e-06
1.03934e-06
-5.7494e-06
1.98164e-06
-5.47571e-06
2.9039e-06
-5.24266e-06
3.80995e-06
-5.02168e-06
4.69648e-06
-4.78363e-06
5.55324e-06
-4.50333e-06
6.36294e-06
-4.16092e-06
7.10369e-06
-3.74231e-06
7.75166e-06
-3.23988e-06
8.28311e-06
-2.65386e-06
8.67628e-06
-1.99318e-06
8.91327e-06
-1.27505e-06
8.98142e-06
-5.22921e-07
8.87309e-06
2.39079e-07
8.58551e-06
9.94448e-07
8.11862e-06
1.72945e-06
7.47416e-06
2.43879e-06
6.65568e-06
3.12799e-06
5.67084e-06
3.82399e-06
4.53901e-06
4.60965e-06
3.30493e-06
5.76696e-06
1.95159e-06
8.49903e-06
1.49718e-05
-1.85582e-06
1.84131e-05
-3.03499e-06
1.13515e-05
-3.91392e-06
7.97253e-06
-4.61342e-06
6.31675e-06
-5.17171e-06
5.21448e-06
-5.60938e-06
4.32769e-06
-5.93557e-06
3.51821e-06
-6.15206e-06
2.7136e-06
-6.25499e-06
1.86824e-06
-6.23368e-06
9.50496e-07
-6.06292e-06
-6.21259e-08
-5.73635e-06
-1.13499e-06
-5.25038e-06
-2.22873e-06
-4.60471e-06
-3.29361e-06
-3.8322e-06
-4.226e-06
-2.97858e-06
-4.95047e-06
-2.07354e-06
-5.47914e-06
-1.13151e-06
-5.85583e-06
-1.55911e-07
-6.12609e-06
8.35661e-07
-6.29585e-06
1.80783e-06
-6.36658e-06
2.74678e-06
-6.3544e-06
3.66492e-06
-6.28073e-06
4.56042e-06
-6.15393e-06
5.42572e-06
-5.98308e-06
6.25429e-06
-5.77606e-06
7.04093e-06
-5.5392e-06
7.78194e-06
-5.27767e-06
8.47555e-06
-4.99566e-06
9.12158e-06
-4.69707e-06
9.71927e-06
-4.38632e-06
1.02662e-05
-4.06805e-06
1.07597e-05
-3.74577e-06
1.11978e-05
-3.42126e-06
1.15795e-05
-3.09512e-06
1.19046e-05
-2.76729e-06
1.21733e-05
-2.43746e-06
1.23864e-05
-2.10526e-06
1.25449e-05
-1.77038e-06
1.26498e-05
-1.43286e-06
1.27023e-05
-1.09316e-06
1.27033e-05
-7.52409e-07
1.26539e-05
-4.12564e-07
1.25546e-05
-7.67692e-08
1.24049e-05
2.53056e-07
1.22038e-05
5.72144e-07
1.19504e-05
8.75969e-07
1.1644e-05
1.15843e-06
1.12843e-05
1.41276e-06
1.08702e-05
1.63255e-06
1.04e-05
1.81335e-06
9.87067e-06
1.95472e-06
9.27989e-06
2.0627e-06
8.62871e-06
2.15225e-06
7.92986e-06
2.25005e-06
7.22403e-06
2.39635e-06
6.59515e-06
2.63359e-06
6.12883e-06
2.95187e-06
5.82274e-06
3.25989e-06
5.69408e-06
3.66273e-06
5.83575e-06
4.84989e-06
5.84286e-06
7.17457e-06
5.26229e-06
9.74389e-06
4.04585e-06
1.14362e-05
2.78233e-06
1.41146e-05
3.93254e-07
1.42136e-05
-2.45598e-06
1.01427e-05
-4.49342e-06
6.20991e-06
-5.75522e-06
3.26597e-06
-6.32635e-06
5.33147e-07
-6.26139e-06
-2.1511e-06
-5.60425e-06
-4.8457e-06
-4.41319e-06
-7.12581e-06
-3.07953e-06
-8.06872e-06
-1.86991e-06
-7.95975e-06
-8.20314e-07
-7.50425e-06
1.16906e-07
-7.02983e-06
1.01463e-06
-6.64712e-06
1.89827e-06
-6.35935e-06
2.77951e-06
-6.12389e-06
3.6599e-06
-5.90208e-06
4.53276e-06
-5.65649e-06
5.38428e-06
-5.35485e-06
6.19466e-06
-4.9713e-06
6.93973e-06
-4.48739e-06
7.59306e-06
-3.89321e-06
8.128e-06
-3.1888e-06
8.51998e-06
-2.38516e-06
8.74882e-06
-1.50389e-06
8.80068e-06
-5.7478e-07
8.66815e-06
3.71605e-07
8.35026e-06
1.31234e-06
7.84997e-06
2.22974e-06
7.1729e-06
3.11587e-06
6.32723e-06
3.97365e-06
5.32558e-06
4.82565e-06
4.1913e-06
5.74393e-06
2.9738e-06
6.98446e-06
1.703e-06
9.76982e-06
1.66748e-05
-1.60112e-06
2.00142e-05
-2.60159e-06
1.2352e-05
-3.30733e-06
8.67828e-06
-3.81121e-06
6.82063e-06
-4.16075e-06
5.56403e-06
-4.3916e-06
4.55855e-06
-4.52419e-06
3.6508e-06
-4.56738e-06
2.75679e-06
-4.52183e-06
1.82269e-06
-4.3811e-06
8.09767e-07
-4.11301e-06
-3.30211e-07
-3.72208e-06
-1.52592e-06
-3.20371e-06
-2.7471e-06
-2.55415e-06
-3.94318e-06
-1.8221e-06
-4.95804e-06
-1.03251e-06
-5.74006e-06
-1.95971e-07
-6.31568e-06
6.79825e-07
-6.73163e-06
1.56919e-06
-7.01545e-06
2.45355e-06
-7.18021e-06
3.33847e-06
-7.25151e-06
4.22251e-06
-7.23844e-06
5.09484e-06
-7.15307e-06
5.94704e-06
-7.00612e-06
6.77146e-06
-6.80751e-06
7.56159e-06
-6.56619e-06
8.31216e-06
-6.28977e-06
9.01914e-06
-5.98464e-06
9.67966e-06
-5.65618e-06
1.02917e-05
-5.30916e-06
1.08535e-05
-4.9481e-06
1.13627e-05
-4.57721e-06
1.18168e-05
-4.19992e-06
1.22141e-05
-3.81854e-06
1.25534e-05
-3.43443e-06
1.28344e-05
-3.04827e-06
1.30573e-05
-2.6604e-06
1.32231e-05
-2.27098e-06
1.33328e-05
-1.88014e-06
1.33881e-05
-1.48817e-06
1.33907e-05
-1.0957e-06
1.3342e-05
-7.03804e-07
1.32437e-05
-3.14203e-07
1.30962e-05
7.06906e-08
1.29004e-05
4.48913e-07
1.2655e-05
8.17483e-07
1.23592e-05
1.17185e-06
1.20119e-05
1.50571e-06
1.16125e-05
1.81216e-06
1.11605e-05
2.08455e-06
1.06558e-05
2.318e-06
1.00994e-05
2.51115e-06
9.49405e-06
2.66804e-06
8.84683e-06
2.79946e-06
8.17327e-06
2.92362e-06
7.50499e-06
3.06462e-06
6.89513e-06
3.24346e-06
6.39539e-06
3.45161e-06
6.00787e-06
3.6474e-06
5.7435e-06
3.9271e-06
5.7175e-06
4.8759e-06
5.76128e-06
7.13079e-06
5.47114e-06
1.0034e-05
4.72856e-06
1.21788e-05
4.05012e-06
1.4793e-05
2.66163e-06
1.56021e-05
2.46977e-07
1.25573e-05
-2.14721e-06
8.6041e-06
-4.00101e-06
5.11977e-06
-5.01936e-06
1.5515e-06
-5.2138e-06
-1.95666e-06
-4.79587e-06
-5.26364e-06
-3.76145e-06
-8.16023e-06
-2.57484e-06
-9.25534e-06
-1.51275e-06
-9.02183e-06
-6.03382e-07
-8.41362e-06
2.23087e-07
-7.8563e-06
1.03471e-06
-7.45875e-06
1.8532e-06
-7.17784e-06
2.68898e-06
-6.95967e-06
3.54008e-06
-6.75318e-06
4.39591e-06
-6.51233e-06
5.23931e-06
-6.19825e-06
6.04792e-06
-5.7799e-06
6.79539e-06
-5.23486e-06
7.45293e-06
-4.55075e-06
7.99122e-06
-3.72709e-06
8.38288e-06
-2.77682e-06
8.60536e-06
-1.72636e-06
8.64355e-06
-6.12978e-07
8.49058e-06
5.24583e-07
8.14762e-06
1.65529e-06
7.62101e-06
2.75635e-06
6.92083e-06
3.81605e-06
6.06009e-06
4.83439e-06
5.05543e-06
5.83031e-06
3.93131e-06
6.86806e-06
2.73475e-06
8.18103e-06
1.5203e-06
1.09843e-05
1.81951e-05
-1.41701e-06
2.14312e-05
-2.29123e-06
1.32262e-05
-2.85652e-06
9.24357e-06
-3.17971e-06
7.14381e-06
-3.31943e-06
5.70374e-06
-3.3317e-06
4.57082e-06
-3.25318e-06
3.57227e-06
-3.10131e-06
2.60492e-06
-2.88063e-06
1.60201e-06
-2.58946e-06
5.1859e-07
-2.21248e-06
-7.07189e-07
-1.74413e-06
-1.99428e-06
-1.19064e-06
-3.30058e-06
-5.61511e-07
-4.57231e-06
1.05238e-07
-5.62479e-06
8.04793e-07
-6.43962e-06
1.54139e-06
-7.05227e-06
2.30984e-06
-7.50008e-06
3.10668e-06
-7.81229e-06
3.92793e-06
-8.00146e-06
4.75909e-06
-8.08267e-06
5.58949e-06
-8.06883e-06
6.40922e-06
-7.9728e-06
7.21006e-06
-7.80695e-06
7.98512e-06
-7.58257e-06
8.72858e-06
-7.30965e-06
9.43553e-06
-6.99672e-06
1.01019e-05
-6.65098e-06
1.07242e-05
-6.27848e-06
1.12995e-05
-5.88451e-06
1.18252e-05
-5.4738e-06
1.22985e-05
-5.05055e-06
1.2717e-05
-4.61834e-06
1.30784e-05
-4.17994e-06
1.33813e-05
-3.73736e-06
1.36251e-05
-3.29205e-06
1.38097e-05
-2.84506e-06
1.39359e-05
-2.39719e-06
1.4005e-05
-1.94917e-06
1.40185e-05
-1.50171e-06
1.39786e-05
-1.05576e-06
1.38874e-05
-6.12587e-07
1.37473e-05
-1.74125e-07
1.35579e-05
2.60079e-07
1.33198e-05
6.86963e-07
1.30333e-05
1.10404e-06
1.2698e-05
1.50709e-06
1.23136e-05
1.89016e-06
1.18796e-05
2.2462e-06
1.13961e-05
2.56798e-06
1.08647e-05
2.84946e-06
1.02884e-05
3.08746e-06
9.67314e-06
3.28327e-06
9.02896e-06
3.44364e-06
8.37184e-06
3.58073e-06
7.72672e-06
3.70975e-06
7.12798e-06
3.84219e-06
6.60659e-06
3.97301e-06
6.16644e-06
4.08755e-06
5.81595e-06
4.27759e-06
5.65384e-06
5.03801e-06
5.65377e-06
7.13086e-06
5.50602e-06
1.01818e-05
5.06744e-06
1.26174e-05
4.82585e-06
1.50346e-05
4.22477e-06
1.62031e-05
2.87272e-06
1.39094e-05
1.08773e-06
1.03891e-05
-8.02998e-07
7.0105e-06
-2.44449e-06
3.19299e-06
-3.7339e-06
-6.67246e-07
-3.43309e-06
-5.56445e-06
-2.70091e-06
-8.89242e-06
-1.814e-06
-1.01422e-05
-9.99424e-07
-9.83641e-06
-2.84546e-07
-9.12849e-06
4.03238e-07
-8.54408e-06
1.10802e-06
-8.16353e-06
1.84926e-06
-7.91908e-06
2.63066e-06
-7.74107e-06
3.44442e-06
-7.56693e-06
4.27557e-06
-7.34348e-06
5.10391e-06
-7.02659e-06
5.90492e-06
-6.58092e-06
6.65044e-06
-5.98037e-06
7.30957e-06
-5.20988e-06
7.85038e-06
-4.2679e-06
8.24256e-06
-3.16901e-06
8.46092e-06
-1.94471e-06
8.48877e-06
-6.40833e-07
8.31974e-06
6.93613e-07
7.95732e-06
2.01772e-06
7.41126e-06
3.3024e-06
6.69592e-06
4.53139e-06
5.82876e-06
5.70155e-06
4.82982e-06
6.82924e-06
3.72412e-06
7.97376e-06
2.5544e-06
9.35074e-06
1.38439e-06
1.21543e-05
1.95795e-05
-1.29246e-06
2.27236e-05
-2.08871e-06
1.40225e-05
-2.55134e-06
9.7062e-06
-2.72283e-06
7.3153e-06
-2.67069e-06
5.65161e-06
-2.47447e-06
4.3746e-06
-2.19298e-06
3.29079e-06
-1.85544e-06
2.26738e-06
-1.46919e-06
1.21576e-06
-1.0312e-06
8.06016e-08
-5.13152e-07
-1.22524e-06
4.56688e-08
-2.5531e-06
6.29429e-07
-3.88434e-06
1.20351e-06
-5.14639e-06
1.77738e-06
-6.19866e-06
2.38738e-06
-7.04962e-06
3.05023e-06
-7.71512e-06
3.76239e-06
-8.21225e-06
4.50849e-06
-8.55838e-06
5.2752e-06
-8.76818e-06
6.04945e-06
-8.85692e-06
6.8207e-06
-8.84008e-06
7.5806e-06
-8.7327e-06
8.32246e-06
-8.54882e-06
9.04079e-06
-8.30089e-06
9.73078e-06
-7.99964e-06
1.03881e-05
-7.65406e-06
1.10088e-05
-7.27166e-06
1.15891e-05
-6.85878e-06
1.21255e-05
-6.42093e-06
1.26147e-05
-5.96296e-06
1.30534e-05
-5.48923e-06
1.34386e-05
-5.00354e-06
1.37677e-05
-4.50913e-06
1.4039e-05
-4.00864e-06
1.42513e-05
-3.50428e-06
1.4404e-05
-2.99785e-06
1.44978e-05
-2.49092e-06
1.45335e-05
-1.9849e-06
1.45129e-05
-1.48111e-06
1.4438e-05
-9.80891e-07
1.43112e-05
-4.85768e-07
1.41342e-05
2.8499e-09
1.39085e-05
4.8578e-07
1.36348e-05
9.6073e-07
1.33133e-05
1.42554e-06
1.29444e-05
1.87596e-06
1.25283e-05
2.30623e-06
1.20654e-05
2.70917e-06
1.15565e-05
3.07688e-06
1.1004e-05
3.40191e-06
1.04125e-05
3.67898e-06
9.78929e-06
3.90647e-06
9.14535e-06
4.08758e-06
8.4959e-06
4.23018e-06
7.861e-06
4.34465e-06
7.26442e-06
4.43878e-06
6.72618e-06
4.51124e-06
6.25121e-06
4.56252e-06
5.84596e-06
4.68283e-06
5.5822e-06
5.30176e-06
5.49625e-06
7.21682e-06
5.37298e-06
1.0305e-05
5.07665e-06
1.29137e-05
5.09265e-06
1.50186e-05
5.0805e-06
1.62153e-05
4.63003e-06
1.43599e-05
3.73398e-06
1.12851e-05
2.67088e-06
8.0736e-06
1.27604e-06
4.58784e-06
-4.65327e-07
1.07412e-06
-1.29178e-06
-4.738e-06
-1.19862e-06
-8.98558e-06
-7.97916e-07
-1.05429e-05
-3.42758e-07
-1.02916e-05
1.24561e-07
-9.59581e-06
6.37064e-07
-9.05659e-06
1.21597e-06
-8.74243e-06
1.86758e-06
-8.57069e-06
2.58407e-06
-8.45756e-06
3.35035e-06
-8.33321e-06
4.14712e-06
-8.14025e-06
4.95169e-06
-7.83116e-06
5.73798e-06
-7.36721e-06
6.47636e-06
-6.71875e-06
7.13407e-06
-5.86758e-06
7.67659e-06
-4.81042e-06
8.07048e-06
-3.5629e-06
8.28748e-06
-2.1617e-06
8.30891e-06
-6.62269e-07
8.12891e-06
8.73611e-07
7.75334e-06
2.3933e-06
7.19535e-06
3.86038e-06
6.47327e-06
5.25347e-06
5.6084e-06
6.56642e-06
4.62367e-06
7.81397e-06
3.54439e-06
9.05304e-06
2.40834e-06
1.04868e-05
1.27879e-06
1.32838e-05
2.08583e-05
-1.21582e-06
2.39395e-05
-1.97529e-06
1.47819e-05
-2.37406e-06
1.0105e-05
-2.43322e-06
7.37445e-06
-2.22398e-06
5.44237e-06
-1.84852e-06
3.99915e-06
-1.39485e-06
2.83712e-06
-9.09679e-07
1.78221e-06
-3.96443e-07
7.0252e-07
2.12073e-07
-5.27915e-07
8.60425e-07
-1.87359e-06
1.46356e-06
-3.15623e-06
2.02616e-06
-4.44694e-06
2.55687e-06
-5.6771e-06
3.11196e-06
-6.75375e-06
3.7109e-06
-7.64856e-06
4.35552e-06
-8.35974e-06
5.03735e-06
-8.89408e-06
5.74262e-06
-9.26364e-06
6.45849e-06
-9.48405e-06
7.1746e-06
-9.57303e-06
7.88329e-06
-9.54877e-06
8.57902e-06
-9.42844e-06
9.25755e-06
-9.22735e-06
9.91521e-06
-8.95855e-06
1.05484e-05
-8.63287e-06
1.11535e-05
-8.25915e-06
1.17266e-05
-7.84475e-06
1.22637e-05
-7.39587e-06
1.27608e-05
-6.918e-06
1.32139e-05
-6.41606e-06
1.36192e-05
-5.89457e-06
1.39733e-05
-5.35764e-06
1.42732e-05
-4.80897e-06
1.45164e-05
-4.25186e-06
1.47014e-05
-3.68924e-06
1.48272e-05
-3.12373e-06
1.48941e-05
-2.55774e-06
1.49026e-05
-1.99343e-06
1.48543e-05
-1.43285e-06
1.47514e-05
-8.7793e-07
1.45962e-05
-3.30633e-07
1.43894e-05
2.09666e-07
1.41333e-05
7.41921e-07
1.38293e-05
1.2647e-06
1.34787e-05
1.77619e-06
1.30821e-05
2.2725e-06
1.26403e-05
2.74802e-06
1.21541e-05
3.19535e-06
1.16252e-05
3.60583e-06
1.10565e-05
3.97057e-06
1.04534e-05
4.28216e-06
9.82353e-06
4.5363e-06
9.17794e-06
4.73317e-06
8.53056e-06
4.87756e-06
7.898e-06
4.97721e-06
7.29803e-06
5.03875e-06
6.74527e-06
5.064e-06
6.24494e-06
5.06286e-06
5.80007e-06
5.1277e-06
5.45476e-06
5.64708e-06
5.2573e-06
7.41428e-06
5.0633e-06
1.0499e-05
4.76324e-06
1.32138e-05
4.85692e-06
1.4925e-05
5.23355e-06
1.58387e-05
5.48932e-06
1.41041e-05
5.28876e-06
1.14857e-05
4.63013e-06
8.73222e-06
3.49829e-06
5.71968e-06
2.41531e-06
2.15709e-06
1.14202e-06
-3.46471e-06
5.40263e-07
-8.38382e-06
3.44642e-07
-1.03473e-05
3.7752e-07
-1.03244e-05
5.5915e-07
-9.77744e-06
8.77291e-07
-9.37473e-06
1.32144e-06
-9.18659e-06
1.87537e-06
-9.12461e-06
2.51814e-06
-9.10033e-06
3.22752e-06
-9.0426e-06
3.98062e-06
-8.89335e-06
4.75302e-06
-8.60356e-06
5.5177e-06
-8.13189e-06
6.24397e-06
-7.44503e-06
6.89749e-06
-6.5211e-06
7.44122e-06
-5.35414e-06
7.83836e-06
-3.96004e-06
8.05714e-06
-2.38049e-06
8.07645e-06
-6.81579e-07
7.89096e-06
1.0591e-06
7.50906e-06
2.7752e-06
6.94746e-06
4.42198e-06
6.22815e-06
5.97279e-06
5.37569e-06
7.41888e-06
4.41515e-06
8.77451e-06
3.37163e-06
1.00966e-05
2.2778e-06
1.15806e-05
1.19087e-06
1.43708e-05
2.20492e-05
-1.17342e-06
2.51129e-05
-1.92414e-06
1.55326e-05
-2.28982e-06
1.04707e-05
-2.27727e-06
7.3619e-06
-1.95584e-06
5.12094e-06
-1.44273e-06
3.48603e-06
-8.57018e-07
2.25141e-06
-2.42145e-07
1.16733e-06
4.54501e-07
5.87447e-09
1.18053e-06
-1.25394e-06
1.78993e-06
-2.48299e-06
2.38213e-06
-3.74843e-06
2.96731e-06
-5.03212e-06
3.54921e-06
-6.25901e-06
4.15121e-06
-7.35575e-06
4.78218e-06
-8.27952e-06
5.4375e-06
-9.01506e-06
6.10695e-06
-9.56353e-06
6.77982e-06
-9.93651e-06
7.44785e-06
-1.01521e-05
8.10584e-06
-1.0231e-05
8.75095e-06
-1.01939e-05
9.38165e-06
-1.00591e-05
9.99668e-06
-9.84238e-06
1.05943e-05
-9.55619e-06
1.11721e-05
-9.21061e-06
1.17266e-05
-8.81366e-06
1.22538e-05
-8.37203e-06
1.27495e-05
-7.89153e-06
1.3209e-05
-7.37747e-06
1.36278e-05
-6.83485e-06
1.40016e-05
-6.26838e-06
1.43265e-05
-5.68256e-06
1.45991e-05
-5.0816e-06
1.48167e-05
-4.46942e-06
1.49772e-05
-3.84971e-06
1.50793e-05
-3.22591e-06
1.51229e-05
-2.6013e-06
1.51084e-05
-1.9789e-06
1.5037e-05
-1.36154e-06
1.49109e-05
-7.51775e-07
1.47321e-05
-1.51871e-07
1.45015e-05
4.40262e-07
1.42215e-05
1.02199e-06
1.38936e-05
1.59257e-06
1.35197e-05
2.15006e-06
1.31012e-05
2.69101e-06
1.26392e-05
3.21e-06
1.21351e-05
3.69946e-06
1.1591e-05
4.14994e-06
1.10104e-05
4.5512e-06
1.03987e-05
4.89383e-06
9.76389e-06
5.17112e-06
9.11633e-06
5.38073e-06
8.46864e-06
5.52524e-06
7.83493e-06
5.61092e-06
7.22944e-06
5.64424e-06
6.66398e-06
5.62946e-06
6.14303e-06
5.5838e-06
5.66366e-06
5.60707e-06
5.24265e-06
6.06809e-06
4.91227e-06
7.74466e-06
4.57056e-06
1.08408e-05
4.14642e-06
1.36379e-05
4.17528e-06
1.48961e-05
4.78391e-06
1.523e-05
5.58883e-06
1.32992e-05
5.86064e-06
1.12139e-05
5.45796e-06
9.1349e-06
4.51051e-06
6.66713e-06
3.60641e-06
3.06119e-06
2.80079e-06
-2.65908e-06
1.99014e-06
-7.57316e-06
1.37217e-06
-9.72936e-06
1.02186e-06
-9.97413e-06
9.30547e-07
-9.68613e-06
1.06404e-06
-9.50822e-06
1.37832e-06
-9.50086e-06
1.83399e-06
-9.58029e-06
2.39857e-06
-9.66491e-06
3.04452e-06
-9.68855e-06
3.74676e-06
-9.59559e-06
4.48014e-06
-9.33694e-06
5.21736e-06
-8.8691e-06
5.92718e-06
-8.15486e-06
6.57405e-06
-7.16796e-06
7.11861e-06
-5.89871e-06
7.52067e-06
-4.3621e-06
7.74454e-06
-2.60436e-06
7.76617e-06
-7.03204e-07
7.58072e-06
1.24455e-06
7.19967e-06
3.15625e-06
6.64352e-06
4.97814e-06
5.9378e-06
6.6785e-06
5.10972e-06
8.24695e-06
4.18555e-06
9.69868e-06
3.18948e-06
1.10926e-05
2.14891e-06
1.26212e-05
1.1117e-06
1.5408e-05
2.31609e-05
-1.14832e-06
2.62612e-05
-1.89858e-06
1.62829e-05
-2.24219e-06
1.08143e-05
-2.18406e-06
7.30377e-06
-1.79039e-06
4.72728e-06
-1.18577e-06
2.88141e-06
-4.92739e-07
1.55838e-06
2.70976e-07
4.03618e-07
1.03718e-06
-7.60334e-07
1.69172e-06
-1.90848e-06
2.31641e-06
-3.10769e-06
2.95121e-06
-4.38323e-06
3.60225e-06
-5.68315e-06
4.2682e-06
-6.92496e-06
4.94652e-06
-8.03406e-06
5.62956e-06
-8.96257e-06
6.30638e-06
-9.69188e-06
6.96767e-06
-1.02248e-05
7.60832e-06
-1.05772e-05
8.22735e-06
-1.07711e-05
8.82663e-06
-1.08303e-05
9.40923e-06
-1.07765e-05
9.97789e-06
-1.06278e-05
1.0534e-05
-1.03985e-05
1.10773e-05
-1.00995e-05
1.16056e-05
-9.73888e-06
1.21153e-05
-9.32335e-06
1.26019e-05
-8.8586e-06
1.30603e-05
-8.34998e-06
1.34855e-05
-7.80268e-06
1.38725e-05
-7.22186e-06
1.42167e-05
-6.61258e-06
1.4514e-05
-5.97979e-06
1.47606e-05
-5.32823e-06
1.49536e-05
-4.66247e-06
1.50909e-05
-3.98692e-06
1.51708e-05
-3.30584e-06
1.51928e-05
-2.62334e-06
1.51573e-05
-1.94339e-06
1.50655e-05
-1.26967e-06
1.49192e-05
-6.05536e-07
1.47195e-05
4.7852e-08
1.44685e-05
6.91283e-07
1.41686e-05
1.32184e-06
1.38219e-05
1.9393e-06
1.34302e-05
2.54178e-06
1.29951e-05
3.12606e-06
1.25183e-05
3.68688e-06
1.20013e-05
4.21643e-06
1.14467e-05
4.70456e-06
1.08581e-05
5.13973e-06
1.02413e-05
5.51068e-06
9.60382e-06
5.80858e-06
8.95551e-06
6.02904e-06
8.30774e-06
6.17302e-06
7.67267e-06
6.24599e-06
7.06224e-06
6.25467e-06
6.48641e-06
6.20529e-06
5.94756e-06
6.12265e-06
5.43352e-06
6.12111e-06
4.93301e-06
6.5686e-06
4.44821e-06
8.22946e-06
3.89796e-06
1.1391e-05
3.26543e-06
1.42704e-05
3.15859e-06
1.50029e-05
3.92171e-06
1.44669e-05
5.15698e-06
1.20639e-05
5.7043e-06
1.06666e-05
5.38885e-06
9.45035e-06
4.46149e-06
7.59449e-06
3.88573e-06
3.63695e-06
3.54874e-06
-2.3221e-06
2.84701e-06
-6.87143e-06
2.03817e-06
-8.92052e-06
1.43543e-06
-9.37139e-06
1.14604e-06
-9.39674e-06
1.13674e-06
-9.49892e-06
1.34142e-06
-9.70554e-06
1.70658e-06
-9.94545e-06
2.19376e-06
-1.01521e-05
2.77347e-06
-1.02683e-05
3.42044e-06
-1.02426e-05
4.10992e-06
-1.00264e-05
4.815e-06
-9.57418e-06
5.50452e-06
-8.84438e-06
6.14227e-06
-7.80571e-06
6.68702e-06
-6.44345e-06
7.09536e-06
-4.77045e-06
7.32746e-06
-2.83645e-06
7.35571e-06
-7.3146e-07