/*--------------------------------*- C++ -*----------------------------------*\
| =========                 |                                                 |
| \\      /  F ield         | OpenFOAM: The Open Source CFD Toolbox           |
|  \\    /   O peration     | Version:  4.1                                   |
|   \\  /    A nd           | Web:      www.OpenFOAM.org                      |
|    \\/     M anipulation  |                                                 |
\*---------------------------------------------------------------------------*/
FoamFile
{
    version     2.0;
    format      ascii;
    class       volScalarField;
    location    "1020";
    object      T;
}
// * * * * * * * * * * * * * * * * * * * * * * * * * * * * * * * * * * * * * //

dimensions      [0 0 0 1 0 0 0];

internalField   nonuniform List<scalar> 
5000
(
286.323
286.005
285.792
285.612
285.451
285.303
285.166
285.036
284.913
284.794
284.677
284.562
284.447
284.346
284.265
284.202
284.153
284.116
284.087
284.065
284.048
284.035
284.024
284.015
284.005
283.994
283.977
283.944
283.869
283.995
284.063
284.118
284.168
284.218
284.268
284.322
284.381
284.447
284.52
284.602
284.696
284.801
284.92
285.053
285.201
285.361
285.522
285.683
285.845
286.007
286.17
286.324
286.428
286.503
286.613
286.818
287.054
287.277
287.491
287.672
287.474
284.971
284.736
284.728
285.632
285.847
285.761
285.702
285.646
285.552
285.373
285.13
284.874
284.654
284.5
284.418
284.395
284.401
284.379
284.245
284.173
284.18
284.215
284.264
284.32
284.383
284.455
284.538
284.634
284.745
284.874
285.003
285.132
285.262
285.394
285.53
285.671
285.823
285.997
286.251
285.463
284.504
284.005
283.728
283.533
283.374
283.239
283.124
283.029
282.954
282.901
282.871
282.866
282.869
282.872
282.875
282.878
282.88
282.882
282.884
282.885
282.886
282.886
282.886
282.885
282.885
282.884
282.882
282.88
282.878
282.875
282.871
282.868
282.865
282.862
282.859
282.855
282.852
282.849
282.845
282.842
282.839
282.836
282.833
282.831
282.833
282.847
282.873
282.904
282.934
282.948
282.938
282.939
282.965
283.047
283.258
283.728
284.374
284.969
285.599
286.172
285.597
284.938
284.218
284.707
284.193
283.383
282.993
282.89
282.855
282.839
282.826
282.814
282.804
282.798
282.795
282.794
282.794
282.793
282.794
282.796
282.798
282.801
282.804
282.807
282.811
282.815
282.819
282.823
282.829
282.835
282.861
282.908
282.978
283.071
283.195
283.37
283.664
284.25
285.303
285.028
283.897
283.405
283.188
283.065
282.983
282.928
282.893
282.874
282.866
282.866
282.87
282.874
282.878
282.882
282.886
282.889
282.893
282.896
282.899
282.901
282.902
282.903
282.904
282.904
282.903
282.902
282.9
282.898
282.896
282.893
282.89
282.887
282.883
282.88
282.876
282.872
282.868
282.864
282.859
282.854
282.849
282.843
282.837
282.831
282.825
282.819
282.815
282.813
282.811
282.81
282.808
282.808
282.815
282.845
282.936
283.158
283.504
283.85
284.29
284.892
284.988
284.739
284.282
284.405
283.763
283.096
282.872
282.82
282.8
282.784
282.771
282.76
282.753
282.751
282.752
282.756
282.761
282.765
282.77
282.775
282.78
282.784
282.789
282.793
282.796
282.799
282.801
282.803
282.805
282.806
282.809
282.816
282.829
282.854
282.9
282.985
283.173
283.679
284.863
284.759
283.585
283.148
282.991
282.92
282.883
282.866
282.86
282.86
282.864
282.869
282.872
282.875
282.878
282.881
282.885
282.889
282.894
282.898
282.902
282.906
282.908
282.91
282.911
282.911
282.91
282.91
282.908
282.907
282.905
282.903
282.901
282.898
282.896
282.893
282.89
282.887
282.883
282.88
282.876
282.872
282.867
282.862
282.857
282.851
282.845
282.838
282.831
282.825
282.819
282.813
282.809
282.805
282.805
282.813
282.846
282.937
283.092
283.253
283.485
283.943
284.295
284.373
284.178
284.325
283.674
283.059
282.869
282.817
282.792
282.775
282.759
282.744
282.736
282.737
282.742
282.75
282.761
282.768
282.776
282.783
282.79
282.797
282.803
282.809
282.813
282.817
282.819
282.821
282.821
282.82
282.819
282.819
282.822
282.829
282.847
282.891
283.011
283.419
284.599
284.576
283.404
283.021
282.907
282.866
282.852
282.849
282.852
282.856
282.861
282.863
282.864
282.865
282.866
282.869
282.874
282.88
282.887
282.893
282.899
282.903
282.906
282.908
282.909
282.909
282.909
282.909
282.908
282.907
282.905
282.904
282.902
282.9
282.898
282.896
282.894
282.891
282.889
282.886
282.883
282.88
282.877
282.873
282.869
282.864
282.859
282.853
282.846
282.84
282.832
282.826
282.819
282.813
282.809
282.809
282.818
282.849
282.907
282.971
283.075
283.368
283.761
284.023
284.031
284.262
283.764
283.099
282.9
282.839
282.81
282.793
282.772
282.745
282.731
282.733
282.743
282.756
282.769
282.779
282.789
282.798
282.807
282.816
282.823
282.831
282.837
282.841
282.844
282.846
282.845
282.843
282.841
282.837
282.835
282.835
282.841
282.864
282.945
283.277
284.419
284.446
283.291
282.953
282.866
282.842
282.838
282.841
282.846
282.851
282.853
282.854
282.853
282.852
282.853
282.856
282.862
282.871
282.879
282.887
282.893
282.898
282.901
282.903
282.904
282.904
282.904
282.903
282.902
282.901
282.9
282.899
282.897
282.896
282.894
282.893
282.891
282.889
282.887
282.886
282.884
282.882
282.88
282.877
282.874
282.871
282.867
282.863
282.857
282.851
282.844
282.837
282.83
282.823
282.817
282.812
282.811
282.819
282.837
282.859
282.902
283.072
283.411
283.742
283.881
284.16
283.914
283.235
282.964
282.89
282.859
282.842
282.813
282.761
282.732
282.735
282.748
282.764
282.779
282.791
282.802
282.813
282.823
282.833
282.842
282.851
282.858
282.865
282.869
282.872
282.872
282.869
282.865
282.86
282.853
282.848
282.847
282.859
282.915
283.19
284.288
284.349
283.218
282.915
282.845
282.828
282.828
282.833
282.839
282.843
282.845
282.845
282.843
282.841
282.841
282.845
282.853
282.864
282.874
282.883
282.889
282.893
282.895
282.896
282.897
282.897
282.896
282.895
282.894
282.893
282.892
282.891
282.889
282.888
282.887
282.885
282.884
282.883
282.882
282.881
282.88
282.879
282.877
282.876
282.875
282.873
282.871
282.867
282.863
282.859
282.853
282.846
282.839
282.832
282.825
282.818
282.814
282.812
282.815
282.82
282.838
282.935
283.198
283.533
283.743
284.042
283.984
283.476
283.106
282.978
282.944
282.926
282.889
282.793
282.739
282.738
282.755
282.773
282.788
282.801
282.813
282.824
282.835
282.846
282.857
282.868
282.877
282.885
282.892
282.895
282.896
282.894
282.89
282.883
282.874
282.865
282.859
282.862
282.901
283.133
284.187
284.275
283.17
282.895
282.833
282.819
282.82
282.825
282.83
282.835
282.837
282.836
282.834
282.832
282.832
282.837
282.848
282.86
282.871
282.879
282.884
282.888
282.889
282.89
282.89
282.889
282.888
282.886
282.885
282.883
282.882
282.881
282.879
282.878
282.877
282.876
282.875
282.874
282.873
282.873
282.873
282.872
282.872
282.872
282.872
282.871
282.87
282.868
282.866
282.863
282.858
282.853
282.847
282.84
282.832
282.825
282.819
282.814
282.81
282.809
282.816
282.875
283.074
283.384
283.628
283.925
283.994
283.655
283.328
283.153
283.087
283.047
283.008
282.841
282.75
282.742
282.76
282.779
282.795
282.808
282.82
282.832
282.844
282.856
282.869
282.881
282.893
282.903
282.911
282.917
282.919
282.918
282.913
282.905
282.894
282.882
282.872
282.868
282.896
283.095
284.107
284.216
283.141
282.887
282.828
282.812
282.811
282.815
282.82
282.824
282.827
282.827
282.825
282.823
282.825
282.834
282.847
282.859
282.87
282.877
282.881
282.883
282.884
282.883
282.882
282.881
282.879
282.877
282.875
282.873
282.871
282.87
282.868
282.867
282.866
282.865
282.864
282.864
282.863
282.863
282.863
282.864
282.864
282.865
282.866
282.866
282.867
282.866
282.865
282.864
282.861
282.857
282.852
282.846
282.839
282.831
282.824
282.818
282.812
282.808
282.81
282.849
283.002
283.28
283.536
283.818
283.964
283.764
283.51
283.34
283.277
283.373
283.158
282.902
282.766
282.747
282.765
282.784
282.799
282.811
282.824
282.836
282.849
282.863
282.878
282.893
282.907
282.92
282.93
282.937
282.941
282.94
282.935
282.927
282.914
282.9
282.885
282.877
282.895
283.068
284.04
284.17
283.125
282.887
282.827
282.806
282.801
282.803
282.807
282.811
282.814
282.813
282.813
282.815
282.822
282.835
282.849
282.861
282.87
282.876
282.878
282.879
282.878
282.877
282.874
282.872
282.87
282.867
282.865
282.862
282.86
282.858
282.857
282.855
282.854
282.853
282.852
282.852
282.852
282.853
282.853
282.854
282.855
282.857
282.858
282.86
282.861
282.862
282.863
282.863
282.861
282.859
282.855
282.85
282.844
282.837
282.83
282.823
282.816
282.81
282.809
282.837
282.96
283.209
283.468
283.729
283.912
283.808
283.629
283.487
283.422
283.462
283.304
282.967
282.785
282.753
282.769
282.786
282.8
282.812
282.825
282.838
282.852
282.869
282.886
282.904
282.921
282.936
282.949
282.957
282.962
282.962
282.957
282.948
282.934
282.917
282.899
282.886
282.897
283.048
283.984
284.134
283.12
282.896
282.832
282.803
282.792
282.79
282.792
282.796
282.798
282.798
282.801
282.809
282.823
282.839
282.854
282.865
282.871
282.874
282.874
282.873
282.872
282.869
282.866
282.863
282.86
282.858
282.855
282.852
282.849
282.847
282.845
282.843
282.842
282.841
282.841
282.841
282.841
282.841
282.842
282.844
282.846
282.848
282.85
282.852
282.855
282.857
282.859
282.86
282.86
282.859
282.857
282.853
282.848
282.842
282.835
282.827
282.82
282.814
282.812
282.833
282.936
283.164
283.422
283.663
283.851
283.798
283.679
283.574
283.517
283.519
283.319
282.986
282.799
282.759
282.772
282.788
282.8
282.811
282.824
282.838
282.855
282.874
282.894
282.915
282.935
282.953
282.968
282.978
282.983
282.983
282.978
282.968
282.953
282.934
282.913
282.896
282.9
283.034
283.937
284.108
283.126
282.913
282.844
282.806
282.785
282.778
282.778
282.781
282.782
282.786
282.796
282.812
282.831
282.848
282.861
282.868
282.871
282.871
282.869
282.867
282.865
282.862
282.858
282.855
282.851
282.848
282.845
282.841
282.838
282.836
282.834
282.832
282.83
282.829
282.829
282.829
282.829
282.83
282.831
282.833
282.835
282.838
282.841
282.844
282.847
282.85
282.854
282.856
282.858
282.858
282.857
282.855
282.851
282.845
282.839
282.831
282.824
282.817
282.815
282.833
282.924
283.138
283.397
283.619
283.785
283.736
283.665
283.603
283.57
283.541
283.264
282.945
282.79
282.761
282.773
282.787
282.798
282.809
282.822
282.838
282.857
282.879
282.902
282.926
282.95
282.97
282.987
282.999
283.005
283.005
282.999
282.988
282.971
282.95
282.926
282.906
282.905
283.025
283.897
284.091
283.143
282.94
282.866
282.817
282.786
282.772
282.769
282.769
282.773
282.783
282.801
282.824
282.845
282.859
282.866
282.868
282.868
282.866
282.863
282.861
282.858
282.854
282.851
282.847
282.843
282.839
282.835
282.831
282.827
282.825
282.822
282.82
282.819
282.818
282.817
282.817
282.818
282.819
282.82
282.822
282.825
282.828
282.831
282.835
282.839
282.844
282.848
282.852
282.855
282.857
282.857
282.856
282.853
282.848
282.842
282.835
282.827
282.82
282.818
282.836
282.921
283.128
283.392
283.597
283.712
283.626
283.603
283.595
283.596
283.506
283.144
282.872
282.77
282.761
282.774
282.785
282.794
282.805
282.819
282.838
282.86
282.885
282.911
282.939
282.965
282.988
283.007
283.02
283.027
283.027
283.02
283.007
282.988
282.965
282.939
282.916
282.91
283.018
283.862
284.085
283.17
282.977
282.897
282.838
282.795
282.772
282.764
282.764
282.771
282.791
282.818
282.843
282.859
282.866
282.867
282.865
282.862
282.859
282.857
282.854
282.851
282.847
282.843
282.839
282.834
282.829
282.824
282.82
282.817
282.813
282.811
282.809
282.807
282.806
282.806
282.806
282.807
282.808
282.809
282.812
282.814
282.818
282.822
282.826
282.831
282.836
282.842
282.847
282.851
282.854
282.856
282.856
282.854
282.85
282.844
282.838
282.83
282.823
282.822
282.841
282.925
283.132
283.408
283.587
283.625
283.481
283.521
283.578
283.61
283.381
282.989
282.8
282.754
282.761
282.772
282.78
282.789
282.801
282.817
282.838
282.863
282.891
282.921
282.951
282.98
283.006
283.027
283.041
283.048
283.048
283.04
283.025
283.005
282.979
282.95
282.925
282.916
283.014
283.834
284.09
283.207
283.022
282.935
282.861
282.805
282.774
282.761
282.761
282.779
282.812
282.843
282.862
282.867
282.866
282.862
282.858
282.855
282.853
282.851
282.849
282.845
282.841
282.836
282.83
282.825
282.819
282.814
282.81
282.806
282.803
282.8
282.798
282.797
282.796
282.796
282.796
282.797
282.798
282.799
282.802
282.804
282.808
282.812
282.817
282.823
282.829
282.835
282.842
282.847
282.852
282.855
282.856
282.855
282.852
282.847
282.84
282.832
282.826
282.826
282.849
282.936
283.153
283.445
283.574
283.521
283.341
283.456
283.57
283.61
283.164
282.848
282.753
282.749
282.761
282.768
282.774
282.783
282.797
282.815
282.838
282.866
282.897
282.93
282.964
282.995
283.023
283.046
283.061
283.068
283.068
283.059
283.042
283.019
282.991
282.961
282.933
282.921
283.012
283.81
284.104
283.252
283.07
282.967
282.874
282.807
282.77
282.756
282.764
282.802
282.844
282.866
282.87
282.866
282.859
282.854
282.851
282.849
282.849
282.847
282.845
282.84
282.835
282.828
282.822
282.815
282.809
282.804
282.799
282.796
282.793
282.791
282.79
282.788
282.788
282.788
282.788
282.788
282.789
282.791
282.793
282.796
282.799
282.804
282.809
282.815
282.822
282.829
282.837
282.843
282.849
282.853
282.855
282.855
282.853
282.848
282.842
282.834
282.828
282.832
282.861
282.956
283.206
283.483
283.538
283.405
283.256
283.408
283.549
283.565
282.945
282.76
282.737
282.75
282.758
282.762
282.767
282.777
282.793
282.813
282.839
282.869
282.903
282.939
282.975
283.009
283.039
283.062
283.078
283.086
283.085
283.075
283.057
283.032
283.002
282.97
282.94
282.927
283.012
283.79
284.127
283.303
283.113
282.983
282.869
282.797
282.76
282.751
282.783
282.841
282.873
282.876
282.867
282.856
282.848
282.845
282.845
282.846
282.846
282.845
282.841
282.835
282.828
282.82
282.812
282.805
282.799
282.794
282.79
282.787
282.785
282.784
282.783
282.782
282.782
282.781
282.781
282.782
282.782
282.784
282.785
282.788
282.791
282.796
282.802
282.808
282.816
282.824
282.832
282.84
282.847
282.852
282.855
282.856
282.854
282.849
282.843
282.834
282.83
282.839
282.877
282.996
283.28
283.502
283.476
283.293
283.208
283.344
283.464
283.435
282.798
282.727
282.739
282.748
282.751
282.754
282.76
282.771
282.789
282.812
282.84
282.872
282.908
282.947
282.985
283.021
283.052
283.077
283.092
283.1
283.1
283.089
283.069
283.042
283.01
282.977
282.947
282.932
283.013
283.775
284.157
283.356
283.143
282.973
282.848
282.777
282.748
282.754
282.826
282.881
282.886
282.87
282.853
282.842
282.839
282.84
282.843
282.846
282.845
282.842
282.836
282.828
282.819
282.81
282.802
282.795
282.789
282.785
282.783
282.781
282.78
282.779
282.779
282.778
282.778
282.778
282.778
282.778
282.778
282.779
282.78
282.782
282.785
282.79
282.795
282.802
282.81
282.819
282.828
282.837
282.845
282.851
282.855
282.856
282.854
282.85
282.843
282.835
282.832
282.849
282.9
283.072
283.345
283.498
283.395
283.196
283.14
283.227
283.29
283.202
282.72
282.727
282.739
282.742
282.742
282.744
282.752
282.765
282.785
282.81
282.84
282.875
282.913
282.953
282.993
283.031
283.063
283.087
283.103
283.111
283.111
283.099
283.078
283.049
283.017
282.983
282.952
282.937
283.015
283.763
284.193
283.406
283.147
282.941
282.815
282.755
282.739
282.782
282.886
282.902
282.877
282.851
282.836
282.831
282.834
282.839
282.845
282.847
282.845
282.839
282.83
282.82
282.81
282.8
282.792
282.786
282.782
282.779
282.778
282.777
282.777
282.777
282.777
282.777
282.777
282.776
282.776
282.776
282.776
282.776
282.776
282.778
282.781
282.785
282.79
282.797
282.805
282.815
282.825
282.834
282.843
282.85
282.855
282.856
282.855
282.851
282.843
282.834
282.837
282.867
282.95
283.158
283.394
283.472
283.308
283.107
283.043
283.067
283.058
282.931
282.716
282.729
282.733
282.732
282.731
282.734
282.743
282.759
282.78
282.807
282.839
282.876
282.916
282.958
282.999
283.038
283.07
283.095
283.109
283.116
283.117
283.106
283.083
283.054
283.021
282.987
282.957
282.942
283.019
283.754
284.231
283.449
283.119
282.894
282.78
282.738
282.735
282.86
282.928
282.893
282.854
282.83
282.822
282.826
282.834
282.843
282.848
282.848
282.843
282.834
282.823
282.811
282.8
282.79
282.783
282.778
282.776
282.775
282.775
282.776
282.777
282.778
282.778
282.778
282.777
282.777
282.776
282.775
282.774
282.774
282.774
282.775
282.777
282.781
282.786
282.793
282.802
282.812
282.822
282.833
282.842
282.85
282.855
282.857
282.855
282.851
282.842
282.834
282.847
282.897
283.028
283.236
283.424
283.431
283.223
283.025
282.94
282.914
282.862
282.768
282.719
282.725
282.724
282.721
282.72
282.724
282.734
282.751
282.774
282.803
282.837
282.875
282.917
282.96
283.003
283.042
283.076
283.099
283.113
283.117
283.116
283.107
283.086
283.056
283.023
282.99
282.961
282.947
283.023
283.747
284.269
283.479
283.065
282.841
282.751
282.729
282.746
282.966
282.924
282.864
282.827
282.813
282.816
282.827
282.839
282.848
282.851
282.848
282.839
282.827
282.814
282.801
282.79
282.781
282.776
282.773
282.773
282.774
282.776
282.778
282.779
282.78
282.78
282.779
282.778
282.777
282.776
282.775
282.774
282.773
282.773
282.773
282.775
282.778
282.783
282.79
282.799
282.81
282.821
282.832
282.843
282.851
282.856
282.858
282.856
282.85
282.84
282.836
282.867
282.957
283.112
283.303
283.437
283.381
283.147
282.955
282.856
282.808
282.758
282.72
282.716
282.716
282.712
282.708
282.707
282.713
282.725
282.743
282.767
282.797
282.832
282.872
282.914
282.959
283.004
283.044
283.078
283.102
283.114
283.116
283.113
283.105
283.086
283.057
283.025
282.993
282.965
282.952
283.028
283.743
284.307
283.492
282.997
282.793
282.733
282.733
282.82
282.984
282.889
282.829
282.804
282.803
282.816
282.833
282.846
282.853
282.852
282.845
282.833
282.819
282.805
282.791
282.781
282.774
282.771
282.771
282.773
282.776
282.778
282.781
282.782
282.782
282.782
282.781
282.779
282.777
282.775
282.773
282.772
282.772
282.771
282.772
282.773
282.776
282.781
282.789
282.798
282.809
282.821
282.833
282.844
282.852
282.857
282.859
282.856
282.849
282.838
282.845
282.914
283.038
283.193
283.356
283.436
283.329
283.084
282.901
282.798
282.75
282.718
282.707
282.708
282.704
282.698
282.694
282.695
282.701
282.715
282.734
282.759
282.789
282.825
282.865
282.909
282.955
283.001
283.044
283.079
283.103
283.115
283.115
283.11
283.101
283.083
283.057
283.026
282.996
282.969
282.957
283.034
283.741
284.342
283.484
282.929
282.758
282.73
282.777
283.011
282.936
282.844
282.799
282.789
282.801
282.822
282.841
282.853
282.856
282.851
282.841
282.827
282.811
282.795
282.783
282.774
282.77
282.769
282.771
282.775
282.779
282.782
282.784
282.785
282.785
282.783
282.781
282.778
282.775
282.772
282.77
282.77
282.769
282.769
282.77
282.772
282.775
282.78
282.788
282.798
282.809
282.822
282.835
282.846
282.854
282.859
282.859
282.855
282.846
282.839
282.876
282.991
283.121
283.265
283.395
283.425
283.279
283.033
282.86
282.762
282.721
282.703
282.699
282.696
282.69
282.683
282.679
282.681
282.689
282.703
282.723
282.749
282.78
282.815
282.856
282.901
282.948
282.996
283.04
283.077
283.104
283.116
283.115
283.106
283.096
283.08
283.056
283.027
282.999
282.974
282.963
283.04
283.74
284.375
283.457
282.87
282.738
282.756
282.88
283.09
282.885
282.804
282.776
282.783
282.806
282.832
282.85
282.857
282.856
282.848
282.835
282.819
282.802
282.787
282.775
282.769
282.767
282.769
282.774
282.779
282.783
282.786
282.788
282.787
282.786
282.783
282.779
282.775
282.771
282.767
282.765
282.765
282.765
282.766
282.768
282.77
282.774
282.78
282.788
282.799
282.811
282.825
282.838
282.849
282.857
282.86
282.86
282.854
282.844
282.853
282.943
283.074
283.2
283.327
283.422
283.407
283.232
282.991
282.83
282.738
282.705
282.692
282.688
282.683
282.675
282.668
282.665
282.668
282.677
282.691
282.712
282.737
282.768
282.803
282.844
282.889
282.938
282.987
283.034
283.074
283.103
283.118
283.117
283.106
283.092
283.077
283.055
283.029
283.003
282.98
282.969
283.047
283.74
284.407
283.415
282.826
282.74
282.806
282.954
283.009
282.835
282.771
282.763
282.784
282.816
282.842
282.856
282.859
282.855
282.845
282.83
282.812
282.794
282.779
282.769
282.765
282.767
282.771
282.777
282.783
282.787
282.789
282.79
282.788
282.785
282.781
282.776
282.77
282.765
282.761
282.759
282.759
282.76
282.763
282.765
282.769
282.774
282.78
282.79
282.801
282.814
282.828
282.842
282.852
282.859
282.862
282.859
282.852
282.85
282.898
283.023
283.156
283.272
283.379
283.439
283.384
283.188
282.956
282.805
282.72
282.693
282.682
282.676
282.667
282.659
282.652
282.65
282.654
282.664
282.679
282.699
282.724
282.754
282.789
282.83
282.875
282.924
282.974
283.024
283.067
283.101
283.119
283.121
283.108
283.09
283.074
283.054
283.031
283.007
282.986
282.977
283.053
283.74
284.439
283.363
282.797
282.761
282.868
283.012
282.921
282.791
282.748
282.758
282.791
282.826
282.849
282.859
282.859
282.853
282.841
282.824
282.805
282.787
282.773
282.765
282.764
282.768
282.774
282.781
282.786
282.79
282.791
282.791
282.788
282.784
282.779
282.773
282.766
282.759
282.754
282.751
282.752
282.755
282.759
282.763
282.768
282.774
282.782
282.793
282.805
282.819
282.833
282.847
282.856
282.862
282.862
282.858
282.853
282.874
282.963
283.104
283.232
283.335
283.419
283.446
283.357
283.147
282.925
282.784
282.706
282.682
282.67
282.661
282.651
282.642
282.636
282.635
282.64
282.651
282.666
282.686
282.71
282.739
282.773
282.812
282.857
282.906
282.958
283.01
283.058
283.096
283.121
283.127
283.115
283.092
283.073
283.054
283.033
283.011
282.992
282.985
283.06
283.742
284.473
283.31
282.782
282.8
282.941
283.084
282.864
282.758
282.734
282.759
282.801
282.836
282.854
282.859
282.858
282.85
282.837
282.819
282.799
282.781
282.768
282.763
282.764
282.77
282.777
282.784
282.789
282.792
282.792
282.791
282.788
282.783
282.777
282.77
282.762
282.755
282.748
282.744
282.745
282.75
282.756
282.762
282.769
282.776
282.786
282.798
282.811
282.826
282.84
282.852
282.86
282.863
282.862
282.858
282.865
282.916
283.035
283.18
283.299
283.388
283.449
283.445
283.327
283.107
282.897
282.765
282.693
282.67
282.657
282.646
282.635
282.625
282.621
282.621
282.627
282.638
282.653
282.672
282.695
282.723
282.755
282.793
282.837
282.886
282.938
282.992
283.044
283.089
283.12
283.133
283.125
283.1
283.075
283.055
283.035
283.016
282.999
282.993
283.067
283.743
284.51
283.26
282.781
282.854
283.018
283.146
282.829
282.735
282.726
282.764
282.811
282.842
282.855
282.858
282.856
282.849
282.834
282.815
282.794
282.776
282.765
282.762
282.765
282.773
282.78
282.787
282.791
282.793
282.793
282.791
282.787
282.782
282.776
282.769
282.761
282.753
282.745
282.74
282.74
282.749
282.757
282.764
282.772
282.781
282.792
282.805
282.819
282.833
282.846
282.856
282.863
282.864
282.861
282.862
282.887
282.967
283.104
283.246
283.355
283.431
283.469
283.435
283.293
283.068
282.87
282.746
282.681
282.658
282.644
282.63
282.618
282.609
282.606
282.607
282.614
282.625
282.64
282.659
282.681
282.707
282.737
282.773
282.815
282.862
282.915
282.971
283.026
283.077
283.116
283.139
283.139
283.116
283.082
283.058
283.038
283.021
283.006
283.001
283.073
283.745
284.55
283.218
282.794
282.908
283.058
283.06
282.803
282.718
282.724
282.771
282.818
282.843
282.853
282.857
282.856
282.848
282.832
282.811
282.789
282.772
282.763
282.762
282.767
282.775
282.782
282.788
282.792
282.793
282.793
282.791
282.788
282.783
282.777
282.77
282.763
282.755
282.748
282.744
282.745
282.753
282.761
282.77
282.778
282.788
282.8
282.813
282.827
282.84
282.852
282.86
282.864
282.864
282.863
282.872
282.917
283.019
283.163
283.301
283.4
283.462
283.478
283.418
283.255
283.029
282.844
282.728
282.668
282.645
282.629
282.614
282.602
282.594
282.591
282.594
282.602
282.614
282.629
282.647
282.667
282.691
282.719
282.752
282.791
282.837
282.888
282.945
283.003
283.059
283.107
283.141
283.152
283.136
283.098
283.064
283.042
283.026
283.012
283.009
283.08
283.748
284.591
283.189
282.818
282.957
283.082
282.986
282.777
282.704
282.723
282.777
282.82
282.841
282.851
282.856
282.856
282.847
282.83
282.808
282.786
282.769
282.762
282.762
282.768
282.776
282.783
282.789
282.792
282.794
282.794
282.792
282.789
282.785
282.781
282.775
282.769
282.762
282.758
282.755
282.757
282.763
282.77
282.778
282.787
282.798
282.81
282.822
282.835
282.847
282.857
282.863
282.865
282.864
282.866
282.887
282.949
283.065
283.211
283.342
283.433
283.481
283.477
283.393
283.214
282.991
282.819
282.71
282.656
282.632
282.615
282.599
282.586
282.579
282.578
282.582
282.592
282.604
282.62
282.637
282.656
282.677
282.702
282.732
282.767
282.81
282.859
282.915
282.975
283.035
283.091
283.136
283.161
283.159
283.126
283.078
283.049
283.031
283.019
283.017
283.09
283.75
284.627
283.178
282.848
283.002
283.115
282.953
282.754
282.694
282.725
282.78
282.818
282.837
282.848
282.856
282.857
282.848
282.83
282.806
282.784
282.768
282.762
282.763
282.769
282.777
282.783
282.788
282.792
282.794
282.794
282.794
282.792
282.789
282.786
282.781
282.777
282.773
282.77
282.769
282.771
282.775
282.781
282.789
282.798
282.809
282.82
282.832
282.843
282.853
282.86
282.864
282.865
282.865
282.872
282.903
282.978
283.1
283.243
283.368
283.452
283.487
283.465
283.36
283.17
282.955
282.795
282.694
282.643
282.619
282.6
282.584
282.572
282.566
282.566
282.572
282.583
282.596
282.612
282.629
282.647
282.666
282.688
282.713
282.745
282.783
282.829
282.883
282.942
283.005
283.068
283.124
283.164
283.179
283.159
283.105
283.063
283.039
283.026
283.026
283.104
283.753
284.653
283.19
282.883
283.045
283.152
282.928
282.73
282.685
282.726
282.78
282.813
282.831
282.846
282.856
282.859
282.849
282.83
282.806
282.784
282.769
282.763
282.764
282.769
282.776
282.783
282.788
282.792
282.794
282.795
282.796
282.795
282.794
282.792
282.789
282.787
282.784
282.783
282.783
282.785
282.788
282.794
282.802
282.81
282.82
282.83
282.84
282.85
282.858
282.863
282.865
282.864
282.866
282.878
282.917
282.999
283.122
283.26
283.379
283.456
283.48
283.441
283.32
283.124
282.92
282.772
282.678
282.631
282.606
282.586
282.57
282.558
282.553
282.555
282.563
282.575
282.591
282.607
282.624
282.641
282.658
282.676
282.698
282.725
282.758
282.8
282.849
282.906
282.969
283.036
283.101
283.156
283.191
283.193
283.152
283.088
283.053
283.037
283.039
283.126
283.755
284.669
283.223
282.921
283.083
283.173
282.89
282.704
282.679
282.726
282.775
282.805
282.825
282.844
282.858
282.861
282.851
282.831
282.807
282.785
282.77
282.764
282.764
282.769
282.775
282.781
282.787
282.791
282.794
282.796
282.798
282.799
282.799
282.798
282.798
282.797
282.796
282.796
282.797
282.799
282.802
282.807
282.814
282.822
282.83
282.839
282.848
282.855
282.861
282.864
282.864
282.864
282.867
282.883
282.928
283.011
283.13
283.261
283.374
283.445
283.46
283.408
283.275
283.079
282.888
282.751
282.664
282.619
282.593
282.573
282.557
282.546
282.542
282.546
282.555
282.57
282.587
282.605
282.622
282.639
282.654
282.669
282.687
282.708
282.736
282.772
282.816
282.869
282.93
282.997
283.068
283.136
283.191
283.218
283.202
283.135
283.08
283.056
283.061
283.159
283.758
284.674
283.276
282.965
283.117
283.175
282.835
282.677
282.675
282.725
282.767
282.795
282.819
282.842
282.859
282.863
282.853
282.833
282.81
282.788
282.773
282.765
282.764
282.768
282.774
282.78
282.785
282.79
282.794
282.797
282.8
282.802
282.803
282.804
282.805
282.806
282.807
282.808
282.809
282.812
282.815
282.82
282.825
282.832
282.839
282.847
282.853
282.859
282.862
282.864
282.863
282.863
282.867
282.886
282.932
283.012
283.124
283.247
283.353
283.419
283.428
283.366
283.227
283.037
282.859
282.731
282.651
282.608
282.582
282.561
282.545
282.535
282.533
282.537
282.549
282.565
282.584
282.604
282.623
282.64
282.654
282.667
282.68
282.697
282.719
282.748
282.786
282.833
282.889
282.953
283.024
283.1
283.173
283.228
283.247
283.208
283.131
283.093
283.098
283.207
283.76
284.667
283.339
283.019
283.145
283.161
282.766
282.654
282.675
282.721
282.756
282.785
282.813
282.84
282.86
282.866
282.857
282.838
282.814
282.792
282.776
282.767
282.764
282.767
282.772
282.777
282.783
282.788
282.793
282.797
282.8
282.804
282.806
282.809
282.811
282.813
282.815
282.817
282.819
282.822
282.826
282.83
282.835
282.84
282.846
282.852
282.857
282.86
282.862
282.862
282.861
282.861
282.866
282.886
282.929
283.004
283.105
283.218
283.318
283.381
283.385
283.319
283.178
282.998
282.834
282.715
282.639
282.598
282.572
282.551
282.535
282.526
282.524
282.529
282.542
282.561
282.583
282.605
282.626
282.644
282.658
282.669
282.679
282.691
282.707
282.729
282.76
282.8
282.849
282.907
282.974
283.051
283.135
283.214
283.271
283.277
283.214
283.159
283.159
283.271
283.762
284.649
283.406
283.082
283.169
283.113
282.695
282.642
282.676
282.713
282.745
282.774
282.806
282.838
282.862
282.87
282.863
282.844
282.821
282.798
282.781
282.77
282.765
282.766
282.769
282.775
282.78
282.785
282.79
282.795
282.8
282.804
282.808
282.812
282.815
282.818
282.821
282.824
282.827
282.83
282.833
282.837
282.842
282.846
282.851
282.855
282.858
282.86
282.86
282.859
282.858
282.857
282.863
282.882
282.921
282.987
283.077
283.179
283.272
283.332
283.335
283.268
283.132
282.963
282.812
282.701
282.63
282.59
282.563
282.543
282.527
282.518
282.517
282.523
282.536
282.557
282.583
282.608
282.631
282.65
282.664
282.675
282.683
282.691
282.701
282.716
282.74
282.773
282.814
282.863
282.922
282.993
283.077
283.171
283.262
283.323
283.321
283.259
283.248
283.351
283.764
284.618
283.472
283.148
283.183
282.946
282.64
282.642
282.675
282.704
282.733
282.763
282.798
282.835
282.863
282.875
282.869
282.852
282.83
282.807
282.787
282.774
282.767
282.766
282.768
282.772
282.776
282.782
282.787
282.792
282.798
282.803
282.807
282.812
282.816
282.82
282.824
282.828
282.831
282.834
282.838
282.842
282.845
282.849
282.852
282.855
282.857
282.858
282.857
282.856
282.853
282.853
282.858
282.874
282.908
282.964
283.041
283.131
283.217
283.275
283.28
283.217
283.089
282.934
282.795
282.69
282.623
282.584
282.558
282.538
282.523
282.514
282.513
282.519
282.533
282.556
282.584
282.612
282.637
282.657
282.673
282.684
282.691
282.696
282.701
282.71
282.727
282.752
282.785
282.826
282.874