/*--------------------------------*- C++ -*----------------------------------*\
| =========                 |                                                 |
| \\      /  F ield         | OpenFOAM: The Open Source CFD Toolbox           |
|  \\    /   O peration     | Version:  4.1                                   |
|   \\  /    A nd           | Web:      www.OpenFOAM.org                      |
|    \\/     M anipulation  |                                                 |
\*---------------------------------------------------------------------------*/
FoamFile
{
    version     2.0;
    format      ascii;
    class       volVectorField;
    location    "1020";
    object      U;
}
// * * * * * * * * * * * * * * * * * * * * * * * * * * * * * * * * * * * * * //

dimensions      [0 1 -1 0 0 0 0];

internalField   nonuniform List<vector> 
5000
(
(-0.00420549 0.00295138 0)
(-0.005933 0.00132965 0)
(-0.00775674 0.000789703 0)
(-0.0090312 0.000605475 0)
(-0.0100796 0.000511649 0)
(-0.0109795 0.000444594 0)
(-0.011757 0.000385827 0)
(-0.0124174 0.00032776 0)
(-0.012956 0.000266121 0)
(-0.0133622 0.000198286 0)
(-0.0136219 0.000122311 0)
(-0.0137184 3.63796e-05 0)
(-0.0136341 -6.00282e-05 0)
(-0.0133612 -0.000161786 0)
(-0.0129052 -0.000259621 0)
(-0.0122845 -0.000346852 0)
(-0.011526 -0.000419814 0)
(-0.0106591 -0.000477699 0)
(-0.00971186 -0.000521684 0)
(-0.00870819 -0.000553822 0)
(-0.00766794 -0.000576306 0)
(-0.00660708 -0.000591131 0)
(-0.00553845 -0.000600157 0)
(-0.004472 -0.000605674 0)
(-0.00341505 -0.000610978 0)
(-0.00237097 -0.00062398 0)
(-0.00133773 -0.000660394 0)
(-0.00031518 -0.000753533 0)
(0.000946575 -0.000951123 0)
(0.00207363 -0.000685115 0)
(0.00299072 -0.000571046 0)
(0.00382276 -0.000492669 0)
(0.00459437 -0.000435807 0)
(0.00530334 -0.00039142 0)
(0.00595234 -0.000352602 0)
(0.00654569 -0.000316122 0)
(0.00708453 -0.000280688 0)
(0.0075679 -0.000245703 0)
(0.00799429 -0.00021089 0)
(0.00836226 -0.000176235 0)
(0.00867065 -0.000141952 0)
(0.00891884 -0.000108462 0)
(0.00910698 -7.63479e-05 0)
(0.00923633 -4.63192e-05 0)
(0.00930928 -1.91145e-05 0)
(0.00932927 4.64028e-06 0)
(0.00930327 2.58894e-05 0)
(0.0092358 4.39461e-05 0)
(0.00913272 5.70858e-05 0)
(0.00900561 6.07741e-05 0)
(0.00887768 4.62445e-05 0)
(0.00879179 1.95964e-06 0)
(0.00881286 -7.66147e-05 0)
(0.0089966 -0.000180474 0)
(0.0093454 -0.000256379 0)
(0.00974795 -0.000211742 0)
(0.00992646 2.97246e-05 0)
(0.00952515 0.000446252 0)
(0.00832872 0.000925256 0)
(0.00635736 0.00173768 0)
(0.00304083 0.00330482 0)
(-0.00307819 -1.82574e-06 0)
(-0.00286572 -0.00138198 0)
(-0.0022337 -0.00125102 0)
(-0.00364163 0.00158381 0)
(-0.00709007 0.00131483 0)
(-0.00805875 0.000403918 0)
(-0.00843356 0.000176584 0)
(-0.00864104 0.000190381 0)
(-0.00875918 0.000165475 0)
(-0.00866009 2.25445e-05 0)
(-0.00821012 -0.000210022 0)
(-0.00737152 -0.000461608 0)
(-0.00621175 -0.000664863 0)
(-0.00485971 -0.000780105 0)
(-0.00345265 -0.000801728 0)
(-0.00211032 -0.000748044 0)
(-0.000895659 -0.00068108 0)
(0.00033144 -0.000672677 0)
(0.00162376 -0.000802802 0)
(0.00281366 -0.000824354 0)
(0.00394318 -0.000739391 0)
(0.00499352 -0.000642153 0)
(0.00593463 -0.000551009 0)
(0.00675849 -0.000465381 0)
(0.00746389 -0.000382863 0)
(0.0080473 -0.000302086 0)
(0.00850303 -0.000222715 0)
(0.00882629 -0.000145615 0)
(0.00901599 -7.29642e-05 0)
(0.00907616 -8.11547e-06 0)
(0.00902015 4.75866e-05 0)
(0.00885943 9.49797e-05 0)
(0.00860675 0.000134378 0)
(0.00827474 0.0001673 0)
(0.00786962 0.000200697 0)
(0.00737284 0.000259668 0)
(0.00668576 0.000429858 0)
(0.00542793 0.00101034 0)
(0.00395214 0.00270073 0)
(-0.00365282 0.00641915 0)
(-0.00535463 0.00356745 0)
(-0.0074631 0.00229386 0)
(-0.00888439 0.00176963 0)
(-0.0100274 0.00147744 0)
(-0.0109768 0.00126214 0)
(-0.0117678 0.00107192 0)
(-0.0124111 0.000883718 0)
(-0.0129043 0.000684555 0)
(-0.0132376 0.00046696 0)
(-0.0133971 0.000226967 0)
(-0.0133648 -3.53422e-05 0)
(-0.0131264 -0.000313199 0)
(-0.0127067 -0.000589591 0)
(-0.0121137 -0.00084643 0)
(-0.01137 -0.00106815 0)
(-0.0105041 -0.00124702 0)
(-0.00954523 -0.00138292 0)
(-0.00851944 -0.00148052 0)
(-0.00744797 -0.00154602 0)
(-0.00634776 -0.00158543 0)
(-0.00523234 -0.00160403 0)
(-0.00411264 -0.00160659 0)
(-0.00299709 -0.00160024 0)
(-0.00189278 -0.00159034 0)
(-0.000799481 -0.00158812 0)
(0.000291813 -0.0016022 0)
(0.00139954 -0.00163735 0)
(0.0023026 -0.00167445 0)
(0.00313844 -0.00147742 0)
(0.00398459 -0.00132439 0)
(0.00480241 -0.00120137 0)
(0.00556668 -0.00110001 0)
(0.00627175 -0.00101126 0)
(0.00691872 -0.000927597 0)
(0.00750928 -0.000845144 0)
(0.00804378 -0.000762127 0)
(0.00852137 -0.000677598 0)
(0.00894071 -0.000591086 0)
(0.0093003 -0.000502583 0)
(0.00959872 -0.000412556 0)
(0.00983484 -0.00032196 0)
(0.0100082 -0.000232247 0)
(0.0101194 -0.000145423 0)
(0.0101707 -6.41659e-05 0)
(0.0101677 9.11207e-06 0)
(0.0101146 7.54068e-05 0)
(0.0100159 0.000133308 0)
(0.00987918 0.000178307 0)
(0.00971559 0.000199044 0)
(0.00954245 0.000173401 0)
(0.00938344 7.36019e-05 0)
(0.00925232 -0.000107721 0)
(0.00916023 -0.000333782 0)
(0.00911531 -0.00050542 0)
(0.00909732 -0.000415285 0)
(0.00897796 0.000154176 0)
(0.00857817 0.00109086 0)
(0.00784724 0.00203839 0)
(0.00702695 0.00326817 0)
(0.00584627 0.00505349 0)
(0.00412614 0.00444782 0)
(0.00205733 0.00287529 0)
(-0.00257599 0.000671697 0)
(-0.0045101 0.00391957 0)
(-0.00703717 0.0028548 0)
(-0.00819527 0.00110844 0)
(-0.00881843 0.000393289 0)
(-0.00901463 0.000155132 0)
(-0.00886304 -0.00011187 0)
(-0.00838807 -0.000537932 0)
(-0.0075973 -0.00105626 0)
(-0.00653101 -0.00154238 0)
(-0.00527493 -0.00188871 0)
(-0.00393326 -0.00205728 0)
(-0.00258737 -0.00207496 0)
(-0.00131018 -0.00199501 0)
(3.36497e-05 -0.00191206 0)
(0.00141104 -0.0018676 0)
(0.00252057 -0.00182463 0)
(0.00355922 -0.00173458 0)
(0.0045482 -0.00159092 0)
(0.0054904 -0.00143819 0)
(0.00637363 -0.00128483 0)
(0.00717955 -0.00112533 0)
(0.00789168 -0.000954821 0)
(0.00849532 -0.000771907 0)
(0.00897713 -0.000578233 0)
(0.00932619 -0.000378301 0)
(0.00953587 -0.000179542 0)
(0.00960696 7.35067e-06 0)
(0.00953782 0.000179291 0)
(0.00933526 0.000334148 0)
(0.0090069 0.00047105 0)
(0.00855931 0.00059446 0)
(0.00799226 0.000724236 0)
(0.00728262 0.000927206 0)
(0.00634513 0.00141707 0)
(0.00477438 0.00282375 0)
(0.00338195 0.00594269 0)
(-0.00299944 0.0100168 0)
(-0.00425991 0.00590629 0)
(-0.00622397 0.00391842 0)
(-0.00754375 0.0030325 0)
(-0.00863645 0.00251012 0)
(-0.00954252 0.00211746 0)
(-0.0102902 0.00176937 0)
(-0.0108879 0.00142562 0)
(-0.0113321 0.00106321 0)
(-0.0116137 0.000669238 0)
(-0.0117176 0.000239313 0)
(-0.0116246 -0.000220525 0)
(-0.0113359 -0.000691639 0)
(-0.0108607 -0.00114934 0)
(-0.0102124 -0.00156843 0)
(-0.0094201 -0.00192472 0)
(-0.00851746 -0.00220694 0)
(-0.00753553 -0.00241738 0)
(-0.00649887 -0.00256602 0)
(-0.00542627 -0.00266404 0)
(-0.00433234 -0.0027219 0)
(-0.00322951 -0.00274998 0)
(-0.00212859 -0.00275538 0)
(-0.00103334 -0.00274824 0)
(4.15088e-05 -0.00273212 0)
(0.00114194 -0.00269937 0)
(0.00212554 -0.00264946 0)
(0.00301581 -0.00257233 0)
(0.00382408 -0.00246367 0)
(0.00459086 -0.00229652 0)
(0.00534296 -0.00212471 0)
(0.0060704 -0.0019656 0)
(0.00675558 -0.00181808 0)
(0.0073902 -0.00167744 0)
(0.00797198 -0.00153958 0)
(0.00850044 -0.00140176 0)
(0.00897517 -0.00126224 0)
(0.00939549 -0.00111987 0)
(0.00976047 -0.000974054 0)
(0.0100691 -0.000824732 0)
(0.0103202 -0.000672513 0)
(0.010513 -0.000518713 0)
(0.0106465 -0.00036544 0)
(0.0107207 -0.000215687 0)
(0.0107349 -7.35374e-05 0)
(0.010692 5.73945e-05 0)
(0.0105929 0.000175485 0)
(0.0104438 0.000278057 0)
(0.0102526 0.000359078 0)
(0.0100267 0.00040661 0)
(0.0097683 0.000400827 0)
(0.00946861 0.000321187 0)
(0.00911405 0.00016568 0)
(0.0086909 -3.80673e-05 0)
(0.00819148 -0.000192723 0)
(0.00765192 -7.24134e-05 0)
(0.00720643 0.000573484 0)
(0.00687272 0.00162903 0)
(0.00659201 0.00263412 0)
(0.00651951 0.00387113 0)
(0.00649574 0.00567649 0)
(0.00590463 0.0059703 0)
(0.00439287 0.00534899 0)
(0.00156788 0.00415725 0)
(-0.00292048 0.00668964 0)
(-0.0051629 0.00492418 0)
(-0.00667972 0.00228202 0)
(-0.00773266 0.000973023 0)
(-0.00828517 0.000278861 0)
(-0.00835056 -0.000384609 0)
(-0.00798009 -0.00117596 0)
(-0.0072158 -0.00203383 0)
(-0.00610695 -0.00278332 0)
(-0.0047842 -0.0032595 0)
(-0.00340735 -0.00344391 0)
(-0.00207626 -0.00343052 0)
(-0.000864021 -0.00332494 0)
(0.000493588 -0.00317713 0)
(0.00156743 -0.00303601 0)
(0.00261135 -0.00288114 0)
(0.00360545 -0.0027235 0)
(0.00455279 -0.00254888 0)
(0.00545738 -0.00235595 0)
(0.00631132 -0.00214286 0)
(0.00709771 -0.00190431 0)
(0.00779737 -0.00163617 0)
(0.0083919 -0.00133826 0)
(0.00886438 -0.00101482 0)
(0.00920043 -0.000674181 0)
(0.00938907 -0.00032835 0)
(0.0094244 7.74766e-06 0)
(0.00929932 0.000330037 0)
(0.00901515 0.000632591 0)
(0.00857573 0.000912945 0)
(0.00798387 0.00117782 0)
(0.00723809 0.0014567 0)
(0.00632668 0.00184379 0)
(0.00523689 0.00263584 0)
(0.00366046 0.00474115 0)
(0.002709 0.00921216 0)
(-0.00249879 0.0130808 0)
(-0.00339865 0.00790854 0)
(-0.00512768 0.00537155 0)
(-0.00625686 0.00419553 0)
(-0.00723657 0.00347118 0)
(-0.00805541 0.00291419 0)
(-0.00872922 0.00241613 0)
(-0.00925994 0.00192353 0)
(-0.00964205 0.00140497 0)
(-0.00986604 0.000842573 0)
(-0.0099168 0.000231655 0)
(-0.00977095 -0.000418438 0)
(-0.00943969 -0.0010817 0)
(-0.00892193 -0.00172162 0)
(-0.00823383 -0.00229987 0)
(-0.00741002 -0.00278131 0)
(-0.00648888 -0.00315305 0)
(-0.005502 -0.00342406 0)
(-0.00447056 -0.00361303 0)
(-0.00341101 -0.00373744 0)
(-0.00233552 -0.00381184 0)
(-0.001254 -0.00384857 0)
(-0.000183537 -0.00385264 0)
(0.000913659 -0.00381938 0)
(0.00192239 -0.00375197 0)
(0.00285623 -0.00365222 0)
(0.00373535 -0.00352525 0)
(0.00456144 -0.00338049 0)
(0.00533455 -0.00321614 0)
(0.00606458 -0.00302665 0)
(0.00676143 -0.00282623 0)
(0.00742317 -0.00262753 0)
(0.0080415 -0.00243343 0)
(0.00861034 -0.00224257 0)
(0.00912701 -0.00205288 0)
(0.00959064 -0.00186245 0)
(0.0100009 -0.0016698 0)
(0.0103575 -0.00147378 0)
(0.0106602 -0.00127371 0)
(0.0109088 -0.00106946 0)
(0.0111027 -0.000861607 0)
(0.0112416 -0.000651507 0)
(0.0113251 -0.00044143 0)
(0.0113526 -0.000234573 0)
(0.0113231 -3.56222e-05 0)
(0.0112402 0.000151648 0)
(0.0111016 0.000323027 0)
(0.01091 0.000473886 0)
(0.0106692 0.00059757 0)
(0.0103821 0.000684943 0)
(0.0100475 0.000725115 0)
(0.00965709 0.000710127 0)
(0.00919527 0.000643128 0)
(0.00864041 0.000543535 0)
(0.00797802 0.000476324 0)
(0.0072418 0.00058553 0)
(0.00656648 0.00107821 0)
(0.0061127 0.0019244 0)
(0.0058973 0.00273525 0)
(0.00595118 0.00372044 0)
(0.00626485 0.00547557 0)
(0.00624088 0.0067643 0)
(0.00529435 0.0072908 0)
(0.00338711 0.00697029 0)
(-0.00036565 0.00949455 0)
(-0.00300698 0.007399 0)
(-0.00509275 0.00387427 0)
(-0.00660711 0.00196016 0)
(-0.00748121 0.000739205 0)
(-0.00778357 -0.000414735 0)
(-0.0075685 -0.00165898 0)
(-0.00688868 -0.00295174 0)
(-0.00578023 -0.00404028 0)
(-0.00441813 -0.0046504 0)
(-0.0030345 -0.00480729 0)
(-0.00175306 -0.00471573 0)
(-0.000603425 -0.00453324 0)
(0.00060369 -0.00428608 0)
(0.00156886 -0.004065 0)
(0.00255212 -0.00386123 0)
(0.00350404 -0.00366492 0)
(0.00442332 -0.00345645 0)
(0.0053087 -0.0032212 0)
(0.00614993 -0.00294968 0)
(0.00692931 -0.0026342 0)
(0.00762582 -0.00226995 0)
(0.00821815 -0.0018571 0)
(0.00868627 -0.00140161 0)
(0.00901283 -0.000914951 0)
(0.00918463 -0.000412842 0)
(0.00919272 8.76605e-05 0)
(0.00902996 0.000575494 0)
(0.00869436 0.00104234 0)
(0.00818597 0.00148529 0)
(0.0075057 0.00191195 0)
(0.0066543 0.00235445 0)
(0.00563177 0.00291149 0)
(0.0044792 0.0039 0)
(0.00292027 0.00641353 0)
(0.00221953 0.0119145 0)
(-0.00212275 0.0155449 0)
(-0.00276353 0.0095168 0)
(-0.00426838 0.00658616 0)
(-0.00518061 0.0051955 0)
(-0.0059997 0.0043055 0)
(-0.00667778 0.00360292 0)
(-0.00722806 0.00296537 0)
(-0.00765031 0.00233075 0)
(-0.00794 0.00166177 0)
(-0.00808869 0.000936752 0)
(-0.00807919 0.000151329 0)
(-0.00787963 -0.000680723 0)
(-0.00751112 -0.00152742 0)
(-0.00695852 -0.00234521 0)
(-0.00624208 -0.00307691 0)
(-0.00540614 -0.00367051 0)
(-0.0044894 -0.00411568 0)
(-0.00352119 -0.00443444 0)
(-0.00251485 -0.00465771 0)
(-0.00148629 -0.00480585 0)
(-0.000444842 -0.00489261 0)
(0.000620224 -0.00492076 0)
(0.00164606 -0.00488904 0)
(0.00260188 -0.00480576 0)
(0.0035223 -0.00468132 0)
(0.00440536 -0.00452886 0)
(0.00524588 -0.00435414 0)
(0.00604002 -0.00416079 0)
(0.00678611 -0.0039496 0)
(0.00748617 -0.00372123 0)
(0.00814303 -0.00348194 0)
(0.00875589 -0.00323916 0)
(0.00932079 -0.00299652 0)
(0.00983393 -0.0027545 0)
(0.0102932 -0.00251228 0)
(0.0106978 -0.00226876 0)
(0.0110478 -0.0020228 0)
(0.0113433 -0.00177347 0)
(0.0115848 -0.00152013 0)
(0.0117727 -0.00126262 0)
(0.0119075 -0.00100143 0)
(0.0119895 -0.000737828 0)
(0.012019 -0.000474027 0)
(0.0119955 -0.000213253 0)
(0.011921 4.02384e-05 0)
(0.0117928 0.00028203 0)
(0.0116104 0.000507379 0)
(0.0113746 0.000710754 0)
(0.0110861 0.000885387 0)
(0.0107454 0.00102395 0)
(0.0103504 0.00111995 0)
(0.00989579 0.00117066 0)
(0.00937189 0.00118159 0)
(0.00876753 0.00117193 0)
(0.00807774 0.00118802 0)
(0.00732576 0.00131878 0)
(0.0066049 0.00168268 0)
(0.00606841 0.00226922 0)
(0.00577323 0.00283659 0)
(0.00569523 0.00353383 0)
(0.00592576 0.00511835 0)
(0.00612189 0.00711329 0)
(0.00563802 0.00867804 0)
(0.00433414 0.00930099 0)
(0.00189253 0.0118956 0)
(-0.000671874 0.0103413 0)
(-0.00335551 0.00590025 0)
(-0.00533594 0.00327407 0)
(-0.00655993 0.00143847 0)
(-0.00713913 -0.000272292 0)
(-0.00709251 -0.0020149 0)
(-0.0065281 -0.00381613 0)
(-0.0054645 -0.00532264 0)
(-0.0041034 -0.00606374 0)
(-0.00274574 -0.00614036 0)
(-0.00154064 -0.00592255 0)
(-0.000457424 -0.00561916 0)
(0.00058456 -0.00529747 0)
(0.00150688 -0.00503104 0)
(0.00243905 -0.0048004 0)
(0.00335513 -0.00458139 0)
(0.00425316 -0.00434829 0)
(0.00512733 -0.0040794 0)
(0.00596417 -0.00375812 0)
(0.006744 -0.00337242 0)
(0.00744365 -0.00291562 0)
(0.00803901 -0.00238793 0)
(0.00850698 -0.00179724 0)
(0.00882738 -0.00115869 0)
(0.0089851 -0.000492887 0)
(0.00897009 0.000178524 0)
(0.00877654 0.000842091 0)
(0.00840208 0.00148598 0)
(0.00784819 0.00210565 0)
(0.00711805 0.00270746 0)
(0.00621657 0.00332064 0)
(0.00514989 0.00403493 0)
(0.00399018 0.00514974 0)
(0.00245066 0.0078531 0)
(0.00186702 0.0140754 0)
(-0.00183124 0.0175618 0)
(-0.00228853 0.010815 0)
(-0.00360318 0.00757309 0)
(-0.00429985 0.00600355 0)
(-0.00492932 0.00496987 0)
(-0.00542345 0.00414013 0)
(-0.00580541 0.00338155 0)
(-0.0060787 0.0026253 0)
(-0.00624359 0.00182862 0)
(-0.0062944 0.000963906 0)
(-0.00620814 2.15396e-05 0)
(-0.00593892 -0.000982799 0)
(-0.00553024 -0.0020044 0)
(-0.0049449 -0.00299167 0)
(-0.00421651 -0.00386259 0)
(-0.00340092 -0.00454812 0)
(-0.00252077 -0.00505227 0)
(-0.00160151 -0.00541167 0)
(-0.000642906 -0.00566662 0)
(0.000340774 -0.00583115 0)
(0.00134111 -0.00590875 0)
(0.00228338 -0.00590549 0)
(0.00320999 -0.0058385 0)
(0.00411737 -0.00572092 0)
(0.00499875 -0.00556319 0)
(0.00584691 -0.00537309 0)
(0.00665563 -0.0051562 0)
(0.00742035 -0.00491686 0)
(0.00813824 -0.00465831 0)
(0.00880832 -0.00438374 0)
(0.00943033 -0.00409781 0)
(0.010003 -0.00380562 0)
(0.0105239 -0.00351062 0)
(0.0109904 -0.00321424 0)
(0.0114008 -0.00291667 0)
(0.0117545 -0.00261751 0)
(0.0120515 -0.00231616 0)
(0.0122924 -0.002012 0)
(0.0124782 -0.00170459 0)
(0.0126098 -0.00139382 0)
(0.0126884 -0.00108016 0)
(0.0127152 -0.000764744 0)
(0.012691 -0.000449637 0)
(0.0126158 -0.000138113 0)
(0.0124932 0.000167105 0)
(0.0123181 0.000461257 0)
(0.0120909 0.00073954 0)
(0.0118113 0.000995995 0)
(0.0114784 0.00122388 0)
(0.0110918 0.00141667 0)
(0.0106501 0.00156971 0)
(0.0101511 0.00168248 0)
(0.00959152 0.00176153 0)
(0.00896956 0.00182375 0)
(0.00828933 0.00190129 0)
(0.00757289 0.00204633 0)
(0.00688301 0.00231872 0)
(0.00632353 0.00270745 0)
(0.00594465 0.00308386 0)
(0.00571385 0.00356474 0)
(0.00573532 0.004889 0)
(0.00592877 0.00719289 0)
(0.00576148 0.00951416 0)
(0.00490558 0.0109142 0)
(0.00343209 0.013585 0)
(0.0016528 0.0132055 0)
(-0.00109009 0.00854517 0)
(-0.00368638 0.00493403 0)
(-0.00532553 0.00246981 0)
(-0.0062204 0.000153991 0)
(-0.00638934 -0.00218616 0)
(-0.00596165 -0.00457636 0)
(-0.00501361 -0.00658725 0)
(-0.00372661 -0.00746018 0)
(-0.00244188 -0.00741357 0)
(-0.00133786 -0.00703472 0)
(-0.000348632 -0.00660583 0)
(0.000578239 -0.00623185 0)
(0.00144998 -0.00594249 0)
(0.00233268 -0.00570095 0)
(0.00321515 -0.00547369 0)
(0.004094 -0.00522735 0)
(0.00495938 -0.00493305 0)
(0.00579452 -0.00456775 0)
(0.0065773 -0.00411495 0)
(0.00728222 -0.00356583 0)
(0.00788249 -0.00292049 0)
(0.00835212 -0.0021889 0)
(0.00866829 -0.00139033 0)
(0.00881431 -0.000551188 0)
(0.00877948 0.000301206 0)
(0.00855884 0.00114733 0)
(0.00815195 0.00197216 0)
(0.00756402 0.00276928 0)
(0.00680268 0.00354307 0)
(0.00587796 0.00431841 0)
(0.00479786 0.00517314 0)
(0.00365334 0.0063785 0)
(0.00213458 0.00915761 0)
(0.00160021 0.0158848 0)
(-0.00160303 0.0192718 0)
(-0.00193894 0.0118946 0)
(-0.00309862 0.00836492 0)
(-0.00359383 0.00661126 0)
(-0.00402207 0.00543341 0)
(-0.00430541 0.00448552 0)
(-0.00448628 0.00362233 0)
(-0.00457572 0.00276616 0)
(-0.00458169 0.00186704 0)
(-0.00450383 0.000889095 0)
(-0.0043046 -0.000188394 0)
(-0.0039525 -0.00134452 0)
(-0.0034987 -0.00251053 0)
(-0.00288028 -0.00364201 0)
(-0.00217064 -0.00462281 0)
(-0.00141816 -0.00537687 0)
(-0.000610319 -0.00593013 0)
(0.000238458 -0.006329 0)
(0.00113826 -0.00660597 0)
(0.00201509 -0.00676362 0)
(0.00289804 -0.00682883 0)
(0.00378303 -0.00681438 0)
(0.00466201 -0.00673329 0)
(0.00552538 -0.00659526 0)
(0.00636488 -0.00640956 0)
(0.00717338 -0.00618449 0)
(0.00794485 -0.00592699 0)
(0.00867456 -0.00564286 0)
(0.00935903 -0.00533699 0)
(0.00999587 -0.0050138 0)
(0.0105832 -0.00467779 0)
(0.0111192 -0.00433326 0)
(0.0116015 -0.00398356 0)
(0.0120278 -0.00363073 0)
(0.0123965 -0.00327576 0)
(0.0127069 -0.00291897 0)
(0.012959 -0.00256036 0)
(0.0131533 -0.00219979 0)
(0.0132908 -0.00183715 0)
(0.0133732 -0.00147256 0)
(0.0134019 -0.00110652 0)
(0.0133786 -0.000740106 0)
(0.0133049 -0.000375129 0)
(0.0131815 -1.47971e-05 0)
(0.0130115 0.000339696 0)
(0.0127909 0.000684076 0)
(0.0125204 0.00101378 0)
(0.0121991 0.00132256 0)
(0.0118261 0.00160355 0)
(0.0114006 0.0018503 0)
(0.0109223 0.00205824 0)
(0.0103915 0.0022267 0)
(0.00980974 0.00236093 0)
(0.00918121 0.00247391 0)
(0.0085157 0.00258771 0)
(0.00783459 0.00273304 0)
(0.0071812 0.0029388 0)
(0.00661925 0.00319443 0)
(0.00618184 0.00343824 0)
(0.00584433 0.00377218 0)
(0.00568423 0.00483572 0)
(0.00577146 0.00715702 0)
(0.00577211 0.00994019 0)
(0.00523272 0.0118975 0)
(0.0044214 0.0145705 0)
(0.00341171 0.0150889 0)
(0.00158956 0.0115667 0)
(-0.00105937 0.00726866 0)
(-0.00333022 0.00372339 0)
(-0.00473755 0.000698767 0)
(-0.00527202 -0.00223158 0)
(-0.00498871 -0.00524755 0)
(-0.00425065 -0.00778028 0)
(-0.00315605 -0.00876838 0)
(-0.00202144 -0.00857564 0)
(-0.00105802 -0.00802534 0)
(-0.00019087 -0.00749135 0)
(0.000626084 -0.00708844 0)
(0.00143311 -0.00679442 0)
(0.00226135 -0.00656015 0)
(0.00310692 -0.00634038 0)
(0.00396332 -0.00609296 0)
(0.00481674 -0.00578194 0)
(0.0056474 -0.00537862 0)
(0.00643089 -0.00486241 0)
(0.00713956 -0.00422217 0)
(0.00774412 -0.00345771 0)
(0.00821578 -0.00258104 0)
(0.00852905 -0.0016161 0)
(0.0086658 -0.000596192 0)
(0.00861464 0.000444053 0)
(0.00837096 0.00147816 0)
(0.00793733 0.00248649 0)
(0.00732323 0.00345942 0)
(0.00654108 0.00439851 0)
(0.00560613 0.00532449 0)
(0.00452633 0.0063054 0)
(0.0034067 0.00758621 0)
(0.00191468 0.0103914 0)
(0.00139284 0.0174766 0)
(-0.00142584 0.0207662 0)
(-0.00169581 0.0128218 0)
(-0.00273595 0.00899663 0)
(-0.00305487 0.00702651 0)
(-0.00328733 0.00568428 0)
(-0.00335192 0.00461628 0)
(-0.00331705 0.00366035 0)
(-0.00320343 0.00272445 0)
(-0.00302667 0.00174813 0)
(-0.00279623 0.000686864 0)
(-0.00244715 -0.000494151 0)
(-0.00201319 -0.00174837 0)
(-0.001501 -0.00301527 0)
(-0.000855686 -0.00426367 0)
(-0.000210316 -0.00531461 0)
(0.000460357 -0.00612764 0)
(0.00117986 -0.00672127 0)
(0.00192606 -0.00714294 0)
(0.00270741 -0.00743319 0)
(0.00351726 -0.00760912 0)
(0.00434454 -0.00768494 0)
(0.00517647 -0.00767131 0)
(0.00600257 -0.00758039 0)
(0.00681391 -0.00742355 0)
(0.00760295 -0.0072114 0)
(0.00836334 -0.00695342 0)
(0.00908961 -0.00665776 0)
(0.0097772 -0.00633129 0)
(0.0104223 -0.00597986 0)
(0.0110219 -0.00560856 0)
(0.011573 -0.00522205 0)
(0.0120732 -0.00482454 0)
(0.0125197 -0.00441946 0)
(0.0129103 -0.00400934 0)
(0.0132429 -0.00359586 0)
(0.0135166 -0.0031801 0)
(0.0137309 -0.00276273 0)
(0.0138863 -0.00234421 0)
(0.0139837 -0.00192494 0)
(0.0140247 -0.00150538 0)
(0.0140112 -0.00108626 0)
(0.0139453 -0.00066874 0)
(0.0138285 -0.000254606 0)
(0.0136657 0.000155297 0)
(0.0134518 0.000557993 0)
(0.0131892 0.000951019 0)
(0.0128784 0.00133012 0)
(0.0125189 0.00168913 0)
(0.0121099 0.00202101 0)
(0.0116512 0.00231885 0)
(0.0111435 0.00257726 0)
(0.0105887 0.00279406 0)
(0.00999118 0.00297196 0)
(0.00935857 0.00311974 0)
(0.00870313 0.00325223 0)
(0.00804457 0.00338817 0)
(0.00741373 0.00354223 0)
(0.00684961 0.00370717 0)
(0.0063731 0.00385773 0)
(0.00596952 0.00408843 0)
(0.00568769 0.00493627 0)
(0.00564433 0.00712296 0)
(0.00569198 0.0101338 0)
(0.00534521 0.0124571 0)
(0.00494164 0.0150037 0)
(0.00457402 0.016068 0)
(0.0036596 0.0134848 0)
(0.00197142 0.00975788 0)
(0.000139105 0.00624297 0)
(-0.00180783 0.00187362 0)
(-0.0035903 -0.00244685 0)
(-0.00339811 -0.00578485 0)
(-0.00298715 -0.00875167 0)
(-0.00226966 -0.00984768 0)
(-0.00141381 -0.009534 0)
(-0.000655393 -0.00884524 0)
(4.83478e-05 -0.00824982 0)
(0.000739037 -0.00784825 0)
(0.00146226 -0.00757549 0)
(0.00222618 -0.00737017 0)
(0.00302678 -0.00717466 0)
(0.00385289 -0.00693865 0)
(0.00468692 -0.00662013 0)
(0.00550658 -0.00618563 0)
(0.00628561 -0.00561082 0)
(0.00699449 -0.00488204 0)
(0.00760158 -0.00399839 0)
(0.00807531 -0.00297375 0)
(0.00838727 -0.00183705 0)
(0.00851792 -0.000629616 0)
(0.00845455 0.000604823 0)
(0.00819249 0.001831 0)
(0.00773807 0.00302339 0)
(0.00710504 0.00416819 0)
(0.00631035 0.00526392 0)
(0.0053741 0.0063281 0)
(0.00430336 0.00742211 0)
(0.00321488 0.00876998 0)
(0.00175832 0.0115793 0)
(0.00122941 0.0189177 0)
(-0.00129024 0.0221091 0)
(-0.00154277 0.0136475 0)
(-0.00249964 0.00950434 0)
(-0.00267837 0.00727095 0)
(-0.00273777 0.00572938 0)
(-0.00259624 0.0045291 0)
(-0.00235473 0.00348729 0)
(-0.00204776 0.00248861 0)
(-0.00169805 0.00145786 0)
(-0.00132402 0.00034686 0)
(-0.000804528 -0.000884685 0)
(-0.000261859 -0.00219317 0)
(0.000318511 -0.00355773 0)
(0.000946839 -0.0048721 0)
(0.00150857 -0.00592767 0)
(0.00208581 -0.00675167 0)
(0.00271705 -0.00738898 0)
(0.0034038 -0.00786503 0)
(0.00413385 -0.00819732 0)
(0.00489182 -0.00839943 0)
(0.00566371 -0.00848632 0)
(0.00643753 -0.00847216 0)
(0.00720393 -0.00837099 0)
(0.00795559 -0.00819606 0)
(0.00868654 -0.00795937 0)
(0.00939164 -0.0076714 0)
(0.0100663 -0.00734106 0)
(0.0107062 -0.00697581 0)
(0.0113076 -0.00658197 0)
(0.0118668 -0.00616501 0)
(0.0123804 -0.00572976 0)
(0.0128451 -0.00528053 0)
(0.0132578 -0.00482097 0)
(0.0136157 -0.00435409 0)
(0.0139165 -0.00388221 0)
(0.0141587 -0.00340715 0)
(0.0143414 -0.00293034 0)
(0.0144646 -0.00245293 0)
(0.0145292 -0.00197596 0)
(0.0145365 -0.00150043 0)
(0.0144883 -0.00102743 0)
(0.0143871 -0.000558337 0)
(0.0142346 -9.50747e-05 0)
(0.0140346 0.000363592 0)
(0.0137843 0.000814719 0)
(0.0134864 0.00125597 0)
(0.0131413 0.00168312 0)
(0.012749 0.00209033 0)
(0.0123095 0.00247045 0)
(0.0118235 0.00281594 0)
(0.0112922 0.00312009 0)
(0.0107189 0.0033787 0)
(0.0101094 0.00359162 0)
(0.00947275 0.00376373 0)
(0.00882172 0.00390476 0)
(0.00817393 0.00402694 0)
(0.00755237 0.00413917 0)
(0.00698235 0.00423828 0)
(0.00647824 0.00431883 0)
(0.00603268 0.00447158 0)
(0.00567283 0.00515429 0)
(0.00550612 0.00715777 0)
(0.00551287 0.0102449 0)
(0.0052424 0.0127898 0)
(0.00502134 0.0150779 0)
(0.00510533 0.0163386 0)
(0.00493696 0.0143583 0)
(0.00421671 0.0111226 0)
(0.00315926 0.00784856 0)
(0.00193615 0.00440206 0)
(0.000249549 0.000928246 0)
(-0.00101433 -0.00548753 0)
(-0.00112912 -0.00917134 0)
(-0.00102765 -0.0105 0)
(-0.000617118 -0.0101692 0)
(-0.000140827 -0.00943013 0)
(0.000351251 -0.00884874 0)
(0.000898957 -0.00848911 0)
(0.00151955 -0.00827184 0)
(0.00220798 -0.00812007 0)
(0.00295336 -0.00796642 0)
(0.00373911 -0.00775478 0)
(0.00454435 -0.0074389 0)
(0.00534493 -0.00698153 0)
(0.00611324 -0.00635478 0)
(0.00681816 -0.00554214 0)
(0.00742586 -0.0045414 0)
(0.00790186 -0.00336786 0)
(0.00821453 -0.00205566 0)
(0.00834292 -0.000655216 0)
(0.00827202 0.000778526 0)
(0.00799707 0.00219971 0)
(0.00752858 0.00357567 0)
(0.00688458 0.0048877 0)
(0.00608601 0.00613115 0)
(0.00515736 0.00732141 0)
(0.00410409 0.00851614 0)
(0.00305262 0.009924 0)
(0.00164102 0.0127278 0)
(0.00109823 0.020243 0)
(-0.00118823 0.0233524 0)
(-0.00146191 0.0144158 0)
(-0.0023692 0.00992618 0)
(-0.0024499 0.00737781 0)
(-0.00237324 0.00559259 0)
(-0.00205662 0.00424052 0)
(-0.00163855 0.00311939 0)
(-0.00117393 0.00208006 0)
(-0.000691165 0.00103098 0)
(-0.000160254 -9.75762e-05 0)
(0.000563859 -0.00149205 0)
(0.00116329 -0.00282646 0)
(0.00174224 -0.00413962 0)
(0.002301 -0.00537671 0)
(0.00284157 -0.00644827 0)
(0.00341223 -0.00733186 0)
(0.00403167 -0.00802986 0)
(0.0046954 -0.00855381 0)
(0.00539027 -0.00891809 0)
(0.0061022 -0.00913798 0)
(0.00681916 -0.00923018 0)
(0.00753209 -0.00921168 0)
(0.0082346 -0.00909879 0)
(0.00892205 -0.00890639 0)
(0.00959067 -0.0086475 0)
(0.0102369 -0.00833308 0)
(0.0108569 -0.00797227 0)
(0.0114469 -0.00757262 0)
(0.0120029 -0.00714054 0)
(0.012521 -0.00668157 0)
(0.012997 -0.00620064 0)
(0.0134271 -0.0057022 0)
(0.0138077 -0.00519019 0)
(0.0141355 -0.00466809 0)
(0.0144077 -0.00413884 0)
(0.0146223 -0.00360503 0)
(0.014778 -0.00306885 0)
(0.0148744 -0.00253228 0)
(0.014912 -0.00199708 0)
(0.0148919 -0.00146491 0)
(0.0148159 -0.000937366 0)
(0.0146863 -0.000416174 0)
(0.0145061 9.81021e-05 0)
(0.0142745 0.000605594 0)
(0.0139936 0.00110452 0)
(0.0136661 0.00159298 0)
(0.0132925 0.00206677 0)
(0.0128734 0.0025202 0)
(0.0124093 0.00294597 0)
(0.0119014 0.00333578 0)
(0.0113518 0.00368149 0)
(0.0107645 0.00397674 0)
(0.0101457 0.00421857 0)
(0.00950489 0.00440856 0)
(0.00885451 0.00455283 0)
(0.00821008 0.00466013 0)
(0.00758963 0.00473735 0)
(0.00701116 0.0047849 0)
(0.0064859 0.0048088 0)
(0.00601034 0.00489958 0)
(0.00559467 0.00546178 0)
(0.00531403 0.00729438 0)
(0.00521544 0.0103842 0)
(0.00491721 0.0130581 0)
(0.00468822 0.0149872 0)
(0.00501548 0.0161182 0)
(0.00541212 0.0144166 0)
(0.00544626 0.0115951 0)
(0.00502598 0.00861821 0)
(0.00411148 0.0054262 0)
(0.0029053 0.00185975 0)
(0.00169521 -0.00366203 0)
(0.000919751 -0.00869541 0)
(0.000409521 -0.0105447 0)
(0.000279099 -0.0103874 0)
(0.00040817 -0.00974364 0)
(0.000672161 -0.00925828 0)
(0.00106361 -0.00899591 0)
(0.00157088 -0.00887232 0)
(0.00217529 -0.00879934 0)
(0.00285618 -0.00870511 0)
(0.00359193 -0.00853126 0)
(0.00435926 -0.00822922 0)
(0.00513295 -0.00775891 0)
(0.00588448 -0.00708891 0)
(0.00658147 -0.00619936 0)
(0.00718807 -0.00508593 0)
(0.00766686 -0.00376463 0)
(0.00798259 -0.00227481 0)
(0.00811298 -0.000677071 0)
(0.00803969 0.000959989 0)
(0.00775783 0.00257781 0)
(0.00728267 0.00413557 0)
(0.00663662 0.0056092 0)
(0.00584413 0.00699116 0)
(0.00493346 0.00829573 0)
(0.00390763 0.00957934 0)
(0.00290047 0.0110406 0)
(0.0015441 0.0138361 0)
(0.000990233 0.0214738 0)
(-0.00111218 0.0245379 0)
(-0.00143096 0.0151623 0)
(-0.0023127 0.0102982 0)
(-0.00233287 0.00738723 0)
(-0.00216366 0.00531141 0)
(-0.00171567 0.00378237 0)
(-0.00116281 0.00258966 0)
(-0.00057553 0.00153672 0)
(4.71942e-05 0.000445146 0)
(0.000833162 -0.000899903 0)
(0.0014755 -0.00215135 0)
(0.00207405 -0.00341265 0)
(0.00266974 -0.00470006 0)
(0.00325889 -0.00593037 0)
(0.00385253 -0.00702374 0)
(0.00446882 -0.00794256 0)
(0.00511229 -0.00867587 0)
(0.00577547 -0.00922638 0)
(0.00644735 -0.00960521 0)
(0.00711819 -0.00982884 0)
(0.00778116 -0.00991657 0)
(0.00843231 -0.009888 0)
(0.00906977 -0.00976129 0)
(0.00969243 -0.00955224 0)
(0.010299 -0.00927402 0)
(0.0108872 -0.00893731 0)
(0.0114542 -0.0085508 0)
(0.0119961 -0.0081216 0)
(0.0125085 -0.00765583 0)
(0.0129872 -0.00715891 0)
(0.0134273 -0.0066358 0)
(0.0138247 -0.00609112 0)
(0.014175 -0.00552914 0)
(0.0144747 -0.00495381 0)
(0.0147205 -0.00436875 0)
(0.0149101 -0.00377725 0)
(0.0150418 -0.00318236 0)
(0.0151148 -0.0025869 0)
(0.0151293 -0.00199346 0)
(0.0150862 -0.00140443 0)
(0.0149871 -0.000822059 0)
(0.0148345 -0.000248418 0)
(0.0146306 0.000318006 0)
(0.0143745 0.00087492 0)
(0.0140698 0.00142167 0)
(0.0137186 0.00195636 0)
(0.0133223 0.00247532 0)
(0.012882 0.00297303 0)
(0.0123987 0.003442 0)
(0.0118742 0.00387316 0)
(0.0113109 0.00425694 0)
(0.0107132 0.00458488 0)
(0.0100876 0.00485144 0)
(0.0094435 0.00505547 0)
(0.00879236 0.00520051 0)
(0.00814791 0.00529337 0)
(0.00752493 0.00534049 0)
(0.00693745 0.00534509 0)
(0.00639496 0.00532099 0)
(0.00589453 0.00536307 0)
(0.0054305 0.00584564 0)
(0.00503775 0.00755389 0)
(0.00478362 0.0106366 0)
(0.0043695 0.0133963 0)
(0.00398834 0.0149008 0)
(0.00438896 0.0155997 0)
(0.00520779 0.0138503 0)
(0.0058089 0.0114819 0)
(0.0058145 0.00902208 0)
(0.00508751 0.00626741 0)
(0.0039821 0.00275914 0)
(0.00313359 -0.00283024 0)
(0.00250669 -0.00784664 0)
(0.00169447 -0.0100355 0)
(0.00110448 -0.0101902 0)
(0.000894438 -0.00976978 0)
(0.000940301 -0.00947029 0)
(0.00117966 -0.00936693 0)
(0.00157488 -0.00937282 0)
(0.00209208 -0.00940119 0)
(0.00270254 -0.00938251 0)
(0.00338108 -0.00925959 0)
(0.00410325 -0.00898329 0)
(0.00484351 -0.00851131 0)
(0.00557301 -0.00780852 0)
(0.00625851 -0.00685108 0)
(0.00686246 -0.00563153 0)
(0.00734461 -0.00416569 0)
(0.00766588 -0.00249777 0)
(0.00780268 -0.000699636 0)
(0.0077324 0.00114361 0)
(0.00744987 0.00295835 0)
(0.00697591 0.00469452 0)
(0.00633772 0.00632269 0)
(0.00556288 0.00783313 0)