/*--------------------------------*- C++ -*----------------------------------*\
| =========                 |                                                 |
| \\      /  F ield         | OpenFOAM: The Open Source CFD Toolbox           |
|  \\    /   O peration     | Version:  4.1                                   |
|   \\  /    A nd           | Web:      www.OpenFOAM.org                      |
|    \\/     M anipulation  |                                                 |
\*---------------------------------------------------------------------------*/
FoamFile
{
    version     2.0;
    format      ascii;
    class       surfaceScalarField;
    location    "620";
    object      phi;
}
// * * * * * * * * * * * * * * * * * * * * * * * * * * * * * * * * * * * * * //

dimensions      [0 3 -1 0 0 0 0];

internalField   nonuniform List<scalar> 
9850
(
-2.5888e-06
2.5888e-06
9.81463e-07
-3.57027e-06
3.3981e-06
-2.41663e-06
3.90992e-06
-5.11825e-07
2.29844e-06
1.61148e-06
-2.25946e-06
4.5579e-06
-7.30938e-06
5.04991e-06
-9.9306e-06
2.62123e-06
-1.0896e-05
9.65364e-07
-1.05328e-05
-3.63198e-07
-9.04344e-06
-1.48933e-06
-6.84236e-06
-2.20108e-06
-4.41279e-06
-2.42958e-06
-1.98492e-06
-2.42787e-06
2.91556e-07
-2.27648e-06
2.39749e-06
-2.10594e-06
4.2976e-06
-1.90011e-06
6.01984e-06
-1.72224e-06
7.58193e-06
-1.56208e-06
8.989e-06
-1.40707e-06
1.02442e-05
-1.25519e-06
1.13515e-05
-1.10727e-06
1.23153e-05
-9.63887e-07
1.31404e-05
-8.25097e-07
1.38312e-05
-6.90746e-07
1.43918e-05
-5.60577e-07
1.48261e-05
-4.34296e-07
1.51378e-05
-3.11735e-07
1.5331e-05
-1.93155e-07
1.54108e-05
-7.98858e-08
1.53848e-05
2.60178e-08
1.52603e-05
1.24484e-07
1.50434e-05
2.1693e-07
1.47399e-05
3.03515e-07
1.43566e-05
3.8332e-07
1.39014e-05
4.55134e-07
1.33838e-05
5.17593e-07
1.28145e-05
5.69298e-07
1.22056e-05
6.08991e-07
1.15698e-05
6.35784e-07
1.09192e-05
6.50571e-07
1.02532e-05
6.66045e-07
9.50309e-06
7.50061e-07
8.37424e-06
1.12886e-06
6.17983e-06
2.19441e-06
3.0195e-06
3.16032e-06
2.15482e-06
8.6468e-07
1.2494e-06
9.05417e-07
-2.69016e-06
3.93957e-06
-5.96024e-06
3.27008e-06
-7.5896e-06
1.62936e-06
-8.66213e-06
1.07253e-06
-9.50454e-06
8.42409e-07
-1.02233e-05
7.18774e-07
-1.08581e-05
6.34821e-07
-1.14237e-05
5.65558e-07
-1.19247e-05
5.01024e-07
-1.23622e-05
4.37463e-07
-1.27359e-05
3.73757e-07
-1.30457e-05
3.0981e-07
-1.32916e-05
2.4581e-07
-1.34735e-05
1.81973e-07
-1.3592e-05
1.18462e-07
-1.36473e-05
5.53171e-08
-1.36392e-05
-8.15527e-09
-1.35655e-05
-7.37007e-08
-1.34247e-05
-1.40758e-07
-1.32175e-05
-2.07185e-07
-1.29454e-05
-2.7207e-07
-1.26105e-05
-3.34963e-07
-1.22149e-05
-3.95595e-07
-1.17611e-05
-4.53796e-07
-1.12516e-05
-5.09475e-07
-1.0689e-05
-5.62612e-07
-1.00757e-05
-6.13266e-07
-9.41417e-06
-6.61559e-07
-8.70652e-06
-7.07653e-07
-7.9548e-06
-7.51721e-07
-7.16091e-06
-7.93891e-07
-6.32671e-06
-8.34194e-07
-5.45422e-06
-8.72499e-07
-4.54576e-06
-9.08456e-07
-3.60431e-06
-9.41453e-07
-2.63359e-06
-9.70715e-07
-1.63754e-06
-9.96052e-07
-6.19309e-07
-1.01823e-06
4.1093e-07
-1.03024e-06
1.41317e-06
-1.00224e-06
2.32363e-06
-9.10454e-07
3.12039e-06
-7.96764e-07
3.79563e-06
-6.7524e-07
4.32917e-06
-5.33545e-07
4.70636e-06
-3.77188e-07
4.92865e-06
-2.22287e-07
5.01798e-06
-8.93275e-08
5.01057e-06
7.40223e-09
4.96128e-06
4.92988e-08
4.82727e-06
1.34003e-07
3.76235e-06
1.06493e-06
3.76235e-06
-8.36994e-07
3.4258e-06
1.08104e-06
-5.48831e-06
2.62095e-06
-3.95654e-06
2.7332e-06
-6.24082e-07
1.12807e-06
3.21662e-06
-2.14308e-06
7.82905e-06
-5.73414e-06
8.64097e-06
-8.18299e-06
5.07008e-06
-9.27592e-06
2.05829e-06
-9.02383e-06
-6.1529e-07
-7.55099e-06
-2.96216e-06
-5.48702e-06
-4.26505e-06
-3.25814e-06
-4.65846e-06
-1.03921e-06
-4.64679e-06
1.08632e-06
-4.402e-06
3.0418e-06
-4.06142e-06
4.86281e-06
-3.72112e-06
6.54397e-06
-3.4034e-06
8.08219e-06
-3.1003e-06
9.47915e-06
-2.80403e-06
1.07373e-05
-2.51339e-06
1.18599e-05
-2.2298e-06
1.28505e-05
-1.95456e-06
1.37136e-05
-1.68812e-06
1.44532e-05
-1.43035e-06
1.50733e-05
-1.18072e-06
1.55776e-05
-9.38634e-07
1.59695e-05
-7.03595e-07
1.62519e-05
-4.75566e-07
1.64274e-05
-2.55339e-07
1.6497e-05
-4.36551e-08
1.64614e-05
1.60153e-07
1.63233e-05
3.5504e-07
1.60867e-05
5.40072e-07
1.57565e-05
7.13564e-07
1.53383e-05
8.73252e-07
1.48393e-05
1.01665e-06
1.42672e-05
1.14142e-06
1.36301e-05
1.24601e-06
1.29349e-05
1.331e-06
1.21822e-05
1.40328e-06
1.13544e-05
1.49391e-06
1.03843e-05
1.72015e-06
9.11363e-06
2.3995e-06
7.39913e-06
3.90891e-06
5.30274e-06
5.25671e-06
2.38e-06
3.78742e-06
-1.8956e-06
5.18102e-06
-5.07447e-06
7.11844e-06
-7.12648e-06
5.32209e-06
-8.7888e-06
3.29167e-06
-1.00792e-05
2.36296e-06
-1.11206e-05
1.88376e-06
-1.1991e-05
1.58922e-06
-1.27317e-05
1.37548e-06
-1.33635e-05
1.19741e-06
-1.38976e-05
1.03508e-06
-1.43402e-05
8.80093e-07
-1.46959e-05
7.2942e-07
-1.49683e-05
5.82271e-07
-1.51611e-05
4.38587e-07
-1.52775e-05
2.98368e-07
-1.53204e-05
1.61402e-07
-1.52924e-05
2.73208e-08
-1.51963e-05
-1.04255e-07
-1.50364e-05
-2.33622e-07
-1.48148e-05
-3.6241e-07
-1.45324e-05
-4.8958e-07
-1.41902e-05
-6.14206e-07
-1.37896e-05
-7.35592e-07
-1.3332e-05
-8.53175e-07
-1.28193e-05
-9.6652e-07
-1.22534e-05
-1.07533e-06
-1.16366e-05
-1.17949e-06
-1.09708e-05
-1.27902e-06
-1.02583e-05
-1.3741e-06
-9.50093e-06
-1.465e-06
-8.70063e-06
-1.55202e-06
-7.85913e-06
-1.63539e-06
-6.97818e-06
-1.71514e-06
-6.05968e-06
-1.79099e-06
-5.10592e-06
-1.86222e-06
-4.11983e-06
-1.92754e-06
-3.10542e-06
-1.98513e-06
-2.06834e-06
-2.03313e-06
-1.01654e-06
-2.07003e-06
4.4542e-08
-2.09132e-06
1.09677e-06
-2.05447e-06
2.09021e-06
-1.9039e-06
2.98188e-06
-1.68844e-06
3.72634e-06
-1.4197e-06
4.29452e-06
-1.10173e-06
4.66427e-06
-7.46931e-07
4.82611e-06
-3.84128e-07
4.79033e-06
-5.35465e-08
4.58333e-06
2.14403e-07
4.2511e-06
3.8153e-07
3.82141e-06
5.63688e-07
2.78711e-06
2.09923e-06
6.54946e-06
5.05262e-07
2.92054e-06
1.16757e-06
-6.15061e-06
1.97484e-06
-4.76381e-06
1.88711e-06
-5.3635e-07
5.78983e-07
4.52475e-06
-1.47831e-06
9.88634e-06
-4.07843e-06
1.12411e-05
-6.0401e-06
7.03176e-06
-7.06107e-06
3.07926e-06
-6.8354e-06
-8.40958e-07
-5.35232e-06
-4.44525e-06
-3.50087e-06
-6.11649e-06
-1.5614e-06
-6.59793e-06
3.143e-07
-6.52249e-06
2.1043e-06
-6.192e-06
3.81891e-06
-5.77602e-06
5.45063e-06
-5.35284e-06
6.9778e-06
-4.93057e-06
8.3869e-06
-4.5094e-06
9.67287e-06
-4.09e-06
1.08347e-05
-3.67524e-06
1.18736e-05
-3.26866e-06
1.27919e-05
-2.87284e-06
1.35927e-05
-2.48897e-06
1.42794e-05
-2.11706e-06
1.48552e-05
-1.75644e-06
1.53226e-05
-1.40612e-06
1.56842e-05
-1.06519e-06
1.59417e-05
-7.33077e-07
1.60962e-05
-4.09807e-07
1.61486e-05
-9.60477e-08
1.61001e-05
2.08674e-07
1.59517e-05
5.0345e-07
1.57053e-05
7.86485e-07
1.53635e-05
1.05536e-06
1.49296e-05
1.30716e-06
1.44075e-05
1.53871e-06
1.38018e-05
1.74712e-06
1.3117e-05
1.93078e-06
1.23565e-05
2.09153e-06
1.15193e-05
2.24044e-06
1.05953e-05
2.41792e-06
9.55442e-06
2.76106e-06
8.31883e-06
3.63509e-06
6.73223e-06
5.49552e-06
4.5853e-06
7.40364e-06
1.25414e-06
7.11857e-06
-2.88683e-06
9.32199e-06
-5.43971e-06
9.67132e-06
-7.08061e-06
6.96299e-06
-8.49149e-06
4.70255e-06
-9.71521e-06
3.58667e-06
-1.07661e-05
2.9347e-06
-1.16682e-05
2.49128e-06
-1.24414e-05
2.14867e-06
-1.31e-05
1.85596e-06
-1.36543e-05
1.58941e-06
-1.41128e-05
1.33862e-06
-1.44828e-05
1.0994e-06
-1.47706e-05
8.70076e-07
-1.49817e-05
6.49642e-07
-1.51203e-05
4.37026e-07
-1.51899e-05
2.30952e-07
-1.51927e-05
3.01561e-08
-1.51306e-05
-1.6637e-07
-1.5004e-05
-3.60225e-07
-1.48143e-05
-5.52051e-07
-1.45626e-05
-7.41289e-07
-1.42498e-05
-9.27057e-07
-1.3877e-05
-1.1084e-06
-1.34457e-05
-1.28441e-06
-1.29579e-05
-1.45432e-06
-1.24157e-05
-1.61759e-06
-1.18212e-05
-1.77392e-06
-1.1177e-05
-1.92331e-06
-1.04851e-05
-2.06599e-06
-9.7477e-06
-2.20237e-06
-8.96677e-06
-2.33295e-06
-8.14405e-06
-2.45811e-06
-7.28123e-06
-2.57796e-06
-6.38011e-06
-2.69212e-06
-5.44282e-06
-2.79951e-06
-4.47222e-06
-2.89813e-06
-3.47238e-06
-2.98498e-06
-2.44933e-06
-3.05619e-06
-1.41187e-06
-3.10748e-06
-3.71542e-07
-3.13165e-06
6.69154e-07
-3.09516e-06
1.68718e-06
-2.92192e-06
2.61423e-06
-2.61549e-06
3.4062e-06
-2.21167e-06
4.02142e-06
-1.71695e-06
4.42464e-06
-1.15015e-06
4.59196e-06
-5.51445e-07
4.51648e-06
2.19334e-08
4.19676e-06
5.34119e-07
3.6233e-06
9.54997e-07
2.83207e-06
1.35492e-06
1.93577e-06
2.99553e-06
8.48522e-06
1.22315e-06
1.69739e-06
1.04574e-06
-5.9732e-06
9.02736e-07
-4.62081e-06
7.85941e-07
-4.19554e-07
2.93385e-07
5.0173e-06
-5.47541e-07
1.07273e-05
-2.25125e-06
1.29448e-05
-3.64095e-06
8.42146e-06
-4.47038e-06
3.90869e-06
-4.0705e-06
-1.24083e-06
-2.70053e-06
-5.81523e-06
-1.20992e-06
-7.60711e-06
2.97668e-07
-8.10552e-06
1.76864e-06
-7.99346e-06
3.23263e-06
-7.65599e-06
4.69024e-06
-7.23364e-06
6.10462e-06
-6.76722e-06
7.44702e-06
-6.27297e-06
8.69834e-06
-5.76072e-06
9.84798e-06
-5.23964e-06
1.08912e-05
-4.71845e-06
1.18267e-05
-4.20421e-06
1.26554e-05
-3.70153e-06
1.3379e-05
-3.21255e-06
1.39995e-05
-2.73758e-06
1.45188e-05
-2.27574e-06
1.49383e-05
-1.82566e-06
1.52591e-05
-1.38598e-06
1.54818e-05
-9.55711e-07
1.56064e-05
-5.34461e-07
1.56329e-05
-1.2247e-07
1.55609e-05
2.80668e-07
1.53903e-05
6.74038e-07
1.51214e-05
1.05539e-06
1.47548e-05
1.42192e-06
1.42916e-05
1.77035e-06
1.37332e-05
2.09711e-06
1.30815e-05
2.39887e-06
1.23386e-05
2.67365e-06
1.15067e-05
2.9234e-06
1.05867e-05
3.16047e-06
9.57534e-06
3.42928e-06
8.45564e-06
3.88076e-06
7.15749e-06
4.93323e-06
5.50323e-06
7.14978e-06
3.33121e-06
9.57567e-06
5.28561e-08
1.03969e-05
-3.32108e-06
1.26959e-05
-5.3329e-06
1.16831e-05
-6.71272e-06
8.34281e-06
-7.98276e-06
5.9726e-06
-9.15317e-06
4.75708e-06
-1.02064e-05
3.98793e-06
-1.11377e-05
3.42263e-06
-1.19499e-05
2.96081e-06
-1.2649e-05
2.55511e-06
-1.32432e-05
2.18355e-06
-1.37409e-05
1.83637e-06
-1.41506e-05
1.50909e-06
-1.44795e-05
1.19898e-06
-1.47334e-05
9.03496e-07
-1.49162e-05
6.19899e-07
-1.50307e-05
3.45431e-07
-1.50782e-05
7.76265e-08
-1.50591e-05
-1.85473e-07
-1.49738e-05
-4.45481e-07
-1.48229e-05
-7.02951e-07
-1.46071e-05
-9.57097e-07
-1.43275e-05
-1.20673e-06
-1.39853e-05
-1.45053e-06
-1.35826e-05
-1.68717e-06
-1.31214e-05
-1.91554e-06
-1.26041e-05
-2.13481e-06
-1.20335e-05
-2.34454e-06
-1.14121e-05
-2.54469e-06
-1.07425e-05
-2.73558e-06
-1.00271e-05
-2.91784e-06
-9.26783e-06
-3.09219e-06
-8.46663e-06
-3.2593e-06
-7.62514e-06
-3.41946e-06
-6.74497e-06
-3.57228e-06
-5.82806e-06
-3.71642e-06
-4.87701e-06
-3.84918e-06
-3.89568e-06
-3.96631e-06
-2.89012e-06
-4.06175e-06
-1.87014e-06
-4.12747e-06
-8.4944e-07
-4.15235e-06
1.74027e-07
-4.11863e-06
1.19925e-06
-3.94714e-06
2.15722e-06
-3.57347e-06
2.99573e-06
-3.05018e-06
3.66411e-06
-2.38533e-06
4.11526e-06
-1.6013e-06
4.31141e-06
-7.47588e-07
4.23432e-06
9.90219e-08
3.87931e-06
8.89126e-07
3.2526e-06
1.58171e-06
2.39695e-06
2.21057e-06
1.5327e-06
3.85978e-06
1.00179e-05
9.58097e-07
7.39292e-07
1.09899e-07
-5.125e-06
-4.89616e-07
-4.0213e-06
-4.75566e-07
-4.33605e-07
-1.51657e-07
4.69339e-06
2.56244e-07
1.03194e-05
-4.55741e-07
1.36568e-05
-1.35579e-06
9.32151e-06
-1.49356e-06
4.04645e-06
-5.05199e-07
-2.22919e-06
2.63914e-07
-6.58434e-06
1.17941e-06
-8.5226e-06
2.16938e-06
-9.09549e-06
3.24785e-06
-9.07193e-06
4.39917e-06
-8.8073e-06
5.58646e-06
-8.42093e-06
6.76971e-06
-7.95047e-06
7.91398e-06
-7.41725e-06
8.99445e-06
-6.84118e-06
9.99596e-06
-6.24115e-06
1.09106e-05
-5.63308e-06
1.1735e-05
-5.02857e-06
1.24682e-05
-4.43472e-06
1.31104e-05
-3.8548e-06
1.36621e-05
-3.2893e-06
1.41235e-05
-2.73713e-06
1.44944e-05
-2.19652e-06
1.47741e-05
-1.66571e-06
1.49618e-05
-1.14339e-06
1.50563e-05
-6.28963e-07
1.50564e-05
-1.22554e-07
1.49606e-05
3.76406e-07
1.47681e-05
8.66565e-07
1.44779e-05
1.34557e-06
1.40893e-05
1.81054e-06
1.36015e-05
2.25821e-06
1.30137e-05
2.68491e-06
1.23255e-05
3.08702e-06
1.15371e-05
3.46207e-06
1.06492e-05
3.81129e-06
9.66293e-06
4.14673e-06
8.57727e-06
4.51494e-06
7.37697e-06
5.08105e-06
5.99246e-06
6.31774e-06
4.25894e-06
8.88331e-06
2.10248e-06
1.17321e-05
-9.58548e-07
1.3458e-05
-3.60376e-06
1.53411e-05
-5.16045e-06
1.32398e-05
-6.34678e-06
9.52913e-06
-7.53688e-06
7.16269e-06
-8.679e-06
5.8992e-06
-9.73446e-06
5.04339e-06
-1.06851e-05
4.37323e-06
-1.15248e-05
3.80055e-06
-1.22557e-05
3.286e-06
-1.28843e-05
2.81221e-06
-1.34193e-05
2.37131e-06
-1.38688e-05
1.95861e-06
-1.42397e-05
1.56988e-06
-1.45368e-05
1.20059e-06
-1.4763e-05
8.4606e-07
-1.49196e-05
5.02116e-07
-1.50074e-05
1.65344e-07
-1.50262e-05
-1.66659e-07
-1.49766e-05
-4.95108e-07
-1.48589e-05
-8.20639e-07
-1.46739e-05
-1.14203e-06
-1.4423e-05
-1.45768e-06
-1.41077e-05
-1.76581e-06
-1.37302e-05
-2.06471e-06
-1.32928e-05
-2.35287e-06
-1.27984e-05
-2.62919e-06
-1.225e-05
-2.89303e-06
-1.16503e-05
-3.14432e-06
-1.10024e-05
-3.38348e-06
-1.03089e-05
-3.61138e-06
-9.572e-06
-3.82909e-06
-8.79368e-06
-4.03763e-06
-7.97554e-06
-4.23759e-06
-7.11907e-06
-4.42876e-06
-6.22588e-06
-4.60961e-06
-5.29815e-06
-4.77691e-06
-4.33925e-06
-4.92521e-06
-3.35455e-06
-5.04644e-06
-2.35255e-06
-5.12947e-06
-1.34497e-06
-5.15993e-06
-3.45555e-07
-5.11804e-06
6.58683e-07
-4.95138e-06
1.63885e-06
-4.55363e-06
2.51778e-06
-3.92911e-06
3.2388e-06
-3.10636e-06
3.74591e-06
-2.1084e-06
3.98833e-06
-9.90011e-07
3.93632e-06
1.51034e-07
3.5942e-06
1.23125e-06
2.9813e-06
2.1946e-06
2.14684e-06
3.04503e-06
1.29023e-06
4.71639e-06
1.13081e-05
-6.60047e-09
7.45892e-07
-1.25305e-06
-3.87855e-06
-2.02962e-06
-3.24472e-06
-1.84983e-06
-6.13392e-07
-8.48729e-07
3.69229e-06
5.91008e-07
8.87963e-06
1.12605e-06
1.31217e-05
8.6174e-07
9.58583e-06
1.42558e-06
3.48261e-06
2.34764e-06
-3.15125e-06
2.90399e-06
-7.14069e-06
3.36946e-06
-8.98807e-06
3.93338e-06
-9.65941e-06
4.65068e-06
-9.78924e-06
5.49987e-06
-9.65649e-06
6.43101e-06
-9.35208e-06
7.39289e-06
-8.91234e-06
8.34395e-06
-8.36831e-06
9.25526e-06
-7.7525e-06
1.0109e-05
-7.09494e-06
1.08956e-05
-6.41959e-06
1.16099e-05
-5.74294e-06
1.22498e-05
-5.0746e-06
1.28137e-05
-4.41873e-06
1.33003e-05
-3.77588e-06
1.37078e-05
-3.14459e-06
1.40339e-05
-2.52268e-06
1.42763e-05
-1.90809e-06
1.44323e-05
-1.2994e-06
1.44994e-05
-6.96032e-07
1.44751e-05
-9.82481e-08
1.43571e-05
4.94393e-07
1.41438e-05
1.07988e-06
1.38335e-05
1.65581e-06
1.34246e-05
2.21943e-06
1.29152e-05
2.76759e-06
1.23034e-05
3.29675e-06
1.15872e-05
3.80324e-06
1.07651e-05
4.28412e-06
9.83674e-06
4.73968e-06
8.80266e-06
5.18081e-06
7.66233e-06
5.65527e-06
6.40065e-06
6.34273e-06
4.94966e-06
7.76873e-06
3.16576e-06
1.06672e-05
1.00184e-06
1.3896e-05
-1.79489e-06
1.62547e-05
-3.8438e-06
1.739e-05
-5.03982e-06
1.44359e-05
-6.08558e-06
1.05749e-05
-7.21507e-06
8.29219e-06
-8.33028e-06
7.01441e-06
-9.37739e-06
6.0905e-06
-1.03312e-05
5.32704e-06
-1.11824e-05
4.65173e-06
-1.19315e-05
4.03508e-06
-1.25844e-05
3.46515e-06
-1.31489e-05
2.93581e-06
-1.3632e-05
2.4417e-06
-1.40388e-05
1.97673e-06
-1.43726e-05
1.53433e-06
-1.46347e-05
1.10822e-06
-1.48259e-05
6.93284e-07
-1.49463e-05
2.85708e-07
-1.4996e-05
-1.16913e-07
-1.49759e-05
-5.15263e-07
-1.48863e-05
-9.10165e-07
-1.47283e-05
-1.30003e-06
-1.45032e-05
-1.68283e-06
-1.42126e-05
-2.05637e-06
-1.38588e-05
-2.4185e-06
-1.34444e-05
-2.76731e-06
-1.29723e-05
-3.10132e-06
-1.24456e-05
-3.41967e-06
-1.18678e-05
-3.72215e-06
-1.1242e-05
-4.0093e-06
-1.05711e-05
-4.28222e-06
-9.85785e-06
-4.54237e-06
-9.10425e-06
-4.79123e-06
-8.312e-06
-5.02985e-06
-7.48243e-06
-5.25832e-06
-6.61683e-06
-5.4752e-06
-5.71686e-06
-5.67688e-06
-4.78514e-06
-5.85694e-06
-3.82608e-06
-6.00551e-06
-2.84693e-06
-6.10861e-06
-1.85938e-06
-6.14749e-06
-8.79851e-07
-6.09757e-06
9.61762e-08
-5.92741e-06
1.07702e-06
-5.53447e-06
1.98517e-06
-4.83726e-06
2.75439e-06
-3.87558e-06
3.3222e-06
-2.67621e-06
3.62551e-06
-1.29332e-06
3.6224e-06
1.54147e-07
3.31855e-06
1.5351e-06
2.74616e-06
2.76699e-06
1.95647e-06
3.83472e-06
1.1155e-06
5.55737e-06
1.24236e-05
-9.93885e-07
1.73978e-06
-2.5989e-06
-2.27353e-06
-3.5041e-06
-2.33953e-06
-3.34197e-06
-7.75518e-07
-2.00567e-06
2.35599e-06
1.7222e-07
6.70174e-06
1.94745e-06
1.13465e-05
2.52247e-06
9.0108e-06
3.93478e-06
2.0703e-06
4.73467e-06
-3.95114e-06
4.99016e-06
-7.39618e-06
5.11311e-06
-9.11102e-06
5.3626e-06
-9.9089e-06
5.81205e-06
-1.02387e-05
6.42967e-06
-1.02741e-05
7.15363e-06
-1.0076e-05
7.92663e-06
-9.68534e-06
8.70566e-06
-9.14734e-06
9.4622e-06
-8.50903e-06
1.01791e-05
-7.81188e-06
1.0847e-05
-7.08741e-06
1.14604e-05
-6.35637e-06
1.20159e-05
-5.63016e-06
1.25105e-05
-4.91329e-06
1.29406e-05
-4.20593e-06
1.33021e-05
-3.50612e-06
1.35907e-05
-2.81131e-06
1.3802e-05
-2.11933e-06
1.39315e-05
-1.42889e-06
1.39752e-05
-7.39784e-07
1.39297e-05
-5.27532e-08
1.37919e-05
6.32158e-07
1.35596e-05
1.31218e-06
1.32305e-05
1.98492e-06
1.28023e-05
2.64769e-06
1.22724e-05
3.29742e-06
1.16385e-05
3.93071e-06
1.08979e-05
4.54385e-06
1.00485e-05
5.13349e-06
9.08934e-06
5.69884e-06
8.02093e-06
6.24922e-06
6.84294e-06
6.83326e-06
5.53893e-06
7.64675e-06
4.03756e-06
9.2701e-06
2.22286e-06
1.24819e-05
-1.36571e-09
1.61203e-05
-2.47346e-06
1.87268e-05
-4.04617e-06
1.89627e-05
-4.98122e-06
1.53709e-05
-5.93103e-06
1.15247e-05
-7.00718e-06
9.36834e-06
-8.0877e-06
8.09493e-06
-9.11276e-06
7.11556e-06
-1.00547e-05
6.269e-06
-1.09034e-05
5.50037e-06
-1.16587e-05
4.79042e-06
-1.23257e-05
4.13213e-06
-1.29104e-05
3.52052e-06
-1.34179e-05
2.9492e-06
-1.38514e-05
2.41024e-06
-1.42125e-05
1.89544e-06
-1.45018e-05
1.39754e-06
-1.47195e-05
9.10998e-07
-1.48659e-05
4.32044e-07
-1.49413e-05
-4.15186e-08
-1.49465e-05
-5.10019e-07
-1.48825e-05
-9.74228e-07
-1.47498e-05
-1.43265e-06
-1.45498e-05
-1.88288e-06
-1.42839e-05
-2.32229e-06
-1.39541e-05
-2.74825e-06
-1.35631e-05
-3.15833e-06
-1.31138e-05
-3.5506e-06
-1.26097e-05
-3.92378e-06
-1.20544e-05
-4.2775e-06
-1.14514e-05
-4.61224e-06
-1.08043e-05
-4.92933e-06
-1.0116e-05
-5.23066e-06
-9.389e-06
-5.51825e-06
-8.62508e-06
-5.79377e-06
-7.82556e-06
-6.05784e-06
-6.99145e-06
-6.30932e-06
-6.12382e-06
-6.54451e-06
-5.22441e-06
-6.75634e-06
-4.29643e-06
-6.93349e-06
-3.34561e-06
-7.05944e-06
-2.38135e-06
-7.11174e-06
-1.41728e-06
-7.06164e-06
-4.71474e-07
-6.87321e-06
4.76792e-07
-6.48274e-06
1.4041e-06
-5.76457e-06
2.21453e-06
-4.686e-06
2.84461e-06
-3.3063e-06
3.22153e-06
-1.67023e-06
3.2832e-06
9.24706e-08
3.03538e-06
1.78292e-06
2.51927e-06
3.2831e-06
1.7901e-06
4.56389e-06
9.8506e-07
6.36241e-06
1.34087e-05
-1.54624e-06
3.28601e-06
-3.3641e-06
-4.5567e-07
-4.55336e-06
-1.15027e-06
-4.71176e-06
-6.17122e-07
-3.53957e-06
1.1838e-06
-1.10857e-06
4.27073e-06
1.87322e-06
8.36472e-06
3.62802e-06
7.256e-06
5.5148e-06
1.83527e-07
6.16316e-06
-4.5995e-06
6.21107e-06
-7.44409e-06
6.1837e-06
-9.08365e-06
6.31617e-06
-1.00414e-05
6.6478e-06
-1.05703e-05
7.13455e-06
-1.07609e-05
7.71657e-06
-1.06581e-05
8.34365e-06
-1.03124e-05
8.98034e-06
-9.78403e-06
9.60429e-06
-9.13298e-06
1.02026e-05
-8.41014e-06
1.07678e-05
-7.65267e-06
1.12953e-05
-6.88382e-06
1.17805e-05
-6.11541e-06
1.22186e-05
-5.35139e-06
1.26038e-05
-4.59109e-06
1.29296e-05
-3.83193e-06
1.31894e-05
-3.07111e-06
1.33767e-05
-2.3066e-06
1.34854e-05
-1.53764e-06
1.35104e-05
-7.64797e-07
1.3447e-05
1.06954e-08
1.32916e-05
7.87559e-07
1.30414e-05
1.56235e-06
1.26937e-05
2.33268e-06
1.22456e-05
3.09576e-06
1.16945e-05
3.84849e-06
1.10378e-05
4.58738e-06
1.02731e-05
5.30859e-06
9.39835e-06
6.00824e-06
8.41284e-06
6.68435e-06
7.31751e-06
7.34455e-06
6.11183e-06
8.03894e-06
4.77524e-06
8.98333e-06
3.22256e-06
1.08228e-05
1.34308e-06
1.43614e-05
-9.25883e-07
1.83892e-05
-3.0102e-06
2.08111e-05
-4.21173e-06
2.01643e-05
-4.96983e-06
1.6129e-05
-5.85495e-06
1.24098e-05
-6.88128e-06
1.03947e-05
-7.91963e-06
9.13328e-06
-8.91136e-06
8.10729e-06
-9.82973e-06
7.18736e-06
-1.06648e-05
6.33549e-06
-1.14162e-05
5.54179e-06
-1.20874e-05
4.80328e-06
-1.26824e-05
4.11556e-06
-1.32043e-05
3.4711e-06
-1.36546e-05
2.86058e-06
-1.4034e-05
2.27481e-06
-1.43426e-05
1.70611e-06
-1.45805e-05
1.14893e-06
-1.47482e-05
5.99739e-07
-1.48463e-05
5.65957e-08
-1.48753e-05
-4.81022e-07
-1.48362e-05
-1.0134e-06
-1.47292e-05
-1.5396e-06
-1.45551e-05
-2.05692e-06
-1.43151e-05
-2.56231e-06
-1.40108e-05
-3.05254e-06
-1.36446e-05
-3.52455e-06
-1.32195e-05
-3.97574e-06
-1.2739e-05
-4.40429e-06
-1.22071e-05
-4.80941e-06
-1.16278e-05
-5.19145e-06
-1.10053e-05
-5.55186e-06
-1.03431e-05
-5.89292e-06
-9.64401e-06
-6.2173e-06
-8.91036e-06
-6.52743e-06
-8.14352e-06
-6.82467e-06
-7.34433e-06
-7.10851e-06
-6.51331e-06
-7.37553e-06
-5.65128e-06
-7.61837e-06
-4.7601e-06
-7.82466e-06
-3.84374e-06
-7.9758e-06
-2.90954e-06
-8.04594e-06
-1.96988e-06
-8.0013e-06
-1.04313e-06
-7.79996e-06
-1.33361e-07
-7.39251e-06
7.80997e-07
-6.67893e-06
1.62395e-06
-5.52895e-06
2.31429e-06
-3.99664e-06
2.77425e-06
-2.1302e-06
2.91127e-06
-4.45492e-08
2.73452e-06
1.95967e-06
2.28746e-06
3.73016e-06
1.63253e-06
5.21882e-06
8.8204e-07
7.1129e-06
1.42907e-05
-1.59002e-06
4.87603e-06
-3.2903e-06
1.24461e-06
-4.658e-06
2.17434e-07
-5.29076e-06
1.56434e-08
-4.75152e-06
6.4456e-07
-2.68681e-06
2.20602e-06
9.77077e-07
4.70083e-06
4.25985e-06
3.97323e-06
6.03249e-06
-1.58912e-06
6.5566e-06
-5.12361e-06
6.62335e-06
-7.51085e-06
6.67308e-06
-9.13338e-06
6.86012e-06
-1.02284e-05
7.19077e-06
-1.0901e-05
7.62441e-06
-1.11945e-05
8.11773e-06
-1.11514e-05
8.63743e-06
-1.08321e-05
9.16167e-06
-1.03083e-05
9.67789e-06
-9.64921e-06
1.01794e-05
-8.91166e-06
1.06621e-05
-8.13533e-06
1.11218e-05
-7.34352e-06
1.15531e-05
-6.54678e-06
1.19492e-05
-5.74744e-06
1.23017e-05
-4.94363e-06
1.26019e-05
-4.13214e-06
1.2841e-05
-3.31019e-06
1.30107e-05
-2.47627e-06
1.31035e-05
-1.63044e-06
1.3113e-05
-7.74321e-07
1.3034e-05
8.96833e-08
1.28627e-05
9.58917e-07
1.25953e-05
1.8297e-06
1.22286e-05
2.69935e-06
1.17597e-05
3.56471e-06
1.11858e-05
4.42241e-06
1.05045e-05
5.26863e-06
9.71408e-06
6.09904e-06
8.81333e-06
6.90899e-06
7.80252e-06
7.69516e-06
6.68331e-06
8.46377e-06
5.45428e-06
9.26797e-06
4.08973e-06
1.03479e-05
2.49617e-06
1.24163e-05
4.92394e-07
1.63652e-05
-1.71589e-06
2.05975e-05
-3.44388e-06
2.25391e-05
-4.3551e-06
2.10755e-05
-4.99306e-06
1.6767e-05
-5.82967e-06
1.32464e-05
-6.80599e-06
1.1371e-05
-7.79618e-06
1.01235e-05
-8.74651e-06
9.05763e-06
-9.63274e-06
8.0736e-06
-1.04458e-05
7.1485e-06
-1.11844e-05
6.28042e-06
-1.18506e-05
5.46945e-06
-1.24464e-05
4.71144e-06
-1.29734e-05
3.99802e-06
-1.34318e-05
3.31901e-06
-1.38218e-05
2.66482e-06
-1.41435e-05
2.02779e-06
-1.43971e-05
1.40257e-06
-1.45832e-05
7.85855e-07
-1.47025e-05
1.75863e-07
-1.47551e-05
-4.28396e-07
-1.47416e-05
-1.02695e-06
-1.46616e-05
-1.61953e-06
-1.45154e-05
-2.20321e-06
-1.43032e-05
-2.77446e-06
-1.40263e-05
-3.32939e-06
-1.36868e-05
-3.8641e-06
-1.32874e-05
-4.37512e-06
-1.28319e-05
-4.85983e-06
-1.23245e-05
-5.31683e-06
-1.17698e-05
-5.7461e-06
-1.11726e-05
-6.14909e-06
-1.05371e-05
-6.52842e-06
-9.86694e-06
-6.88744e-06
-9.16491e-06
-7.22946e-06
-8.43271e-06
-7.55687e-06
-7.67118e-06
-7.87005e-06
-6.88042e-06
-8.16628e-06
-6.06038e-06
-8.43842e-06
-5.21149e-06
-8.67355e-06
-4.33578e-06
-8.85152e-06
-3.43818e-06
-8.94353e-06
-2.52822e-06
-8.91126e-06
-1.62152e-06
-8.70667e-06
-7.40736e-07
-8.27329e-06
1.2848e-07
-7.54815e-06
9.89977e-07
-6.39044e-06
1.73371e-06
-4.74037e-06
2.27936e-06
-2.67584e-06
2.512e-06
-2.77185e-07
2.41255e-06
2.05911e-06
2.04333e-06
4.09939e-06
1.47373e-06
5.78841e-06
7.93073e-07
7.79356e-06
1.50838e-05
-1.44291e-06
6.31894e-06
-2.75215e-06
2.55385e-06
-3.88331e-06
1.3486e-06
-4.60946e-06
7.41788e-07
-4.57967e-06
6.1477e-07
-3.23466e-06
8.61012e-07
2.6557e-07
1.20061e-06
4.16296e-06
7.5843e-08
5.62653e-06
-3.0527e-06
6.22763e-06
-5.7247e-06
6.53331e-06
-7.81652e-06
6.80478e-06
-9.40485e-06
7.12952e-06
-1.05532e-05
7.51242e-06
-1.12839e-05
7.93331e-06
-1.16154e-05
8.37155e-06
-1.15896e-05
8.81322e-06
-1.12738e-05
9.25155e-06
-1.07466e-05
9.68465e-06
-1.00823e-05
1.01124e-05
-9.33938e-06
1.05336e-05
-8.55653e-06
1.09445e-05
-7.75444e-06
1.13384e-05
-6.94065e-06
1.1706e-05
-6.11509e-06
1.20369e-05
-5.27449e-06
1.232e-05
-4.41525e-06
1.25447e-05
-3.53496e-06
1.27015e-05
-2.633e-06
1.27816e-05
-1.71059e-06
1.2778e-05
-7.70699e-07
1.26848e-05
1.82903e-07
1.24977e-05
1.14602e-06
1.22127e-05
2.11464e-06
1.18263e-05
3.08585e-06
1.1335e-05
4.05598e-06
1.07363e-05
5.02111e-06
1.00283e-05
5.97662e-06
9.21006e-06
6.91726e-06
8.28184e-06
7.83721e-06
7.24538e-06
8.73162e-06
6.1032e-06
9.60596e-06
4.85185e-06
1.05193e-05
3.45576e-06
1.1744e-05
1.80612e-06
1.4066e-05
-3.54684e-07
1.8526e-05
-2.37979e-06
2.26226e-05
-3.79447e-06
2.39538e-05
-4.48297e-06
2.1764e-05
-5.03924e-06
1.73232e-05
-5.83278e-06
1.404e-05
-6.75605e-06
1.22943e-05
-7.69287e-06
1.10603e-05
-8.59588e-06
9.96063e-06
-9.44361e-06
8.92134e-06
-1.02276e-05
7.93248e-06
-1.09459e-05
6.99867e-06
-1.15988e-05
6.1224e-06
-1.21871e-05
5.29974e-06
-1.2711e-05
4.52188e-06
-1.31703e-05
3.77835e-06
-1.35651e-05
3.05959e-06
-1.38955e-05
2.3582e-06
-1.41619e-05
1.66902e-06
-1.43649e-05
9.8883e-07
-1.45047e-05
3.15668e-07
-1.45813e-05
-3.51821e-07
-1.45944e-05
-1.01379e-06
-1.45432e-05
-1.67081e-06
-1.44266e-05
-2.31978e-06
-1.42444e-05
-2.95663e-06
-1.39972e-05
-3.57663e-06
-1.36864e-05
-4.17487e-06
-1.33148e-05
-4.74678e-06
-1.28859e-05
-5.2887e-06
-1.24044e-05
-5.79833e-06
-1.18754e-05
-6.2751e-06
-1.13043e-05
-6.72021e-06
-1.06962e-05
-7.13653e-06
-1.00556e-05
-7.52803e-06
-9.386e-06
-7.89903e-06
-8.68977e-06
-8.2531e-06
-7.96789e-06
-8.59192e-06
-7.2203e-06
-8.91387e-06
-6.44617e-06
-9.21255e-06
-5.64458e-06
-9.47514e-06
-4.81552e-06
-9.68058e-06
-3.96128e-06
-9.79777e-06
-3.08821e-06
-9.78433e-06
-2.20849e-06
-9.58639e-06
-1.34111e-06
-9.14068e-06
-5.10263e-07
-8.37899e-06
3.16726e-07
-7.21743e-06
1.106e-06
-5.52965e-06
1.73855e-06
-3.30839e-06
2.08537e-06
-6.24008e-07
2.06615e-06
2.07833e-06
1.78258e-06
4.38296e-06
1.30842e-06
6.26257e-06
7.1041e-07
8.39157e-06
1.57942e-05
-1.22103e-06
7.53997e-06
-2.17684e-06
3.50966e-06
-2.91571e-06
2.08746e-06
-3.29638e-06
1.12246e-06
-3.03644e-06
3.54829e-07
-1.78633e-06
-3.89101e-07
6.72418e-07
-1.25814e-06
3.36364e-06
-2.61538e-06
4.83358e-06
-4.52264e-06
5.69057e-06
-6.58169e-06
6.28405e-06
-8.41e-06
6.77819e-06
-9.89899e-06
7.23678e-06
-1.10117e-05
7.67628e-06
-1.17234e-05
8.09689e-06
-1.2036e-05
8.49782e-06
-1.19906e-05
8.88223e-06
-1.16582e-05
9.25691e-06
-1.11213e-05
9.62948e-06
-1.04549e-05
1.00053e-05
-9.71515e-06
1.03851e-05
-8.93634e-06
1.07646e-05
-8.134e-06
1.11353e-05
-7.31137e-06
1.14858e-05
-6.46557e-06
1.18034e-05
-5.59211e-06
1.20756e-05
-4.6874e-06
1.22904e-05
-3.74979e-06
1.24372e-05
-2.77978e-06
1.25065e-05
-1.77995e-06
1.24907e-05
-7.54871e-07
1.23834e-05
2.90194e-07
1.218e-05
1.34943e-06
1.18763e-05
2.41833e-06
1.14684e-05
3.49381e-06
1.09527e-05
4.57162e-06
1.0327e-05
5.64688e-06
9.58987e-06
6.71371e-06
8.74185e-06
7.76528e-06
7.78496e-06
8.7941e-06
6.72284e-06
9.79374e-06
5.55877e-06
1.077e-05
4.28592e-06
1.17922e-05
2.85536e-06
1.31745e-05
1.10096e-06
1.58204e-05
-1.14919e-06
2.07761e-05
-2.94167e-06
2.44151e-05
-4.07885e-06
2.50909e-05
-4.59738e-06
2.22825e-05
-5.09597e-06
1.78218e-05
-5.8457e-06
1.47897e-05
-6.71145e-06
1.316e-05
-7.59028e-06
1.19391e-05
-8.44128e-06
1.08116e-05
-9.24548e-06
9.72554e-06
-9.9947e-06
8.6817e-06
-1.06861e-05
7.69005e-06
-1.13188e-05
6.75508e-06
-1.18923e-05
5.87332e-06
-1.24065e-05
5.03601e-06
-1.2861e-05
4.23284e-06
-1.32559e-05
3.45456e-06
-1.35918e-05
2.69404e-06
-1.3869e-05
1.9462e-06
-1.40877e-05
1.20757e-06
-1.42478e-05
4.75788e-07
-1.43487e-05
-2.50969e-07
-1.43894e-05
-9.73076e-07
-1.4368e-05
-1.69215e-06
-1.42829e-05
-2.40497e-06
-1.41326e-05
-3.10684e-06
-1.39172e-05
-3.79206e-06
-1.36375e-05
-4.45454e-06
-1.32959e-05
-5.08838e-06
-1.2896e-05
-5.68865e-06
-1.24424e-05
-6.25193e-06
-1.19407e-05
-6.77676e-06
-1.1397e-05
-7.26392e-06
-1.08173e-05
-7.71628e-06
-1.0207e-05
-8.13835e-06
-9.57055e-06
-8.53543e-06
-8.91115e-06
-8.9125e-06
-8.2303e-06
-9.27277e-06
-7.528e-06
-9.61617e-06
-6.80293e-06
-9.93763e-06
-6.05295e-06
-1.02251e-05
-5.27605e-06
-1.04575e-05
-4.47173e-06
-1.06021e-05
-3.6428e-06
-1.06133e-05
-2.79752e-06
-1.04317e-05
-1.95166e-06
-9.98653e-06
-1.12974e-06
-9.20092e-06
-3.44858e-07
-8.00231e-06
4.34307e-07
-6.30881e-06
1.14765e-06
-4.02173e-06
1.63281e-06
-1.10917e-06
1.69207e-06
2.01907e-06
1.50575e-06
4.56927e-06
1.13647e-06
6.63185e-06
6.30906e-07
8.89713e-06
1.64251e-05
-1.00368e-06
8.54364e-06
-1.66865e-06
4.17463e-06
-2.0938e-06
2.51261e-06
-2.17328e-06
1.20194e-06
-1.67225e-06
-1.46197e-07
-3.96394e-07
-1.66496e-06
1.30057e-06
-2.9551e-06
2.97874e-06
-4.29355e-06
4.33137e-06
-5.87527e-06
5.32169e-06
-7.57201e-06
6.08253e-06
-9.17085e-06
6.71199e-06
-1.05285e-05
7.25515e-06
-1.15549e-05
7.72971e-06
-1.21979e-05
8.14612e-06
-1.24524e-05
8.51679e-06
-1.23612e-05
8.85792e-06
-1.19993e-05
9.18695e-06
-1.14503e-05
9.51864e-06
-1.07866e-05
9.8617e-06
-1.00582e-05
1.02173e-05
-9.29196e-06
1.05798e-05
-8.49643e-06
1.09383e-05
-7.66991e-06
1.12796e-05
-6.80689e-06
1.15897e-05
-5.90214e-06
1.18548e-05
-4.95257e-06
1.20625e-05
-3.95749e-06
1.22012e-05
-2.9185e-06
1.22608e-05
-1.83951e-06
1.22328e-05
-7.26873e-07
1.21106e-05
4.12359e-07
1.18895e-05
1.57062e-06
1.15648e-05
2.74296e-06
1.11326e-05
3.92601e-06
1.05895e-05
5.11473e-06
9.93353e-06
6.30287e-06
9.16465e-06
7.48259e-06
8.2851e-06
8.64483e-06
7.2993e-06
9.7799e-06
6.21303e-06
1.088e-05
5.02999e-06
1.19531e-05
3.73871e-06
1.30834e-05
2.28272e-06
1.46305e-05
3.34379e-07
1.77687e-05
-1.86744e-06
2.29779e-05
-3.42168e-06
2.59693e-05
-4.31349e-06
2.59827e-05
-4.69931e-06
2.26683e-05
-5.15212e-06
1.82746e-05
-5.85318e-06
1.54908e-05
-6.6563e-06
1.39631e-05
-7.47288e-06
1.27557e-05
-8.26793e-06
1.16067e-05
-9.02442e-06
1.0482e-05
-9.73411e-06
9.3914e-06
-1.03932e-05
8.34914e-06
-1.09998e-05
7.36167e-06
-1.15528e-05
6.42635e-06
-1.20518e-05
5.53497e-06
-1.24967e-05
4.67776e-06
-1.28881e-05
3.84595e-06
-1.32266e-05
3.03255e-06
-1.35126e-05
2.23225e-06
-1.37461e-05
1.44099e-06
-1.39259e-05
6.55625e-07
-1.40506e-05
-1.26227e-07
-1.41187e-05
-9.04964e-07
-1.41278e-05
-1.68307e-06
-1.4075e-05
-2.45778e-06
-1.39583e-05
-3.22359e-06
-1.37766e-05
-3.97369e-06
-1.35305e-05
-4.70064e-06
-1.32218e-05
-5.3971e-06
-1.28538e-05
-6.05669e-06
-1.24311e-05
-6.67463e-06
-1.19594e-05
-7.24838e-06
-1.14454e-05
-7.77793e-06
-1.08958e-05
-8.26589e-06
-1.03171e-05
-8.71709e-06
-9.71476e-06
-9.13776e-06
-9.09299e-06