/*--------------------------------*- C++ -*----------------------------------*\
| =========                 |                                                 |
| \\      /  F ield         | OpenFOAM: The Open Source CFD Toolbox           |
|  \\    /   O peration     | Version:  4.1                                   |
|   \\  /    A nd           | Web:      www.OpenFOAM.org                      |
|    \\/     M anipulation  |                                                 |
\*---------------------------------------------------------------------------*/
FoamFile
{
    version     2.0;
    format      ascii;
    class       volScalarField;
    location    "620";
    object      T;
}
// * * * * * * * * * * * * * * * * * * * * * * * * * * * * * * * * * * * * * //

dimensions      [0 0 0 1 0 0 0];

internalField   nonuniform List<scalar> 
5000
(
283.004
282.163
282.324
282.562
282.848
283.176
283.046
282.674
282.476
282.328
282.212
282.161
282.155
282.175
282.229
282.28
282.325
282.368
282.413
282.459
282.508
282.561
282.617
282.677
282.742
282.812
282.888
282.971
283.063
283.163
283.271
283.377
283.485
283.592
283.702
283.813
283.927
284.044
284.166
284.293
284.427
284.568
284.719
284.887
285.077
285.078
284.238
284.085
285.155
285.708
285.435
285.232
285.062
284.913
284.779
284.658
284.545
284.439
284.338
284.242
284.149
284.058
283.97
283.882
283.796
283.711
283.635
283.568
283.509
283.456
283.408
283.366
283.328
283.294
283.264
283.236
283.211
283.188
283.168
283.149
283.133
283.118
283.106
283.095
283.087
283.081
283.079
283.088
283.119
283.159
283.2
283.25
283.316
283.404
283.515
283.645
283.784
283.932
284.093
284.318
282.78
281.724
281.807
281.896
282.101
282.732
282.733
282.11
281.76
281.624
281.594
281.544
281.514
281.503
281.501
281.502
281.504
281.507
281.51
281.512
281.515
281.518
281.52
281.522
281.525
281.527
281.528
281.53
281.532
281.534
281.539
281.555
281.583
281.623
281.675
281.739
281.816
281.905
282.006
282.119
282.245
282.391
282.592
282.943
283.54
284.01
283.672
283.876
284.647
284.299
283.561
283.146
282.867
282.652
282.477
282.328
282.203
282.097
282.009
281.937
281.88
281.837
281.807
281.788
281.78
281.78
281.781
281.782
281.783
281.784
281.786
281.787
281.789
281.79
281.792
281.793
281.795
281.796
281.798
281.799
281.8
281.801
281.802
281.802
281.803
281.803
281.803
281.803
281.802
281.801
281.799
281.797
281.794
281.791
281.786
281.781
281.779
281.831
282.304
283.404
282.702
281.782
281.876
282.085
282.206
282.648
282.693
282.107
281.857
281.789
281.697
281.585
281.527
281.506
281.502
281.503
281.505
281.509
281.513
281.517
281.521
281.525
281.529
281.532
281.534
281.536
281.538
281.54
281.541
281.542
281.542
281.543
281.544
281.547
281.554
281.565
281.582
281.608
281.645
281.694
281.76
281.85
281.995
282.285
282.838
283.397
283.353
283.836
284.123
283.461
282.78
282.431
282.217
282.071
281.967
281.893
281.841
281.806
281.784
281.77
281.763
281.76
281.759
281.76
281.761
281.763
281.765
281.767
281.77
281.773
281.776
281.778
281.781
281.784
281.787
281.79
281.793
281.795
281.797
281.799
281.801
281.803
281.804
281.805
281.805
281.805
281.805
281.804
281.802
281.799
281.796
281.793
281.79
281.786
281.78
281.773
281.763
281.759
281.979
283.043
282.501
281.777
281.932
282.299
282.457
282.683
282.771
282.257
282.095
282.065
281.817
281.63
281.541
281.512
281.505
281.506
281.51
281.515
281.521
281.527
281.533
281.538
281.543
281.548
281.551
281.555
281.557
281.56
281.561
281.563
281.563
281.564
281.564
281.564
281.564
281.565
281.568
281.574
281.585
281.603
281.634
281.686
281.784
282.01
282.491
283.056
283.197
283.761
283.685
282.939
282.379
282.116
281.968
281.877
281.821
281.786
281.766
281.754
281.748
281.746
281.745
281.746
281.747
281.749
281.751
281.754
281.757
281.76
281.764
281.767
281.772
281.776
281.78
281.784
281.788
281.792
281.796
281.799
281.802
281.805
281.807
281.809
281.81
281.811
281.811
281.81
281.809
281.807
281.805
281.801
281.796
281.791
281.787
281.783
281.779
281.772
281.762
281.749
281.867
282.836
282.228
281.723
281.983
282.387
282.649
282.769
282.906
282.468
282.387
282.347
281.904
281.66
281.555
281.517
281.507
281.508
281.514
281.522
281.53
281.538
281.545
281.552
281.558
281.564
281.568
281.572
281.576
281.579
281.581
281.582
281.584
281.584
281.584
281.584
281.583
281.582
281.581
281.581
281.583
281.589
281.603
281.632
281.701
281.885
282.316
282.867
283.155
283.634
283.329
282.596
282.15
281.957
281.855
281.799
281.767
281.749
281.739
281.734
281.731
281.731
281.731
281.732
281.734
281.736
281.739
281.743
281.747
281.752
281.756
281.761
281.767
281.772
281.778
281.783
281.788
281.793
281.798
281.802
281.806
281.81
281.813
281.815
281.816
281.817
281.816
281.815
281.814
281.811
281.807
281.801
281.795
281.788
281.782
281.777
281.773
281.768
281.759
281.744
281.814
282.698
281.991
281.694
281.954
282.338
282.702
282.866
283.032
282.712
282.704
282.389
281.931
281.667
281.553
281.514
281.507
281.511
281.519
281.529
281.539
281.549
281.558
281.566
281.573
281.579
281.585
281.589
281.593
281.596
281.599
281.6
281.602
281.602
281.603
281.602
281.601
281.6
281.598
281.596
281.594
281.595
281.6
281.616
281.667
281.827
282.227
282.761
283.157
283.483
283.037
282.36
282.011
281.868
281.797
281.76
281.739
281.728
281.722
281.718
281.716
281.715
281.716
281.718
281.72
281.723
281.727
281.732
281.737
281.742
281.748
281.754
281.761
281.767
281.774
281.781
281.787
281.793
281.799
281.805
281.81
281.814
281.818
281.82
281.822
281.823
281.822
281.821
281.819
281.815
281.81
281.803
281.794
281.785
281.776
281.769
281.765
281.761
281.753
281.738
281.783
282.598
281.858
281.646
281.84
282.166
282.576
282.877
283.108
282.909
282.815
282.253
281.823
281.61
281.528
281.506
281.506
281.515
281.526
281.538
281.55
281.561
281.571
281.58
281.588
281.594
281.6
281.605
281.608
281.612
281.614
281.616
281.617
281.618
281.618
281.618
281.617
281.615
281.613
281.61
281.607
281.605
281.605
281.614
281.654
281.8
282.185
282.71
283.164
283.322
282.795
282.192
281.92
281.814
281.763
281.737
281.721
281.712
281.707
281.703
281.701
281.7
281.701
281.703
281.706
281.71
281.714
281.719
281.725
281.731
281.738
281.745
281.752
281.76
281.768
281.776
281.784
281.792
281.799
281.806
281.812
281.818
281.822
281.826
281.828
281.829
281.829
281.827
281.824
281.82
281.814
281.806
281.795
281.783
281.77
281.76
281.755
281.752
281.746
281.732
281.763
282.52
281.795
281.571
281.673
281.892
282.248
282.658
283.007
282.955
282.448
281.912
281.641
281.534
281.503
281.501
281.508
281.52
281.534
281.548
281.561
281.573
281.584
281.594
281.602
281.608
281.614
281.618
281.622
281.625
281.627
281.629
281.63
281.631
281.631
281.631
281.63
281.628
281.626
281.623
281.619
281.615
281.612
281.617
281.651
281.791
282.172
282.714
283.148
283.159
282.594
282.07
281.859
281.779
281.741
281.72
281.707
281.698
281.692
281.688
281.686
281.685
281.686
281.688
281.691
281.695
281.7
281.705
281.711
281.718
281.725
281.733
281.741
281.75
281.76
281.769
281.778
281.788
281.797
281.805
281.813
281.82
281.826
281.83
281.833
281.835
281.835
281.833
281.83
281.825
281.819
281.81
281.799
281.783
281.765
281.751
281.744
281.742
281.738
281.726
281.747
282.458
281.768
281.526
281.539
281.621
281.815
282.148
282.532
282.648
281.952
281.642
281.529
281.497
281.494
281.502
281.514
281.528
281.543
281.559
281.573
281.586
281.598
281.607
281.615
281.621
281.626
281.63
281.633
281.635
281.637
281.639
281.64
281.64
281.641
281.64
281.64
281.638
281.636
281.633
281.629
281.625
281.62
281.622
281.653
281.792
282.177
282.748
283.11
283
282.426
281.98
281.816
281.754
281.724
281.706
281.694
281.685
281.678
281.673
281.67
281.669
281.67
281.672
281.675
281.679
281.684
281.689
281.695
281.703
281.71
281.719
281.728
281.738
281.748
281.759
281.77
281.781
281.792
281.802
281.812
281.82
281.827
281.833
281.838
281.84
281.841
281.84
281.837
281.832
281.825
281.815
281.804
281.786
281.764
281.742
281.731
281.73
281.728
281.718
281.735
282.406
281.761
281.52
281.5
281.5
281.535
281.636
281.814
281.844
281.558
281.494
281.483
281.487
281.495
281.507
281.521
281.537
281.554
281.571
281.586
281.599
281.61
281.619
281.627
281.632
281.636
281.64
281.642
281.644
281.646
281.647
281.648
281.648
281.648
281.648
281.648
281.647
281.645
281.642
281.638
281.633
281.628
281.628
281.657
281.8
282.212
282.781
283.054
282.847
282.287
281.913
281.784
281.736
281.71
281.694
281.681
281.671
281.664
281.659
281.655
281.654
281.654
281.655
281.658
281.662
281.666
281.672
281.678
281.686
281.694
281.703
281.713
281.723
281.735
281.746
281.759
281.771
281.784
281.796
281.808
281.818
281.828
281.835
281.841
281.845
281.846
281.846
281.843
281.838
281.831
281.822
281.809
281.791
281.765
281.735
281.717
281.717
281.718
281.709
281.724
282.363
281.762
281.523
281.499
281.483
281.474
281.471
281.473
281.466
281.469
281.474
281.481
281.49
281.501
281.514
281.53
281.548
281.566
281.584
281.599
281.612
281.623
281.631
281.637
281.642
281.646
281.648
281.65
281.652
281.653
281.654
281.654
281.655
281.655
281.655
281.654
281.653
281.652
281.65
281.646
281.641
281.635
281.634
281.664
281.815
282.275
282.801
282.985
282.703
282.173
281.861
281.761
281.721
281.699
281.683
281.67
281.659
281.65
281.644
281.64
281.638
281.637
281.638
281.641
281.644
281.649
281.654
281.661
281.668
281.676
281.685
281.696
281.707
281.719
281.731
281.745
281.759
281.773
281.788
281.801
281.814
281.826
281.835
281.843
281.848
281.851
281.852
281.85
281.845
281.838
281.829
281.816
281.798
281.771
281.733
281.702
281.703
281.706
281.7
281.713
282.327
281.768
281.529
281.503
281.486
281.472
281.462
281.462
281.465
281.47
281.477
281.485
281.495
281.507
281.522
281.54
281.56
281.579
281.597
281.612
281.625
281.634
281.641
281.647
281.65
281.653
281.655
281.657
281.658
281.659
281.66
281.66
281.661
281.661
281.661
281.66
281.66
281.659
281.656
281.653
281.648
281.642
281.64
281.673
281.838
282.352
282.807
282.905
282.571
282.08
281.822
281.742
281.709
281.689
281.672
281.658
281.647
281.637
281.63
281.625
281.622
281.621
281.622
281.624
281.627
281.631
281.637
281.643
281.65
281.658
281.667
281.678
281.689
281.701
281.714
281.729
281.744
281.76
281.776
281.792
281.808
281.822
281.834
281.844
281.851
281.855
281.857
281.856
281.852
281.846
281.837
281.824
281.805
281.778
281.736
281.689
281.687
281.693
281.69
281.703
282.296
281.776
281.534
281.508
281.489
281.473
281.462
281.462
281.466
281.472
281.48
281.489
281.5
281.514
281.532
281.552
281.573
281.593
281.611
281.625
281.636
281.645
281.65
281.655
281.658
281.66
281.662
281.663
281.665
281.665
281.666
281.666
281.667
281.667
281.667
281.667
281.666
281.665
281.663
281.66
281.654
281.648
281.647
281.684
281.89
282.422
282.799
282.82
282.451
282.004
281.792
281.728
281.699
281.68
281.663
281.648
281.635
281.625
281.617
281.611
281.608
281.606
281.606
281.608
281.611
281.615
281.62
281.626
281.633
281.641
281.65
281.66
281.671
281.683
281.696
281.711
281.727
281.745
281.763
281.781
281.799
281.815
281.83
281.842
281.852
281.858
281.861
281.861
281.858
281.853
281.845
281.833
281.815
281.786
281.744
281.685
281.669
281.678
281.678
281.694
282.269
281.785
281.539
281.512
281.492
281.471
281.462
281.462
281.466
281.474
281.483
281.494
281.507
281.523
281.543
281.564
281.587
281.607
281.624
281.637
281.647
281.654
281.658
281.662
281.664
281.666
281.668
281.67
281.671
281.672
281.673
281.673
281.674
281.674
281.674
281.674
281.674
281.672
281.67
281.666
281.661
281.654
281.654
281.698
281.965
282.478
282.779
282.732
282.343
281.942
281.769
281.716
281.691
281.672
281.654
281.638
281.624
281.613
281.604
281.598
281.594
281.592
281.592
281.593
281.596
281.6
281.606
281.612
281.618
281.626
281.634
281.643
281.654
281.665
281.678
281.693
281.709
281.727
281.747
281.767
281.787
281.806
281.824
281.839
281.851
281.86
281.865
281.866
281.864
281.86
281.853
281.842
281.825
281.798
281.753
281.691
281.643
281.662
281.665
281.684
282.246
281.795
281.543
281.516
281.495
281.469
281.462
281.463
281.468
281.477
281.487
281.499
281.514
281.533
281.555
281.578
281.601
281.621
281.637
281.648
281.656
281.662
281.665
281.668
281.67
281.673
281.674
281.676
281.678
281.679
281.68
281.681
281.682
281.682
281.683
281.683
281.682
281.68
281.678
281.673
281.667
281.66
281.662
281.725
282.053
282.521
282.749
282.642
282.248
281.893
281.75
281.707
281.684
281.664
281.646
281.63
281.615
281.603
281.593
281.586
281.582
281.58
281.579
281.581
281.584
281.588
281.593
281.6
281.606
281.613
281.621
281.629
281.639
281.649
281.661
281.675
281.691
281.709
281.729
281.751
281.773
281.795
281.816
281.834
281.849
281.86
281.867
281.87
281.869
281.866
281.86
281.851
281.837
281.811
281.767
281.699
281.628
281.645
281.651
281.674
282.226
281.803
281.547
281.518
281.495
281.47
281.462
281.463
281.47
281.48
281.492
281.506
281.522
281.543
281.568
281.593
281.616
281.635
281.649
281.658
281.665
281.669
281.672
281.674
281.676
281.679
281.681
281.683
281.685
281.687
281.689
281.691
281.692
281.693
281.694
281.694
281.693
281.69
281.686
281.68
281.673
281.666
281.673
281.779
282.138
282.55
282.709
282.554
282.165
281.853
281.735
281.699
281.678
281.658
281.64
281.622
281.607
281.594
281.583
281.576
281.571
281.569
281.569
281.571
281.574
281.579
281.585
281.591
281.598
281.605
281.612
281.619
281.627
281.636
281.646
281.658
281.673
281.691
281.711
281.733
281.757
281.782
281.806
281.827
281.845
281.859
281.868
281.873
281.874
281.871
281.866
281.859
281.847
281.825
281.784
281.716
281.633
281.627
281.637
281.664
282.208
281.812
281.551
281.521
281.491
281.469
281.462
281.464
281.472
281.484
281.497
281.513
281.532
281.556
281.582
281.608
281.63
281.647
281.659
281.667
281.671
281.674
281.677
281.68
281.682
281.685
281.688
281.691
281.695
281.698
281.701
281.704
281.706
281.708
281.709
281.708
281.705
281.701
281.695
281.687
281.679
281.674
281.693
281.852
282.214
282.567
282.663
282.469
282.092
281.82
281.724
281.692
281.673
281.653
281.634
281.616
281.6
281.586
281.575
281.567
281.562
281.56
281.56
281.563
281.567
281.572
281.579
281.586
281.593
281.6
281.607
281.613
281.62
281.627
281.635
281.645
281.657
281.673
281.692
281.715
281.74
281.767
281.793
281.818
281.839
281.856
281.869
281.875
281.878
281.876
281.872
281.866
281.857
281.84
281.804
281.738
281.646
281.608
281.62
281.654
282.192
281.82
281.553
281.521
281.488
281.469
281.462
281.465
281.476
281.489
281.503
281.521
281.543
281.569
281.597
281.623
281.644
281.659
281.669
281.674
281.677
281.68
281.682
281.685
281.689
281.692
281.696
281.701
281.707
281.713
281.718
281.722
281.726
281.728
281.728
281.725
281.719
281.712
281.704
281.695
281.686
281.685
281.733
281.932
282.28
282.571
282.611
282.389
282.03
281.794
281.714
281.687
281.669
281.65
281.631
281.612
281.595
281.58
281.569
281.56
281.555
281.553
281.554
281.557
281.562
281.568
281.576
281.584
281.592
281.599
281.606
281.612
281.617
281.622
281.628
281.635
281.644
281.657
281.674
281.696
281.722
281.75
281.779
281.806
281.831
281.852
281.867
281.877
281.881
281.88
281.877
281.873
281.866
281.853
281.824
281.764
281.667
281.587
281.603
281.643
282.178
281.827
281.556
281.521
281.486
281.467
281.462
281.467
281.48
281.494
281.51
281.53
281.554
281.583
281.612
281.637
281.657
281.669
281.676
281.68
281.682
281.684
281.687
281.691
281.695
281.7
281.706
281.713
281.723
281.734
281.742
281.749
281.754
281.755
281.752
281.744
281.734
281.723
281.712
281.702
281.696
281.707
281.789
282.013
282.334
282.565
282.555
282.313
281.977
281.773
281.706
281.683
281.666
281.647
281.628
281.609
281.592
281.576
281.564
281.556
281.55
281.548
281.549
281.553
281.559
281.566
281.575
281.584
281.593
281.602
281.609
281.614
281.619
281.622
281.625
281.629
281.635
281.645
281.659
281.678
281.703
281.732
281.762
281.793
281.822
281.846
281.865
281.877
281.883
281.884
281.881
281.878
281.873
281.864
281.843
281.792
281.697
281.576
281.585
281.633
282.166
281.834
281.557
281.519
281.484
281.466
281.463
281.47
281.485
281.501
281.518
281.54
281.567
281.598
281.627
281.652
281.668
281.678
281.682
281.684
281.686
281.689
281.693
281.698
281.703
281.709
281.718
281.73
281.746
281.764
281.779
281.791
281.794
281.789
281.778
281.763
281.748
281.734
281.721
281.712
281.712
281.744
281.857
282.089
282.376
282.55
282.498
282.244
281.933
281.756
281.7
281.68
281.664
281.646
281.627
281.608
281.591
281.575
281.562
281.553
281.547
281.544
281.545
281.55
281.556
281.565
281.575
281.586
281.596
281.605
281.613
281.62
281.625
281.627
281.628
281.629
281.631
281.636
281.646
281.662
281.685
281.713
281.745
281.778
281.81
281.838
281.86
281.876
281.885
281.887
281.885
281.882
281.878
281.874
281.86
281.821
281.736
281.601
281.567
281.623
282.156
281.84
281.559
281.517
281.482
281.465
281.463
281.474
281.49
281.507
281.526
281.551
281.581
281.613
281.643
281.664
281.678
281.685
281.687
281.688
281.69
281.694
281.699
281.705
281.712
281.721
281.733
281.753
281.78
281.809
281.837
281.849
281.841
281.822
281.8
281.778
281.759
281.743
281.731
281.727
281.739
281.794
281.929
282.158
282.405
282.527
282.44
282.181
281.894
281.742
281.695
281.678
281.663
281.647
281.628
281.61
281.592
281.576
281.562
281.552
281.545
281.542
281.543
281.547
281.554
281.563
281.574
281.586
281.597
281.608
281.618
281.626
281.632
281.635
281.635
281.634
281.632
281.632
281.637
281.649
281.668
281.695
281.727
281.762
281.796
281.828
281.854
281.874
281.885
281.89
281.888
281.885
281.882
281.881
281.874
281.849
281.779
281.652
281.553
281.615
282.15
281.846
281.559
281.514
281.48
281.464
281.465
281.479
281.496
281.515
281.536
281.563
281.596
281.629
281.657
281.676
281.686
281.69
281.691
281.692
281.694
281.699
281.705
281.712
281.722
281.734
281.754
281.784
281.826
281.871
281.909
281.904
281.875
281.842
281.813
281.788
281.768
281.754
281.747
281.751
281.779
281.853
282.001
282.216
282.422
282.498
282.383
282.124
281.862
281.731
281.691
281.676
281.664
281.648
281.631
281.613
281.595
281.579
281.565
281.554
281.547
281.543
281.542
281.545
281.551
281.56
281.571
281.583
281.595
281.608
281.62
281.63
281.638
281.643
281.644
281.642
281.638
281.634
281.633
281.639
281.654
281.677
281.709
281.745
281.782
281.816
281.847
281.87
281.885
281.892
281.892
281.888
281.885
281.885
281.885
281.873
281.824
281.708
281.559
281.63
282.145
281.851
281.56
281.512
281.478
281.464
281.468
281.484
281.503
281.522
281.546
281.576
281.611
281.644
281.67
281.686
281.693
281.694
281.694
281.695
281.699
281.705
281.712
281.721
281.733
281.751
281.78
281.824
281.885
281.961
281.96
281.923
281.883
281.847
281.818
281.796
281.78
281.771
281.771
281.787
281.829
281.917
282.067
282.263
282.429
282.466
282.33
282.074
281.836
281.721
281.688
281.675
281.664
281.651
281.635
281.618
281.601
281.585
281.571
281.56
281.551
281.546
281.544
281.545
281.549
281.556
281.565
281.576
281.589
281.603
281.618
281.631
281.643
281.65
281.653
281.652
281.646
281.639
281.634
281.633
281.642
281.662
281.691
281.727
281.766
281.803
281.837
281.864
281.884
281.894
281.895
281.891
281.886
281.886
281.891
281.893
281.871
281.785
281.619
281.676
282.141
281.855
281.559
281.509
281.475
281.464
281.471
281.49
281.51
281.531
281.557
281.59
281.626
281.659
281.682
281.694
281.697
281.697
281.697
281.699
281.703
281.711
281.72
281.731
281.747
281.772
281.813
281.873
281.952
281.986
281.955
281.915
281.88
281.849
281.825
281.808
281.798
281.797
281.806
281.832
281.885
281.981
282.126
282.298
282.429
282.432
282.28
282.03
281.813
281.713
281.684
281.675
281.666
281.654
281.64
281.625
281.609
281.594
281.58
281.568
281.559
281.552
281.549
281.548
281.55
281.555
281.561
281.57
281.582
281.597
281.614
281.63
281.644
281.654
281.66
281.661
281.656
281.648
281.638
281.632
281.635
281.649
281.675
281.71
281.749
281.789
281.826
281.857
281.881
281.895
281.899
281.895
281.888
281.885
281.891
281.904
281.91
281.878
281.771
281.757
282.137
281.859
281.558
281.506
281.473
281.464
281.476
281.497
281.518
281.54
281.568
281.604
281.641
281.672
281.692
281.7
281.701
281.699
281.699
281.702
281.708
281.717
281.728
281.742
281.763
281.798
281.851
281.926
281.972
281.97
281.94
281.907
281.879
281.856
281.839
281.829
281.826
281.832
281.849
281.884
281.945
282.042
282.176
282.324
282.422
282.4
282.237
281.994
281.795
281.706
281.682
281.674
281.667
281.658
281.646
281.633
281.619
281.605
281.592
281.58
281.571
281.563
281.559
281.556
281.557
281.559
281.564
281.571
281.581
281.596
281.613
281.629
281.644
281.656
281.665
281.668
281.666
281.658
281.646
281.635
281.631
281.639
281.661
281.694
281.733
281.775
281.814
281.849
281.876
281.894
281.902
281.9
281.892
281.884
281.885
281.9
281.927
281.945
281.922
281.865
282.134
281.863
281.557
281.503
281.471
281.466
281.482
281.505
281.526
281.549
281.581
281.619
281.655
281.684
281.7
281.705
281.704
281.702
281.702
281.706
281.714
281.724
281.737
281.755
281.783
281.828
281.889
281.942
281.966
281.957
281.932
281.906
281.886
281.87
281.861
281.858
281.862
281.875
281.9
281.94
282.003
282.096
282.217
282.34
282.413
282.371
282.201
281.964
281.78
281.701
281.679
281.672
281.667
281.661
281.652
281.641
281.629
281.617
281.605
281.595
281.586
281.578
281.573
281.571
281.57
281.572
281.576
281.582
281.591
281.604
281.618
281.632
281.646
281.658
281.667
281.672
281.673
281.667
281.655
281.641
281.632
281.633
281.649
281.679
281.717
281.76
281.801
281.839
281.87
281.892
281.904
281.906
281.897
281.885
281.878
281.885
281.914
281.96
281.997
281.987
282.132
281.865
281.557
281.5
281.47
281.469
281.488
281.512
281.534
281.559
281.594
281.633
281.669
281.694
281.707
281.709
281.706
281.704
281.705
281.71
281.719
281.731
281.747
281.77
281.805
281.854
281.908
281.949
281.963
281.953
281.933
281.914
281.901
281.893
281.89
281.894
281.905
281.924
281.953
281.996
282.058
282.143
282.248
282.35
282.402
282.348
282.174
281.944
281.771
281.697
281.677
281.671
281.668
281.663
281.656
281.648
281.639
281.629
281.619
281.61
281.602
281.596
281.591
281.589
281.588
281.59
281.593
281.6
281.608
281.618
281.629
281.64
281.651
281.661
281.669
281.675
281.677
281.673
281.664
281.649
281.635
281.63
281.64
281.666
281.703
281.745
281.788
281.828
281.862
281.888
281.905
281.911
281.905
281.891
281.875
281.867
281.88
281.924
281.998
282.077
282.131
281.867
281.557
281.497
281.469
281.473
281.496
281.52
281.542
281.57
281.607
281.646
281.681
281.703
281.712
281.712
281.708
281.706
281.708
281.715
281.725
281.739
281.757
281.785
281.823
281.872
281.92
281.953
281.964
281.956
281.941
281.93
281.923
281.921
281.925
281.935
281.951
281.974
282.006
282.049
282.106
282.182
282.271
282.355
282.392
282.333
282.16
281.934
281.767
281.697
281.676
281.67
281.667
281.664
281.66
281.654
281.647
281.64
281.632
281.625
281.619
281.614
281.61
281.608
281.608
281.61
281.613
281.619
281.626
281.634
281.642
281.65
281.658
281.666
281.672
281.677
281.679
281.677
281.67
281.656
281.641
281.631
281.635
281.656
281.69
281.732
281.776
281.817
281.854
281.883
281.904
281.915
281.914
281.902
281.882
281.861
281.848
281.855
281.898
281.989
282.121
281.868
281.557
281.494
281.469
281.478
281.503
281.527
281.55
281.581
281.619
281.659
281.691
281.71
281.717
281.714
281.71
281.708
281.711
281.719
281.73
281.746
281.767
281.798
281.838
281.885
281.929
281.958
281.968
281.964
281.955
281.95
281.949
281.953
281.963
281.978
281.998
282.023
282.055
282.096
282.148
282.213
282.288
282.357
282.385
282.326
282.16
281.939
281.774
281.702
281.68
281.672
281.669
281.666
281.662
281.658
281.654
281.648
281.643
281.638
281.634
281.63
281.628
281.627
281.627
281.628
281.632
281.636
281.642
281.648
281.654
281.66
281.666
281.671
281.675
281.679
281.68
281.679
281.673
281.662
281.646
281.634
281.632
281.648
281.679
281.72
281.764
281.807
281.845
281.877
281.902
281.917
281.921
281.913
281.895
281.871
281.845
281.82
281.798
281.785
281.807
281.868
281.555
281.491
281.47
281.484
281.511
281.535
281.559
281.592
281.631
281.67
281.7
281.717
281.72
281.716
281.712
281.711
281.715
281.723
281.736
281.753
281.777
281.809
281.849
281.894
281.935
281.964
281.975
281.975
281.973
281.972
281.977
281.985
281.999
282.018
282.04
282.067
282.098
282.135
282.181
282.236
282.298
282.355
282.379
282.327
282.173
281.959
281.796
281.72
281.692
281.681
281.675
281.67
281.666
281.663
281.659
281.656
281.652
281.649
281.646
281.644
281.642
281.642
281.642
281.644
281.647
281.651
281.655
281.659
281.663
281.668
281.671
281.675
281.678
281.68
281.681
281.679
281.674
281.664
281.651
281.637
281.633
281.644
281.672
281.71
281.754
281.797
281.837
281.871
281.898
281.917
281.925
281.922
281.909
281.887
281.862
281.838
281.814
281.786
281.746
281.868
281.553
281.488
281.472
281.491
281.519
281.542
281.568
281.603
281.643
281.68
281.708
281.722
281.723
281.719
281.714
281.713
281.718
281.727
281.741
281.759
281.784
281.817
281.858
281.901
281.941
281.969
281.984
281.989
281.991
281.995
282.004
282.016
282.033
282.054
282.077
282.103
282.132
282.165
282.205
282.252
282.304
282.351
282.373
282.333
282.191
281.995
281.839
281.756
281.719
281.702
281.691
281.683
281.677
281.672
281.667
281.663
281.66
281.657
281.655
281.653
281.653
281.653
281.653
281.655
281.657
281.66
281.663
281.666
281.669
281.672
281.675
281.677
281.679
281.68
281.68
281.679
281.673
281.665
281.652
281.64
281.634
281.642
281.666
281.703
281.746
281.789
281.83
281.865
281.894
281.916
281.928
281.929
281.92
281.901
281.876
281.851
281.828
281.8
281.747
281.866
281.549
281.486
281.476
281.499
281.526
281.55
281.578
281.613
281.653
281.689
281.715
281.727
281.727
281.721
281.716
281.716
281.721
281.731
281.745
281.764
281.79
281.824
281.864
281.906
281.945
281.975
281.993
282.002
282.009
282.017
282.028
282.044
282.062
282.083
282.105
282.129
282.155
282.185
282.221
282.261
282.305
282.345
282.367
282.337
282.214
282.042
281.898
281.812
281.766
281.74
281.723
281.711
281.7
281.691
281.683
281.677
281.671
281.667
281.664
281.662
281.66
281.66
281.66
281.661
281.663
281.665
281.667
281.669
281.671
281.673
281.675
281.677
281.678
281.679
281.679
281.676
281.672
281.663
281.652
281.642
281.637
281.643
281.664
281.699
281.74
281.783
281.824
281.86
281.891
281.914
281.929
281.934
281.928
281.912
281.887
281.861
281.837
281.81
281.747
281.864
281.545
281.485
281.481
281.507
281.534
281.558
281.587
281.623
281.661
281.696
281.721
281.731
281.73
281.724
281.718
281.718
281.723
281.733
281.748
281.768
281.795
281.829
281.868
281.91
281.949
281.98
282.001
282.014
282.025
282.037
282.05
282.067
282.085
282.105
282.125
282.146
282.168
282.195
282.226
282.261
282.299
282.335
282.357
282.339
282.237
282.092
281.966
281.882
281.83
281.797
281.774
281.756
281.74
281.727
281.714
281.703
281.694
281.686
281.679
281.674
281.67
281.668
281.666
281.666
281.666
281.667
281.668
281.669
281.67
281.672
281.673
281.674
281.675
281.676
281.675
281.673
281.668
281.661
281.651
281.642
281.639
281.646
281.666
281.698
281.737
281.78
281.82
281.857
281.888
281.913
281.929
281.937
281.934
281.921
281.897
281.869
281.843
281.817
281.747
281.862
281.54
281.485
281.488
281.515
281.54
281.565
281.595
281.631
281.669
281.703
281.727
281.736
281.733
281.726
281.721
281.72
281.725
281.736
281.751
281.771
281.798
281.831
281.87
281.911
281.95
281.983
282.008
282.025
282.039
282.054
282.069
282.086
282.103
282.121
282.137
282.154
282.172
282.194
282.221
282.253
282.287
282.319
282.342
282.336
282.256
282.139
282.034
281.956
281.903
281.866
281.838
281.816
281.796
281.778
281.761
281.745
281.731
281.718
281.706
281.696
281.688
281.682
281.676
281.673
281.67
281.669
281.668
281.668
281.668
281.669
281.669
281.67
281.671
281.671
281.67
281.668
281.664
281.657
281.649
281.642
281.64
281.649
281.67
281.701
281.739
281.779
281.819
281.855
281.887
281.912
281.93
281.939
281.939
281.928
281.905
281.876
281.848
281.821
281.746
281.858
281.536
281.487
281.495
281.522
281.547
281.572
281.602
281.638
281.676
281.71
281.733
281.741
281.737
281.729
281.723
281.722
281.727
281.737
281.753
281.773
281.799
281.832
281.87
281.91
281.95
281.984
282.012
282.034
282.051
282.068
282.085
282.101
282.118
282.132
282.144
282.155
282.168
282.185
282.208
282.236
282.266
282.296
282.32
282.325
282.267
282.178
282.093
282.026
281.976
281.938
281.909
281.884
281.861
281.84
281.82
281.8
281.781
281.763
281.746
281.731
281.718
281.706
281.696
281.688
281.681
281.676
281.672
281.669
281.667
281.666
281.666
281.666
281.666
281.666
281.665
281.662
281.658
281.652
281.645
281.641
281.643
281.654
281.676
281.707
281.743
281.782
281.821
281.856
281.887
281.912
281.931
281.941
281.943
281.933
281.912
281.882
281.852
281.825
281.745
281.853
281.532
281.489
281.501
281.528
281.553
281.578
281.608
281.644
281.682
281.716
281.738
281.746
281.741
281.732
281.725
281.724
281.728
281.738
281.753
281.773
281.799
281.831
281.868
281.908
281.947
281.984
282.014
282.039
282.06
282.079
282.097
282.114
282.129
282.14
282.149
282.154
282.16
282.171
282.188
282.211
282.238
282.265
282.289
282.304
282.267
282.201
282.137
282.082
282.039
282.004
281.976
281.951
281.927
281.905
281.882
281.86
281.838
281.817
281.796
281.777
281.759
281.742
281.727
281.713
281.701
281.691
281.682
281.675
281.67
281.667
281.665
281.663
281.662
281.661
281.659
281.656
281.652
281.647
281.642
281.641
281.647
281.661
281.684
281.715
281.751
281.789
281.826
281.86
281.889
281.914
281.932
281.943
281.945
281.936
281.916
281.887
281.856
281.827
281.743
281.847
281.53
281.493
281.508
281.534
281.559
281.584
281.614
281.649
281.687
281.721
281.744
281.751
281.746
281.736
281.728
281.725
281.729
281.739
281.753
281.773
281.798
281.828
281.864
281.903
281.943
281.98
282.014
282.042
282.066
282.087
282.107
282.124
282.138
282.147
282.152
282.153
282.153
282.156
282.166
282.183
282.204
282.227
282.25
282.27
282.251
282.207
282.16
282.119
282.084
282.054
282.029
282.006
281.984
281.963
281.941
281.918
281.895
281.872
281.849
281.827
281.805
281.784
281.765
281.747
281.73
281.715
281.701
281.689
281.679
281.672
281.666
281.662
281.659
281.656
281.654
281.65
281.646
281.643
281.641
281.644
281.653
281.671
281.696
281.727
281.762
281.798
281.833
281.866
281.894
281.918
281.935