/*--------------------------------*- C++ -*----------------------------------*\
| =========                 |                                                 |
| \\      /  F ield         | OpenFOAM: The Open Source CFD Toolbox           |
|  \\    /   O peration     | Version:  4.1                                   |
|   \\  /    A nd           | Web:      www.OpenFOAM.org                      |
|    \\/     M anipulation  |                                                 |
\*---------------------------------------------------------------------------*/
FoamFile
{
    version     2.0;
    format      ascii;
    class       volScalarField;
    location    "1440";
    object      mag(U);
}
// * * * * * * * * * * * * * * * * * * * * * * * * * * * * * * * * * * * * * //

dimensions      [0 1 -1 0 0 0 0];

internalField   nonuniform List<scalar> 
5000
(
0.00312846
0.00268982
0.00260333
0.00261901
0.00370554
0.00474077
0.00560424
0.00631661
0.00692315
0.00745651
0.0079358
0.0083724
0.00877368
0.00914723
0.00950891
0.00989571
0.0103761
0.011045
0.0119964
0.0132783
0.0148348
0.0164571
0.0177969
0.0183336
0.0175896
0.0152145
0.0112484
0.00690901
0.00416504
0.0036549
0.00429622
0.00550851
0.00700041
0.00852366
0.009945
0.0112179
0.0123365
0.0133126
0.0141635
0.0149075
0.0155605
0.0161363
0.0166455
0.0170966
0.0174961
0.0178487
0.0181582
0.0184273
0.0186582
0.0188523
0.0190113
0.0191362
0.0192283
0.0192888
0.0193193
0.0193226
0.0193017
0.0192576
0.0191918
0.0191056
0.0190002
0.018877
0.018737
0.0185815
0.0184117
0.0182288
0.0180338
0.0178276
0.0176113
0.0173855
0.017151
0.016908
0.0166571
0.0163983
0.0161316
0.0158566
0.0155729
0.0152797
0.014976
0.0146609
0.0143332
0.0139921
0.0136369
0.0132682
0.0128874
0.0124981
0.012107
0.0117271
0.0113819
0.0111102
0.0109472
0.0108316
0.0104315
0.00913168
0.00513469
0.00179915
0.00361671
0.00443197
0.003955
0.00375238
0.00423809
0.00182412
0.00381102
0.0028576
0.0031178
0.00382694
0.00457411
0.00525514
0.00586596
0.00641777
0.00692072
0.00738443
0.00782011
0.00824187
0.00866685
0.0091147
0.00960964
0.0101872
0.0108983
0.0117906
0.0128581
0.0139933
0.0149788
0.0154204
0.0151312
0.0142171
0.0128525
0.0113567
0.0100725
0.00932645
0.00949887
0.0102405
0.011204
0.0122327
0.0132488
0.0142137
0.0151107
0.0159354
0.0166897
0.0173783
0.018007
0.0185814
0.0191064
0.0195863
0.0200245
0.0204241
0.0207873
0.0211159
0.0214116
0.0216757
0.0219093
0.0221135
0.0222893
0.0224374
0.022559
0.0226536
0.0227209
0.0227624
0.0227794
0.0227731
0.0227445
0.0226945
0.0226241
0.0225342
0.0224258
0.0222996
0.0221562
0.0219962
0.0218201
0.0216281
0.0214206
0.0211975
0.0209589
0.0207048
0.0204351
0.0201495
0.0198479
0.0195305
0.0191971
0.0188482
0.0184844
0.018107
0.0177177
0.0173195
0.0169163
0.0165141
0.016121
0.0157474
0.015404
0.0150945
0.0147976
0.0144305
0.0138933
0.0133402
0.0122891
0.010075
0.00627098
0.000680833
0.00220157
0.0048628
0.00549654
0.00233555
0.00491237
0.00388142
0.0035481
0.00378758
0.00428288
0.00483992
0.0053863
0.00589878
0.00637156
0.00680589
0.0072062
0.00757804
0.00792586
0.00825211
0.00856192
0.008875
0.00923248
0.00967372
0.0101812
0.0106676
0.011072
0.0115313
0.0120881
0.0126966
0.0130329
0.0130036
0.0129763
0.0132298
0.0136616
0.014159
0.0146825
0.0152241
0.0157829
0.0163522
0.0169218
0.0174817
0.0180237
0.0185425
0.0190345
0.0194977
0.0199312
0.0203347
0.0207082
0.0210522
0.0213669
0.0216529
0.0219107
0.0221407
0.0223435
0.0225196
0.0226695
0.0227938
0.022893
0.0229677
0.0230187
0.0230466
0.023052
0.0230358
0.0229988
0.0229417
0.0228653
0.0227703
0.0226573
0.0225271
0.0223802
0.0222169
0.0220377
0.0218428
0.0216326
0.0214071
0.0211666
0.0209112
0.0206411
0.0203564
0.0200575
0.0197446
0.0194185
0.0190799
0.0187298
0.0183697
0.0180014
0.0176274
0.0172504
0.016874
0.0165017
0.0161359
0.0157742
0.0154057
0.0150126
0.0146127
0.0143922
0.0147055
0.0150958
0.0144316
0.0121318
0.00861096
0.00279052
0.00469063
0.00639209
0.00284552
0.00561426
0.00476295
0.00418242
0.00408933
0.00432794
0.00472601
0.00517673
0.00562656
0.0060522
0.00644515
0.00680335
0.00712657
0.00741352
0.00766229
0.00787652
0.00807008
0.00825526
0.00841605
0.00848586
0.00836155
0.008101
0.0083701
0.00955681
0.011167
0.012554
0.0136549
0.0147071
0.015649
0.016308
0.0167204
0.0170088
0.0172645
0.0175394
0.0178512
0.0181982
0.0185702
0.0189553
0.019343
0.0197248
0.0200945
0.0204476
0.0207812
0.0210932
0.0213824
0.021648
0.0218895
0.0221066
0.0222993
0.0224675
0.0226114
0.0227311
0.0228268
0.0228989
0.0229476
0.0229735
0.0229772
0.022959
0.0229194
0.0228593
0.0227792
0.0226798
0.0225618
0.022426
0.0222729
0.0221031
0.0219171
0.0217154
0.0214984
0.0212665
0.02102
0.0207592
0.0204845
0.0201961
0.0198946
0.0195803
0.0192537
0.0189157
0.0185669
0.0182085
0.0178415
0.0174674
0.0170876
0.0167035
0.0163167
0.0159276
0.0155354
0.015137
0.0147275
0.0143101
0.0139382
0.0138468
0.0144872
0.0156344
0.0160904
0.0148948
0.0120405
0.00778673
0.00339341
0.00707502
0.00322675
0.00610719
0.00558641
0.0049473
0.00466704
0.00469495
0.00492561
0.00526002
0.0056305
0.00599978
0.0063507
0.00667768
0.00698229
0.00727264
0.00756476
0.00787352
0.00819081
0.00847101
0.00863505
0.00858983
0.00826395
0.00771523
0.00747985
0.00848585
0.0104038
0.0124678
0.0143748
0.0159885
0.017096
0.017733
0.0180676
0.0182534
0.0183961
0.0185523
0.0187441
0.018974
0.0192349
0.0195169
0.0198102
0.0201063
0.0203984
0.0206816
0.0209521
0.0212072
0.0214449
0.0216638
0.0218629
0.0220416
0.0221991
0.0223351
0.0224494
0.0225418
0.0226121
0.0226604
0.0226867
0.0226915
0.0226745
0.0226361
0.0225767
0.0224968
0.022397
0.022278
0.0221404
0.0219849
0.0218123
0.021623
0.0214178
0.021197
0.0209613
0.0207111
0.0204467
0.0201688
0.0198776
0.0195735
0.0192571
0.0189287
0.0185889
0.0182381
0.0178771
0.0175064
0.0171267
0.0167388
0.0163431
0.0159399
0.0155294
0.0151107
0.0146828
0.0142442
0.0137964
0.013352
0.0129677
0.0128634
0.01353
0.0150225
0.0162671
0.0160223
0.0139201
0.0101384
0.00477737
0.007653
0.00345214
0.00650817
0.00639857
0.00579597
0.00542175
0.00529598
0.00537898
0.00560186
0.00590065
0.00623241
0.00657506
0.00692274
0.00728216
0.00766796
0.00809074
0.00854355
0.00899557
0.00939557
0.00968245
0.00980191
0.00973919
0.00959381
0.00966363
0.0103158
0.0117751
0.0136722
0.0154635
0.0168203
0.0177157
0.018254
0.0185628
0.0187482
0.018884
0.019014
0.0191598
0.0193285
0.0195193
0.0197274
0.0199467
0.0201714
0.0203962
0.0206168
0.0208297
0.0210321
0.021222
0.0213976
0.0215576
0.0217009
0.0218266
0.021934
0.0220224
0.0220913
0.0221403
0.0221691
0.0221774
0.0221656
0.0221322
0.0220779
0.022003
0.0219079
0.0217931
0.0216593
0.0215074
0.0213379
0.0211516
0.0209493
0.0207315
0.020499
0.0202522
0.0199918
0.0197183
0.0194322
0.0191339
0.0188237
0.0185022
0.0181695
0.017826
0.0174719
0.0171074
0.0167327
0.0163477
0.0159524
0.0155462
0.0151286
0.0146985
0.0142545
0.0137952
0.0133206
0.0128344
0.0123519
0.0119253
0.0117512
0.0123322
0.0139686
0.0158019
0.0164527
0.0153018
0.012378
0.00784864
0.00816693
0.00355438
0.00692031
0.00723015
0.00670746
0.0062832
0.00604209
0.00599923
0.00612101
0.00635874
0.0066718
0.00703502
0.00743744
0.00787719
0.00835356
0.00885933
0.00937642
0.00987637
0.010325
0.0106908
0.0109567
0.0111409
0.0113238
0.0116652
0.0123547
0.0134466
0.0147561
0.0160061
0.017023
0.0177679
0.0182729
0.0185984
0.0188085
0.0189555
0.0190765
0.0191937
0.0193188
0.019456
0.0196051
0.0197636
0.0199282
0.0200952
0.0202613
0.0204235
0.0205794
0.0207268
0.020864
0.0209893
0.0211015
0.0211994
0.0212821
0.0213486
0.0213981
0.0214298
0.0214432
0.0214378
0.0214133
0.0213675
0.0213016
0.0212159
0.0211103
0.0209856
0.0208423
0.0206813
0.0205033
0.0203092
0.0200998
0.0198759
0.0196383
0.0193878
0.0191249
0.0188505
0.0185649
0.0182687
0.0179622
0.0176458
0.0173195
0.0169834
0.0166373
0.0162811
0.0159142
0.0155358
0.0151449
0.0147403
0.0143201
0.0138822
0.0134245
0.012945
0.0124431
0.0119225
0.0113981
0.0109178
0.0106622
0.0111448
0.0128721
0.0152162
0.0167315
0.0165873
0.0146721
0.010937
0.0086324
0.00358626
0.00741784
0.00809656
0.00765606
0.0071894
0.00684643
0.00668479
0.0067023
0.00686812
0.00714691
0.00750987
0.00793649
0.00841203
0.00892328
0.00945504
0.00998856
0.0105023
0.0109747
0.0113899
0.0117455
0.012063
0.0123971
0.0128333
0.0134558
0.0142845
0.0152351
0.0161662
0.0169657
0.0175867
0.0180338
0.0183394
0.0185443
0.018686
0.0187939
0.018888
0.0189808
0.0190786
0.019184
0.0192966
0.0194149
0.0195367
0.0196594
0.0197808
0.0198985
0.0200107
0.0201155
0.0202114
0.020297
0.020371
0.0204324
0.02048
0.0205129
0.0205302
0.0205309
0.0205147
0.0204793
0.0204251
0.0203517
0.0202589
0.0201468
0.0200162
0.0198675
0.0197017
0.0195196
0.0193223
0.0191107
0.0188858
0.0186486
0.0184001
0.0181411
0.0178723
0.0175944
0.0173081
0.0170135
0.0167111
0.0164007
0.0160821
0.015755
0.0154184
0.0150712
0.0147121
0.014339
0.0139495
0.013541
0.01311
0.0126533
0.0121678
0.0116516
0.0111065
0.0105453
0.0100132
0.00968659
0.0101048
0.0119443
0.014762
0.0170646
0.0178458
0.0168322
0.0137626
0.00905381
0.00360337
0.00804357
0.00898236
0.00860712
0.00808227
0.00763105
0.00734379
0.00724219
0.00731059
0.00751952
0.0078384
0.00824035
0.00870268
0.00920542
0.00972966
0.0102567
0.0107687
0.0112504
0.0116925
0.0120966
0.0124794
0.0128754
0.0133312
0.0138871
0.0145496
0.0152753
0.0159877
0.0166173
0.0171275
0.0175136
0.0177914
0.0179861
0.0181233
0.0182253
0.0183089
0.0183856
0.0184623
0.0185425
0.0186272
0.018716
0.0188077
0.0189003
0.0189922
0.0190815
0.0191663
0.0192451
0.0193166
0.0193793
0.019432
0.0194738
0.0195036
0.0195204
0.0195233
0.0195114
0.0194844
0.0194391
0.0193767
0.0192963
0.0191977
0.019081
0.0189467
0.0187955
0.0186281
0.0184454
0.0182484
0.0180385
0.0178166
0.017584
0.0173419
0.0170912
0.0168331
0.0165683
0.0162975
0.0160212
0.0157396
0.0154525
0.0151595
0.01486
0.0145526
0.0142356
0.0139068
0.0135634
0.0132021
0.012819
0.0124096
0.0119693
0.0114935
0.0109786
0.0104241
0.00984053
0.00927232
0.00890039
0.00930202
0.0112872
0.0145284
0.0174864
0.0190149
0.0187028
0.0161149
0.0094271
0.00366424
0.00879183
0.00985902
0.00951737
0.00890743
0.00833156
0.00790715
0.00767184
0.00762091
0.00773031
0.00796991
0.00830998
0.00872366
0.00918712
0.00967913
0.0101807
0.0106752
0.0111497
0.0115972
0.012019
0.0124262
0.0128396
0.0132852
0.0137832
0.0143354
0.0149173
0.015486
0.0159992
0.0164306
0.016773
0.0170334
0.0172269
0.017371
0.0174816
0.0175719
0.0176514
0.0177265
0.0178007
0.0178758
0.0179518
0.0180282
0.0181037
0.0181771
0.0182468
0.0183114
0.0183697
0.0184204
0.0184626
0.0184952
0.0185174
0.0185284
0.0185274
0.0185137
0.0184866
0.0184456
0.0183879
0.0183152
0.0182265
0.0181215
0.0180004
0.0178631
0.0177103
0.0175427
0.0173611
0.0171666
0.0169606
0.0167443
0.0165191
0.0162863
0.0160473
0.0158033
0.0155552
0.0153039
0.0150499
0.0147935
0.0145346
0.0142726
0.0140064
0.0137344
0.0134545
0.0131637
0.0128585
0.0125348
0.0121876
0.0118117
0.0114013
0.0109506
0.0104543
0.00991037
0.00932746
0.00875132
0.00837179
0.00880049
0.0109337
0.0145073
0.017952
0.0200277
0.0202288
0.0180146
0.00974675
0.00381814
0.00959539
0.0106961
0.0103375
0.00961307
0.00889672
0.00832853
0.00795415
0.00777442
0.0077689
0.00790891
0.00816423
0.00850633
0.00890953
0.00935115
0.00981173
0.0102753
0.0107298
0.0111683
0.0115903
0.0120024
0.0124168
0.012848
0.0133066
0.0137922
0.0142903
0.0147759
0.0152227
0.0156121
0.015937
0.0161996
0.0164085
0.0165746
0.016709
0.0168214
0.0169194
0.0170081
0.017091
0.0171698
0.0172452
0.0173171
0.0173848
0.0174474
0.017504
0.0175535
0.0175951
0.0176278
0.0176509
0.0176638
0.017666
0.0176568
0.0176359
0.0176029
0.0175576
0.0174981
0.0174256
0.01734
0.0172408
0.0171274
0.0170001
0.0168589
0.0167043
0.0165368
0.0163573
0.0161669
0.0159668
0.0157583
0.0155429
0.0153221
0.0150973
0.0148698
0.0146408
0.0144113
0.0141818
0.0139526
0.0137236
0.013494
0.0132627
0.0130276
0.0127864
0.0125355
0.0122712
0.0119887
0.0116827
0.0113473
0.0109763
0.0105634
0.0101026
0.00959132
0.00903823
0.00849165
0.00814873
0.00863204
0.0108681
0.0146443
0.0183999
0.0208456
0.0214307
0.019551
0.0100113
0.00412086
0.010355
0.0114588
0.0110178
0.0101523
0.00928991
0.00858519
0.00808298
0.00778269
0.00766441
0.00770088
0.00786317
0.0081235
0.0084565
0.0088396
0.00925336
0.00968202
0.0101138
0.0105414
0.0109623
0.0113792
0.0117984
0.0122276
0.0126717
0.0131293
0.0135909
0.0140405
0.0144612
0.0148394
0.0151685
0.0154481
0.0156823
0.015878
0.0160424
0.0161825
0.016304
0.0164115
0.016508
0.0165954
0.0166748
0.0167464
0.0168103
0.0168659
0.0169127
0.0169502
0.0169778
0.016995
0.0170012
0.0169963
0.0169798
0.0169516
0.0169115
0.0168593
0.0167956
0.0167182
0.0166305
0.0165314
0.0164207
0.0162986
0.0161651
0.0160203
0.0158646
0.0156986
0.0155228
0.0153383
0.0151462
0.0149479
0.0147447
0.0145381
0.0143296
0.0141205
0.013912
0.0137049
0.0134999
0.0132972
0.0130964
0.0128967
0.0126968
0.0124946
0.0122876
0.0120723
0.0118448
0.0116005
0.0113343
0.0110405
0.0107133
0.0103467
0.0099355
0.00947814
0.0089848
0.0085068
0.00824115
0.00878583
0.0110441
0.0148759
0.0187818
0.0214643
0.0223658
0.0208383
0.0102229
0.00462027
0.0110357
0.0121094
0.0115159
0.0104909
0.00949544
0.00868351
0.00808778
0.00769813
0.00749104
0.00744003
0.00751912
0.00770388
0.0079716
0.0083016
0.00867552
0.00907783
0.00949638
0.00992268
0.0103521
0.0107837
0.0112192
0.0116614
0.0121112
0.0125662
0.0130189
0.0134584
0.0138727
0.0142519
0.0145901
0.0148858
0.0151407
0.015359
0.0155457
0.015706
0.0158445
0.015965
0.0160706
0.0161632
0.0162442
0.0163145
0.0163743
0.0164236
0.0164624
0.0164903
0.0165071
0.0165125
0.0165062
0.0164881
0.0164581
0.016416
0.016362
0.0162963
0.0162193
0.0161302
0.0160316
0.0159233
0.0158055
0.0156784
0.0155423
0.0153975
0.0152442
0.0150829
0.0149142
0.014739
0.0145584
0.0143734
0.0141854
0.0139957
0.0138056
0.0136162
0.0134287
0.0132437
0.0130615
0.0128821
0.0127051
0.0125295
0.012354
0.0121765
0.0119946
0.0118053
0.0116054
0.0113909
0.0111579
0.0109017
0.0106179
0.0103019
0.00995033
0.00956393
0.00915525
0.00877705
0.00861585
0.00921213
0.0114047
0.0151508
0.0190728
0.0219024
0.0230989
0.0219649
0.010391
0.00519798
0.0116745
0.0126114
0.0118034
0.0106175
0.00952689
0.0086629
0.00803174
0.00760616
0.00735556
0.0072538
0.00727917
0.00741267
0.00763608
0.00793157
0.00828225
0.00867286
0.0090904
0.00952468
0.0099686
0.010418
0.010871
0.0113265
0.0117831
0.0122372
0.0126826
0.0131114
0.0135151
0.0138865
0.0142208
0.0145166
0.0147746
0.0149978
0.0151897
0.0153546
0.0154964
0.0156185
0.0157238
0.0158144
0.0158919
0.0159574
0.0160115
0.0160547
0.0160869
0.0161082
0.0161185
0.0161176
0.0161054
0.0160817
0.0160465
0.0159997
0.0159415
0.0158722
0.0157917
0.0157011
0.0156016
0.0154935
0.0153772
0.0152534
0.0151224
0.0149846
0.0148404
0.0146902
0.0145347
0.0143745
0.0142104
0.0140435
0.0138748
0.0137053
0.013536
0.0133679
0.0132016
0.0130374
0.0128756
0.0127156
0.0125569
0.0123984
0.0122388
0.0120763
0.0119091
0.0117349
0.0115516
0.0113569
0.0111483
0.0109236
0.0106801
0.0104159
0.0101301
0.00982586
0.0095179
0.00925736
0.00921096
0.00984186
0.0118971
0.015439
0.0192711
0.022193
0.0236898
0.0229941
0.0105238
0.00575202
0.0122621
0.0129398
0.0118731
0.0105526
0.00943107
0.00858896
0.00799231
0.00759277
0.00735274
0.00724734
0.00725999
0.00737748
0.00758574
0.00786932
0.0082123
0.00859962
0.00901768
0.00945505
0.00990289
0.010355
0.0108073
0.0112567
0.0117005
0.0121348
0.0125549
0.012955
0.0133293
0.0136728
0.0139825
0.0142571
0.0144975
0.0147057
0.014885
0.0150387
0.0151701
0.0152825
0.0153785
0.0154603
0.0155294
0.0155872
0.0156346
0.015672
0.0156998
0.015718
0.0157267
0.0157258
0.0157152
0.0156946
0.0156639
0.0156231
0.0155721
0.0155112
0.0154399
0.0153597
0.0152712
0.0151749
0.0150716
0.0149619
0.0148463
0.0147254
0.0145996
0.0144693
0.0143349
0.0141971
0.0140563
0.0139132
0.0137686
0.0136231
0.0134773
0.0133319
0.013187
0.0130427
0.0128987
0.0127544
0.0126091
0.0124616
0.0123109
0.0121556
0.0119947
0.0118271
0.0116521
0.0114694
0.011279
0.0110809
0.0108755
0.0106634
0.0104467
0.0102305
0.0100302
0.00989217
0.00995762
0.0106067
0.01248
0.0157323
0.0193942
0.0223754
0.0241885
0.0239669
0.0106277
0.00621631
0.0127571
0.0130816
0.0117437
0.0103466
0.00927606
0.00852961
0.00802627
0.00770184
0.00751629
0.00744773
0.00748487
0.00761848
0.00783592
0.00812237
0.00846249
0.00884197
0.00924779
0.00966886
0.0100963
0.0105237
0.0109465
0.0113611
0.0117647
0.0121541
0.0125259
0.0128761
0.013201
0.0134977
0.0137642
0.014
0.014206
0.0143842
0.0145372
0.0146677
0.0147789
0.0148734
0.0149536
0.0150217
0.0150792
0.0151274
0.0151674
0.0151998
0.0152251
0.0152434
0.0152549
0.0152596
0.0152571
0.0152474
0.0152301
0.015205
0.0151718
0.0151307
0.0150805
0.0150221
0.0149564
0.0148838
0.0148051
0.0147208
0.0146317
0.0145381
0.0144404
0.014339
0.0142341
0.014126
0.0140149
0.0139012
0.0137852
0.0136671
0.0135472
0.0134256
0.0133023
0.0131768
0.0130488
0.0129175
0.0127822
0.012642
0.0124962
0.0123443
0.012186
0.0120217
0.0118523
0.0116796
0.0115061
0.0113346
0.0111682
0.0110103
0.0108652
0.0107394
0.0106471
0.0106274
0.0107945
0.0114496
0.0131237
0.0160374
0.0194718
0.0224903
0.0246343
0.0249078
0.0106984
0.00657476
0.013113
0.0130336
0.0114519
0.0100689
0.00912759
0.00852571
0.00814645
0.00792203
0.0078164
0.00781046
0.00789597
0.00806456
0.0083022
0.00859363
0.00892454
0.00928262
0.00965709
0.0100388
0.0104204
0.0107967
0.0111637
0.0115186
0.011859
0.0121828
0.0124879
0.0127718
0.0130327
0.0132688
0.0134794
0.0136647
0.0138255
0.0139637
0.0140816
0.0141815
0.014266
0.0143373
0.0143976
0.0144488
0.0144924
0.0145297
0.0145618
0.0145894
0.0146132
0.0146334
0.0146504
0.014664
0.0146742
0.0146807
0.0146831
0.0146809
0.0146736
0.0146609
0.0146413
0.0146148
0.0145821
0.0145435
0.0144995
0.0144507
0.0143973
0.0143399
0.0142786
0.0142135
0.0141446
0.0140719
0.0139954
0.013915
0.0138305
0.0137419
0.0136491
0.0135518
0.0134497
0.0133422
0.0132289
0.0131093
0.0129827
0.0128489
0.0127078
0.0125597
0.0124056
0.0122471
0.012087
0.011929
0.0117777
0.0116383
0.0115165
0.0114178
0.0113479
0.0113134
0.0113259
0.0114163
0.0116726
0.0123268
0.0138062
0.0163672
0.0195379
0.0225744
0.0250551
0.0258283
0.0107441
0.00682752
0.0132937
0.0127986
0.0110503
0.00978832
0.00902765
0.0085796
0.00832887
0.00821374
0.00820012
0.00826952
0.00841383
0.00862138
0.00887692
0.00916602
0.00947653
0.00979905
0.010126
0.0104508
0.0107684
0.0110751
0.0113684
0.0116465
0.0119081
0.0121521
0.0123778
0.0125845
0.0127713
0.012938
0.0130845
0.0132116
0.0133205
0.0134127
0.01349
0.0135546
0.0136083
0.0136531
0.0136907
0.0137226
0.0137504
0.0137753
0.0137982
0.0138202
0.013842
0.0138641
0.0138869
0.0139105
0.0139349
0.0139597
0.0139847
0.014009
0.0140321
0.0140531
0.014071
0.0140835
0.0140912
0.0140942
0.0140926
0.0140863
0.0140756
0.0140605
0.014041
0.0140169
0.0139881
0.0139541
0.0139146
0.0138691
0.0138173
0.0137587
0.0136928
0.0136194
0.0135378
0.0134477
0.0133488
0.0132408
0.0131239
0.0129982
0.0128648
0.0127251
0.0125812
0.0124362
0.0122945
0.0121613
0.012043
0.0119465
0.0118791
0.0118474
0.0118577
0.0119155
0.0120289
0.0122201
0.0125542
0.0132054
0.0145094
0.0167324
0.0196233
0.0226583
0.0254696
0.0267312
0.0107135
0.00692055
0.0132715
0.0123901
0.010627
0.00954972
0.0089631
0.00866602
0.00854477
0.00854041
0.00862125
0.00876754
0.00897103
0.0092122
0.00947713
0.00975474
0.0100359
0.010314
0.0105844
0.0108427
0.0110861
0.0113126
0.0115214
0.0117119
0.0118841
0.0120386
0.0121762
0.0122975
0.0124032
0.012494
0.0125708
0.0126347
0.012687
0.0127292
0.0127627
0.0127889
0.0128093
0.0128252
0.0128379
0.0128486
0.0128586
0.0128689
0.0128808
0.0128951
0.0129127
0.0129346
0.0129612
0.0129929
0.0130298
0.0130718
0.0131185
0.0131693
0.0132234
0.0132792
0.0133378
0.0133928
0.0134448
0.0134934
0.013538
0.0135783
0.0136138
0.0136443
0.0136693
0.0136885
0.0137011
0.0137067
0.0137045
0.0136939
0.0136741
0.0136447
0.013605
0.0135546
0.0134932
0.0134206
0.0133369
0.0132424
0.013138
0.013025
0.0129053
0.0127816
0.0126574
0.0125371
0.0124264
0.0123317
0.0122606
0.0122208
0.01222
0.0122651
0.0123616
0.012513
0.0127238
0.0130078
0.0134107
0.0140608
0.0152168
0.0171366
0.0197507
0.0227648
0.0258895
0.0276147
0.0105848
0.00689507
0.0130461
0.0118716
0.010216
0.00932659
0.00891359
0.0087672
0.00877516
0.0088799
0.00905004
0.0092667
0.00951773
0.00978662
0.0100543
0.0103154
0.010564
0.0107951
0.0110065
0.0111952
0.0113601
0.0115011
0.011619
0.011715
0.0117906
0.0118484
0.0118909
0.0119206
0.0119395
0.0119495
0.0119524
0.0119496
0.0119424
0.0119322
0.0119196
0.0119057
0.011891
0.0118763
0.0118623
0.0118498
0.0118398
0.0118331
0.0118308
0.0118341
0.011844
0.0118616
0.0118877
0.011923
0.0119679
0.0120225
0.0120865
0.0121595
0.0122407
0.0123281
0.0124254
0.0125218
0.0126171
0.0127111
0.0128026
0.0128901
0.0129726
0.0130491
0.0131189
0.013181
0.0132347
0.013279
0.013313
0.0133361
0.0133472
0.013346
0.0133318
0.0133045
0.0132639
0.0132104
0.0131446
0.0130675
0.0129811
0.0128875
0.01279
0.0126924
0.0125996
0.0125173
0.0124521
0.0124113
0.0124026
0.0124338
0.0125123
0.0126439
0.0128325
0.0130791
0.0133843
0.0137548
0.0142206
0.014874
0.0159127
0.0175756
0.0199319
0.022909
0.0263217
0.0284751
0.0103796
0.00686028
0.0126547
0.0112948
0.00980244
0.00910714
0.00886758
0.00886983
0.00900305
0.00921065
0.00946181
0.0097384
0.010027
0.0103176
0.0105872
0.0108327
0.0110508
0.0112373
0.011392
0.0115119
0.0115981
0.0116516
0.0116756
0.0116729
0.0116471
0.0116029
0.0115454
0.0114789
0.011407
0.0113328
0.011259
0.0111873
0.011119
0.0110549
0.0109953
0.0109401
0.0108892
0.0108425
0.0108002
0.0107624
0.0107296
0.0107027
0.0106825
0.0106702
0.0106672
0.0106748
0.0106941
0.0107261
0.0107717
0.0108312
0.0109046
0.0109917
0.0110918
0.0112037
0.0113242
0.0114599
0.0115957
0.011732
0.0118671
0.0119989
0.0121255
0.0122456
0.0123577
0.0124608
0.0125535
0.0126348
0.0127037
0.0127593
0.0128008
0.0128277
0.0128398
0.0128371
0.0128199
0.0127892
0.0127463
0.012693
0.0126321
0.0125671
0.0125023
0.0124427
0.0123944
0.0123641
0.0123591
0.012387
0.0124551
0.0125705
0.0127392
0.0129654
0.0132505
0.0135932
0.0139903
0.0144424
0.0149676
0.0156307
0.0165824
0.0180388
0.0201683
0.0230988
0.0267698
0.029308
0.0101189
0.00682342
0.0121457
0.0106793
0.00938151
0.00888349
0.00881538
0.0089613
0.00921239
0.00951399
0.00983716
0.0101655
0.0104878
0.0107944
0.0110716
0.0113074
0.0115008
0.0116483
0.0117511
0.011806
0.011816
0.0117831
0.0117129
0.0116103
0.0114809
0.0113324
0.0111725
0.0110077
0.0108433
0.0106838
0.0105325
0.0103916
0.010262
0.010144
0.0100369
0.00993974
0.00985157
0.00977142
0.00969856
0.00963262
0.00957367
0.00952216
0.00947898
0.00944535
0.00942276
0.0094128
0.00941701
0.0094368
0.0094733
0.00952732
0.00959926
0.00968915
0.00979667
0.00992123
0.0100589
0.0102218
0.0103866
0.0105545
0.0107244
0.0108933
0.0110584
0.0112173
0.011368
0.0115089
0.0116383
0.0117551
0.0118579
0.011946
0.0120186
0.0120754
0.0121164
0.0121421
0.0121534
0.0121515
0.0121387
0.0121176
0.0120919
0.0120661
0.0120456
0.0120367
0.0120462
0.0120817
0.0121507
0.0122603
0.0124172
0.0126269
0.0128935
0.0132192
0.0136031
0.0140411
0.0145272
0.0150572
0.0156398
0.01632
0.0172127
0.018512
0.0204534
0.0233356
0.027235
0.0301097
0.0098233
0.00678935
0.0115522
0.0100399
0.00895091
0.00864967
0.00874782
0.0090294
0.00938909
0.00977599
0.0101647
0.0105416
0.0108976
0.0112232
0.0115097
0.011746
0.0119239
0.01204
0.0120976
0.0120935
0.0120324
0.0119168
0.0117555
0.0115553
0.0113241
0.0110728
0.0108121
0.0105507
0.0102958
0.0100531
0.00982658
0.00961837
0.00942906
0.00925795
0.00910348
0.00896371
0.00883664
0.00872044
0.00861367
0.00851539
0.00842519
0.00834329
0.00827042
0.00820788
0.00815733
0.00812063
0.00809965
0.00809618
0.00811175
0.00814757
0.0082045
0.00828302
0.00838323
0.0085048
0.00864582
0.00880521
0.00899233
0.0091839
0.00938019
0.00957813
0.00977441
0.00996612
0.0101507
0.010326
0.0104901
0.0106413
0.0107784
0.0109004
0.0110068
0.0110972
0.0111719
0.0112319
0.0112783
0.0113131
0.0113391
0.0113599
0.0113799
0.0114048
0.0114408
0.011495
0.0115749
0.0116884
0.0118426
0.0120439
0.0122976
0.0126076
0.0129758
0.0134022
0.013884
0.0144147
0.0149859
0.0155902
0.0162293
0.0169338
0.0177926
0.01898
0.0207754
0.0236159
0.0277164
0.0308768
0.00950755
0.00675406
0.0108963
0.00938285
0.00850871
0.00840009
0.00865615
0.00906352
0.0095228
0.0099888
0.0104407
0.0108674
0.011261
0.0116134
0.0119144
0.0121547
0.0123286
0.0124239
0.0124452
0.01239
0.0122653
0.0120736
0.0118277
0.0115364
0.0112099
0.0108624
0.0105076
0.0101569
0.00981872
0.00949978
0.00920428
0.00893402
0.00868875
0.00846673
0.00826539
0.00808182
0.00791313
0.0077568
0.00761082
0.00747382
0.00734511
0.00722471
0.00711331
0.00701227
0.00692346
0.00684896
0.00679088
0.00675128
0.00673199
0.00673465
0.00676062
0.00681103
0.00688672
0.00698818
0.00711545
0.00726306
0.00745317
0.00765126
0.00785919
0.00807502
0.00829402
0.00851234
0.0087265
0.00893353
0.00913103
0.00931705
0.00949006
0.00964892
0.00979293
0.00992196
0.0100365
0.0101375
0.0102268
0.010307
0.0103813
0.0104541
0.0105308
0.0106177
0.0107217
0.0108504
0.0110115
0.0112124
0.0114596
0.0117584
0.0121124
0.0125236
0.0129923
0.0135167
0.0140919
0.0147103
0.0153617
0.0160362
0.0167308
0.0174662
0.0183126
0.0194283
0.02112
0.0239328
0.0282119
0.0316068
0.00918339
0.00670777
0.0101885
0.00871095
0.00805275
0.00812946
0.00853298
0.00905613
0.00960798
0.0101503
0.0106667
0.0111482
0.0115866
0.0119732
0.0122979
0.012551
0.0127228
0.0128084
0.0128042
0.0127083
0.01253
0.0122719
0.011951
0.011579
0.0111686
0.0107372
0.0103016
0.00987487
0.00946696
0.00908465
0.00873163
0.00840873
0.00811445
0.00784586
0.00759934
0.00737109
0.0071576
0.00695588
0.00676369
0.00657955
0.00640279
0.00623348
0.00607243
0.00592126
0.00578203
0.00565691
0.00554803
0.00545744
0.00538705
0.00533873
0.00531442
0.0053162
0.00534619
0.00540639
0.00549825
0.00562089
0.00577165
0.00597461
0.00618775
0.00641315
0.00664811
0.00688836
0.00712937
0.00736711
0.0075985
0.00782111
0.00803296
0.00823258
0.00841915
0.00859259
0.00875352
0.00890328
0.00904402
0.00917873
0.00931138
0.00944688
0.00959113
0.0097508
0.00993313
0.0101455
0.0103953
0.010689
0.0110322
0.0114288
0.011881
0.0123894
0.0129529
0.0135682
0.0142295
0.0149281
0.015653
0.0163927
0.0171416
0.0179134
0.0187656
0.0198442
0.0214728
0.0242773
0.0287181
0.0322972
0.00886145
0.00663766
0.00943225
0.0080256
0.00758103
0.00783351
0.00837328
0.0090035
0.0096437
0.0102628
0.0108481
0.011391
0.0118826
0.0123126
0.0126697
0.012943
0.0131231
0.0132038
0.0131817
0.0130578
0.0128386
0.0125265
0.0121428
0.0117036
0.0112249
0.0107267
0.0102282
0.00974444
0.00928577
0.0088583
0.00846445
0.00810303
0.00777092
0.00746378
0.00717688
0.00690567
0.00664617
0.00639521
0.0061506
0.00591117
0.00567664
0.00544758
0.00522515
0.00501171
0.00480956
0.00462069
0.0044468
0.00428926
0.0041493
0.00402845
0.00392901
0.00385442
0.00380912
0.00379817
0.0038264
0.00389743
0.00400533
0.00418349
0.00438622
0.00461263
0.0048597
0.00512127
0.00539005
0.00566046
0.00592921
0.00619366
0.00645114
0.00669938
0.00693703
0.0071638
0.00738042
0.00758848
0.00779053
0.00799
0.00819125
0.00839953
0.00862081
0.0088617
0.00912909
0.00942985
0.00977046
0.0101566
0.0105926
0.0110815
0.0116242
0.0122206
0.0128686
0.0135643
0.0143013
0.0150706
0.0158607
0.0166597
0.0174605
0.018273
0.019146
0.0202172
0.0218203
0.0246399
0.0292311
0.0329458
0.00855267
0.00652885
0.00862831
0.00732821
0.00709253
0.00750978
0.008175
0.00890561
0.00963261
0.0103314
0.0109912
0.0116031
0.0121565
0.012639
0.0130377
0.0133403
0.0135368
0.0136207
0.013589
0.0134438
0.0131919
0.0128435
0.0124145
0.0119252
0.0113969
0.0108522
0.0103121
0.009793
0.00930507
0.00885257
0.00843707
0.00805421
0.00769895
0.00736537
0.0070476
0.00674034
0.00643913
0.00614071
0.0058431
0.00554559
0.00524875
0.00495409
0.0046635
0.00438116
0.00410974
0.00385081
0.00360499
0.00337172
0.00314969
0.00293786
0.0027368
0.00254985
0.00238389
0.00224923
0.00215857
0.0021246
0.00215321
0.00225011
0.00244391
0.00266225
0.00292137
0.00321891
0.00353923
0.00386768
0.00419613
0.0045204
0.00483771
0.00514599
0.00544429
0.00573299
0.00601335
0.00628746
0.00655829
0.00682957
0.00710581
0.00739215
0.00769423
0.00801815
0.00837015
0.00875634
0.00918236
0.00965301
0.0101719
0.0107412
0.0113616
0.0120322
0.0127508
0.0135132
0.0143131
0.0151415
0.0159871
0.0168383
0.0176878
0.0185437
0.0194499
0.0205388
0.022151
0.0250113
0.0297467
0.0335497
0.00826878
0.0063646
0.00777908
0.00662169
0.00658811
0.00715822
0.00793907
0.00876538
0.00957953
0.0103619
0.0111024
0.0117907
0.012414
0.0129576
0.0134066
0.0137473
0.0139688
0.0140645
0.0140324
0.0138754
0.0136018
0.0132246
0.012763
0.0122402
0.0116816
0.0111125
0.0105545
0.0100238
0.00952938
0.00907397
0.00865545
0.00826846
0.00790598
0.00756066
0.00722555
0.00689462
0.00656298
0.00622721
0.00588552
0.00553776
0.00518557
0.00483134
0.00447968
0.00413836
0.00381091
0.00349965
0.00320491
0.00292427
0.00265309
0.00238582
0.00211762
0.00184541
0.00156819
0.00128653
0.00100218
0.000718349
0.000441935
0.000228887
0.000449576
0.00079413
0.00116179
0.00153996
0.00192211
0.00230349
0.00268167
0.00305462
0.00342065
0.00377848
0.00412833
0.00447141
0.00480923
0.00514395
0.00547847
0.00581637
0.00616181
0.00651948
0.00689423
0.00729147
0.00771676
0.00817545
0.00867244
0.00921186
0.00979685
0.0104293
0.0111098
0.0118373
0.0126096
0.0134229
0.014271
0.0151454
0.0160357
0.016931
0.017825
0.0187256
0.0196749
0.0208028
0.0224552
0.0253832
0.0302604
0.0341036
0.00802245
0.00613028
0.00689237
0.00591096
0.0060707
0.00678125
0.00766891
0.00858755
0.00948988
0.0103597
0.0111865
0.0119578
0.0126583
0.0132708
0.0137782
0.0141651
0.0144199
0.0145357
0.0145114
0.0143517
0.0140668
0.0136729
0.0131921
0.0126511
0.0120786
0.0115021
0.0109441
0.01042
0.00993703
0.00949551
0.00909095
0.00871581
0.00836145
0.00801928
0.00768154
0.00734165
0.00699451
0.00663677
0.00626708
0.00588629
0.00549766
0.00510687
0.00472176
0.00435095
0.00400337
0.0036856
0.00340073
0.00314803
0.00292375
0.002723
0.00254156
0.00237678
0.00222729
0.00209219
0.00197066
0.00186183
0.00176458
0.00167362
0.0015526
0.0014674
0.00143478
0.0014726
0.00158892
0.00177576