/*--------------------------------*- C++ -*----------------------------------*\
| =========                 |                                                 |
| \\      /  F ield         | OpenFOAM: The Open Source CFD Toolbox           |
|  \\    /   O peration     | Version:  4.1                                   |
|   \\  /    A nd           | Web:      www.OpenFOAM.org                      |
|    \\/     M anipulation  |                                                 |
\*---------------------------------------------------------------------------*/
FoamFile
{
    version     2.0;
    format      ascii;
    class       volVectorField;
    location    "1440";
    object      U;
}
// * * * * * * * * * * * * * * * * * * * * * * * * * * * * * * * * * * * * * //

dimensions      [0 1 -1 0 0 0 0];

internalField   nonuniform List<vector> 
5000
(
(-0.00285012 0.00128999 0)
(-0.00242477 -0.00116432 0)
(-0.000481908 -0.00255833 0)
(0.00214598 -0.00150132 0)
(0.00355714 -0.00103816 0)
(0.00467901 -0.000762738 0)
(0.00557302 -0.000590675 0)
(0.00629854 -0.000477475 0)
(0.00691164 -0.000399192 0)
(0.00744861 -0.000343202 0)
(0.00793006 -0.000301883 0)
(0.00836805 -0.000269593 0)
(0.00877033 -0.000242476 0)
(0.00914456 -0.000220853 0)
(0.00950651 -0.00021329 0)
(0.00989283 -0.000238696 0)
(0.0103712 -0.000321213 0)
(0.0110348 -0.000476373 0)
(0.0119764 -0.000692924 0)
(0.0132466 -0.000916494 0)
(0.0147979 -0.00104603 0)
(0.0164286 -0.000968616 0)
(0.0177859 -0.000625731 0)
(0.0183336 -1.55651e-05 0)
(0.0175656 0.00091851 0)
(0.0150781 0.00203237 0)
(0.0109505 0.00257171 0)
(0.00667746 0.00177366 0)
(0.00415053 0.000347338 0)
(0.00360215 -0.000618693 0)
(0.00416556 -0.00105148 0)
(0.00538632 -0.0011538 0)
(0.00691377 -0.00109796 0)
(0.00846712 -0.00098012 0)
(0.00990889 -0.000846633 0)
(0.0111948 -0.000719397 0)
(0.0123216 -0.000607313 0)
(0.0133027 -0.000512501 0)
(0.0141569 -0.000433891 0)
(0.0149029 -0.000369143 0)
(0.0155573 -0.000315632 0)
(0.016134 -0.000270918 0)
(0.0166438 -0.000232927 0)
(0.0170954 -0.000199989 0)
(0.0174952 -0.000170806 0)
(0.0178481 -0.000144398 0)
(0.0181578 -0.000120047 0)
(0.0184271 -9.72426e-05 0)
(0.018658 -7.56349e-05 0)
(0.0188523 -5.49967e-05 0)
(0.0190113 -3.51954e-05 0)
(0.0191362 -1.61786e-05 0)
(0.0192283 2.02333e-06 0)
(0.0192888 1.92542e-05 0)
(0.0193192 3.50848e-05 0)
(0.0193225 4.89888e-05 0)
(0.0193016 6.10496e-05 0)
(0.0192575 7.17814e-05 0)
(0.0191916 8.15203e-05 0)
(0.0191054 9.0401e-05 0)
(0.019 9.84954e-05 0)
(0.0188767 0.000105838 0)
(0.0187366 0.000112453 0)
(0.0185811 0.000118359 0)
(0.0184113 0.000123579 0)
(0.0182283 0.000128141 0)
(0.0180333 0.000132081 0)
(0.0178271 0.000135446 0)
(0.0176108 0.000138292 0)
(0.017385 0.000140688 0)
(0.0171504 0.000142715 0)
(0.0169074 0.00014447 0)
(0.0166565 0.000146068 0)
(0.0163977 0.000147644 0)
(0.0161309 0.000149351 0)
(0.0158559 0.000151362 0)
(0.0155721 0.000153853 0)
(0.0152788 0.000156995 0)
(0.0149752 0.000160922 0)
(0.01466 0.000165705 0)
(0.0143322 0.000171304 0)
(0.0139909 0.000177519 0)
(0.0136357 0.000183933 0)
(0.0132668 0.000189843 0)
(0.0128859 0.000194161 0)
(0.0124965 0.000195191 0)
(0.0121055 0.000190069 0)
(0.0117258 0.000173543 0)
(0.011381 0.000136765 0)
(0.01111 7.17694e-05 0)
(0.0109472 1.43236e-06 0)
(0.0108312 9.09754e-05 0)
(0.0103996 0.000814298 0)
(0.0087796 0.00251123 0)
(0.00411482 0.00307135 0)
(-0.00154522 0.000921544 0)
(-0.00361397 -0.000140847 0)
(-0.00439932 -0.000536929 0)
(-0.00373461 -0.00130181 0)
(-0.00189446 -0.00323905 0)
(-0.00220041 0.0036221 0)
(-0.00113595 -0.00142725 0)
(-0.000279593 -0.00380075 0)
(0.00137706 -0.00250391 0)
(0.00253283 -0.0018181 0)
(0.0035636 -0.00139506 0)
(0.00443289 -0.0011278 0)
(0.00516865 -0.000949523 0)
(0.00580782 -0.000823821 0)
(0.00637586 -0.000732193 0)
(0.00688879 -0.000663954 0)
(0.00735902 -0.000612109 0)
(0.00779901 -0.000574007 0)
(0.00822315 -0.000555127 0)
(0.00864784 -0.000573733 0)
(0.00909071 -0.000660909 0)
(0.00957185 -0.000851451 0)
(0.01012 -0.0011678 0)
(0.0107804 -0.00159871 0)
(0.0116085 -0.0020644 0)
(0.0126372 -0.00237346 0)
(0.0138134 -0.00223679 0)
(0.0149123 -0.00140981 0)
(0.0154199 0.000117881 0)
(0.0149832 0.00211134 0)
(0.0136382 0.00401597 0)
(0.0118592 0.00495456 0)
(0.0104906 0.00434998 0)
(0.00974681 0.00254046 0)
(0.00931912 0.000369715 0)
(0.00942055 -0.00121726 0)
(0.0100461 -0.00198634 0)
(0.0109848 -0.00220498 0)
(0.0120429 -0.00214606 0)
(0.0131016 -0.00196949 0)
(0.0141046 -0.00175764 0)
(0.0150311 -0.00154945 0)
(0.0158772 -0.00136093 0)
(0.0166467 -0.00119665 0)
(0.0173462 -0.00105584 0)
(0.0179827 -0.000935524 0)
(0.0185628 -0.00083213 0)
(0.019092 -0.000742237 0)
(0.0195751 -0.000662864 0)
(0.0200158 -0.000591562 0)
(0.0204173 -0.0005264 0)
(0.020782 -0.0004659 0)
(0.021112 -0.000408967 0)
(0.0214087 -0.000354817 0)
(0.0216736 -0.000302914 0)
(0.0219079 -0.000252918 0)
(0.0221126 -0.000204664 0)
(0.0222887 -0.000158139 0)
(0.0224371 -0.000113519 0)
(0.0225589 -7.12522e-05 0)
(0.0226536 -3.16333e-05 0)
(0.0227209 5.49316e-06 0)
(0.0227623 4.03585e-05 0)
(0.0227793 7.32177e-05 0)
(0.0227729 0.000104242 0)
(0.0227441 0.000133509 0)
(0.0226939 0.000161043 0)
(0.0226233 0.000186866 0)
(0.0225332 0.000211017 0)
(0.0224246 0.000233564 0)
(0.0222981 0.000254601 0)
(0.0221545 0.000274253 0)
(0.0219942 0.000292671 0)
(0.0218179 0.000310032 0)
(0.0216257 0.00032653 0)
(0.0214178 0.000342378 0)
(0.0211945 0.000357801 0)
(0.0209556 0.000373034 0)
(0.0207012 0.000388323 0)
(0.0204311 0.000403915 0)
(0.0201451 0.000420056 0)
(0.0198431 0.000436971 0)
(0.0195252 0.000454841 0)
(0.0191912 0.000473765 0)
(0.0188417 0.000493696 0)
(0.0184773 0.000514373 0)
(0.0180991 0.000535212 0)
(0.017709 0.000555188 0)
(0.01731 0.000572679 0)
(0.0169062 0.00058524 0)
(0.0165036 0.000589196 0)
(0.0161106 0.000578834 0)
(0.0157379 0.000545166 0)
(0.0153966 0.000476124 0)
(0.01509 0.000367632 0)
(0.014795 0.000274444 0)
(0.0144229 0.000468025 0)
(0.0138023 0.00158799 0)
(0.0127634 0.00388006 0)
(0.0108965 0.0056822 0)
(0.00816433 0.00590332 0)
(0.00453557 0.00433057 0)
(-0.000539932 0.000414737 0)
(-0.0016146 -0.00149665 0)
(-0.000225902 -0.00485755 0)
(-0.00177367 0.0052025 0)
(-0.000526084 -0.00227553 0)
(-0.00026019 -0.00490548 0)
(0.00101097 -0.00374745 0)
(0.00198239 -0.00294264 0)
(0.00294023 -0.00238763 0)
(0.0037869 -0.00200062 0)
(0.00452429 -0.00171921 0)
(0.00517128 -0.00150669 0)
(0.00574391 -0.00134277 0)
(0.00625461 -0.00121515 0)
(0.00671373 -0.0011162 0)
(0.00713026 -0.00104337 0)
(0.00751158 -0.00100141 0)
(0.00786184 -0.00100533 0)
(0.00818085 -0.00108216 0)
(0.0084673 -0.00126938 0)
(0.00872841 -0.00160639 0)
(0.00898853 -0.00210832 0)
(0.00928689 -0.00270822 0)
(0.00967242 -0.00317809 0)
(0.010208 -0.00309775 0)
(0.0108869 -0.00201611 0)
(0.0115305 0.000131918 0)
(0.0117673 0.00276635 0)
(0.0116863 0.00496338 0)
(0.0117022 0.00573709 0)
(0.0121078 0.00474267 0)
(0.0127164 0.00258381 0)
(0.0132275 0.000243369 0)
(0.0135749 -0.00153687 0)
(0.0139295 -0.00253906 0)
(0.0143876 -0.00292838 0)
(0.0149353 -0.0029513 0)
(0.0155341 -0.00279131 0)
(0.0161509 -0.00255818 0)
(0.0167634 -0.00230992 0)
(0.0173582 -0.00207376 0)
(0.0179275 -0.00186013 0)
(0.0184671 -0.00167105 0)
(0.0189749 -0.0015047 0)
(0.0194504 -0.00135782 0)
(0.0198934 -0.00122691 0)
(0.0203044 -0.00110874 0)
(0.020684 -0.00100058 0)
(0.0210329 -0.000900243 0)
(0.0213517 -0.000806013 0)
(0.0216411 -0.000716614 0)
(0.0219016 -0.00063112 0)
(0.0221339 -0.000548894 0)
(0.0223386 -0.000469538 0)
(0.0225162 -0.00039285 0)
(0.0226673 -0.000318791 0)
(0.0227925 -0.000247461 0)
(0.0228923 -0.000179025 0)
(0.0229674 -0.00011348 0)
(0.0230187 -5.08332e-05 0)
(0.0230466 8.82003e-06 0)
(0.0230519 6.5551e-05 0)
(0.0230355 0.00011952 0)
(0.0229981 0.00017081 0)
(0.0229406 0.000219463 0)
(0.0228637 0.000265542 0)
(0.0227682 0.000309151 0)
(0.0226546 0.000350437 0)
(0.0225238 0.00038959 0)
(0.0223761 0.000426837 0)
(0.0222121 0.000462435 0)
(0.0220321 0.000496664 0)
(0.0218364 0.000529816 0)
(0.0216253 0.000562188 0)
(0.0213989 0.00059407 0)
(0.0211574 0.000625739 0)
(0.0209009 0.000657452 0)
(0.0206296 0.000689434 0)
(0.0203436 0.000721863 0)
(0.0200433 0.000754853 0)
(0.0197289 0.000788411 0)
(0.0194011 0.000822392 0)
(0.0190606 0.00085642 0)
(0.0187087 0.000889791 0)
(0.0183466 0.000921342 0)
(0.0179764 0.000949287 0)
(0.0176006 0.000971024 0)
(0.0172224 0.000982875 0)
(0.0168455 0.000979746 0)
(0.0164741 0.000954752 0)
(0.0161108 0.000899578 0)
(0.0157535 0.00080889 0)
(0.0153898 0.000698667 0)
(0.0149981 0.000660378 0)
(0.0145791 0.000991164 0)
(0.0142039 0.00232006 0)
(0.0138661 0.00489734 0)
(0.0132046 0.00731585 0)
(0.0117775 0.00834025 0)
(0.0094273 0.00763583 0)
(0.00661735 0.00550993 0)
(0.00247273 0.00129331 0)
(0.00133027 -0.00449805 0)
(-0.00148887 0.00621627 0)
(-0.000294389 -0.00283025 0)
(-0.000340101 -0.00560395 0)
(0.000732507 -0.00470629 0)
(0.00158154 -0.00387187 0)
(0.00249935 -0.00323664 0)
(0.00333645 -0.00275665 0)
(0.00408 -0.00238512 0)
(0.00473521 -0.00209197 0)
(0.00531079 -0.00185841 0)
(0.00581683 -0.00167139 0)
(0.00626302 -0.00152136 0)
(0.00665718 -0.00140269 0)
(0.00700411 -0.00131546 0)
(0.00730407 -0.00126919 0)
(0.00755318 -0.00128852 0)
(0.00774813 -0.00141631 0)
(0.00788836 -0.00170293 0)
(0.00796479 -0.00217057 0)
(0.00795127 -0.0027581 0)
(0.00783548 -0.00325807 0)
(0.00769722 -0.00326625 0)
(0.0077728 -0.00228249 0)
(0.00836869 -0.000153567 0)
(0.00923991 0.00244064 0)
(0.010272 0.00438037 0)
(0.0116036 0.0047916 0)
(0.0131597 0.00364378 0)
(0.0146163 0.0016321 0)
(0.0156435 -0.000417689 0)
(0.0161902 -0.00195648 0)
(0.0164747 -0.00285598 0)
(0.0166955 -0.00324977 0)
(0.0169429 -0.00331669 0)
(0.0172446 -0.00320229 0)
(0.017597 -0.00300193 0)
(0.0179859 -0.00277105 0)
(0.0183958 -0.0025388 0)
(0.018813 -0.00231871 0)
(0.019227 -0.00211571 0)
(0.0196301 -0.00193035 0)
(0.0200172 -0.00176111 0)
(0.0203845 -0.00160577 0)
(0.0207297 -0.00146194 0)
(0.0210514 -0.00132748 0)
(0.0213487 -0.00120056 0)
(0.0216211 -0.00107969 0)
(0.0218683 -0.00096373 0)
(0.0220902 -0.000851857 0)
(0.0222869 -0.000743492 0)
(0.0224585 -0.000638288 0)
(0.0226051 -0.000536082 0)
(0.0227269 -0.000436869 0)
(0.0228243 -0.000340763 0)
(0.0228975 -0.000247956 0)
(0.022947 -0.000158658 0)
(0.0229734 -7.31232e-05 0)
(0.0229772 8.56337e-06 0)
(0.0229588 8.65863e-05 0)
(0.0229189 0.000161084 0)
(0.0228581 0.000232118 0)
(0.0227772 0.000299737 0)
(0.0226768 0.000364038 0)
(0.0225578 0.000425171 0)
(0.0224208 0.000483337 0)
(0.0222664 0.000538791 0)
(0.0220952 0.000591827 0)
(0.0219077 0.000642772 0)
(0.0217044 0.000691975 0)
(0.0214857 0.000739789 0)
(0.021252 0.000786562 0)
(0.0210035 0.000832624 0)
(0.0207406 0.000878273 0)
(0.0204636 0.000923762 0)
(0.0201729 0.00096929 0)
(0.0198687 0.00101497 0)
(0.0195515 0.00106084 0)
(0.0192219 0.00110675 0)
(0.0188805 0.00115239 0)
(0.0185283 0.00119718 0)
(0.0181662 0.00124013 0)
(0.0177956 0.00127977 0)
(0.0174179 0.00131395 0)
(0.017035 0.00133966 0)
(0.0166487 0.0013529 0)
(0.0162608 0.00134859 0)
(0.0158727 0.00132083 0)
(0.0154839 0.00126451 0)
(0.0150908 0.00118082 0)
(0.0146868 0.00109304 0)
(0.0142688 0.0010864 0)
(0.0138669 0.0014084 0)
(0.0135966 0.00262014 0)
(0.0135499 0.00512615 0)
(0.0134543 0.00796339 0)
(0.0127819 0.00977355 0)
(0.0112106 0.009807 0)
(0.00888365 0.00812738 0)
(0.0059674 0.00500233 0)
(0.0031429 -0.00127963 0)
(-0.00127086 0.00695995 0)
(-0.000209115 -0.00321997 0)
(-0.000441565 -0.0060912 0)
(0.000532561 -0.00556097 0)
(0.00132698 -0.00476602 0)
(0.00223943 -0.00409466 0)
(0.00308338 -0.00354052 0)
(0.00384182 -0.00308253 0)
(0.00451148 -0.0027045 0)
(0.0050964 -0.00239357 0)
(0.00560581 -0.00213828 0)
(0.00605082 -0.00192847 0)
(0.00644249 -0.00175661 0)
(0.00679159 -0.00162072 0)
(0.00710989 -0.00152998 0)
(0.00741232 -0.001511 0)
(0.00770875 -0.00160232 0)
(0.0079833 -0.00183205 0)
(0.00818218 -0.00219316 0)
(0.00822606 -0.00262602 0)
(0.00804926 -0.0029991 0)
(0.00767092 -0.00307406 0)
(0.00729881 -0.00250045 0)
(0.00741119 -0.00101114 0)
(0.00842257 0.00103438 0)
(0.0100964 0.00251054 0)
(0.0121708 0.00270515 0)
(0.0142719 0.00171667 0)
(0.0159878 0.000151222 0)
(0.0170452 -0.00131722 0)
(0.0175686 -0.0024092 0)
(0.0178023 -0.00308516 0)
(0.0179307 -0.00341677 0)
(0.018059 -0.0035054 0)
(0.0182302 -0.00344157 0)
(0.0184528 -0.00329174 0)
(0.0187191 -0.00309958 0)
(0.0190163 -0.00289162 0)
(0.0193317 -0.00268271 0)
(0.0196543 -0.00248041 0)
(0.0199757 -0.0022879 0)
(0.0202894 -0.00210591 0)
(0.020591 -0.00193392 0)
(0.0208771 -0.00177079 0)
(0.0211456 -0.00161527 0)
(0.0213947 -0.00146611 0)
(0.0216234 -0.00132225 0)
(0.0218309 -0.00118282 0)
(0.0220167 -0.00104718 0)
(0.0221802 -0.000914893 0)
(0.0223213 -0.000785712 0)
(0.0224397 -0.00065956 0)
(0.0225354 -0.000536507 0)
(0.0226082 -0.000416737 0)
(0.0226584 -0.000300521 0)
(0.0226859 -0.000188186 0)
(0.0226913 -8.00897e-05 0)
(0.0226745 2.38208e-05 0)
(0.0226357 0.000123768 0)
(0.0225756 0.000219734 0)
(0.0224946 0.000311643 0)
(0.0223934 0.000399486 0)
(0.0222727 0.000483338 0)
(0.0221332 0.00056335 0)
(0.0219756 0.000639743 0)
(0.0218006 0.000712804 0)
(0.0216089 0.000782869 0)
(0.0214009 0.000850312 0)
(0.0211773 0.000915522 0)
(0.0209384 0.000978892 0)
(0.0206849 0.0010408 0)
(0.0204171 0.00110159 0)
(0.0201353 0.00116156 0)
(0.01984 0.00122095 0)
(0.0195316 0.00127994 0)
(0.0192105 0.00133858 0)
(0.0188771 0.00139683 0)
(0.0185319 0.00145446 0)
(0.0181754 0.00151104 0)
(0.0178084 0.00156584 0)
(0.0174315 0.00161775 0)
(0.0170456 0.00166513 0)
(0.0166517 0.00170572 0)
(0.0162506 0.00173646 0)
(0.0158432 0.00175346 0)
(0.0154302 0.00175204 0)
(0.0150117 0.00172733 0)
(0.0145868 0.00167588 0)
(0.0141541 0.00160031 0)
(0.0137123 0.00152115 0)
(0.0132667 0.00150677 0)
(0.0128482 0.00175593 0)
(0.0125639 0.00275944 0)
(0.0125507 0.00505389 0)
(0.0126394 0.00811925 0)
(0.0123215 0.0106207 0)
(0.0111743 0.0114826 0)
(0.00912833 0.0105091 0)
(0.00628097 0.00795838 0)
(0.00366183 0.00306827 0)
(-0.00108982 0.00757501 0)
(-0.000210571 -0.00344571 0)
(-0.000505798 -0.00648848 0)
(0.000441367 -0.00638333 0)
(0.00123304 -0.00566329 0)
(0.00216122 -0.00497237 0)
(0.00302316 -0.00434831 0)
(0.00380493 -0.0038021 0)
(0.00450123 -0.00333462 0)
(0.00511518 -0.00294152 0)
(0.00565703 -0.00261552 0)
(0.00614118 -0.0023489 0)
(0.00658477 -0.00213661 0)
(0.00700772 -0.00198034 0)
(0.00743092 -0.00189186 0)
(0.00786723 -0.0018886 0)
(0.00831029 -0.00198278 0)
(0.00873 -0.00216965 0)
(0.00907883 -0.002419 0)
(0.00930694 -0.00267033 0)
(0.00938422 -0.00283085 0)
(0.00933425 -0.00277914 0)
(0.0092908 -0.00239213 0)
(0.00952743 -0.00161671 0)
(0.0102995 -0.000578991 0)
(0.0117725 0.000243861 0)
(0.013668 0.000340908 0)
(0.0154615 -0.000249331 0)
(0.0167824 -0.00112982 0)
(0.0175998 -0.00202261 0)
(0.018045 -0.00275434 0)
(0.0182751 -0.00325524 0)
(0.0184121 -0.00353389 0)
(0.018531 -0.00363425 0)
(0.0186686 -0.00360746 0)
(0.0188377 -0.00349801 0)
(0.0190378 -0.0033395 0)
(0.0192626 -0.00315514 0)
(0.0195041 -0.00295985 0)
(0.0197545 -0.00276256 0)
(0.0200073 -0.0025682 0)
(0.020257 -0.00237911 0)
(0.0204995 -0.0021961 0)
(0.0207316 -0.00201908 0)
(0.0209508 -0.00184756 0)
(0.0211553 -0.00168085 0)
(0.0213437 -0.00151827 0)
(0.0215147 -0.00135925 0)
(0.0216675 -0.00120332 0)
(0.0218014 -0.00105021 0)
(0.0219155 -0.000899784 0)
(0.0220096 -0.000752057 0)
(0.022083 -0.00060719 0)
(0.0221354 -0.000465458 0)
(0.0221667 -0.000327235 0)
(0.0221766 -0.000192979 0)
(0.0221655 -6.30755e-05 0)
(0.0221321 6.26163e-05 0)
(0.0220772 0.000184122 0)
(0.022001 0.000301176 0)
(0.021904 0.000413514 0)
(0.0217869 0.000521063 0)
(0.0216504 0.000623862 0)
(0.0214952 0.000722067 0)
(0.0213223 0.00081592 0)
(0.0211322 0.000905746 0)
(0.0209258 0.000991928 0)
(0.0207036 0.00107489 0)
(0.0204664 0.00115508 0)
(0.0202146 0.00123294 0)
(0.0199489 0.00130889 0)
(0.0196698 0.0013833 0)
(0.0193776 0.00145652 0)
(0.0190727 0.00152879 0)
(0.0187556 0.00160029 0)
(0.0184266 0.00167108 0)
(0.0180859 0.0017411 0)
(0.0177338 0.0018101 0)
(0.0173707 0.00187762 0)
(0.0169967 0.00194288 0)
(0.0166122 0.00200473 0)
(0.0162172 0.0020615 0)
(0.0158121 0.00211093 0)
(0.0153968 0.00215002 0)
(0.0149715 0.00217506 0)
(0.0145357 0.0021817 0)
(0.014089 0.00216553 0)
(0.0136308 0.00212342 0)
(0.0131608 0.00205702 0)
(0.0126805 0.0019815 0)
(0.0121971 0.00194981 0)
(0.0117346 0.00212438 0)
(0.0113779 0.00293834 0)
(0.0112706 0.00500571 0)
(0.0113295 0.00817103 0)
(0.0111144 0.0112326 0)
(0.0101777 0.012927 0)
(0.00836155 0.0128152 0)
(0.00565352 0.0110115 0)
(0.00312252 0.00720076 0)
(-0.000934747 0.00811326 0)
(-0.000250634 -0.00354554 0)
(-0.00050218 -0.00690206 0)
(0.000476509 -0.00721443 0)
(0.00128171 -0.00658386 0)
(0.00222496 -0.00587607 0)
(0.00310067 -0.00518582 0)
(0.00390102 -0.00455771 0)
(0.00462524 -0.00400923 0)
(0.00527921 -0.0035445 0)
(0.00587527 -0.00316135 0)
(0.0064293 -0.00285578 0)
(0.00695871 -0.00262522 0)
(0.00747985 -0.00247021 0)
(0.00800334 -0.00239344 0)
(0.00852914 -0.00239614 0)
(0.00904429 -0.0024735 0)
(0.0095253 -0.00260985 0)
(0.00994525 -0.00277458 0)
(0.0102842 -0.00292015 0)
(0.0105427 -0.00298342 0)
(0.0107585 -0.0028937 0)
(0.0110226 -0.00259452 0)
(0.0114766 -0.0020889 0)
(0.012262 -0.00151089 0)
(0.0134007 -0.00110984 0)
(0.0147166 -0.00107886 0)
(0.0159433 -0.0014157 0)
(0.0169083 -0.00197331 0)
(0.0175804 -0.00257428 0)
(0.0180097 -0.00309024 0)
(0.0182733 -0.00346211 0)
(0.0184446 -0.00368158 0)
(0.0185772 -0.00376825 0)
(0.0187038 -0.00375196 0)
(0.018841 -0.00366243 0)
(0.0189946 -0.00352451 0)
(0.0191642 -0.00335705 0)
(0.0193466 -0.0031733 0)
(0.0195374 -0.00298204 0)
(0.0197321 -0.00278873 0)
(0.0199267 -0.00259648 0)
(0.0201178 -0.00240689 0)
(0.0203024 -0.00222056 0)
(0.0204783 -0.00203753 0)
(0.0206434 -0.00185758 0)
(0.0207962 -0.00168033 0)
(0.0209352 -0.00150546 0)
(0.0210594 -0.00133268 0)
(0.0211676 -0.00116185 0)
(0.0212589 -0.000992953 0)
(0.0213326 -0.000826097 0)
(0.0213878 -0.000661537 0)
(0.021424 -0.000499642 0)
(0.0214405 -0.000340893 0)
(0.021437 -0.000185886 0)
(0.0214132 -3.47987e-05 0)
(0.0213672 0.000112464 0)
(0.0213001 0.000255395 0)
(0.0212122 0.000393413 0)
(0.0211038 0.000526129 0)
(0.0209754 0.000653367 0)
(0.0208279 0.000775113 0)
(0.0206621 0.000891483 0)
(0.0204788 0.00100271 0)
(0.0202789 0.00110914 0)
(0.0200633 0.00121117 0)
(0.0198327 0.00130928 0)
(0.0195881 0.00140395 0)
(0.01933 0.00149567 0)
(0.0190592 0.00158492 0)
(0.0187762 0.00167213 0)
(0.0184815 0.0017577 0)
(0.0181756 0.00184194 0)
(0.0178588 0.00192508 0)
(0.0175312 0.00200725 0)
(0.0171931 0.00208845 0)
(0.0168444 0.00216849 0)
(0.0164849 0.002247 0)
(0.0161145 0.00232327 0)
(0.0157327 0.00239622 0)
(0.0153391 0.00246428 0)
(0.0149329 0.00252529 0)
(0.0145134 0.00257638 0)
(0.0140795 0.00261399 0)
(0.0136301 0.00263394 0)
(0.0131641 0.00263178 0)
(0.0126804 0.002604 0)
(0.0121789 0.00255058 0)
(0.0116614 0.00248169 0)
(0.0111343 0.0024381 0)
(0.0106146 0.00255547 0)
(0.0101639 0.00322128 0)
(0.00991487 0.00508945 0)
(0.00985055 0.00828597 0)
(0.00961664 0.0117921 0)
(0.00879 0.0142365 0)
(0.00719027 0.0149478 0)
(0.00472367 0.013891 0)
(0.00250134 0.0106471 0)
(-0.000800529 0.0085952 0)
(-0.000296247 -0.003574 0)
(-0.000418569 -0.00740602 0)
(0.000614811 -0.00807318 0)
(0.00142872 -0.00752157 0)
(0.00236591 -0.00678896 0)
(0.00323443 -0.00603424 0)
(0.00403038 -0.00533314 0)
(0.00476087 -0.00471752 0)
(0.00543615 -0.00419754 0)
(0.00606951 -0.00377352 0)
(0.0066747 -0.00344187 0)
(0.00726365 -0.003198 0)
(0.00784452 -0.00303738 0)
(0.00841977 -0.00295507 0)
(0.00898498 -0.00294413 0)
(0.00952957 -0.00299309 0)
(0.0100394 -0.00308336 0)
(0.0105016 -0.00318751 0)
(0.0109105 -0.0032696 0)
(0.0112757 -0.00328872 0)
(0.0116289 -0.00320699 0)
(0.0120275 -0.00300478 0)
(0.0125456 -0.00270223 0)
(0.013244 -0.00237773 0)
(0.0141203 -0.00215915 0)
(0.0150822 -0.00215298 0)
(0.0159923 -0.00236478 0)
(0.0167476 -0.00271166 0)
(0.0173125 -0.00309365 0)
(0.017704 -0.0034335 0)
(0.017965 -0.0036868 0)
(0.0181425 -0.00383917 0)
(0.0182753 -0.0038963 0)
(0.0183903 -0.00387393 0)
(0.0185037 -0.00379065 0)
(0.0186238 -0.00366379 0)
(0.0187534 -0.00350765 0)
(0.0188922 -0.00333309 0)
(0.0190381 -0.00314789 0)
(0.0191884 -0.00295725 0)
(0.0193401 -0.00276447 0)
(0.0194905 -0.00257148 0)
(0.0196372 -0.00237929 0)
(0.0197778 -0.00218829 0)
(0.0199106 -0.00199855 0)
(0.0200339 -0.00180997 0)
(0.0201462 -0.0016224 0)
(0.0202462 -0.00143571 0)
(0.0203327 -0.00124988 0)
(0.0204046 -0.00106497 0)
(0.0204611 -0.0008812 0)
(0.020501 -0.000698888 0)
(0.0205236 -0.000518477 0)
(0.0205281 -0.000340511 0)
(0.0205141 -0.000165618 0)
(0.0204793 6.15423e-06 0)
(0.0204243 0.000174487 0)
(0.0203489 0.000338368 0)
(0.0202528 0.000496945 0)
(0.0201364 0.000649713 0)
(0.0200003 0.00079634 0)
(0.0198454 0.00093668 0)
(0.0196726 0.00107074 0)
(0.0194828 0.00119872 0)
(0.0192771 0.00132092 0)
(0.0190565 0.00143778 0)
(0.0188221 0.00154982 0)
(0.0185748 0.00165758 0)
(0.0183156 0.00176163 0)
(0.0180452 0.00186254 0)
(0.0177644 0.00196083 0)
(0.0174738 0.00205699 0)
(0.0171738 0.00215146 0)
(0.0168648 0.0022446 0)
(0.0165469 0.00233668 0)
(0.01622 0.00242787 0)
(0.0158838 0.00251815 0)
(0.0155377 0.00260731 0)
(0.015181 0.00269487 0)
(0.0148126 0.00277994 0)
(0.0144312 0.00286114 0)
(0.0140351 0.00293651 0)
(0.0136224 0.00300338 0)
(0.0131911 0.00305833 0)
(0.0127389 0.00309728 0)
(0.0122637 0.00311565 0)
(0.0117638 0.00310916 0)
(0.0112382 0.00307597 0)
(0.0106874 0.00302222 0)
(0.0101156 0.00297957 0)
(0.00953334 0.00306272 0)
(0.00898419 0.00362137 0)
(0.00858685 0.00532659 0)
(0.00837489 0.00851628 0)
(0.00807911 0.012355 0)
(0.00732543 0.0154123 0)
(0.00595463 0.016823 0)
(0.00380847 0.0163957 0)
(0.00197841 0.0136197 0)
(-0.000683231 0.009028 0)
(-0.00032365 -0.0035888 0)
(-0.000247092 -0.00803977 0)
(0.000797284 -0.0089469 0)
(0.00161847 -0.00845358 0)
(0.00251553 -0.00768084 0)
(0.00334358 -0.00685955 0)
(0.00410069 -0.00609226 0)
(0.0048016 -0.00542162 0)
(0.00546083 -0.00486045 0)
(0.00609193 -0.00440812 0)
(0.00670592 -0.00405848 0)
(0.00731012 -0.00380336 0)
(0.00790768 -0.00363391 0)
(0.00849734 -0.00354048 0)
(0.00907384 -0.00351163 0)
(0.0096291 -0.00353282 0)
(0.0101543 -0.0035853 0)
(0.0106432 -0.00364597 0)
(0.0110955 -0.00368844 0)
(0.0115212 -0.00368616 0)
(0.0119432 -0.00361868 0)
(0.0123961 -0.00348025 0)
(0.0129188 -0.00329008 0)
(0.0135373 -0.00309718 0)
(0.0142433 -0.00297003 0)
(0.0149851 -0.0029631 0)
(0.0156877 -0.00308258 0)
(0.0162887 -0.00328862 0)
(0.016761 -0.00352424 0)
(0.0171098 -0.00373896 0)
(0.0173587 -0.00389991 0)
(0.0175373 -0.00399283 0)
(0.0176724 -0.00401746 0)
(0.017785 -0.00398167 0)
(0.0178894 -0.00389679 0)
(0.017994 -0.00377451 0)
(0.0181029 -0.00362521 0)
(0.0182173 -0.00345734 0)
(0.0183366 -0.00327729 0)
(0.0184593 -0.00308961 0)
(0.0185831 -0.00289742 0)
(0.0187061 -0.00270268 0)
(0.0188261 -0.00250657 0)
(0.0189412 -0.0023097 0)
(0.0190495 -0.00211236 0)
(0.0191497 -0.00191463 0)
(0.0192401 -0.00171651 0)
(0.0193197 -0.00151802 0)
(0.0193872 -0.00131922 0)
(0.0194416 -0.00112027 0)
(0.0194818 -0.000921447 0)
(0.019507 -0.000723132 0)
(0.0195162 -0.000525818 0)
(0.0195086 -0.000330073 0)
(0.019484 -0.000136404 0)
(0.019439 5.50474e-05 0)
(0.0193752 0.000243572 0)
(0.0192916 0.000427829 0)
(0.0191881 0.000606609 0)
(0.0190651 0.000779117 0)
(0.0189232 0.000944778 0)
(0.0187631 0.00110327 0)
(0.0185858 0.00125449 0)
(0.0183923 0.00139854 0)
(0.0181837 0.0015357 0)
(0.0179613 0.00166641 0)
(0.0177263 0.00179119 0)
(0.0174799 0.00191065 0)
(0.0172232 0.00202544 0)
(0.0169572 0.00213622 0)
(0.0166829 0.00224365 0)
(0.016401 0.00234836 0)
(0.0161122 0.00245097 0)
(0.0158166 0.00255204 0)
(0.0155145 0.00265207 0)
(0.0152055 0.00275151 0)
(0.0148891 0.00285064 0)
(0.0145643 0.00294958 0)
(0.0142298 0.00304817 0)
(0.0138837 0.00314589 0)
(0.0135237 0.0032417 0)
(0.0131473 0.00333395 0)
(0.0127514 0.00342023 0)
(0.0123327 0.00349734 0)
(0.0118876 0.00356124 0)
(0.0114128 0.00360724 0)
(0.0109051 0.00363047 0)
(0.010362 0.00362745 0)
(0.00978238 0.00360103 0)
(0.00916783 0.00357589 0)
(0.0085238 0.00364977 0)
(0.00787999 0.00413794 0)
(0.00734319 0.0057101 0)
(0.00699025 0.00886214 0)
(0.00663189 0.0129265 0)
(0.00594847 0.0164435 0)
(0.00481821 0.0183944 0)
(0.00302691 0.0184562 0)
(0.00158239 0.016037 0)
(-0.000579821 0.00940926 0)
(-0.000312981 -0.00365085 0)
(-1.71938e-07 -0.00879183 0)
(0.000985089 -0.00980969 0)
(0.00179516 -0.00934654 0)
(0.00261411 -0.00851521 0)
(0.00336167 -0.00762325 0)
(0.00404221 -0.00679586 0)
(0.00467678 -0.00608152 0)
(0.00528349 -0.00549209 0)
(0.00587571 -0.00502332 0)
(0.0064621 -0.00466483 0)
(0.00704685 -0.00440429 0)
(0.00763008 -0.00422896 0)
(0.00820864 -0.0041257 0)
(0.00877695 -0.00408051 0)
(0.00932827 -0.00407794 0)
(0.00985623 -0.00410051 0)
(0.0103569 -0.00412903 0)
(0.0108316 -0.00414403 0)
(0.0112879 -0.00412805 0)
(0.0117409 -0.00406959 0)
(0.012211 -0.00396818 0)
(0.0127185 -0.00383853 0)
(0.0132743 -0.00371089 0)
(0.0138699 -0.00362338 0)
(0.014475 -0.00360546 0)
(0.0150467 -0.00366207 0)
(0.0155481 -0.00377255 0)
(0.0159602 -0.00390372 0)
(0.0162832 -0.00402384 0)
(0.01653 -0.00411026 0)
(0.0167193 -0.00415111 0)
(0.0168695 -0.0041436 0)
(0.0169962 -0.00409097 0)
(0.0171106 -0.00399962 0)
(0.0172203 -0.00387706 0)
(0.0173295 -0.00373047 0)
(0.0174399 -0.00356608 0)
(0.0175516 -0.00338889 0)
(0.0176638 -0.00320268 0)
(0.0177751 -0.00301018 0)
(0.0178838 -0.00281324 0)
(0.0179883 -0.00261309 0)
(0.0180868 -0.00241047 0)
(0.0181781 -0.00220581 0)
(0.0182606 -0.00199935 0)
(0.0183331 -0.00179125 0)
(0.0183947 -0.00158162 0)
(0.0184444 -0.00137063 0)
(0.0184811 -0.00115851 0)
(0.0185042 -0.000945588 0)
(0.0185129 -0.000732305 0)
(0.0185064 -0.000519178 0)
(0.018484 -0.000306802 0)
(0.0184454 -9.53967e-05 0)
(0.0183876 0.000114894 0)
(0.0183123 0.00032261 0)
(0.0182189 0.00052605 0)
(0.0181071 0.00072383 0)
(0.0179771 0.000914968 0)
(0.0178293 0.00109869 0)
(0.0176644 0.00127445 0)
(0.0174833 0.00144196 0)
(0.0172871 0.00160117 0)
(0.017077 0.00175224 0)
(0.0168543 0.00189555 0)
(0.0166206 0.00203161 0)
(0.0163771 0.00216107 0)
(0.0161253 0.00228466 0)
(0.0158664 0.00240315 0)
(0.0156015 0.00251735 0)
(0.0153315 0.00262811 0)
(0.0150573 0.00273625 0)
(0.014779 0.00284265 0)
(0.0144968 0.00294814 0)
(0.0142102 0.00305353 0)
(0.0139185 0.00315957 0)
(0.0136201 0.00326686 0)
(0.0133131 0.00337575 0)
(0.012995 0.00348623 0)
(0.0126625 0.00359776 0)
(0.012312 0.00370914 0)
(0.011939 0.00381836 0)
(0.0115391 0.00392248 0)
(0.0111075 0.00401756 0)
(0.0106391 0.00409879 0)
(0.0101293 0.00416086 0)
(0.00957391 0.0041992 0)
(0.0089697 0.00421424 0)
(0.0083157 0.00422502 0)
(0.00761375 0.00431467 0)
(0.00688379 0.00476449 0)
(0.00622179 0.00622399 0)
(0.00574427 0.00930321 0)
(0.00534009 0.0134887 0)
(0.00473867 0.0173153 0)
(0.00385163 0.0196539 0)
(0.0024094 0.0200848 0)
(0.00130017 0.0179676 0)
(-0.000492009 0.00973433 0)
(-0.000248156 -0.00381007 0)
(0.000288185 -0.00959106 0)
(0.00115455 -0.0106336 0)
(0.00191187 -0.0101592 0)
(0.00261384 -0.00925089 0)
(0.00323932 -0.00828604 0)
(0.00380692 -0.00740754 0)
(0.00434346 -0.00666355 0)
(0.00486919 -0.00606074 0)
(0.00539631 -0.00558888 0)
(0.00593078 -0.00523228 0)
(0.00647381 -0.00497437 0)
(0.00702327 -0.0047991 0)
(0.0075746 -0.00469097 0)
(0.00812183 -0.00463463 0)
(0.00865882 -0.00461463 0)
(0.0091805 -0.00461527 0)
(0.00968391 -0.00462072 0)
(0.0101696 -0.00461616 0)
(0.0106428 -0.00458977 0)
(0.0111127 -0.00453479 0)
(0.0115911 -0.00445225 0)
(0.0120882 -0.0043526 0)
(0.0126081 -0.00425457 0)
(0.0131434 -0.0041802 0)
(0.0136756 -0.00414613 0)
(0.0141794 -0.00415578 0)
(0.0146323 -0.00419826 0)
(0.0150213 -0.00425442 0)
(0.0153447 -0.00430444 0)
(0.0156095 -0.00433282 0)
(0.0158268 -0.0043302 0)
(0.0160089 -0.00429298 0)
(0.0161668 -0.0042219 0)
(0.016309 -0.00412028 0)
(0.0164415 -0.00399272 0)
(0.016568 -0.00384402 0)
(0.0166904 -0.00367864 0)
(0.0168092 -0.00350034 0)
(0.0169242 -0.00331217 0)
(0.0170344 -0.00311642 0)
(0.0171387 -0.00291481 0)
(0.0172359 -0.00270852 0)
(0.0173248 -0.00249838 0)
(0.0174042 -0.00228493 0)
(0.0174731 -0.00206855 0)
(0.0175305 -0.0018495 0)
(0.0175757 -0.00162803 0)
(0.0176079 -0.0014044 0)
(0.0176266 -0.0011789 0)
(0.0176311 -0.000951929 0)
(0.0176211 -0.000723956 0)
(0.0175959 -0.000495516 0)
(0.0175555 -0.000267176 0)
(0.0174981 -3.89369e-05 0)
(0.0174246 0.000188687 0)
(0.0173351 0.000413721 0)
(0.0172291 0.000634469 0)
(0.0171063 0.000849642 0)
(0.0169671 0.00105801 0)
(0.0168119 0.00125851 0)
(0.0166412 0.00145028 0)
(0.016456 0.00163279 0)
(0.0162573 0.00180578 0)
(0.0160465 0.00196929 0)
(0.0158249 0.00212358 0)
(0.0155941 0.00226915 0)
(0.0153555 0.00240666 0)
(0.0151106 0.00253689 0)
(0.014861 0.00266074 0)
(0.0146078 0.0027792 0)
(0.0143521 0.00289334 0)
(0.0140947 0.00300428 0)
(0.0138359 0.00311326 0)
(0.0135756 0.00322156 0)
(0.0133134 0.00333051 0)
(0.0130478 0.00344143 0)
(0.0127772 0.00355556 0)
(0.0124989 0.00367393 0)
(0.0122095 0.00379721 0)
(0.0119051 0.0039255 0)
(0.0115807 0.00405821 0)
(0.0112312 0.00419381 0)
(0.0108507 0.00432973 0)
(0.0104331 0.00446224 0)
(0.00997217 0.00458647 0)
(0.00946178 0.00469679 0)
(0.00889601 0.00478782 0)
(0.00826989 0.00485824 0)
(0.00758011 0.00492255 0)
(0.00682607 0.00505103 0)
(0.00602135 0.00549046 0)
(0.0052514 0.00685091 0)
(0.0046667 0.00981515 0)
(0.00423592 0.0140183 0)
(0.00372919 0.018018 0)
(0.00307602 0.0206174 0)
(0.0019477 0.021342 0)
(0.00110417 0.0195198 0)
(-0.000429352 0.0100021 0)
(-0.000131407 -0.00411876 0)
(0.000552652 -0.0103402 0)
(0.00128425 -0.0113866 0)
(0.00193179 -0.0108472 0)
(0.00247871 -0.00984507 0)
(0.00294532 -0.00881065 0)
(0.00337036 -0.00789596 0)
(0.00378614 -0.00714141 0)
(0.00421295 -0.0065438 0)
(0.00466028 -0.00608481 0)
(0.00513048 -0.00574297 0)
(0.00562165 -0.00549786 0)
(0.00612955 -0.00533103 0)
(0.00664866 -0.00522567 0)
(0.0071729 -0.00516605 0)
(0.00769639 -0.00513714 0)
(0.00821447 -0.00512484 0)
(0.00872438 -0.00511613 0)
(0.0092258 -0.00509958 0)
(0.00972119 -0.00506665 0)
(0.0102154 -0.00501308 0)
(0.0107144 -0.00494006 0)