/*--------------------------------*- C++ -*----------------------------------*\
| =========                 |                                                 |
| \\      /  F ield         | OpenFOAM: The Open Source CFD Toolbox           |
|  \\    /   O peration     | Version:  4.1                                   |
|   \\  /    A nd           | Web:      www.OpenFOAM.org                      |
|    \\/     M anipulation  |                                                 |
\*---------------------------------------------------------------------------*/
FoamFile
{
    version     2.0;
    format      ascii;
    class       volScalarField;
    location    "480";
    object      p_rgh;
}
// * * * * * * * * * * * * * * * * * * * * * * * * * * * * * * * * * * * * * //

dimensions      [0 2 -2 0 0 0 0];

internalField   nonuniform List<scalar> 
5000
(
0.0492248
0.0492609
0.04923
0.0492207
0.0492247
0.0492414
0.049259
0.0492694
0.0492759
0.0492802
0.0492862
0.049289
0.0492904
0.0492944
0.049301
0.0493078
0.0493126
0.0493162
0.0493197
0.0493239
0.0493291
0.0493352
0.0493422
0.0493497
0.0493575
0.0493655
0.0493734
0.0493811
0.0493885
0.0493953
0.0494013
0.049406
0.0494092
0.0494128
0.049412
0.049403
0.0493788
0.0493437
0.0493111
0.0492884
0.0492742
0.0492658
0.0492628
0.0492633
0.0492644
0.0492632
0.0492589
0.0492518
0.0492441
0.0492379
0.0492347
0.0492351
0.0492394
0.0492446
0.049246
0.0492431
0.0492356
0.0492092
0.0492001
0.0491971
0.0491983
0.0492018
0.0492066
0.0492126
0.0492193
0.0492266
0.0492344
0.0492424
0.0492505
0.0492585
0.0492665
0.0492743
0.049282
0.0492896
0.049297
0.0493042
0.0493111
0.0493176
0.0493237
0.0493292
0.0493339
0.0493379
0.0493413
0.0493438
0.0493453
0.0493458
0.0493454
0.0493445
0.0493431
0.0493415
0.0493392
0.0493353
0.0493275
0.0493118
0.049284
0.0492473
0.0492163
0.0492036
0.0492156
0.0492159
0.0492
0.0492575
0.0492099
0.0491959
0.0492173
0.0492357
0.049264
0.0492865
0.0493042
0.0493099
0.0492862
0.0492833
0.0493038
0.0493288
0.0493466
0.0493547
0.0493601
0.0493652
0.0493704
0.0493756
0.049381
0.0493864
0.0493919
0.0493976
0.0494032
0.0494089
0.0494145
0.0494198
0.0494247
0.049429
0.0494321
0.0494336
0.0494329
0.0494304
0.0494253
0.0494142
0.0493909
0.0493559
0.0493191
0.0492957
0.0492834
0.0492784
0.0492794
0.0492822
0.0492845
0.0492848
0.0492828
0.0492778
0.0492676
0.0492553
0.049248
0.0492517
0.049263
0.0492716
0.0492758
0.049266
0.0492279
0.0492228
0.0492481
0.049261
0.04927
0.0492753
0.049278
0.0492812
0.0492862
0.0492923
0.049299
0.0493061
0.0493132
0.0493203
0.0493273
0.0493342
0.0493411
0.0493479
0.0493546
0.0493613
0.0493678
0.0493743
0.0493806
0.0493866
0.0493923
0.0493975
0.0494024
0.0494067
0.0494104
0.0494134
0.0494155
0.0494166
0.0494166
0.0494151
0.0494118
0.0494057
0.0493954
0.0493783
0.0493498
0.0493056
0.0492441
0.0491981
0.049217
0.0492225
0.0491857
0.0492654
0.049201
0.0491731
0.049176
0.0492124
0.0492504
0.049278
0.0492995
0.0493024
0.0492674
0.0492608
0.0492964
0.0493303
0.0493473
0.0493551
0.0493607
0.0493659
0.0493711
0.0493763
0.0493816
0.049387
0.0493924
0.049398
0.0494035
0.049409
0.0494144
0.0494194
0.0494239
0.0494276
0.0494302
0.049431
0.0494295
0.049426
0.0494201
0.04941
0.0493932
0.049372
0.0493515
0.0493347
0.049326
0.0493203
0.0493127
0.0493064
0.0493011
0.0492961
0.049291
0.0492845
0.049274
0.0492607
0.0492533
0.0492591
0.0492698
0.0492753
0.0492765
0.0492595
0.0492071
0.0492339
0.0492714
0.049278
0.0492774
0.049276
0.0492771
0.0492807
0.0492862
0.0492928
0.0493
0.0493073
0.0493146
0.0493217
0.0493287
0.0493355
0.0493423
0.0493489
0.0493556
0.0493622
0.0493688
0.0493753
0.0493817
0.0493878
0.0493937
0.0493992
0.0494044
0.049409
0.049413
0.0494162
0.0494185
0.04942
0.0494203
0.0494194
0.0494168
0.049412
0.0494036
0.0493889
0.0493609
0.049309
0.0492334
0.0491728
0.0492191
0.0492258
0.0491989
0.0492888
0.0492804
0.0491752
0.0491772
0.0492116
0.0492422
0.0492649
0.0492814
0.0492737
0.0492386
0.0492375
0.0492838
0.0493244
0.0493439
0.0493533
0.0493599
0.0493655
0.0493708
0.0493761
0.0493814
0.0493868
0.0493922
0.0493976
0.0494029
0.0494082
0.0494132
0.0494177
0.0494217
0.0494249
0.0494267
0.0494269
0.0494247
0.0494205
0.0494139
0.0494044
0.0493937
0.049384
0.0493754
0.0493661
0.0493543
0.0493405
0.0493269
0.0493154
0.0493061
0.0492982
0.0492912
0.0492834
0.0492723
0.0492593
0.0492537
0.0492619
0.0492719
0.0492716
0.0492684
0.0492392
0.0491869
0.0492418
0.0492743
0.049274
0.0492702
0.0492687
0.0492709
0.0492759
0.0492827
0.0492903
0.0492982
0.049306
0.0493135
0.0493208
0.0493277
0.0493345
0.0493411
0.0493477
0.0493542
0.0493608
0.0493674
0.049374
0.0493805
0.0493869
0.0493931
0.049399
0.0494045
0.0494096
0.0494139
0.0494175
0.0494203
0.0494221
0.0494229
0.0494225
0.0494208
0.0494174
0.0494115
0.049401
0.0493775
0.0493151
0.049218
0.0491575
0.0492414
0.0492314
0.049224
0.0493117
0.0493039
0.0491663
0.0492022
0.0492317
0.0492407
0.0492452
0.0492414
0.049232
0.0492066
0.0492172
0.0492708
0.049316
0.0493389
0.0493511
0.0493591
0.0493653
0.0493709
0.0493762
0.0493815
0.0493867
0.0493918
0.0493969
0.0494019
0.0494066
0.0494111
0.0494151
0.0494184
0.0494208
0.049422
0.0494214
0.0494186
0.0494136
0.0494063
0.0493966
0.0493859
0.0493754
0.0493651
0.0493544
0.0493426
0.0493304
0.0493189
0.0493088
0.0493002
0.0492927
0.0492857
0.0492777
0.0492666
0.0492542
0.0492505
0.0492602
0.0492684
0.0492608
0.0492512
0.0492134
0.0491667
0.0492404
0.0492623
0.0492585
0.0492551
0.0492559
0.0492607
0.0492684
0.0492774
0.0492867
0.0492956
0.049304
0.0493118
0.0493191
0.049326
0.0493326
0.0493391
0.0493455
0.0493519
0.0493584
0.049365
0.0493716
0.0493784
0.0493851
0.0493916
0.049398
0.049404
0.0494096
0.0494146
0.0494188
0.0494222
0.0494248
0.0494263
0.0494269
0.0494263
0.0494245
0.0494213
0.0494154
0.0494005
0.0493376
0.0492185
0.049179
0.0492865
0.0492421
0.049244
0.0493249
0.0493085
0.0492373
0.0492688
0.0492548
0.0492225
0.0491912
0.0491963
0.0491889
0.0491767
0.0491992
0.0492574
0.0493059
0.049333
0.0493486
0.0493584
0.0493652
0.0493709
0.0493762
0.0493812
0.0493861
0.0493909
0.0493955
0.0493999
0.0494041
0.0494079
0.0494112
0.0494138
0.0494155
0.0494159
0.0494147
0.0494113
0.0494053
0.049397
0.0493863
0.0493745
0.0493627
0.0493512
0.0493398
0.0493285
0.0493178
0.0493079
0.0492994
0.049292
0.0492852
0.0492783
0.04927
0.0492586
0.0492466
0.0492437
0.0492534
0.0492596
0.0492474
0.0492266
0.0491838
0.0491402
0.0492247
0.049236
0.0492305
0.0492295
0.0492347
0.0492446
0.0492575
0.0492705
0.0492823
0.0492927
0.0493019
0.04931
0.0493173
0.0493241
0.0493305
0.0493367
0.0493429
0.0493491
0.0493554
0.049362
0.0493687
0.0493756
0.0493826
0.0493895
0.0493964
0.049403
0.0494092
0.0494149
0.0494199
0.0494242
0.0494276
0.0494302
0.0494319
0.0494328
0.0494328
0.049432
0.0494303
0.0494229
0.0493742
0.0492604
0.0492429
0.0493421
0.0492552
0.0492575
0.0493345
0.0493147
0.0493027
0.0492643
0.0491978
0.049157
0.0491513
0.0491553
0.0491516
0.049151
0.0491825
0.049243
0.0492946
0.0493268
0.0493465
0.049358
0.0493651
0.0493709
0.0493759
0.0493806
0.049385
0.0493892
0.0493932
0.049397
0.0494005
0.0494036
0.0494062
0.0494081
0.0494091
0.0494089
0.0494071
0.0494029
0.0493959
0.049386
0.0493738
0.0493605
0.0493471
0.0493344
0.0493226
0.049312
0.0493026
0.0492945
0.0492877
0.0492818
0.0492761
0.0492695
0.0492608
0.049249
0.0492369
0.0492338
0.0492416
0.0492467
0.0492359
0.0492007
0.0491536
0.0491072
0.0491921
0.049195
0.0491847
0.0491869
0.0491999
0.0492193
0.0492416
0.0492613
0.0492773
0.0492899
0.0493001
0.0493086
0.0493159
0.0493224
0.0493285
0.0493344
0.0493402
0.0493462
0.0493523
0.0493588
0.0493655
0.0493725
0.0493798
0.0493871
0.0493945
0.0494017
0.0494086
0.049415
0.0494209
0.049426
0.0494305
0.0494342
0.0494372
0.0494395
0.0494412
0.0494425
0.0494439
0.0494436
0.04942
0.0493321
0.049328
0.0493938
0.0492649
0.0492702
0.0493446
0.0493148
0.0492727
0.0492095
0.0491536
0.0491251
0.0491185
0.0491204
0.0491206
0.049129
0.0491663
0.0492278
0.049283
0.0493216
0.0493457
0.0493583
0.0493655
0.0493709
0.0493756
0.0493797
0.0493835
0.049387
0.0493904
0.0493935
0.0493963
0.0493987
0.0494005
0.0494018
0.0494022
0.0494014
0.049399
0.0493938
0.0493853
0.0493735
0.0493593
0.0493441
0.049329
0.0493153
0.0493033
0.0492933
0.0492853
0.0492791
0.0492741
0.0492697
0.0492651
0.0492591
0.0492502
0.049238
0.0492258
0.0492219
0.0492268
0.0492286
0.0492231
0.049187
0.0491275
0.0490769
0.0491432
0.0491468
0.0491279
0.0491257
0.049149
0.049184
0.0492196
0.0492491
0.0492711
0.049287
0.0492986
0.0493077
0.049315
0.0493213
0.0493271
0.0493326
0.049338
0.0493436
0.0493494
0.0493557
0.0493623
0.0493694
0.0493768
0.0493846
0.0493925
0.0494004
0.049408
0.0494152
0.0494218
0.0494279
0.0494334
0.0494382
0.0494423
0.0494459
0.049449
0.0494517
0.0494547
0.0494578
0.0494528
0.0494021
0.0494017
0.0494314
0.0492673
0.0492856
0.0493568
0.0493159
0.0492553
0.0491874
0.0491343
0.0491028
0.0490916
0.0490911
0.0490947
0.0491096
0.0491505
0.0492127
0.049273
0.0493192
0.0493473
0.0493597
0.0493664
0.0493713
0.0493752
0.0493786
0.0493817
0.0493846
0.0493872
0.0493897
0.0493918
0.0493935
0.0493947
0.0493953
0.0493951
0.0493939
0.0493908
0.0493842
0.0493736
0.0493594
0.0493428
0.0493254
0.0493086
0.0492939
0.0492819
0.0492727
0.0492663
0.049262
0.0492591
0.0492563
0.0492521
0.0492463
0.0492375
0.0492255
0.0492136
0.0492092
0.0492114
0.0492102
0.0492035
0.0491887
0.0491043
0.0490514
0.0490949
0.0490967
0.0490779
0.0490749
0.0490992
0.0491454
0.0491939
0.0492341
0.0492633
0.0492834
0.0492972
0.0493071
0.0493146
0.0493207
0.0493262
0.0493312
0.0493363
0.0493414
0.0493469
0.0493529
0.0493594
0.0493664
0.0493741
0.0493822
0.0493905
0.049399
0.0494074
0.0494154
0.0494229
0.0494298
0.0494362
0.0494419
0.0494471
0.0494517
0.0494558
0.0494594
0.0494628
0.0494667
0.0494679
0.0494479
0.0494467
0.049453
0.0492625
0.0493025
0.0493707
0.0493229
0.0492557
0.0491858
0.0491269
0.0490885
0.0490711
0.0490677
0.0490733
0.0490928
0.049136
0.0492001
0.0492675
0.0493218
0.0493515
0.0493625
0.0493681
0.0493721
0.0493751
0.0493778
0.0493801
0.0493823
0.0493843
0.049386
0.0493875
0.0493885
0.049389
0.049389
0.0493883
0.0493868
0.0493826
0.0493741
0.0493609
0.0493437
0.0493241
0.0493042
0.0492859
0.0492704
0.0492585
0.0492504
0.0492458
0.0492437
0.0492434
0.0492424
0.0492379
0.0492311
0.0492224
0.0492112
0.0492005
0.0491962
0.0491966
0.0491935
0.0491866
0.0491833
0.049083
0.0490302
0.0490532
0.0490524
0.04904
0.0490443
0.0490739
0.0491236
0.0491775
0.0492235
0.0492575
0.0492808
0.0492963
0.0493069
0.0493146
0.0493206
0.0493257
0.0493305
0.0493351
0.0493399
0.049345
0.0493506
0.0493569
0.0493638
0.0493716
0.0493799
0.0493888
0.0493978
0.0494069
0.0494156
0.049424
0.0494317
0.0494389
0.0494454
0.0494514
0.0494568
0.0494616
0.0494656
0.0494691
0.0494723
0.0494742
0.0494687
0.0494672
0.0494631
0.0492528
0.0493186
0.0493857
0.049336
0.0492684
0.0491947
0.0491297
0.0490837
0.0490592
0.0490519
0.0490581
0.0490806
0.0491262
0.049194
0.0492702
0.0493312
0.049358
0.0493665
0.0493707
0.0493735
0.0493756
0.0493774
0.0493791
0.0493806
0.0493819
0.049383
0.0493837
0.049384
0.0493838
0.0493831
0.0493821
0.04938
0.0493745
0.0493636
0.0493469
0.049326
0.049303
0.0492806
0.0492607
0.0492449
0.0492336
0.0492269
0.0492243
0.0492248
0.0492275
0.0492296
0.0492244
0.0492148
0.0492051
0.0491953
0.0491868
0.0491833
0.0491826
0.0491785
0.0491723
0.0491716
0.0490644
0.0490143
0.0490223
0.0490211
0.0490195
0.0490361
0.0490744
0.0491265
0.0491798
0.049225
0.0492586
0.0492818
0.0492973
0.0493078
0.0493153
0.0493211
0.0493259
0.0493302
0.0493345
0.0493388
0.0493436
0.0493489
0.0493549
0.0493617
0.0493695
0.049378
0.0493872
0.0493969
0.0494065
0.049416
0.0494251
0.0494336
0.0494415
0.0494487
0.0494553
0.0494612
0.0494664
0.0494706
0.0494738
0.0494762
0.0494774
0.049476
0.0494749
0.0494667
0.0492402
0.0493327
0.0494016
0.0493545
0.0492877
0.0492125
0.049143
0.0490903
0.0490589
0.0490471
0.0490527
0.0490774
0.0491263
0.0492
0.0492845
0.0493456
0.0493661
0.0493716
0.0493741
0.0493756
0.0493767
0.0493778
0.0493788
0.0493798
0.0493804
0.0493808
0.0493807
0.0493803
0.0493793
0.0493781
0.0493767
0.049374
0.0493666
0.0493522
0.0493313
0.0493059
0.0492793
0.0492544
0.0492335
0.0492178
0.0492077
0.0492028
0.0492025
0.0492059
0.049212
0.0492187
0.0492146
0.0492
0.0491875
0.0491788
0.0491728
0.0491704
0.0491691
0.049165
0.0491612
0.0491645
0.0490622
0.0490122
0.0490108
0.0490135
0.0490251
0.0490546
0.0491003
0.0491515
0.0491995
0.0492386
0.0492675
0.0492875
0.0493011
0.0493104
0.0493171
0.0493222
0.0493266
0.0493305
0.0493344
0.0493384
0.0493427
0.0493477
0.0493534
0.0493601
0.0493679
0.0493766
0.0493861
0.0493962
0.0494065
0.0494166
0.0494263
0.0494355
0.0494439
0.0494517
0.0494587
0.0494649
0.0494703
0.0494746
0.0494776
0.0494791
0.0494795
0.0494785
0.0494773
0.0494673
0.049226
0.0493434
0.0494171
0.0493737
0.0493105
0.0492372
0.0491666
0.0491098
0.0490731
0.0490574
0.0490622
0.0490891
0.0491424
0.0492224
0.04931
0.0493618
0.0493748
0.0493774
0.0493782
0.0493785
0.0493788
0.0493792
0.0493797
0.04938
0.0493799
0.0493795
0.0493786
0.0493772
0.0493755
0.0493738
0.0493721
0.0493686
0.0493586
0.0493399
0.0493137
0.0492833
0.0492528
0.0492258
0.0492046
0.0491901
0.0491819
0.0491793
0.0491814
0.0491876
0.0491972
0.0492089
0.0492107
0.04919
0.0491719
0.0491631
0.0491591
0.0491577
0.0491562
0.049153
0.0491526
0.0491612
0.0490881
0.0490375
0.049031
0.0490396
0.0490623
0.0490993
0.0491449
0.0491902
0.0492287
0.0492588
0.0492808
0.0492961
0.0493066
0.0493141
0.0493196
0.049324
0.0493278
0.0493313
0.0493347
0.0493383
0.0493424
0.049347
0.0493525
0.049359
0.0493668
0.0493757
0.0493855
0.049396
0.0494068
0.0494174
0.0494277
0.0494373
0.0494462
0.0494543
0.0494616
0.0494681
0.0494736
0.0494778
0.0494805
0.0494816
0.0494812
0.0494797
0.049478
0.0494666
0.049211
0.0493497
0.0494298
0.0493913
0.0493342
0.0492665
0.0491989
0.0491421
0.0491032
0.0490857
0.0490907
0.0491204
0.0491781
0.0492609
0.0493408
0.0493771
0.0493835
0.0493836
0.0493828
0.0493822
0.0493819
0.0493819
0.0493818
0.0493813
0.0493804
0.049379
0.0493771
0.0493749
0.0493724
0.0493702
0.0493684
0.0493638
0.0493504
0.0493262
0.0492936
0.0492578
0.0492237
0.0491955
0.0491753
0.0491632
0.0491578
0.0491578
0.0491623
0.0491708
0.0491832
0.0491991
0.0492113
0.0491886
0.0491622
0.0491508
0.0491474
0.0491464
0.0491451
0.0491436
0.0491466
0.0491595
0.0491269
0.0490896
0.049083
0.0490957
0.0491223
0.0491579
0.0491961
0.0492309
0.0492585
0.0492793
0.0492944
0.049305
0.0493125
0.0493181
0.0493224
0.049326
0.0493292
0.0493322
0.0493353
0.0493385
0.0493422
0.0493466
0.049352
0.0493585
0.0493663
0.0493754
0.0493856
0.0493964
0.0494076
0.0494186
0.0494293
0.0494393
0.0494485
0.0494568
0.0494643
0.0494708
0.0494763
0.0494805
0.049483
0.0494836
0.0494826
0.0494805
0.049478
0.0494653
0.0491953
0.0493509
0.0494387
0.049406
0.0493568
0.0492974
0.0492367
0.0491842
0.0491474
0.0491311
0.049138
0.0491706
0.0492301
0.0493076
0.0493695
0.0493903
0.0493917
0.0493899
0.049388
0.0493868
0.0493862
0.0493857
0.0493849
0.0493836
0.0493816
0.0493791
0.0493762
0.049373
0.04937
0.0493675
0.0493657
0.0493596
0.0493416
0.0493105
0.0492708
0.0492293
0.0491924
0.0491646
0.0491472
0.049139
0.0491373
0.0491402
0.0491464
0.0491562
0.0491702
0.049189
0.0492092
0.0491974
0.0491631
0.0491463
0.0491411
0.0491396
0.049139
0.0491398
0.0491461
0.0491613
0.0491589
0.0491462
0.0491466
0.0491612
0.0491854
0.0492138
0.0492414
0.0492649
0.0492831
0.0492963
0.0493058
0.0493126
0.0493176
0.0493215
0.0493248
0.0493277
0.0493303
0.049333
0.0493357
0.0493387
0.0493422
0.0493465
0.0493518
0.0493584
0.0493665
0.0493759
0.0493863
0.0493975
0.049409
0.0494203
0.0494312
0.0494413
0.0494507
0.0494591
0.0494666
0.049473
0.0494785
0.0494826
0.049485
0.0494853
0.0494839
0.0494811
0.0494779
0.0494637
0.0491792
0.0493476
0.0494439
0.0494171
0.0493764
0.0493269
0.0492758
0.0492311
0.0492002
0.0491881
0.0491982
0.0492323
0.0492884
0.0493516
0.0493916
0.0494009
0.0493991
0.049396
0.0493937
0.0493923
0.0493915
0.0493906
0.049389
0.0493866
0.0493834
0.0493797
0.0493757
0.0493717
0.0493682
0.0493658
0.0493639
0.0493558
0.0493318
0.0492924
0.0492448
0.0491981
0.0491599
0.0491345
0.0491221
0.0491194
0.0491222
0.0491277
0.049135
0.0491447
0.0491583
0.0491777
0.0492023
0.0492097
0.049178
0.0491549
0.0491457
0.0491427
0.0491427
0.0491462
0.0491553
0.0491718
0.0491843
0.049191
0.0492007
0.0492166
0.0492365
0.049257
0.0492753
0.04929
0.0493009
0.0493086
0.0493142
0.0493182
0.0493214
0.0493241
0.0493265
0.0493288
0.049331
0.0493333
0.0493358
0.0493387
0.0493421
0.0493465
0.0493521
0.049359
0.0493675
0.0493773
0.0493881
0.0493995
0.0494111
0.0494225
0.0494334
0.0494436
0.0494529
0.0494612
0.0494686
0.049475
0.0494803
0.0494843
0.0494865
0.0494866
0.0494848
0.0494814
0.0494775
0.0494619
0.0491628
0.0493402
0.0494459
0.0494245
0.0493921
0.0493527
0.0493122
0.0492773
0.0492543
0.049248
0.0492611
0.049294
0.0493409
0.0493852
0.049407
0.0494091
0.0494056
0.0494021
0.0493999
0.0493987
0.0493978
0.0493963
0.0493937
0.0493899
0.0493854
0.0493804
0.0493755
0.0493709
0.0493672
0.049365
0.0493631
0.0493522
0.0493205
0.0492713
0.0492156
0.0491647
0.0491273
0.0491072
0.0491023
0.0491061
0.049113
0.0491206
0.0491283
0.0491368
0.0491481
0.0491652
0.0491915
0.0492137
0.0492006
0.0491776
0.0491648
0.0491598
0.0491602
0.0491655
0.0491765
0.0491932
0.0492106
0.0492259
0.0492407
0.0492565
0.0492722
0.0492864
0.0492979
0.0493065
0.0493125
0.0493166
0.0493195
0.0493218
0.0493237
0.0493256
0.0493274
0.0493292
0.0493312
0.0493333
0.0493357
0.0493386
0.0493422
0.0493469
0.049353
0.0493606
0.0493696
0.0493799
0.049391
0.0494026
0.0494142
0.0494255
0.0494362
0.0494462
0.0494552
0.0494633
0.0494704
0.0494766
0.0494818
0.0494855
0.0494875
0.0494875
0.0494853
0.0494815
0.0494768
0.0494597
0.049146
0.0493296
0.049445
0.0494284
0.0494034
0.0493735
0.0493432
0.0493182
0.0493034
0.0493026
0.0493173
0.0493459
0.0493806
0.0494075
0.0494171
0.0494155
0.0494115
0.0494083
0.0494067
0.0494059
0.0494048
0.0494026
0.0493986
0.0493933
0.0493873
0.0493812
0.0493755
0.0493705
0.0493669
0.049365
0.0493634
0.0493485
0.049307
0.0492469
0.0491832
0.0491298
0.0490965
0.0490851
0.0490889
0.0490983
0.0491086
0.0491181
0.0491264
0.0491338
0.0491417
0.0491534
0.0491772
0.0492057
0.0492152
0.0492041
0.0491933
0.0491882
0.0491889
0.0491949
0.0492061
0.0492215
0.0492384
0.0492547
0.0492696
0.0492832
0.049295
0.0493044
0.0493113
0.0493159
0.0493189
0.0493208
0.0493222
0.0493234
0.0493247
0.049326
0.0493275
0.0493291
0.049331
0.049333
0.0493355
0.0493387
0.0493428
0.0493483
0.0493552
0.0493636
0.0493734
0.0493841
0.0493954
0.0494069
0.0494183
0.0494292
0.0494395
0.049449
0.0494576
0.0494653
0.0494721
0.049478
0.0494828
0.0494863
0.0494881
0.0494879
0.0494855
0.0494811
0.0494757
0.0494572
0.0491288
0.0493164
0.049442
0.0494295
0.0494106
0.0493888
0.0493675
0.049351
0.0493433
0.0493466
0.0493611
0.0493836
0.0494067
0.049421
0.0494239
0.0494208
0.0494172
0.0494148
0.0494141
0.0494137
0.0494123
0.0494089
0.0494033
0.0493964
0.0493891
0.0493821
0.0493758
0.0493707
0.0493675
0.0493662
0.0493648
0.0493442
0.0492908
0.0492187
0.0491479
0.0490951
0.0490699
0.0490692
0.04908
0.0490939
0.0491074
0.0491193
0.0491291
0.0491366
0.0491423
0.0491478
0.0491589
0.0491887
0.049212
0.0492184
0.0492169
0.0492158
0.0492181
0.0492246
0.0492348
0.049248
0.0492622
0.049276
0.0492883
0.0492988
0.0493071
0.0493131
0.0493171
0.0493195
0.049321
0.0493219
0.0493227
0.0493235
0.0493245
0.0493257
0.0493271
0.0493287
0.0493306
0.0493328
0.0493358
0.0493397
0.0493448
0.0493515
0.0493596
0.0493689
0.0493793
0.0493903
0.0494015
0.0494127
0.0494235
0.0494337
0.0494433
0.0494521
0.0494601
0.0494672
0.0494737
0.0494791
0.0494835
0.0494866
0.0494882
0.0494878
0.0494851
0.0494803
0.0494742
0.0494543
0.0491114
0.0493016
0.0494376
0.0494283
0.0494144
0.0493991
0.049385
0.0493755
0.049373
0.0493788
0.0493917
0.0494082
0.0494223
0.049429
0.0494287
0.0494256
0.0494228
0.0494217
0.0494219
0.0494219
0.0494198
0.0494149
0.0494076
0.0493991
0.0493907
0.0493829
0.0493764
0.0493716
0.0493689
0.0493684
0.0493671
0.0493389
0.0492711
0.0491865
0.0491107
0.0490632
0.0490496
0.0490569
0.0490729
0.0490908
0.0491078
0.0491229
0.0491355
0.0491449
0.0491505
0.0491524
0.049153
0.0491691
0.0491946
0.0492132
0.0492231
0.0492293
0.0492355
0.0492434
0.0492532
0.0492644
0.049276
0.049287
0.0492966
0.0493045
0.0493104
0.0493145
0.0493172
0.0493189
0.0493199
0.0493208
0.0493216
0.0493226
0.0493237
0.049325
0.0493266
0.0493284
0.0493306
0.0493336
0.0493376
0.0493428
0.0493496
0.0493577
0.049367
0.0493772
0.0493878
0.0493986
0.0494093
0.0494197
0.0494296
0.0494388
0.0494475
0.0494554
0.0494626
0.0494692
0.049475
0.0494799
0.0494837
0.0494865
0.0494877
0.0494871
0.0494842
0.049479
0.0494723
0.0494509
0.0490935
0.0492856
0.0494324
0.0494256
0.0494156
0.0494054
0.0493968
0.0493923
0.0493935
0.0494004
0.0494113
0.0494229
0.0494312
0.0494339
0.0494326
0.0494302
0.0494287
0.049429
0.0494301
0.04943
0.0494268
0.0494201
0.049411
0.0494012
0.049392
0.0493839
0.0493775
0.0493732
0.0493713
0.0493718
0.0493704
0.0493317
0.0492472
0.0491506
0.049074
0.0490378
0.0490326
0.0490452
0.0490653
0.0490867
0.0491074
0.0491266
0.0491434
0.0491566
0.0491645
0.0491657
0.0491601
0.049154
0.0491732
0.0491945
0.0492117
0.0492248
0.0492358
0.0492463
0.0492569
0.0492676
0.049278
0.0492874
0.0492956
0.0493022
0.0493072
0.0493109
0.0493136
0.0493155
0.0493171
0.0493184
0.0493198
0.0493213
0.0493229
0.0493246
0.0493266
0.0493291
0.0493325
0.049337
0.0493429
0.0493503
0.0493588
0.0493683
0.0493783
0.0493886
0.0493988
0.0494088
0.0494184
0.0494276
0.0494362
0.0494443
0.0494517
0.0494586
0.0494651
0.0494709
0.049476
0.0494802
0.0494835
0.0494858
0.0494867
0.0494858
0.0494827
0.0494772
0.0494698
0.049447
0.0490753
0.0492692
0.049427
0.0494221
0.049415
0.0494085
0.0494041
0.0494032
0.0494066
0.0494139
0.0494231
0.0494314
0.0494364
0.0494375
0.0494363
0.0494349
0.0494349
0.0494364
0.0494382
0.0494376
0.0494329
0.0494242
0.0494135
0.0494028
0.0493932
0.0493851
0.0493792
0.0493757
0.0493747
0.0493765
0.0493744
0.049322
0.0492186
0.0491121
0.0490438
0.0490164
0.0490162
0.0490321
0.0490549
0.0490795
0.049104
0.0491278
0.04915
0.0491687
0.0491812
0.0491845
0.0491766
0.0491578
0.0491578
0.0491735
0.0491916
0.0492082
0.0492229
0.0492362
0.0492486
0.0492601
0.0492707
0.0492801
0.0492881
0.0492949
0.0493003
0.0493047
0.0493082
0.0493112
0.0493138
0.0493162
0.0493185
0.0493207
0.0493231
0.0493256
0.0493289
0.0493332
0.0493389
0.049346
0.0493544
0.0493637
0.0493735
0.0493834
0.0493931
0.0494025
0.0494115
0.04942
0.0494281
0.0494357
0.0494428
0.0494495
0.0494557
0.0494616
0.0494672
0.0494722
0.0494765
0.04948
0.0494828
0.0494846
0.0494852
0.049484
0.0494806
0.0494748
0.0494669
0.0494427
0.0490567
0.0492526
0.0494219
0.0494183
0.0494133
0.0494096
0.049408
0.0494096
0.0494145
0.0494219
0.0494298
0.0494363
0.0494398
0.0494405
0.04944
0.0494398
0.0494411
0.0494438
0.0494456
0.0494441
0.0494375
0.049427
0.0494152
0.049404
0.0493943
0.0493868
0.0493817
0.0493791
0.0493793
0.0493825
0.0493788
0.0493088
0.0491851
0.0490775
0.0490191
0.0489968
0.0489989
0.049016
0.0490403
0.0490674
0.0490955
0.0491241
0.0491524
0.049178
0.0491971
0.0492048
0.049197
0.0491714
0.0491551
0.0491592
0.0491726
0.0491887
0.0492048
0.04922
0.0492341
0.0492469
0.0492585
0.0492688
0.0492779
0.0492857
0.0492924
0.0492982
0.0493032
0.0493077
0.0493118
0.0493155
0.0493189
0.0493222
0.049326
0.0493307
0.0493368
0.0493445
0.0493535
0.0493633
0.0493733
0.0493832
0.0493926
0.0494015
0.0494097
0.0494174
0.0494244
0.049431
0.0494372
0.0494431
0.0494487
0.049454
0.0494591
0.0494642
0.0494688
0.0494729
0.0494764
0.0494793
0.0494815
0.0494829
0.0494831
0.0494817
0.0494781
0.0494719
0.0494636
0.0494379
0.0490377
0.0492362
0.0494173
0.0494147
0.0494111
0.0494094
0.0494098
0.0494131
0.0494189
0.0494263
0.0494336
0.0494392
0.0494423
0.0494434
0.0494438
0.0494447
0.0494471
0.0494504
0.049452
0.0494488
0.0494402
0.0494283
0.049416
0.0494049
0.0493959
0.0493892
0.049385
0.0493835
0.0493851
0.0493898
0.049383
0.0492908
0.0491497
0.0490499
0.0489978
0.0489782
0.0489803
0.0489965
0.0490209
0.0490495
0.0490807
0.0491141
0.0491489
0.0491825
0.0492098
0.0492239
0.0492181
0.0491901
0.0491609
0.0491536
0.04916
0.0491729
0.0491882
0.0492039
0.0492189
0.049233
0.0492459
0.0492575
0.049268
0.0492774
0.0492859
0.0492936
0.0493005
0.0493068
0.0493126
0.0493177
0.0493227
0.0493285
0.0493358
0.049345
0.0493554
0.0493665
0.0493774
0.0493877
0.0493972
0.0494056
0.0494132
0.0494198
0.0494257
0.049431
0.0494358
0.0494404
0.0494448
0.0494491
0.0494533
0.0494575
0.0494617
0.0494658
0.0494695
0.0494729
0.0494757
0.049478
0.0494797
0.0494807
0.0494807
0.049479
0.0494752
0.0494687
0.0494598
0.0494328
0.0490184
0.0492203
0.0494135
0.0494117
0.049409
0.0494085
0.0494103
0.0494147
0.0494211
0.0494286
0.0494357
0.0494411
0.0494444
0.0494462
0.0494474
0.0494492
0.0494523
0.0494558
0.0494562
0.049451
0.0494406
0.0494284
0.0494165
0.0494062
0.049398
0.0493923
0.0493893
0.0493891
0.0493921
0.0493985
0.0493864
0.0492669
0.0491191
0.049027
0.0489793
0.0489605
0.0489607
0.0489744
0.0489973
0.0490263
0.0490598
0.0490976
0.049139
0.0491811
0.0492181
0.0492405
0.0492383
0.0492094
0.0491692
0.0491544
0.0491542
0.0491629
0.0491763
0.0491915
0.049207
0.0492219
0.0492359
0.049249
0.0492611
0.0492724
0.0492829
0.0492928
0.0493019
0.0493102
0.0493176
0.0493247
0.0493342
0.049346
0.0493592
0.0493725
0.0493851
0.0493963
0.0494061
0.0494143
0.0494212
0.0494268
0.0494314
0.0494353
0.0494387
0.0494417
0.0494445
0.0494473
0.0494502
0.0494532
0.0494564
0.0494597
0.0494631
0.0494664
0.0494695
0.0494722
0.0494745
0.0494763
0.0494776
0.0494782
0.0494779
0.049476
0.0494719
0.0494651
0.0494558
0.0494274
0.0489987
0.049205
0.0494107
0.0494095
0.0494073
0.0494076
0.0494102
0.0494152
0.049422
0.0494296
0.0494367
0.0494423
0.0494462
0.0494487
0.0494506
0.049453
0.0494562
0.0494589
0.0494572
0.0494501
0.0494395
0.0494279
0.049417
0.0494077
0.0494006
0.0493962
0.0493946
0.0493959
0.0494005
0.0494086
0.0493878
0.0492403
0.049094
0.0490081
0.0489636
0.0489444
0.0489417
0.0489513
0.0489711
0.0489992
0.0490342
0.0490756
0.0491232
0.0491742
0.0492217
0.0492539
0.0492566
0.0492268
0.0491793
0.0491578
0.049153
0.0491586
0.0491701
0.0491845
0.0492
0.0492155
0.0492306
0.049245
0.0492589
0.0492722
0.049285
0.0492972
0.0493085
0.0493185
0.0493288
0.0493448
0.0493627
0.0493799
0.0493951
0.0494079
0.0494182
0.0494264
0.0494327
0.0494374
0.0494408
0.0494433
0.0494451
0.0494465
0.0494477
0.0494489
0.0494502
0.0494518
0.0494536
0.0494557
0.0494581
0.0494609
0.0494636
0.0494663
0.0494688
0.049471
0.0494729
0.0494743
0.0494752
0.0494755
0.0494748
0.0494727
0.0494684
0.0494614
0.0494516
0.0494218
0.0489789
0.0491905
0.049409
0.0494082
0.0494062
0.0494069
0.0494099
0.0494152
0.0494222
0.0494299
0.0494371
0.0494431
0.0494475
0.0494507
0.0494532
0.0494557
0.0494583
0.0494589
0.0494552
0.0494476
0.0494377
0.0494273
0.0494176
0.0494096
0.049404
0.049401
0.049401
0.049404
0.0494103
0.04942
0.0493855
0.0492151
0.0490732
0.0489929
0.048951
0.048931
0.0489248
0.0489296
0.0489451
0.048971
0.0490062
0.0490504
0.0491033
0.0491625
0.0492209
0.0492642
0.0492729
0.049242
0.0491913
0.0491613
0.0491539
0.0491582
0.0491689
0.0491829
0.0491985
0.0492146
0.0492307
0.0492467
0.0492623
0.0492777
0.0492926
0.049307
0.0493199
0.0493353
0.0493617
0.0493856
0.0494051
0.0494203
0.0494318
0.0494402
0.0494461
0.0494501
0.0494525
0.0494537
0.0494541
0.049454
0.0494537
0.0494533
0.049453
0.0494531
0.0494535
0.0494543
0.0494555
0.0494571
0.0494591
0.0494613
0.0494636
0.0494658
0.0494678
0.0494696
0.0494711
0.0494721
0.0494727
0.0494726
0.0494717
0.0494694
0.0494649
0.0494576
0.0494475
0.0494162
0.048959
0.0491766
0.0494085
0.0494081
0.0494061
0.0494069
0.0494101
0.0494153
0.0494222
0.0494298
0.049437
0.0494431
0.0494479
0.0494516
0.0494544
0.0494567
0.0494583
0.0494569
0.0494521
0.0494446
0.0494356
0.0494265
0.0494183
0.049412
0.0494081
0.049407
0.0494087
0.0494134
0.0494213
0.0494324
0.0493792
0.049193
0.0490562
0.0489815
0.0489421
0.0489213
0.0489116
0.0489113
0.0489219
0.0489447
0.0489792
0.0490249
0.0490816
0.0491474
0.0492161
0.0492715
0.0492874
0.049256
0.0492024
0.0491648
0.049156
0.0491609
0.0491719
0.0491861
0.049202
0.0492189
0.0492365
0.0492538
0.049271
0.0492879
0.0493042
0.0493205
0.0493441
0.0493836
0.049411
0.0494303
0.049444
0.0494534
0.0494596
0.0494633
0.0494651
0.0494654
0.0494647
0.0494634
0.0494617
0.04946
0.0494583
0.049457
0.049456
0.0494555
0.0494555
0.049456
0.0494569
0.0494582
0.0494599
0.0494617
0.0494635
0.0494653
0.0494668
0.0494682
0.0494692
0.0494699
0.0494701
0.0494698
0.0494687
0.0494662
0.0494615
0.049454
0.0494435
0.0494107
0.048939
0.0491635
0.0494091
0.0494091
0.0494069
0.0494077
0.0494107
0.0494158
0.0494222
0.0494294
0.0494364
0.0494425
0.0494474
0.0494512
0.049454
0.0494558
0.0494562
0.0494535
0.0494483
0.0494412
0.0494334
0.0494259
0.0494195
0.0494151
0.0494132
0.049414
0.0494176
0.049424
0.0494335
0.0494455
0.0493704
0.0491736
0.049043
0.0489741
0.0489376
0.0489163
0.0489031
0.0488978
0.0489035
0.048923
0.0489563
0.0490028
0.0490611
0.0491307
0.049208
0.0492758
0.0493005
0.0492695
0.0492117
0.0491698
0.0491597
0.0491659
0.0491782
0.0491933
0.0492101
0.049228
0.0492465
0.0492648
0.0492829
0.0493002
0.0493159
0.0493498
0.0494041
0.0494324
0.0494506
0.0494626
0.0494704
0.0494749
0.0494769
0.049477
0.0494758
0.0494737
0.0494711
0.0494683
0.0494655
0.049463
0.0494609
0.0494592
0.049458
0.0494574
0.0494573
0.0494576
0.0494584
0.0494596
0.049461
0.0494623
0.0494637
0.0494649
0.049466
0.0494668
0.0494674
0.0494678
0.0494677
0.0494672
0.0494659
0.0494632
0.0494583
0.0494506
0.0494398
0.0494055
0.0489191
0.0491511
0.0494108
0.0494112
0.0494088
0.0494094
0.0494121
0.0494167
0.0494226
0.0494292
0.0494356
0.0494414
0.0494461
0.0494497
0.0494521
0.0494531
0.0494524
0.0494491
0.049444
0.0494379
0.0494315
0.0494257
0.0494214
0.0494192
0.0494194
0.0494222
0.0494277
0.0494358
0.0494467
0.0494588
0.0493598
0.0491569
0.0490336
0.0489711
0.0489378
0.0489162
0.0488998
0.0488897
0.0488909
0.0489077
0.0489402
0.0489874
0.049045
0.0491146
0.049197
0.0492769
0.0493122
0.049283
0.0492212