/*--------------------------------*- C++ -*----------------------------------*\
| =========                 |                                                 |
| \\      /  F ield         | OpenFOAM: The Open Source CFD Toolbox           |
|  \\    /   O peration     | Version:  4.1                                   |
|   \\  /    A nd           | Web:      www.OpenFOAM.org                      |
|    \\/     M anipulation  |                                                 |
\*---------------------------------------------------------------------------*/
FoamFile
{
    version     2.0;
    format      ascii;
    class       surfaceScalarField;
    location    "480";
    object      phi;
}
// * * * * * * * * * * * * * * * * * * * * * * * * * * * * * * * * * * * * * //

dimensions      [0 3 -1 0 0 0 0];

internalField   nonuniform List<scalar> 
9850
(
-2.74255e-06
2.74255e-06
2.62772e-06
-5.37027e-06
2.58338e-07
2.36938e-06
-3.68673e-06
3.94507e-06
-4.27284e-06
5.86109e-07
-2.55883e-06
-1.71401e-06
-3.12269e-07
-2.24656e-06
1.24751e-06
-1.55978e-06
1.91066e-06
-6.63152e-07
1.09672e-06
8.13947e-07
-2.93941e-06
4.03612e-06
-8.39594e-06
5.45653e-06
-1.14991e-05
3.10318e-06
-1.24054e-05
9.06328e-07
-1.22176e-05
-1.87849e-07
-1.16568e-05
-5.60758e-07
-1.10602e-05
-5.96627e-07
-1.05477e-05
-5.1255e-07
-1.01321e-05
-4.15557e-07
-9.78032e-06
-3.5178e-07
-9.44807e-06
-3.32251e-07
-9.09693e-06
-3.51142e-07
-8.6997e-06
-3.97228e-07
-8.23959e-06
-4.60104e-07
-7.70683e-06
-5.32763e-07
-7.09492e-06
-6.1191e-07
-6.39787e-06
-6.97051e-07
-5.60863e-06
-7.89237e-07
-4.71851e-06
-8.90119e-07
-3.71585e-06
-1.00266e-06
-2.5805e-06
-1.13536e-06
-1.27442e-06
-1.30608e-06
2.7382e-07
-1.54824e-06
2.29712e-06
-2.0233e-06
4.71014e-06
-2.41302e-06
7.65232e-06
-2.94218e-06
1.01329e-05
-2.48058e-06
1.14338e-05
-1.30091e-06
1.12347e-05
1.99162e-07
9.96249e-06
1.27216e-06
8.46867e-06
1.49382e-06
7.5843e-06
8.84371e-07
7.58545e-06
-1.14332e-09
8.2546e-06
-6.69151e-07
9.23841e-06
-9.83808e-07
1.02719e-05
-1.03354e-06
1.11378e-05
-8.65806e-07
1.15735e-05
-4.35746e-07
1.11936e-05
3.79898e-07
9.71173e-06
1.48187e-06
7.39081e-06
2.32093e-06
5.38931e-06
2.0015e-06
4.73514e-06
6.5417e-07
5.11248e-06
-3.77342e-07
5.61105e-06
-4.98574e-07
5.02684e-06
5.84216e-07
9.72334e-07
4.0545e-06
-3.66709e-06
4.63942e-06
-5.84385e-06
2.17676e-06
-6.94607e-06
1.10221e-06
-7.43741e-06
4.91347e-07
-7.59206e-06
1.54648e-07
-7.5872e-06
-4.86265e-09
-7.47574e-06
-1.11458e-07
-7.28859e-06
-1.87146e-07
-7.04477e-06
-2.43825e-07
-6.76204e-06
-2.82729e-07
-6.45447e-06
-3.07572e-07
-6.12987e-06
-3.24596e-07
-5.79208e-06
-3.37794e-07
-5.44086e-06
-3.51218e-07
-5.07433e-06
-3.66526e-07
-4.68844e-06
-3.85898e-07
-4.27841e-06
-4.1003e-07
-3.84135e-06
-4.37058e-07
-3.37209e-06
-4.69253e-07
-2.86745e-06
-5.04648e-07
-2.32573e-06
-5.41716e-07
-1.74798e-06
-5.77751e-07
-1.13784e-06
-6.10139e-07
-5.01264e-07
-6.36576e-07
1.49231e-07
-6.50496e-07
8.07452e-07
-6.58221e-07
1.46567e-06
-6.58218e-07
2.11403e-06
-6.4836e-07
2.74633e-06
-6.32302e-07
3.3644e-06
-6.18072e-07
3.98463e-06
-6.20229e-07
4.64446e-06
-6.59827e-07
5.40672e-06
-7.62264e-07
6.35876e-06
-9.52036e-07
7.60277e-06
-1.24401e-06
9.22131e-06
-1.61853e-06
1.1151e-05
-1.92966e-06
1.28667e-05
-1.71571e-06
1.33675e-05
-5.00815e-07
1.12934e-05
2.07404e-06
6.13012e-06
5.16332e-06
2.83789e-06
3.29223e-06
2.83789e-06
-1.18781e-06
3.93036e-06
1.61473e-06
-8.17281e-06
2.01859e-06
1.96552e-06
4.07821e-07
5.55584e-06
-1.0455e-06
2.03943e-06
-9.35452e-07
-1.82406e-06
-1.67225e-07
-3.01479e-06
3.12459e-07
-2.03947e-06
8.11932e-09
-3.58811e-07
-1.93649e-06
2.75856e-06
-5.69124e-06
7.79088e-06
-9.02643e-06
8.79172e-06
-1.13589e-05
5.43564e-06
-1.24444e-05
1.99182e-06
-1.26484e-05
1.61637e-08
-1.24378e-05
-7.71329e-07
-1.20735e-05
-9.60905e-07
-1.16535e-05
-9.32638e-07
-1.12081e-05
-8.60943e-07
-1.07435e-05
-8.16345e-07
-1.0259e-05
-8.16767e-07
-9.75049e-06
-8.59639e-07
-9.21085e-06
-9.36865e-07
-8.63033e-06
-1.04063e-06
-7.99771e-06
-1.16539e-06
-7.30135e-06
-1.30827e-06
-6.52973e-06
-1.46867e-06
-5.67132e-06
-1.64765e-06
-4.71393e-06
-1.84751e-06
-3.64379e-06
-2.0728e-06
-2.44504e-06
-2.33411e-06
-1.09901e-06
-2.65211e-06
4.03038e-07
-3.05028e-06
2.00687e-06
-3.62714e-06
3.75568e-06
-4.16183e-06
5.57331e-06
-4.75981e-06
7.23798e-06
-4.14525e-06
8.46565e-06
-2.52859e-06
9.21819e-06
-5.53372e-07
9.75496e-06
7.35385e-07
1.02165e-05
1.03224e-06
1.05951e-05
5.05813e-07
1.09449e-05
-3.50953e-07
1.1256e-05
-9.8025e-07
1.15769e-05
-1.3047e-06
1.18709e-05
-1.32752e-06
1.20411e-05
-1.03602e-06
1.18881e-05
-2.82753e-07
1.11736e-05
1.09443e-06
9.82725e-06
2.82819e-06
8.20264e-06
3.94554e-06
6.85598e-06
3.34815e-06
6.0508e-06
1.45935e-06
5.56494e-06
1.08521e-07
4.77492e-06
2.91447e-07
2.27266e-06
3.08647e-06
-1.7242e-06
8.05137e-06
-3.82905e-06
6.74427e-06
-5.14004e-06
3.48775e-06
-6.00517e-06
1.96735e-06
-6.55184e-06
1.03801e-06
-6.86875e-06
4.71554e-07
-6.99957e-06
1.25959e-07
-6.97535e-06
-1.35679e-07
-6.83275e-06
-3.29747e-07
-6.6157e-06
-4.60872e-07
-6.35552e-06
-5.42907e-07
-6.07128e-06
-5.91808e-07
-5.77425e-06
-6.21634e-07
-5.46857e-06
-6.43471e-07
-5.15473e-06
-6.6506e-07
-4.82965e-06
-6.91606e-07
-4.48934e-06
-7.26201e-07
-4.12984e-06
-7.69539e-07
-3.7448e-06
-8.22098e-07
-3.33109e-06
-8.82961e-07
-2.88595e-06
-9.49782e-07
-2.40868e-06
-1.01899e-06
-1.90003e-06
-1.08641e-06
-1.36299e-06
-1.14718e-06
-8.02789e-07
-1.19677e-06
-2.22744e-07
-1.23054e-06
3.63831e-07
-1.2448e-06
9.50207e-07
-1.24459e-06
1.53604e-06
-1.2342e-06
2.12367e-06
-1.21993e-06
2.71917e-06
-1.21357e-06
3.33207e-06
-1.23313e-06
3.97534e-06
-1.30309e-06
4.667e-06
-1.45392e-06
5.435e-06
-1.72004e-06
6.3241e-06
-2.1331e-06
7.39858e-06
-2.69302e-06
8.71221e-06
-3.24328e-06
1.0037e-05
-3.04051e-06
1.03171e-05
-7.80888e-07
8.58776e-06
3.80337e-06
5.64781e-06
8.10327e-06
2.67086e-06
6.26918e-06
5.50875e-06
2.96467e-08
3.90071e-06
7.94022e-07
-8.93719e-06
3.72219e-06
-9.62644e-07
3.62846e-06
5.64957e-06
2.60653e-06
3.06136e-06
2.04838e-06
-1.26592e-06
1.68359e-06
-2.65e-06
1.1417e-06
-1.49758e-06
-3.68876e-07
1.15177e-06
-3.78221e-06
6.17189e-06
-6.94183e-06
1.09505e-05
-9.24059e-06
1.10905e-05
-1.08408e-05
7.03588e-06
-1.16723e-05
2.82327e-06
-1.1958e-05
3.01913e-07
-1.1902e-05
-8.27382e-07
-1.16596e-05
-1.20332e-06
-1.13306e-05
-1.26156e-06
-1.09533e-05
-1.23829e-06
-1.0539e-05
-1.2306e-06
-1.0092e-05
-1.26385e-06
-9.612e-06
-1.33959e-06
-9.09523e-06
-1.45363e-06
-8.53448e-06
-1.60137e-06
-7.92043e-06
-1.77944e-06
-7.24255e-06
-1.98615e-06
-6.48983e-06
-2.22139e-06
-5.65112e-06
-2.48636e-06
-4.71519e-06
-2.78344e-06
-3.67115e-06
-3.11684e-06
-2.51106e-06
-3.4942e-06
-1.23669e-06
-3.92648e-06
1.36451e-07
-4.42343e-06
1.55102e-06
-5.0417e-06
2.9211e-06
-5.53191e-06
3.95551e-06
-5.79422e-06
4.88802e-06
-5.07775e-06
6.00954e-06
-3.65011e-06
7.51357e-06
-2.0574e-06
9.12455e-06
-8.75596e-07
1.0569e-05
-4.12203e-07
1.16134e-05
-5.38611e-07
1.21586e-05
-8.96186e-07
1.2373e-05
-1.19462e-06
1.23907e-05
-1.32238e-06
1.22726e-05
-1.20943e-06
1.19827e-05
-7.4611e-07
1.14213e-05
2.78621e-07
1.05097e-05
2.006e-06
9.2725e-06
4.06543e-06
7.96896e-06
5.24908e-06
6.90509e-06
4.41202e-06
6.13186e-06
2.23258e-06
5.20826e-06
1.03212e-06
3.56713e-06
1.93258e-06
5.28338e-07
6.12526e-06
-2.42455e-06
1.10043e-05
-3.5653e-06
7.88502e-06
-4.52795e-06
4.4504e-06
-5.3732e-06
2.81259e-06
-6.01617e-06
1.68099e-06
-6.39777e-06
8.53149e-07
-6.50955e-06
2.37738e-07
-6.431e-06
-2.14227e-07
-6.24128e-06
-5.19472e-07
-5.99404e-06
-7.0811e-07
-5.72136e-06
-8.15583e-07
-5.44053e-06
-8.72642e-07
-5.15911e-06
-9.03052e-07
-4.87859e-06
-9.23996e-07
-4.59646e-06
-9.47184e-07
-4.30838e-06
-9.79683e-07
-4.00907e-06
-1.02552e-06
-3.69239e-06
-1.08622e-06
-3.35309e-06
-1.1614e-06
-2.98654e-06
-1.24951e-06
-2.5896e-06
-1.34672e-06
-2.16019e-06
-1.44839e-06
-1.69869e-06
-1.54791e-06
-1.2075e-06
-1.63837e-06
-6.90853e-07
-1.71343e-06
-1.55448e-07
-1.76595e-06
3.89695e-07
-1.78994e-06
9.35849e-07
-1.79075e-06
1.47715e-06
-1.77549e-06
2.00853e-06
-1.75131e-06
2.52561e-06
-1.73065e-06
3.02439e-06
-1.73192e-06
3.50153e-06
-1.78023e-06
3.95573e-06
-1.90812e-06
4.39136e-06
-2.15568e-06
4.82544e-06
-2.56718e-06
5.3018e-06
-3.16938e-06
5.91299e-06
-3.85447e-06
6.67974e-06
-3.80727e-06
6.60522e-06
-7.06364e-07
5.06269e-06
5.3459e-06
3.07308e-06
1.00929e-05
1.97547e-06
7.36679e-06
7.48422e-06
5.73713e-07
3.327e-06
-1.89408e-07
-8.17407e-06
2.9717e-06
-4.12375e-06
3.6928e-06
4.92847e-06
4.64199e-06
2.11218e-06
4.44268e-06
-1.06661e-06
3.4956e-06
-1.70291e-06
2.04585e-06
-4.78386e-08
-1.61916e-06
4.81678e-06
-5.47387e-06
1.00266e-05
-7.89409e-06
1.33707e-05
-9.53042e-06
1.27268e-05
-1.06461e-05
8.15156e-06
-1.12406e-05
3.41774e-06
-1.14351e-05
4.96415e-07
-1.13644e-05
-8.98068e-07
-1.11546e-05
-1.41315e-06
-1.08804e-05
-1.53569e-06
-1.05629e-05
-1.55579e-06
-1.0207e-05
-1.58649e-06
-9.81452e-06
-1.65637e-06
-9.38389e-06
-1.77023e-06
-8.91015e-06
-1.92738e-06
-8.38549e-06
-2.12603e-06
-7.80039e-06
-2.36454e-06
-7.14462e-06
-2.64192e-06
-6.408e-06
-2.95801e-06
-5.58089e-06
-3.31347e-06
-4.65453e-06
-3.70979e-06
-3.62197e-06
-4.1494e-06
-2.48083e-06
-4.63534e-06
-1.23863e-06
-5.16867e-06
8.56301e-08
-5.74769e-06
1.42855e-06
-6.38463e-06
2.67417e-06
-6.77753e-06
3.62198e-06
-6.74202e-06
4.58832e-06
-6.0441e-06
5.79861e-06
-4.86039e-06
7.29471e-06
-3.5535e-06
8.88482e-06
-2.4657e-06
1.02581e-05
-1.78551e-06
1.12054e-05
-1.48591e-06
1.17165e-05
-1.40722e-06
1.19107e-05
-1.38886e-06
1.18958e-05
-1.30751e-06
1.17125e-05
-1.02608e-06
1.13185e-05
-3.52152e-07
1.06497e-05
9.47445e-07
9.67616e-06
2.97956e-06
8.47213e-06
5.26945e-06
7.25939e-06
6.46182e-06
6.25069e-06
5.42073e-06
5.50586e-06
2.97741e-06
4.51813e-06
2.01984e-06
2.63608e-06
3.81463e-06
-3.36709e-07
9.09805e-06
-2.51568e-06
1.31832e-05
-3.44353e-06
8.81287e-06
-4.45205e-06
5.45892e-06
-5.3044e-06
3.66494e-06
-5.86201e-06
2.2386e-06
-6.09198e-06
1.08312e-06
-6.05303e-06
1.98793e-07
-5.84775e-06
-4.19509e-07
-5.56344e-06
-8.03776e-07
-5.25575e-06
-1.01581e-06
-4.95263e-06
-1.1187e-06
-4.66516e-06
-1.16011e-06
-4.39485e-06
-1.17336e-06
-4.13823e-06
-1.18062e-06
-3.88933e-06
-1.19609e-06
-3.64104e-06
-1.22797e-06
-3.38631e-06
-1.28024e-06
-3.11848e-06
-1.35405e-06
-2.83115e-06
-1.44874e-06
-2.51908e-06
-1.56158e-06
-2.17774e-06
-1.68806e-06
-1.80495e-06
-1.82118e-06
-1.39918e-06
-1.95368e-06
-9.61851e-07
-2.0757e-06
-4.98529e-07
-2.17675e-06
-1.49664e-08
-2.24951e-06
4.79763e-07
-2.28467e-06
9.77633e-07
-2.28862e-06
1.4692e-06
-2.26706e-06
1.9451e-06
-2.22721e-06
2.39528e-06
-2.18083e-06
2.80782e-06
-2.14446e-06
3.1677e-06
-2.14011e-06
3.45605e-06
-2.19646e-06
3.65081e-06
-2.35044e-06
3.7311e-06
-2.64747e-06
3.69264e-06
-3.13092e-06
3.60371e-06
-3.76554e-06
3.69268e-06
-3.89624e-06
3.37653e-06
-3.90219e-07
2.01966e-06
6.70277e-06
1.28047e-06
1.08321e-05
1.41289e-06
7.23437e-06
8.8971e-06
5.23825e-07
2.80317e-06
-2.82697e-07
-7.36754e-06
1.35825e-06
-5.76469e-06
3.62581e-06
2.66091e-06
5.39953e-06
3.38453e-07
5.31414e-06
-9.8122e-07
3.84002e-06
-2.2879e-07
-8.37302e-08
3.87591e-06
-4.35814e-06
9.09118e-06
-7.0483e-06
1.27168e-05
-8.77667e-06
1.50991e-05
-9.84722e-06
1.37974e-05
-1.05637e-05
8.86801e-06
-1.09211e-05
3.77514e-06
-1.09702e-05
5.4558e-07
-1.08359e-05
-1.03238e-06
-1.06337e-05
-1.6154e-06
-1.04048e-05
-1.7646e-06
-1.01453e-05
-1.81529e-06
-9.84938e-06
-1.88239e-06
-9.51273e-06
-1.99302e-06
-9.12936e-06
-2.15359e-06
-8.69139e-06
-2.36535e-06
-8.18984e-06
-2.62758e-06
-7.61558e-06
-2.9388e-06
-6.96009e-06
-3.29741e-06
-6.21592e-06
-3.70218e-06
-5.37689e-06
-4.1525e-06
-4.43824e-06
-4.64844e-06
-3.39718e-06
-5.19046e-06
-2.25498e-06
-5.77755e-06
-1.01971e-06
-6.40394e-06
3.00546e-07
-7.06794e-06
1.609e-06
-7.69308e-06
2.78725e-06
-7.95578e-06
3.80302e-06
-7.7578e-06
4.82957e-06
-7.07064e-06
5.97081e-06
-6.00163e-06
7.21476e-06
-4.79745e-06
8.44433e-06
-3.69527e-06
9.49912e-06
-2.8403e-06
1.02697e-05
-2.25647e-06
1.07426e-05
-1.88016e-06
1.09739e-05
-1.62017e-06
1.10195e-05
-1.35305e-06
1.08822e-05
-8.88837e-07
1.05117e-05
1.83164e-08
9.8489e-06
1.61029e-06
8.87338e-06
3.95507e-06
7.68582e-06
6.45701e-06
6.46293e-06
7.68471e-06
5.32668e-06
6.55697e-06
4.4891e-06
3.81499e-06
3.81631e-06
2.69264e-06
2.16367e-06
5.46727e-06
-2.6164e-07
1.15234e-05
-2.18558e-06
1.51072e-05
-3.27188e-06
9.89917e-06
-4.41973e-06
6.60677e-06
-5.2775e-06
4.52271e-06
-5.72706e-06
2.68815e-06
-5.77573e-06
1.13178e-06
-5.55356e-06
-2.33768e-08
-5.17711e-06
-7.95951e-07
-4.76267e-06
-1.21823e-06
-4.37122e-06
-1.40726e-06
-4.02441e-06
-1.46551e-06
-3.72363e-06
-1.4609e-06
-3.46183e-06
-1.43516e-06
-3.22913e-06
-1.41332e-06
-3.01466e-06
-1.41055e-06
-2.80885e-06
-1.43379e-06
-2.60296e-06
-1.48613e-06
-2.38905e-06
-1.56796e-06
-2.16025e-06
-1.67753e-06
-1.91046e-06
-1.81137e-06
-1.63434e-06
-1.96418e-06
-1.32742e-06
-2.12809e-06
-9.88433e-07
-2.29267e-06
-6.17301e-07
-2.44683e-06
-2.16736e-07
-2.57731e-06
2.02115e-07
-2.66836e-06
6.35644e-07
-2.7182e-06
1.07411e-06
-2.72709e-06
1.50541e-06
-2.69836e-06
1.91722e-06
-2.63902e-06
2.29619e-06
-2.5598e-06
2.62655e-06
-2.47483e-06
2.88801e-06
-2.40157e-06
3.05301e-06
-2.36146e-06
3.08386e-06
-2.38129e-06
2.93084e-06
-2.49445e-06
2.53793e-06
-2.73801e-06
1.88291e-06
-3.11052e-06
1.16071e-06
-3.17404e-06
6.72743e-07
9.77511e-08
1.55041e-07
7.22047e-06
6.62495e-07
1.03246e-05
1.21684e-06
6.68003e-06
1.01139e-05
4.55678e-07
2.3475e-06
3.26159e-08
-6.94448e-06
2.57162e-07
-5.98924e-06
3.37255e-06
-4.54482e-07
4.65541e-06
-9.44403e-07
3.49457e-06
1.79615e-07
-7.64006e-08
3.34218e-06
-4.0962e-06
7.89571e-06
-6.4668e-06
1.14618e-05
-8.35167e-06
1.46016e-05
-9.47778e-06
1.62252e-05
-1.00694e-05
1.43889e-05
-1.04414e-05
9.24008e-06
-1.05728e-05
3.9065e-06
-1.04781e-05
4.50907e-07
-1.02845e-05
-1.226e-06
-1.00971e-05
-1.80281e-06
-9.91494e-06
-1.94673e-06
-9.70971e-06
-2.02052e-06
-9.46508e-06
-2.12702e-06
-9.1699e-06
-2.2882e-06
-8.81391e-06
-2.50958e-06
-8.38758e-06
-2.79167e-06
-7.88269e-06
-3.13247e-06
-7.29272e-06
-3.52877e-06
-6.61302e-06
-3.97711e-06
-5.84065e-06
-4.47456e-06
-4.97401e-06
-5.01913e-06
-4.01246e-06
-5.61e-06
-2.95598e-06
-6.24694e-06
-1.80543e-06
-6.92809e-06
-5.621e-07
-7.64727e-06
7.53813e-07
-8.38386e-06
1.99396e-06
-8.93322e-06
3.09318e-06
-9.055e-06
4.08018e-06
-8.7448e-06
5.03772e-06
-8.02819e-06
6.02346e-06
-6.98737e-06
7.02682e-06
-5.80081e-06
7.98206e-06
-4.65052e-06
8.80295e-06
-3.66119e-06
9.42683e-06
-2.88034e-06
9.84179e-06
-2.29512e-06
1.00797e-05
-1.85812e-06
1.01687e-05
-1.44196e-06
1.00846e-05
-8.04768e-07
9.76227e-06
3.40631e-07
9.13377e-06
2.23879e-06
8.19264e-06
4.8962e-06
7.0528e-06
7.59686e-06
5.83759e-06
8.89992e-06
4.5168e-06
7.87776e-06
3.36107e-06
4.97072e-06
3.08103e-06
2.97268e-06
2.07945e-06
6.46885e-06
3.829e-07
1.32199e-05
-1.306e-06
1.67961e-05
-2.69895e-06
1.12921e-05
-3.96513e-06
7.87295e-06
-4.89293e-06
5.45051e-06
-5.31361e-06
3.10883e-06
-5.2346e-06
1.05277e-06
-4.8566e-06
-4.01369e-07
-4.32577e-06
-1.32679e-06
-3.78725e-06
-1.75674e-06
-3.31334e-06
-1.88116e-06
-2.92344e-06
-1.85541e-06
-2.61077e-06
-1.77356e-06
-2.35873e-06
-1.6872e-06
-2.15207e-06
-1.61998e-06
-1.97393e-06
-1.5887e-06
-1.81246e-06
-1.59526e-06
-1.65786e-06
-1.64072e-06
-1.50144e-06
-1.72438e-06
-1.33571e-06
-1.84326e-06
-1.15388e-06
-1.99321e-06
-9.49843e-07
-2.16822e-06
-7.17923e-07
-2.36001e-06
-4.54646e-07
-2.55594e-06
-1.59987e-07
-2.74149e-06
1.62258e-07
-2.89956e-06
5.09745e-07
-3.01585e-06
8.74835e-07
-3.08329e-06
1.24611e-06
-3.09837e-06
1.61033e-06
-3.06258e-06
1.9532e-06
-2.98189e-06
2.25924e-06
-2.86584e-06
2.5108e-06
-2.72638e-06
2.68587e-06
-2.57664e-06
2.75472e-06
-2.43032e-06
2.67543e-06
-2.302e-06
2.38831e-06
-2.20733e-06
1.81059e-06
-2.16029e-06
8.57833e-07
-2.15776e-06
-4.14548e-07
-1.90166e-06
-1.06563e-06
7.48835e-07
-6.61879e-07
6.81672e-06
7.58107e-07
8.90464e-06
1.24443e-06
6.1937e-06
1.13584e-05
4.30302e-07
1.91719e-06
1.06419e-07
-6.6206e-06
-4.45966e-07
-5.43685e-06
1.50104e-06
-2.40149e-06
1.09185e-06
-5.35215e-07
-1.40766e-06
2.67913e-06
-4.34834e-06
6.28286e-06
-6.30592e-06
9.85329e-06
-7.98778e-06
1.31436e-05
-9.22177e-06
1.58356e-05
-9.84081e-06
1.68442e-05
-1.00608e-05
1.46089e-05
-1.01584e-05
9.33766e-06
-1.01e-05
3.8481e-06
-9.89127e-06
2.42172e-07
-9.67318e-06
-1.44409e-06
-9.5213e-06
-1.95469e-06
-9.38874e-06
-2.07929e-06
-9.22902e-06
-2.18024e-06
-9.01869e-06
-2.33735e-06
-8.74208e-06
-2.56481e-06
-8.38746e-06
-2.86419e-06
-7.94673e-06
-3.2324e-06
-7.41521e-06
-3.664e-06
-6.79115e-06
-4.15283e-06
-6.07505e-06
-4.69321e-06
-5.26885e-06
-5.28076e-06
-4.37501e-06
-5.91297e-06
-3.3955e-06
-6.58951e-06
-2.33033e-06
-7.31212e-06
-1.17516e-06
-8.08327e-06
7.77964e-08
-8.90022e-06
1.34572e-06
-9.65178e-06
2.4844e-06
-1.00719e-05
3.49227e-06
-1.00629e-05
4.39605e-06
-9.64858e-06
5.23919e-06
-8.87133e-06
6.05831e-06
-7.80649e-06
6.85118e-06
-6.59368e-06
7.58248e-06
-5.38182e-06
8.20611e-06
-4.28481e-06
8.69022e-06
-3.36446e-06
9.03198e-06
-2.63688e-06
9.25674e-06
-2.08287e-06
9.37877e-06
-1.564e-06
9.35198e-06
-7.77979e-07
9.09096e-06
6.01654e-07
8.51988e-06
2.80987e-06
7.64958e-06
5.7665e-06
6.61066e-06
8.63577e-06
5.50358e-06
1.0007e-05
4.20911e-06
9.17223e-06
2.68378e-06
6.49605e-06
2.23121e-06
3.42525e-06
2.32406e-06
6.376e-06
1.45257e-06
1.40914e-05
2.25327e-07
1.80233e-05
-1.35806e-06
1.28755e-05
-2.68197e-06
9.19686e-06
-3.63643e-06
6.40498e-06
-4.15383e-06
3.62623e-06
-4.10396e-06
1.0029e-06
-3.68205e-06
-8.23282e-07
-3.11087e-06
-1.89797e-06
-2.53256e-06
-2.33505e-06
-2.03484e-06
-2.37888e-06
-1.63711e-06
-2.25314e-06
-1.3332e-06
-2.07747e-06
-1.1053e-06
-1.91509e-06
-9.28549e-07
-1.79673e-06
-7.90155e-07
-1.72709e-06
-6.75406e-07
-1.71001e-06
-5.72789e-07
-1.74334e-06
-4.74757e-07
-1.82241e-06
-3.73669e-07
-1.94435e-06
-2.62557e-07
-2.10432e-06
-1.34372e-07
-2.2964e-06
1.6859e-08
-2.51124e-06
1.96031e-07
-2.73511e-06
4.05812e-07
-2.95127e-06
6.46722e-07
-3.14047e-06
9.16039e-07
-3.28516e-06
1.20559e-06
-3.37283e-06
1.5038e-06
-3.39658e-06
1.79676e-06
-3.35553e-06
2.06901e-06
-3.25414e-06
2.30387e-06
-3.1007e-06
2.48295e-06
-2.90547e-06
2.58469e-06
-2.67838e-06
2.58147e-06
-2.42709e-06
2.4351e-06
-2.15563e-06
2.09227e-06
-1.8645e-06
1.47679e-06
-1.54481e-06
4.86288e-07
-1.16726e-06
-8.28413e-07
-5.86957e-07
-1.47537e-06
1.39579e-06
-5.72565e-07
5.91392e-06
1.04791e-06
7.28417e-06
1.29166e-06
5.94995e-06
1.265e-05
2.85512e-07
1.63168e-06
-2.94691e-07
-6.0404e-06
-1.04995e-06
-4.68159e-06
-1.33215e-06
-2.1193e-06
-2.89573e-06
1.02837e-06
-4.73297e-06
4.51637e-06
-6.36738e-06
7.91727e-06
-7.75578e-06
1.12417e-05
-8.87501e-06
1.42629e-05
-9.57996e-06
1.65406e-05
-9.79391e-06
1.70582e-05
-9.73159e-06
1.45466e-05
-9.62712e-06
9.23319e-06
-9.43507e-06
3.65604e-06
-9.16619e-06
-2.67061e-08
-8.97516e-06
-1.63512e-06
-8.88516e-06
-2.04469e-06
-8.80339e-06
-2.16106e-06
-8.67752e-06
-2.30612e-06
-8.48225e-06
-2.53262e-06
-8.20194e-06
-2.84513e-06
-7.82756e-06
-3.23857e-06
-7.35574e-06
-3.70422e-06
-6.78741e-06
-4.23233e-06
-6.12632e-06
-4.81391e-06
-5.37774e-06
-5.44179e-06
-4.54715e-06
-6.11134e-06
-3.63921e-06
-6.82092e-06
-2.656e-06
-7.57271e-06
-1.59326e-06
-8.37486e-06
-4.35953e-07
-9.24057e-06
7.99933e-07
-1.01361e-05
1.96984e-06
-1.08217e-05
3.00087e-06
-1.11029e-05
3.90844e-06
-1.09704e-05
4.70627e-06
-1.04464e-05
5.4197e-06
-9.58476e-06
6.07665e-06
-8.46344e-06
6.68352e-06
-7.20055e-06
7.22562e-06
-5.92392e-06
7.68103e-06
-4.74023e-06
8.03686e-06
-3.72029e-06
8.29922e-06
-2.89924e-06
8.49585e-06
-2.2795e-06
8.64187e-06
-1.71002e-06
8.67287e-06
-8.08976e-07
8.47536e-06
7.9916e-07
7.97212e-06
3.31311e-06
7.19648e-06
6.54214e-06
6.29987e-06
9.53238e-06
5.37762e-06
1.09292e-05
4.33215e-06
1.02177e-05
2.91141e-06
7.91678e-06
1.78629e-06
4.55038e-06
2.77941e-06
5.38288e-06
2.60074e-06
1.42701e-05
2.14429e-06
1.84798e-05
7.34628e-07
1.42852e-05
-4.75532e-07
1.0407e-05
-1.27027e-06
7.19971e-06
-1.75503e-06
4.111e-06
-1.93264e-06
1.1805e-06
-1.7171e-06
-1.03882e-06
-1.3231e-06
-2.29197e-06
-8.85296e-07
-2.77285e-06
-4.756e-07
-2.78858e-06
-1.46092e-07
-2.58265e-06
1.00394e-07
-2.32396e-06
2.78143e-07
-2.09284e-06
4.03018e-07
-1.92161e-06
4.92387e-07
-1.81646e-06
5.57571e-07
-1.77519e-06
6.06871e-07
-1.79264e-06
6.4768e-07
-1.86322e-06
6.85889e-07
-1.98255e-06
7.27922e-07
-2.14636e-06
7.8063e-07
-2.34911e-06
8.51302e-07
-2.58192e-06
9.47038e-07
-2.83085e-06
1.07279e-06
-3.07702e-06
1.23051e-06
-3.29819e-06
1.41797e-06
-3.47262e-06
1.62803e-06
-3.5829e-06
1.84965e-06
-3.61819e-06
2.06898e-06
-3.57487e-06
2.27043e-06
-3.45558e-06
2.43718e-06
-3.26745e-06
2.55126e-06
-3.01955e-06
2.59285e-06
-2.71997e-06
2.53866e-06
-2.37291e-06
2.35923e-06
-1.9762e-06
2.01488e-06
-1.52015e-06
1.45684e-06
-9.86766e-07
6.47375e-07
-3.57793e-07
-4.21935e-07
4.82352e-07
-9.81086e-07
1.95494e-06
-8.3542e-08
5.01637e-06
1.19735e-06
6.00328e-06
1.25321e-06
5.89409e-06
1.39032e-05
-1.84154e-08
1.6501e-06
-1.09979e-06
-4.95902e-06
-2.34039e-06
-3.44099e-06
-3.67141e-06
-7.88276e-07
-5.11469e-06
2.47165e-06
-6.39631e-06
5.79799e-06
-7.56242e-06
9.08338e-06
-8.52493e-06
1.22042e-05
-9.19442e-06
1.49324e-05
-9.46749e-06
1.68136e-05
-9.34799e-06
1.69387e-05
-9.06192e-06
1.42605e-05
-8.81129e-06
8.98256e-06
-8.54559e-06
3.39034e-06
-8.28912e-06
-2.83177e-07
-8.18952e-06
-1.73472e-06
-8.18305e-06
-2.05116e-06
-8.15069e-06
-2.19342e-06
-8.04678e-06
-2.41003e-06
-7.85069e-06
-2.7287e-06
-7.55199e-06
-3.14382e-06
-7.14822e-06
-3.64235e-06
-6.64271e-06
-4.20973e-06
-6.04231e-06
-4.83273e-06
-5.35529e-06
-5.50093e-06
-4.58977e-06
-6.20731e-06
-3.75263e-06
-6.94849e-06
-2.84839e-06
-7.72515e-06
-1.87653e-06
-8.54458e-06
-8.23455e-07
-9.42793e-06
3.32657e-07
-1.03967e-05
1.49891e-06
-1.13024e-05
2.553e-06
-1.18758e-05
3.48353e-06
-1.20335e-05
4.28637e-06
-1.17733e-05
4.9673e-06
-1.11273e-05
5.54534e-06
-1.01628e-05
6.04681e-06
-8.96491e-06
6.48674e-06
-7.64049e-06
6.86498e-06
-6.30215e-06
7.17406e-06
-5.04931e-06
7.41122e-06
-3.95744e-06
7.5883e-06
-3.07633e-06
7.73819e-06
-2.42939e-06
7.89218e-06
-1.86401e-06
7.97772e-06
-8.94523e-07
7.84368e-06
9.33208e-07
7.41123e-06
3.74556e-06
6.74237e-06
7.211e-06
6.00989e-06
1.02649e-05
5.30007e-06
1.16391e-05
4.51779e-06
1.1e-05
3.5131e-06
8.92148e-06
2.05355e-06
6.00992e-06
2.98289e-06
4.45355e-06
3.45334e-06
1.37996e-05
3.68084e-06
1.82523e-05
2.9492e-06
1.50168e-05
2.16817e-06
1.11881e-05
1.6648e-06
7.70307e-06
1.37207e-06
4.40373e-06
1.11952e-06
1.43305e-06
1.02183e-06
-9.41127e-07
1.07266e-06
-2.3428e-06
1.21458e-06
-2.91478e-06
1.38081e-06
-2.95481e-06
1.53401e-06
-2.73584e-06
1.65358e-06
-2.44353e-06
1.7369e-06
-2.17616e-06
1.78877e-06
-1.97347e-06
1.81661e-06
-1.8443e-06
1.82649e-06
-1.78508e-06
1.8229e-06
-1.78905e-06
1.80972e-06
-1.85005e-06
1.79081e-06
-1.96364e-06
1.77098e-06
-2.12652e-06
1.75644e-06
-2.33457e-06
1.75474e-06
-2.58022e-06
1.77383e-06
-2.84994e-06
1.82028e-06
-3.12346e-06
1.89752e-06
-3.37544e-06
2.00455e-06
-3.57965e-06
2.13543e-06
-3.71378e-06
2.2801e-06
-3.76286e-06
2.42553e-06
-3.7203e-06
2.55691e-06
-3.58697e-06
2.65841e-06
-3.36895e-06
2.7135e-06
-3.07464e-06
2.70503e-06
-2.7115e-06
2.61467e-06
-2.28255e-06
2.42208e-06
-1.78361e-06
2.10422e-06
-1.2023e-06
1.63822e-06
-5.20761e-07
1.00345e-06
2.76971e-07
2.76044e-07
1.20976e-06
-1.9817e-07
2.42915e-06
4.29387e-07
4.38882e-06
1.19903e-06
5.23363e-06
1.14299e-06
5.95014e-06
1.50462e-05
-4.59692e-07
2.10979e-06
-1.94459e-06
-3.47412e-06
-3.50251e-06
-1.88307e-06
-5.0051e-06
7.14305e-07
-6.24925e-06
3.71581e-06
-7.29792e-06
6.84665e-06
-8.16136e-06
9.94682e-06
-8.77622e-06
1.28191e-05
-9.06854e-06
1.52247e-05
-8.98123e-06
1.67263e-05
-8.57844e-06
1.65359e-05
-8.09871e-06
1.37808e-05
-7.73473e-06
8.61858e-06
-7.44826e-06
3.10388e-06
-7.2968e-06
-4.34635e-07
-7.34578e-06
-1.68575e-06
-7.43e-06
-1.96693e-06
-7.44125e-06
-2.18217e-06
-7.34915e-06
-2.50212e-06
-7.1429e-06
-2.93495e-06
-6.82151e-06
-3.46522e-06
-6.39099e-06
-4.07287e-06
-5.8614e-06
-4.73932e-06
-5.24406e-06
-5.45007e-06
-4.54954e-06
-6.19545e-06
-3.78652e-06
-6.97033e-06
-2.96116e-06
-7.77384e-06
-2.07605e-06
-8.61027e-06
-1.12408e-06
-9.49655e-06
-7.76449e-08
-1.04744e-05
1.04087e-06
-1.15152e-05
2.10302e-06
-1.23645e-05
3.05881e-06
-1.28316e-05
3.89036e-06
-1.2865e-05
4.58166e-06
-1.24646e-05
5.13555e-06
-1.16812e-05
5.57217e-06
-1.05994e-05
5.92136e-06
-9.3141e-06
6.20705e-06
-7.92618e-06
6.44017e-06
-6.53527e-06
6.6215e-06
-5.23064e-06
6.75096e-06
-4.0869e-06
6.83937e-06
-3.16473e-06
6.91997e-06
-2.50999e-06
7.05623e-06
-2.00027e-06
7.18063e-06
-1.01893e-06
7.10676e-06
1.00708e-06
6.74535e-06
4.10696e-06
6.19332e-06
7.76304e-06
5.64039e-06
1.08178e-05
5.14979e-06
1.21297e-05
4.61414e-06
1.15356e-05
3.9039e-06
9.63172e-06
2.98751e-06
6.92631e-06
3.15123e-06
4.28982e-06
3.91068e-06
1.30402e-05
4.74216e-06
1.74208e-05
4.7948e-06
1.49642e-05
4.61578e-06
1.13671e-05
4.50608e-06
7.81278e-06
4.42842e-06
4.48139e-06
4.25949e-06
1.60198e-06
3.98199e-06
-6.63628e-07
3.71836e-06
-2.07916e-06
3.52365e-06
-2.72007e-06
3.39757e-06
-2.82873e-06
3.31918e-06
-2.65745e-06
3.26567e-06
-2.39002e-06
3.22152e-06
-2.13202e-06
3.17844e-06
-1.93039e-06
3.13254e-06
-1.7984e-06
3.0818e-06
-1.73434e-06
3.02496e-06
-1.73221e-06
2.96158e-06
-1.78666e-06
2.89243e-06
-1.89449e-06
2.82008e-06
-2.05418e-06
2.74934e-06
-2.26383e-06
2.68705e-06
-2.51793e-06
2.64116e-06
-2.80405e-06
2.61884e-06
-3.10115e-06
2.62445e-06
-3.38105e-06
2.658e-06
-3.6132e-06
2.71475e-06
-3.77053e-06
2.78587e-06
-3.83398e-06
2.85969e-06
-3.79412e-06
2.92296e-06
-3.65023e-06
2.96165e-06
-3.40764e-06
2.96158e-06
-3.07457e-06
2.90867e-06
-2.65859e-06
2.78928e-06
-2.16316e-06
2.59037e-06
-1.58469e-06
2.30004e-06
-9.11975e-07
1.90986e-06
-1.30582e-07
1.43693e-06
7.49901e-07
9.28107e-07
1.71859e-06
5.57074e-07
2.80019e-06
8.24396e-07
4.1215e-06
1.15811e-06
4.89991e-06
1.01595e-06
6.0923e-06
1.60622e-05
-9.02096e-07
3.01189e-06
-2.63788e-06
-1.73834e-06
-4.32818e-06
-1.92761e-07
-5.74738e-06
2.13351e-06
-6.85768e-06
4.82611e-06
-7.72878e-06
7.71776e-06
-8.34354e-06
1.05616e-05
-8.66323e-06
1.31387e-05
-8.63843e-06
1.51999e-05
-8.25163e-06
1.63395e-05
-7.60426e-06
1.58885e-05
-6.94645e-06
1.3123e-05
-6.48552e-06
8.15765e-06
-6.23423e-06
2.85258e-06
-6.25765e-06
-4.11214e-07
-6.48181e-06
-1.46158e-06
-6.65413e-06
-1.79462e-06
-6.70053e-06
-2.13577e-06
-6.61268e-06
-2.58997e-06
-6.39397e-06
-3.15366e-06
-6.05455e-06
-3.80464e-06
-5.60857e-06
-4.51884e-06
-5.07099e-06
-5.2769e-06
-4.45519e-06
-6.06588e-06
-3.77172e-06
-6.87892e-06
-3.02798e-06
-7.71406e-06
-2.22827e-06
-8.57355e-06
-1.37142e-06
-9.46712e-06
-4.39589e-07
-1.04284e-05
5.89746e-07
-1.15037e-05
1.62891e-06
-1.25544e-05
2.59536e-06
-1.3331e-05
3.46143e-06
-1.36976e-05
4.18841e-06
-1.3592e-05
4.75532e-06
-1.30315e-05
5.16774e-06
-1.20937e-05
5.45245e-06
-1.08841e-05
5.64723e-06
-9.50888e-06
5.78623e-06
-8.06518e-06
5.89008e-06
-6.63912e-06
5.96398e-06
-5.30455e-06
6.00398e-06
-4.1269e-06
6.0102e-06
-3.17096e-06
6.00325e-06
-2.50304e-06
6.07853e-06
-2.07554e-06
6.22058e-06
-1.16098e-06
6.19736e-06
1.03029e-06
5.91156e-06
4.39277e-06
5.49677e-06
8.17783e-06
5.14743e-06
1.11671e-05
4.88693e-06
1.23902e-05
4.57835e-06
1.18442e-05
4.09845e-06
1.01116e-05
3.39358e-06
7.63118e-06
2.87366e-06
4.80974e-06
3.90383e-06
1.201e-05
5.31777e-06
1.60068e-05
6.12083e-06
1.41611e-05
6.55877e-06
1.09291e-05
6.83202e-06
7.53953e-06
6.93723e-06
4.37618e-06
6.83429e-06
1.70492e-06
6.5004e-06
-3.29734e-07
6.06648e-06
-1.64524e-06
5.64259e-06
-2.29618e-06
5.28459e-06
-2.47073e-06
5.00445e-06
-2.37731e-06
4.79063e-06
-2.1762e-06
4.62469e-06
-1.96608e-06
4.48981e-06
-1.7955e-06
4.37313e-06
-1.68173e-06
4.26548e-06
-1.62668e-06
4.16037e-06
-1.62711e-06
4.05359e-06
-1.67988e-06
3.94313e-06
-1.78402e-06
3.82943e-06
-1.94049e-06
3.71569e-06
-2.15009e-06
3.60757e-06
-2.40981e-06
3.5122e-06
-2.70868e-06
3.4363e-06
-3.02525e-06
3.38416e-06
-3.32891e-06
3.35612e-06
-3.58515e-06
3.34821e-06
-3.76262e-06
3.35287e-06
-3.83863e-06
3.36009e-06
-3.80135e-06
3.35867e-06
-3.6488e-06
3.33703e-06
-3.38601e-06
3.28383e-06
-3.02136e-06
3.18827e-06
-2.56303e-06
3.0406e-06
-2.0155e-06
2.83272e-06
-1.3768e-06
2.55894e-06
-6.38196e-07
2.22233e-06
2.06026e-07
1.83979e-06
1.13245e-06
1.44594e-06
2.11244e-06
1.13097e-06
3.11515e-06
1.11679e-06
4.13568e-06
1.14041e-06
4.87629e-06
9.09023e-07
6.32369e-06
1.69712e-05
-1.24879e-06
4.26067e-06
-3.09016e-06
1.03028e-07
-4.73707e-06
1.45416e-06
-6.0693e-06
3.46574e-06
-7.10914e-06
5.86594e-06
-7.83758e-06
8.44619e-06
-8.24816e-06
1.09722e-05
-8.32379e-06
1.32144e-05
-8.04145e-06
1.49175e-05
-7.4135e-06
1.57116e-05
-6.56221e-06
1.50373e-05
-5.74495e-06
1.23057e-05
-5.20562e-06
7.61832e-06
-5.04583e-06
2.69279e-06
-5.29647e-06
-1.6057e-07
-5.66597e-06
-1.09208e-06
-5.89755e-06
-1.56304e-06
-5.96334e-06
-2.06998e-06
-5.87349e-06
-2.67982e-06
-5.64468e-06
-3.38247e-06
-5.29685e-06
-4.15247e-06
-4.84979e-06
-4.9659e-06
-4.32058e-06
-5.80611e-06
-3.72229e-06
-6.66418e-06
-3.06377e-06
-7.53743e-06
-2.35035e-06
-8.42749e-06
-1.58408e-06
-9.33982e-06
-7.58179e-07
-1.0293e-05
1.58162e-07
-1.13447e-05
1.13429e-06
-1.24798e-05
2.08249e-06
-1.35026e-05
2.96998e-06
-1.42184e-05
3.74257e-06
-1.44702e-05
4.34996e-06
-1.41994e-05
4.77208e-06
-1.34536e-05
5.02243e-06
-1.2344e-05
5.1392e-06
-1.10009e-05
5.17239e-06
-9.54207e-06
5.16869e-06
-8.06149e-06
5.15902e-06
-6.62944e-06
5.15148e-06
-5.29701e-06
5.13306e-06
-4.10849e-06
5.08335e-06
-3.12125e-06
4.99603e-06
-2.41572e-06
4.96171e-06
-2.04122e-06
5.08182e-06
-1.28108e-06
5.10234e-06
1.00978e-06
4.90704e-06
4.58807e-06
4.6657e-06
8.41916e-06
4.55508e-06
1.12778e-05
4.54032e-06
1.24049e-05
4.44487e-06
1.19397e-05
4.11823e-06
1.04383e-05
3.43499e-06
8.31442e-06
2.41864e-06
5.82609e-06
3.63866e-06
1.079e-05
5.56811e-06
1.40774e-05
6.98818e-06
1.27411e-05
7.92932e-06
9.98799e-06
8.50608e-06
6.96277e-06
8.74755e-06
4.13471e-06
8.67129e-06
1.78118e-06
8.31941e-06
2.21471e-08
7.81222e-06
-1.13806e-06
7.27444e-06
-1.7584e-06
6.78812e-06
-1.98441e-06
6.38663e-06
-1.97582e-06
6.07019e-06
-1.85977e-06
5.823e-06
-1.71889e-06
5.62535e-06
-1.59784e-06
5.45961e-06
-1.51599e-06
5.31215e-06
-1.47922e-06
5.17317e-06
-1.48813e-06
5.03619e-06
-1.5429e-06
4.89765e-06
-1.64549e-06
4.75685e-06
-1.79968e-06