/*--------------------------------*- C++ -*----------------------------------*\
| =========                 |                                                 |
| \\      /  F ield         | OpenFOAM: The Open Source CFD Toolbox           |
|  \\    /   O peration     | Version:  4.1                                   |
|   \\  /    A nd           | Web:      www.OpenFOAM.org                      |
|    \\/     M anipulation  |                                                 |
\*---------------------------------------------------------------------------*/
FoamFile
{
    version     2.0;
    format      ascii;
    class       volScalarField;
    location    "700";
    object      p;
}
// * * * * * * * * * * * * * * * * * * * * * * * * * * * * * * * * * * * * * //

dimensions      [0 2 -2 0 0 0 0];

internalField   nonuniform List<scalar> 
5000
(
0
-1.47581e-05
-2.76364e-05
-3.94321e-05
-4.98069e-05
-5.82265e-05
-6.40248e-05
-6.65309e-05
-6.51729e-05
-5.95668e-05
-4.97033e-05
-3.5959e-05
-1.92391e-05
-6.98221e-07
1.84617e-05
3.71501e-05
5.44879e-05
6.98298e-05
8.27437e-05
9.30122e-05
0.000100656
0.000105914
0.000109657
0.000112206
0.000113119
0.000112735
0.000111463
0.000109612
0.00010744
0.000105185
0.000103066
0.000101279
9.99721e-05
9.91738e-05
9.86661e-05
9.79875e-05
9.72294e-05
9.91719e-05
0.000106764
9.7224e-05
7.71867e-05
6.46893e-05
5.56154e-05
4.85358e-05
4.40708e-05
4.35684e-05
4.75086e-05
5.36218e-05
5.64335e-05
5.26236e-05
3.73312e-05
1.84429e-05
4.96528e-06
1.50874e-06
7.737e-06
2.02006e-05
3.55319e-05
5.12931e-05
5.96889e-05
5.92868e-05
6.19312e-05
6.63092e-05
6.8252e-05
6.89455e-05
7.05622e-05
7.345e-05
7.70908e-05
8.03285e-05
8.23023e-05
8.33285e-05
8.44972e-05
8.70893e-05
9.22647e-05
0.000101002
0.000113174
0.000126519
0.000137732
0.000145775
0.000151526
0.000155327
0.000156365
0.000154873
0.000155085
0.00015581
0.000156941
0.000157597
0.000157089
0.000155183
0.000151994
0.000147914
0.000143485
0.000139224
0.000135485
0.000132407
0.000129946
0.000127971
0.000126361
0.000124979
0.000123857
0.000130002
-0.0984423
-0.098461
-0.0984768
-0.0984917
-0.0985051
-0.0985163
-0.0985246
-0.0985292
-0.0985297
-0.0985255
-0.0985167
-0.0985037
-0.0984874
-0.0984692
-0.0984503
-0.0984317
-0.0984143
-0.0983989
-0.0983857
-0.098375
-0.0983668
-0.0983606
-0.0983558
-0.0983524
-0.0983507
-0.0983502
-0.0983506
-0.0983515
-0.0983527
-0.098354
-0.0983553
-0.0983564
-0.0983571
-0.0983576
-0.0983576
-0.0983569
-0.0983551
-0.0983502
-0.0983416
-0.0983586
-0.0983831
-0.098399
-0.0984113
-0.0984215
-0.0984289
-0.0984322
-0.098431
-0.0984282
-0.0984295
-0.0984383
-0.0984547
-0.0984716
-0.0984801
-0.0984781
-0.0984675
-0.0984506
-0.0984304
-0.0984092
-0.0983903
-0.0983849
-0.0983832
-0.0983797
-0.0983753
-0.0983702
-0.0983656
-0.0983618
-0.0983588
-0.0983561
-0.0983532
-0.09835
-0.0983469
-0.0983447
-0.0983435
-0.0983414
-0.098337
-0.0983315
-0.0983261
-0.0983212
-0.098317
-0.0983138
-0.0983111
-0.0983071
-0.0983038
-0.0983019
-0.0983011
-0.0983011
-0.0983021
-0.0983041
-0.0983069
-0.0983102
-0.0983134
-0.098316
-0.0983176
-0.0983182
-0.098318
-0.0983171
-0.0983157
-0.0983142
-0.0983121
-0.0983018
-0.196916
-0.196935
-0.196951
-0.196968
-0.196983
-0.196996
-0.197006
-0.197011
-0.197012
-0.197008
-0.197
-0.196986
-0.19697
-0.196951
-0.196932
-0.196913
-0.196896
-0.19688
-0.196867
-0.196856
-0.196848
-0.196841
-0.196835
-0.196832
-0.19683
-0.19683
-0.19683
-0.196831
-0.196832
-0.196833
-0.196834
-0.196835
-0.196836
-0.196836
-0.196836
-0.196835
-0.196832
-0.196827
-0.196822
-0.196839
-0.196864
-0.19688
-0.196893
-0.196905
-0.196913
-0.196917
-0.196917
-0.196916
-0.196921
-0.196935
-0.196954
-0.196969
-0.196974
-0.19697
-0.196957
-0.196938
-0.196915
-0.196889
-0.19687
-0.196864
-0.196863
-0.196859
-0.196854
-0.19685
-0.196845
-0.196841
-0.196837
-0.196833
-0.196829
-0.196824
-0.196819
-0.196814
-0.196811
-0.19681
-0.196809
-0.196806
-0.196803
-0.1968
-0.196796
-0.196793
-0.19679
-0.196786
-0.196784
-0.196782
-0.196781
-0.196781
-0.196782
-0.196784
-0.196786
-0.19679
-0.196793
-0.196795
-0.196797
-0.196797
-0.196797
-0.196796
-0.196793
-0.196791
-0.196787
-0.196776
-0.295407
-0.295423
-0.295437
-0.295453
-0.295468
-0.295481
-0.295491
-0.295497
-0.295498
-0.295494
-0.295485
-0.295471
-0.295454
-0.295435
-0.295415
-0.295396
-0.295378
-0.295363
-0.295349
-0.295338
-0.295329
-0.295322
-0.295316
-0.295313
-0.295311
-0.29531
-0.29531
-0.295311
-0.295312
-0.295313
-0.295314
-0.295315
-0.295315
-0.295316
-0.295315
-0.295314
-0.295312
-0.295309
-0.295308
-0.295324
-0.295349
-0.295364
-0.295377
-0.295389
-0.295397
-0.295402
-0.295402
-0.295403
-0.29541
-0.295428
-0.295449
-0.295463
-0.295468
-0.295463
-0.295449
-0.295429
-0.295405
-0.295378
-0.295359
-0.295351
-0.295347
-0.295341
-0.295335
-0.29533
-0.295325
-0.29532
-0.295316
-0.295312
-0.295308
-0.295303
-0.295298
-0.295293
-0.29529
-0.295288
-0.295287
-0.295285
-0.295282
-0.295279
-0.295275
-0.295272
-0.295269
-0.295266
-0.295264
-0.295262
-0.295261
-0.295261
-0.295262
-0.295264
-0.295267
-0.29527
-0.295273
-0.295276
-0.295277
-0.295277
-0.295277
-0.295275
-0.295273
-0.29527
-0.295268
-0.295259
-0.393903
-0.393916
-0.393929
-0.393943
-0.393957
-0.39397
-0.393979
-0.393985
-0.393986
-0.393982
-0.393972
-0.393957
-0.39394
-0.39392
-0.3939
-0.39388
-0.393863
-0.393847
-0.393833
-0.393821
-0.393812
-0.393804
-0.393798
-0.393795
-0.393792
-0.393791
-0.393791
-0.393792
-0.393792
-0.393793
-0.393794
-0.393795
-0.393796
-0.393796
-0.393795
-0.393795
-0.393793
-0.393791
-0.393793
-0.393809
-0.393833
-0.39385
-0.393862
-0.393873
-0.393882
-0.393885
-0.393886
-0.393886
-0.393894
-0.393913
-0.393931
-0.393944
-0.39395
-0.393947
-0.393936
-0.393915
-0.39389
-0.393865
-0.393848
-0.393839
-0.393832
-0.393824
-0.393816
-0.39381
-0.393804
-0.3938
-0.393795
-0.393791
-0.393786
-0.393782
-0.393778
-0.393774
-0.39377
-0.393768
-0.393766
-0.393763
-0.39376
-0.393757
-0.393754
-0.393752
-0.393749
-0.393746
-0.393744
-0.393742
-0.393742
-0.393742
-0.393742
-0.393744
-0.393747
-0.39375
-0.393753
-0.393756
-0.393757
-0.393757
-0.393757
-0.393755
-0.393753
-0.393751
-0.393749
-0.393742
-0.492399
-0.492411
-0.492421
-0.492434
-0.492447
-0.492459
-0.492469
-0.492474
-0.492475
-0.49247
-0.492459
-0.492444
-0.492426
-0.492406
-0.492385
-0.492365
-0.492347
-0.492331
-0.492317
-0.492305
-0.492295
-0.492287
-0.492281
-0.492277
-0.492275
-0.492274
-0.492273
-0.492274
-0.492274
-0.492275
-0.492276
-0.492276
-0.492277
-0.492277
-0.492276
-0.492276
-0.492275
-0.492274
-0.492276
-0.492292
-0.492317
-0.492335
-0.492347
-0.492357
-0.492365
-0.492368
-0.492366
-0.492365
-0.49237
-0.492384
-0.492397
-0.492408
-0.492415
-0.492413
-0.492404
-0.492387
-0.492365
-0.492346
-0.492335
-0.492327
-0.492316
-0.492305
-0.492296
-0.492289
-0.492283
-0.492278
-0.492274
-0.492269
-0.492265
-0.492261
-0.492257
-0.492253
-0.49225
-0.492247
-0.492245
-0.492242
-0.492239
-0.492237
-0.492234
-0.492231
-0.492229
-0.492226
-0.492224
-0.492223
-0.492222
-0.492223
-0.492223
-0.492225
-0.492228
-0.492231
-0.492234
-0.492236
-0.492238
-0.492238
-0.492237
-0.492236
-0.492234
-0.492232
-0.492231
-0.492225
-0.590895
-0.590905
-0.590914
-0.590925
-0.590937
-0.590948
-0.590957
-0.590963
-0.590963
-0.590958
-0.590946
-0.59093
-0.590911
-0.590891
-0.59087
-0.59085
-0.590832
-0.590815
-0.590801
-0.590789
-0.590779
-0.590771
-0.590765
-0.590761
-0.590759
-0.590757
-0.590756
-0.590756
-0.590757
-0.590757
-0.590758
-0.590758
-0.590759
-0.590759
-0.590758
-0.590758
-0.590757
-0.590756
-0.59076
-0.590775
-0.590799
-0.590818
-0.590831
-0.590841
-0.590847
-0.590849
-0.590844
-0.590838
-0.590837
-0.590843
-0.59085
-0.590858
-0.590863
-0.590864
-0.590858
-0.590845
-0.590831
-0.59082
-0.590816
-0.59081
-0.590798
-0.590784
-0.590774
-0.590767
-0.590761
-0.590756
-0.590752
-0.590748
-0.590744
-0.59074
-0.590736
-0.590733
-0.59073
-0.590727
-0.590724
-0.590721
-0.590719
-0.590716
-0.590713
-0.590711
-0.590709
-0.590707
-0.590705
-0.590704
-0.590703
-0.590703
-0.590704
-0.590706
-0.590708
-0.590712
-0.590715
-0.590717
-0.590718
-0.590718
-0.590718
-0.590716
-0.590715
-0.590713
-0.590712
-0.590707
-0.689389
-0.689397
-0.689404
-0.689414
-0.689425
-0.689436
-0.689445
-0.68945
-0.68945
-0.689444
-0.689432
-0.689416
-0.689396
-0.689376
-0.689355
-0.689335
-0.689317
-0.6893
-0.689285
-0.689273
-0.689263
-0.689256
-0.68925
-0.689246
-0.689243
-0.689241
-0.68924
-0.68924
-0.68924
-0.689241
-0.689241
-0.689241
-0.689241
-0.689241
-0.689241
-0.68924
-0.68924
-0.68924
-0.689243
-0.689257
-0.689279
-0.689298
-0.689312
-0.689321
-0.689325
-0.689323
-0.689316
-0.689305
-0.689297
-0.689295
-0.689298
-0.689303
-0.689307
-0.689309
-0.689305
-0.689297
-0.689289
-0.689286
-0.689288
-0.689285
-0.689273
-0.68926
-0.68925
-0.689244
-0.689239
-0.689234
-0.68923
-0.689226
-0.689223
-0.689219
-0.689216
-0.689212
-0.689209
-0.689206
-0.689203
-0.689201
-0.689198
-0.689196
-0.689193
-0.689191
-0.689189
-0.689187
-0.689186
-0.689185
-0.689184
-0.689184
-0.689185
-0.689187
-0.689189
-0.689192
-0.689195
-0.689197
-0.689198
-0.689198
-0.689198
-0.689197
-0.689195
-0.689194
-0.689194
-0.68919
-0.787878
-0.787885
-0.787891
-0.787901
-0.787911
-0.787921
-0.787929
-0.787935
-0.787935
-0.787928
-0.787915
-0.787899
-0.78788
-0.787859
-0.787839
-0.787819
-0.787801
-0.787784
-0.78777
-0.787758
-0.787748
-0.787741
-0.787735
-0.787731
-0.787728
-0.787726
-0.787725
-0.787725
-0.787725
-0.787725
-0.787725
-0.787725
-0.787725
-0.787725
-0.787724
-0.787724
-0.787724
-0.787724
-0.787726
-0.787737
-0.787756
-0.787774
-0.787787
-0.787794
-0.787796
-0.787791
-0.787782
-0.787768
-0.787755
-0.787747
-0.787745
-0.787748
-0.787751
-0.787752
-0.78775
-0.787746
-0.787742
-0.787744
-0.787751
-0.787751
-0.787742
-0.787732
-0.787725
-0.78772
-0.787715
-0.787712
-0.787708
-0.787705
-0.787701
-0.787698
-0.787695
-0.787692
-0.787688
-0.787686
-0.787683
-0.78768
-0.787678
-0.787675
-0.787673
-0.787671
-0.787669
-0.787668
-0.787666
-0.787666
-0.787665
-0.787665
-0.787666
-0.787668
-0.78767
-0.787672
-0.787675
-0.787677
-0.787678
-0.787678
-0.787678
-0.787677
-0.787676
-0.787675
-0.787675
-0.787671
-0.886364
-0.886369
-0.886375
-0.886383
-0.886392
-0.886401
-0.886409
-0.886415
-0.886414
-0.886408
-0.886396
-0.88638
-0.886361
-0.886341
-0.886321
-0.886302
-0.886284
-0.886268
-0.886255
-0.886243
-0.886234
-0.886227
-0.886221
-0.886217
-0.886214
-0.886213
-0.886211
-0.886211
-0.88621
-0.88621
-0.88621
-0.88621
-0.886209
-0.886209
-0.886209
-0.886208
-0.886208
-0.886208
-0.88621
-0.886218
-0.886232
-0.886247
-0.886258
-0.886263
-0.886261
-0.886254
-0.886242
-0.886229
-0.886212
-0.8862
-0.886196
-0.886196
-0.886199
-0.8862
-0.886199
-0.886196
-0.886195
-0.886199
-0.886207
-0.886211
-0.886207
-0.886202
-0.886198
-0.886195
-0.886192
-0.886189
-0.886186
-0.886183
-0.88618
-0.886177
-0.886174
-0.886171
-0.886168
-0.886165
-0.886162
-0.88616
-0.886157
-0.886155
-0.886153
-0.886151
-0.88615
-0.886148
-0.886147
-0.886146
-0.886146
-0.886146
-0.886147
-0.886149
-0.88615
-0.886153
-0.886155
-0.886157
-0.886158
-0.886158
-0.886157
-0.886157
-0.886156
-0.886155
-0.886155
-0.886152
-0.984845
-0.98485
-0.984854
-0.984861
-0.984869
-0.984877
-0.984884
-0.98489
-0.98489
-0.984884
-0.984873
-0.984858
-0.98484
-0.984821
-0.984802
-0.984784
-0.984767
-0.984752
-0.984739
-0.984729
-0.98472
-0.984713
-0.984708
-0.984704
-0.984701
-0.9847
-0.984698
-0.984697
-0.984697
-0.984696
-0.984696
-0.984695
-0.984695
-0.984694
-0.984693
-0.984693
-0.984693
-0.984693
-0.984694
-0.984699
-0.984708
-0.984718
-0.984725
-0.984728
-0.984724
-0.984715
-0.984703
-0.984688
-0.984672
-0.984658
-0.984651
-0.984651
-0.984653
-0.984655
-0.984654
-0.984653
-0.984653
-0.984656
-0.984664
-0.98467
-0.984673
-0.984673
-0.984672
-0.98467
-0.984669
-0.984667
-0.984664
-0.984662
-0.984659
-0.984656
-0.984653
-0.984651
-0.984648
-0.984645
-0.984642
-0.98464
-0.984638
-0.984635
-0.984633
-0.984632
-0.98463
-0.984629
-0.984628
-0.984628
-0.984627
-0.984627
-0.984628
-0.984629
-0.984631
-0.984633
-0.984635
-0.984636
-0.984637
-0.984637
-0.984637
-0.984637
-0.984636
-0.984635
-0.984636
-0.984633
-1.08332
-1.08333
-1.08333
-1.08334
-1.08334
-1.08335
-1.08336
-1.08336
-1.08336
-1.08336
-1.08335
-1.08333
-1.08332
-1.0833
-1.08328
-1.08326
-1.08325
-1.08324
-1.08322
-1.08321
-1.08321
-1.0832
-1.0832
-1.08319
-1.08319
-1.08319
-1.08319
-1.08319
-1.08318
-1.08318
-1.08318
-1.08318
-1.08318
-1.08318
-1.08318
-1.08318
-1.08318
-1.08318
-1.08318
-1.08318
-1.08318
-1.08319
-1.08319
-1.08319
-1.08319
-1.08318
-1.08316
-1.08315
-1.08314
-1.08312
-1.08311
-1.08311
-1.08312
-1.08312
-1.08312
-1.08312
-1.08312
-1.08312
-1.08313
-1.08314
-1.08314
-1.08315
-1.08315
-1.08315
-1.08315
-1.08314
-1.08314
-1.08314
-1.08314
-1.08314
-1.08313
-1.08313
-1.08313
-1.08313
-1.08312
-1.08312
-1.08312
-1.08312
-1.08311
-1.08311
-1.08311
-1.08311
-1.08311
-1.08311
-1.08311
-1.08311
-1.08311
-1.08311
-1.08311
-1.08311
-1.08311
-1.08312
-1.08312
-1.08312
-1.08312
-1.08312
-1.08312
-1.08312
-1.08312
-1.08311
-1.1818
-1.1818
-1.1818
-1.18181
-1.18181
-1.18182
-1.18182
-1.18183
-1.18183
-1.18182
-1.18182
-1.1818
-1.18179
-1.18177
-1.18176
-1.18174
-1.18173
-1.18172
-1.18171
-1.1817
-1.18169
-1.18169
-1.18168
-1.18168
-1.18168
-1.18168
-1.18167
-1.18167
-1.18167
-1.18167
-1.18167
-1.18167
-1.18167
-1.18167
-1.18166
-1.18166
-1.18166
-1.18166
-1.18166
-1.18166
-1.18166
-1.18166
-1.18166
-1.18166
-1.18165
-1.18164
-1.18163
-1.18161
-1.1816
-1.18159
-1.18158
-1.18158
-1.18158
-1.18159
-1.18159
-1.18159
-1.18159
-1.1816
-1.1816
-1.18161
-1.18162
-1.18162
-1.18162
-1.18162
-1.18162
-1.18162
-1.18162
-1.18162
-1.18162
-1.18162
-1.18161
-1.18161
-1.18161
-1.18161
-1.1816
-1.1816
-1.1816
-1.1816
-1.1816
-1.18159
-1.18159
-1.18159
-1.18159
-1.18159
-1.18159
-1.18159
-1.18159
-1.18159
-1.18159
-1.18159
-1.18159
-1.1816
-1.1816
-1.1816
-1.1816
-1.1816
-1.1816
-1.1816
-1.1816
-1.18159
-1.28027
-1.28027
-1.28027
-1.28028
-1.28028
-1.28028
-1.28029
-1.28029
-1.28029
-1.28029
-1.28028
-1.28027
-1.28026
-1.28025
-1.28024
-1.28022
-1.28021
-1.2802
-1.28019
-1.28019
-1.28018
-1.28018
-1.28017
-1.28017
-1.28017
-1.28017
-1.28016
-1.28016
-1.28016
-1.28016
-1.28016
-1.28016
-1.28015
-1.28015
-1.28015
-1.28015
-1.28015
-1.28015
-1.28015
-1.28015
-1.28014
-1.28014
-1.28013
-1.28013
-1.28012
-1.28011
-1.2801
-1.28008
-1.28007
-1.28006
-1.28005
-1.28005
-1.28006
-1.28007
-1.28007
-1.28007
-1.28008
-1.28008
-1.28008
-1.28009
-1.2801
-1.2801
-1.2801
-1.2801
-1.2801
-1.2801
-1.2801
-1.2801
-1.2801
-1.2801
-1.28009
-1.28009
-1.28009
-1.28009
-1.28008
-1.28008
-1.28008
-1.28008
-1.28008
-1.28008
-1.28007
-1.28007
-1.28007
-1.28007
-1.28007
-1.28007
-1.28007
-1.28007
-1.28007
-1.28007
-1.28007
-1.28007
-1.28008
-1.28008
-1.28008
-1.28008
-1.28008
-1.28008
-1.28008
-1.28007
-1.37874
-1.37874
-1.37874
-1.37874
-1.37875
-1.37875
-1.37875
-1.37876
-1.37876
-1.37876
-1.37875
-1.37874
-1.37873
-1.37872
-1.37871
-1.3787
-1.37869
-1.37868
-1.37868
-1.37867
-1.37867
-1.37866
-1.37866
-1.37866
-1.37866
-1.37866
-1.37865
-1.37865
-1.37865
-1.37865
-1.37865
-1.37864
-1.37864
-1.37864
-1.37864
-1.37864
-1.37863
-1.37863
-1.37863
-1.37863
-1.37862
-1.37862
-1.37861
-1.3786
-1.37859
-1.37858
-1.37857
-1.37856
-1.37855
-1.37854
-1.37853
-1.37853
-1.37854
-1.37855
-1.37855
-1.37856
-1.37856
-1.37856
-1.37857
-1.37857
-1.37858
-1.37858
-1.37858
-1.37858
-1.37858
-1.37858
-1.37858
-1.37858
-1.37858
-1.37858
-1.37857
-1.37857
-1.37857
-1.37857
-1.37857
-1.37856
-1.37856
-1.37856
-1.37856
-1.37856
-1.37856
-1.37856
-1.37855
-1.37855
-1.37855
-1.37855
-1.37855
-1.37855
-1.37855
-1.37856
-1.37856
-1.37856
-1.37856
-1.37856
-1.37856
-1.37856
-1.37856
-1.37856
-1.37856
-1.37856
-1.47721
-1.47721
-1.47721
-1.47721
-1.47721
-1.47721
-1.47722
-1.47722
-1.47722
-1.47722
-1.47722
-1.47721
-1.4772
-1.4772
-1.47719
-1.47718
-1.47717
-1.47717
-1.47716
-1.47716
-1.47715
-1.47715
-1.47715
-1.47715
-1.47715
-1.47715
-1.47714
-1.47714
-1.47714
-1.47714
-1.47714
-1.47713
-1.47713
-1.47713
-1.47712
-1.47712
-1.47712
-1.47712
-1.47711
-1.47711
-1.47711
-1.4771
-1.47709
-1.47708
-1.47707
-1.47706
-1.47705
-1.47704
-1.47703
-1.47702
-1.47701
-1.47701
-1.47702
-1.47703
-1.47704
-1.47704
-1.47705
-1.47705
-1.47705
-1.47705
-1.47706
-1.47706
-1.47706
-1.47706
-1.47706
-1.47706
-1.47706
-1.47706
-1.47706
-1.47706
-1.47706
-1.47705
-1.47705
-1.47705
-1.47705
-1.47705
-1.47704
-1.47704
-1.47704
-1.47704
-1.47704
-1.47704
-1.47704
-1.47704
-1.47704
-1.47704
-1.47704
-1.47704
-1.47704
-1.47704
-1.47704
-1.47704
-1.47704
-1.47704
-1.47704
-1.47704
-1.47704
-1.47704
-1.47704
-1.47704
-1.57567
-1.57567
-1.57568
-1.57568
-1.57568
-1.57568
-1.57568
-1.57569
-1.57569
-1.57569
-1.57568
-1.57568
-1.57567
-1.57567
-1.57566
-1.57566
-1.57565
-1.57565
-1.57564
-1.57564
-1.57564
-1.57564
-1.57564
-1.57564
-1.57564
-1.57564
-1.57564
-1.57563
-1.57563
-1.57563
-1.57563
-1.57562
-1.57562
-1.57562
-1.57561
-1.57561
-1.5756
-1.5756
-1.5756
-1.57559
-1.57559
-1.57558
-1.57557
-1.57556
-1.57555
-1.57553
-1.57552
-1.57552
-1.57551
-1.5755
-1.5755
-1.57549
-1.5755
-1.57551
-1.57552
-1.57553
-1.57553
-1.57554
-1.57554
-1.57554
-1.57554
-1.57554
-1.57554
-1.57554
-1.57554
-1.57554
-1.57554
-1.57554
-1.57554
-1.57554
-1.57554
-1.57554
-1.57553
-1.57553
-1.57553
-1.57553
-1.57553
-1.57553
-1.57552
-1.57552
-1.57552
-1.57552
-1.57552
-1.57552
-1.57552
-1.57552
-1.57552
-1.57552
-1.57552
-1.57552
-1.57552
-1.57552
-1.57552
-1.57552
-1.57552
-1.57552
-1.57552
-1.57552
-1.57552
-1.57552
-1.67414
-1.67414
-1.67414
-1.67414
-1.67415
-1.67415
-1.67415
-1.67415
-1.67415
-1.67415
-1.67415
-1.67415
-1.67414
-1.67414
-1.67414
-1.67413
-1.67413
-1.67413
-1.67413
-1.67413
-1.67413
-1.67413
-1.67413
-1.67413
-1.67413
-1.67413
-1.67413
-1.67412
-1.67412
-1.67412
-1.67412
-1.67411
-1.67411
-1.6741
-1.6741
-1.67409
-1.67409
-1.67409
-1.67408
-1.67408
-1.67407
-1.67406
-1.67405
-1.67404
-1.67403
-1.67402
-1.67401
-1.674
-1.67399
-1.67399
-1.67398
-1.67398
-1.67399
-1.674
-1.67401
-1.67402
-1.67402
-1.67402
-1.67402
-1.67402
-1.67402
-1.67402
-1.67403
-1.67403
-1.67403
-1.67403
-1.67403
-1.67402
-1.67402
-1.67402
-1.67402
-1.67402
-1.67402
-1.67402
-1.67401
-1.67401
-1.67401
-1.67401
-1.67401
-1.67401
-1.67401
-1.674
-1.674
-1.674
-1.674
-1.674
-1.674
-1.674
-1.674
-1.674
-1.674
-1.674
-1.674
-1.674
-1.674
-1.674
-1.674
-1.674
-1.674
-1.674
-1.7726
-1.77261
-1.77261
-1.77261
-1.77261
-1.77262
-1.77262
-1.77262
-1.77262
-1.77262
-1.77262
-1.77262
-1.77262
-1.77261
-1.77261
-1.77261
-1.77261
-1.77261
-1.77261
-1.77261
-1.77261
-1.77261
-1.77262
-1.77262
-1.77262
-1.77262
-1.77262
-1.77262
-1.77261
-1.77261
-1.77261
-1.7726
-1.7726
-1.77259
-1.77259
-1.77258
-1.77258
-1.77257
-1.77257
-1.77256
-1.77255
-1.77254
-1.77253
-1.77252
-1.77251
-1.7725
-1.77249
-1.77248
-1.77248
-1.77247
-1.77247
-1.77247
-1.77247
-1.77248
-1.77249
-1.7725
-1.77251
-1.77251
-1.77251
-1.77251
-1.77251
-1.77251
-1.77251
-1.77251
-1.77251
-1.77251
-1.77251
-1.77251
-1.77251
-1.77251
-1.7725
-1.7725
-1.7725
-1.7725
-1.7725
-1.7725
-1.7725
-1.77249
-1.77249
-1.77249
-1.77249
-1.77249
-1.77249
-1.77249
-1.77249
-1.77248
-1.77248
-1.77248
-1.77248
-1.77248
-1.77248
-1.77248
-1.77248
-1.77248
-1.77248
-1.77248
-1.77248
-1.77248
-1.77248
-1.77248
-1.87107
-1.87107
-1.87108
-1.87108
-1.87108
-1.87108
-1.87108
-1.87108
-1.87108
-1.87108
-1.87109
-1.87109
-1.87109
-1.87109
-1.87109
-1.87109
-1.87109
-1.87109
-1.8711
-1.8711
-1.8711
-1.8711
-1.8711
-1.87111
-1.87111
-1.87111
-1.87111
-1.87111
-1.8711
-1.8711
-1.8711
-1.87109
-1.87109
-1.87108
-1.87107
-1.87107
-1.87106
-1.87106
-1.87105
-1.87104
-1.87104
-1.87103
-1.87101
-1.871
-1.87099
-1.87098
-1.87097
-1.87097
-1.87096
-1.87096
-1.87096
-1.87096
-1.87096
-1.87097
-1.87098
-1.87099
-1.87099
-1.87099
-1.87099
-1.87099
-1.87099
-1.87099
-1.87099
-1.87099
-1.87099
-1.87099
-1.87099
-1.87099
-1.87099
-1.87099
-1.87099
-1.87099
-1.87099
-1.87099
-1.87098
-1.87098
-1.87098
-1.87098
-1.87098
-1.87097
-1.87097
-1.87097
-1.87097
-1.87097
-1.87097
-1.87097
-1.87097
-1.87097
-1.87097
-1.87097
-1.87096
-1.87096
-1.87096
-1.87096
-1.87096
-1.87096
-1.87096
-1.87096
-1.87096
-1.87096
-1.96952
-1.96953
-1.96954
-1.96954
-1.96954
-1.96955
-1.96955
-1.96955
-1.96955
-1.96955
-1.96955
-1.96956
-1.96956
-1.96956
-1.96956
-1.96957
-1.96957
-1.96957
-1.96958
-1.96958
-1.96959
-1.96959
-1.96959
-1.96959
-1.9696
-1.9696
-1.9696
-1.96959
-1.96959
-1.96959
-1.96959
-1.96958
-1.96958
-1.96957
-1.96956
-1.96956
-1.96955
-1.96954
-1.96953
-1.96953
-1.96952
-1.96951
-1.9695
-1.96948
-1.96947
-1.96946
-1.96946
-1.96945
-1.96945
-1.96945
-1.96945
-1.96945
-1.96945
-1.96946
-1.96947
-1.96948
-1.96948
-1.96948
-1.96948
-1.96948
-1.96947
-1.96947
-1.96947
-1.96947
-1.96947
-1.96947
-1.96947
-1.96947
-1.96947
-1.96947
-1.96947
-1.96947
-1.96947
-1.96947
-1.96947
-1.96947
-1.96947
-1.96946
-1.96946
-1.96946
-1.96946
-1.96946
-1.96945
-1.96945
-1.96945
-1.96945
-1.96945
-1.96945
-1.96945
-1.96945
-1.96945
-1.96945
-1.96945
-1.96945
-1.96945
-1.96945
-1.96945
-1.96945
-1.96945
-1.96945
-2.06797
-2.06798
-2.06799
-2.068
-2.068
-2.068
-2.068
-2.06801
-2.06801
-2.06802
-2.06802
-2.06803
-2.06803
-2.06804
-2.06804
-2.06805
-2.06805
-2.06806
-2.06806
-2.06807
-2.06807
-2.06807
-2.06808
-2.06808
-2.06808
-2.06808
-2.06808
-2.06808
-2.06808
-2.06808
-2.06807
-2.06807
-2.06806
-2.06806
-2.06805
-2.06804
-2.06803
-2.06803
-2.06802
-2.06801
-2.068
-2.06799
-2.06798
-2.06797
-2.06796
-2.06795
-2.06794
-2.06794
-2.06793
-2.06793
-2.06794
-2.06794
-2.06795
-2.06795
-2.06795
-2.06796
-2.06797
-2.06797
-2.06796
-2.06796
-2.06796
-2.06796
-2.06796
-2.06796
-2.06796
-2.06796
-2.06796
-2.06796
-2.06796
-2.06796
-2.06796
-2.06796
-2.06796
-2.06796
-2.06795
-2.06795
-2.06795
-2.06795
-2.06795
-2.06795
-2.06794
-2.06794
-2.06794
-2.06794
-2.06794
-2.06794
-2.06793
-2.06793
-2.06793
-2.06793
-2.06793
-2.06793
-2.06793
-2.06793
-2.06793
-2.06793
-2.06793
-2.06793
-2.06793
-2.06793
-2.1664
-2.16642
-2.16643
-2.16644
-2.16645
-2.16645
-2.16646
-2.16647
-2.16647
-2.16648
-2.16649
-2.1665
-2.1665
-2.16651
-2.16652
-2.16652
-2.16653
-2.16654
-2.16654
-2.16655
-2.16655
-2.16656
-2.16656
-2.16657
-2.16657
-2.16657
-2.16657
-2.16657
-2.16657
-2.16657
-2.16656
-2.16656
-2.16655
-2.16654
-2.16654
-2.16653
-2.16652
-2.16651
-2.1665
-2.16649
-2.16648
-2.16647
-2.16646
-2.16645
-2.16644
-2.16643
-2.16642
-2.16642
-2.16642
-2.16642
-2.16643
-2.16643
-2.16644
-2.16644
-2.16644
-2.16644
-2.16645
-2.16645
-2.16644
-2.16644
-2.16644
-2.16644
-2.16644
-2.16644
-2.16644
-2.16644
-2.16644
-2.16644
-2.16644
-2.16645
-2.16644
-2.16644
-2.16644
-2.16644
-2.16644
-2.16644
-2.16644
-2.16644
-2.16643
-2.16643
-2.16643
-2.16643
-2.16642
-2.16642
-2.16642
-2.16642
-2.16642
-2.16642
-2.16641
-2.16641
-2.16641
-2.16641
-2.16641
-2.16641
-2.16641
-2.16641
-2.16641
-2.16641
-2.16641
-2.16641
-2.26483
-2.26484
-2.26486
-2.26488
-2.26489
-2.2649
-2.26492
-2.26493
-2.26494
-2.26495
-2.26496
-2.26497
-2.26498
-2.26499
-2.26499
-2.265
-2.26501
-2.26502
-2.26502
-2.26503
-2.26504
-2.26504
-2.26505
-2.26505
-2.26506
-2.26506
-2.26506
-2.26506
-2.26506
-2.26505
-2.26505
-2.26504
-2.26504
-2.26503
-2.26502
-2.26501
-2.265
-2.26499
-2.26498
-2.26498
-2.26497
-2.26495
-2.26494
-2.26493
-2.26492
-2.26491
-2.26491
-2.2649
-2.2649
-2.26491
-2.26491
-2.26492
-2.26492
-2.26492
-2.26492
-2.26492
-2.26493
-2.26493
-2.26493
-2.26492
-2.26492
-2.26492
-2.26492
-2.26492
-2.26492
-2.26493
-2.26493
-2.26493
-2.26493
-2.26493
-2.26493
-2.26493
-2.26493
-2.26493
-2.26493
-2.26493
-2.26492
-2.26492
-2.26492
-2.26492
-2.26491
-2.26491
-2.26491
-2.26491
-2.26491
-2.2649
-2.2649
-2.2649
-2.2649
-2.2649
-2.2649
-2.2649
-2.2649
-2.2649
-2.2649
-2.2649
-2.2649
-2.26489
-2.26489
-2.26489
-2.36325
-2.36327
-2.36329
-2.36331
-2.36334
-2.36336
-2.36337
-2.36339
-2.3634
-2.36342
-2.36343
-2.36344
-2.36345
-2.36346
-2.36347
-2.36348
-2.36349
-2.3635
-2.36351
-2.36351
-2.36352
-2.36353
-2.36353
-2.36354
-2.36354
-2.36354
-2.36355
-2.36354
-2.36354
-2.36354
-2.36354
-2.36353
-2.36352
-2.36351
-2.36351
-2.3635
-2.36349
-2.36348
-2.36347
-2.36346
-2.36345
-2.36344
-2.36343
-2.36341
-2.3634
-2.3634
-2.36339
-2.36339
-2.36339
-2.36339
-2.3634
-2.36341
-2.36341
-2.3634
-2.3634
-2.3634
-2.36341
-2.36341
-2.3634
-2.3634
-2.3634
-2.3634
-2.3634
-2.36341
-2.36341
-2.36341
-2.36341
-2.36341
-2.36342
-2.36342
-2.36342
-2.36342
-2.36342
-2.36341
-2.36341
-2.36341
-2.36341
-2.36341
-2.3634
-2.3634
-2.3634
-2.3634
-2.36339
-2.36339
-2.36339
-2.36339
-2.36339
-2.36338
-2.36338
-2.36338
-2.36338
-2.36338
-2.36338
-2.36338
-2.36338
-2.36338
-2.36338
-2.36338
-2.36338
-2.36338
-2.46168
-2.46169
-2.46173
-2.46176
-2.46179
-2.46181
-2.46184
-2.46186
-2.46187
-2.46189
-2.4619
-2.46191
-2.46193
-2.46194
-2.46195
-2.46196
-2.46197
-2.46198
-2.46199
-2.462
-2.462
-2.46201
-2.46202
-2.46202
-2.46203
-2.46203
-2.46203
-2.46203
-2.46203
-2.46203
-2.46202
-2.46201
-2.46201
-2.462
-2.46199
-2.46198
-2.46197
-2.46196
-2.46195
-2.46194
-2.46193
-2.46192
-2.46191
-2.4619
-2.46189
-2.46188
-2.46187
-2.46187
-2.46187
-2.46188
-2.46189
-2.46189
-2.46189
-2.46188
-2.46188
-2.46188
-2.46188
-2.46188
-2.46188
-2.46188
-2.46188
-2.46188
-2.46189
-2.46189
-2.46189
-2.46189
-2.4619
-2.4619
-2.4619
-2.4619
-2.4619
-2.4619
-2.4619
-2.4619
-2.4619
-2.4619
-2.4619
-2.46189
-2.46189
-2.46189
-2.46189
-2.46188
-2.46188
-2.46188
-2.46187
-2.46187
-2.46187
-2.46187
-2.46187
-2.46186
-2.46186
-2.46186
-2.46186
-2.46186
-2.46186
-2.46186
-2.46186
-2.46186
-2.46186
-2.46186
-2.56013
-2.56015
-2.56018
-2.56022
-2.56025
-2.56028
-2.5603
-2.56032
-2.56034
-2.56036
-2.56038
-2.56039
-2.5604
-2.56041
-2.56043
-2.56044
-2.56045
-2.56046
-2.56047
-2.56048
-2.56048
-2.56049
-2.5605
-2.5605
-2.56051
-2.56051
-2.56051
-2.56051
-2.56051
-2.56051
-2.5605
-2.5605
-2.56049
-2.56048
-2.56047
-2.56046
-2.56045
-2.56044
-2.56043
-2.56042
-2.56041
-2.5604
-2.56039
-2.56038
-2.56037
-2.56036
-2.56036
-2.56035
-2.56036
-2.56036
-2.56037
-2.56037
-2.56036
-2.56036
-2.56035
-2.56035
-2.56035
-2.56036
-2.56036
-2.56036
-2.56036
-2.56037
-2.56037
-2.56037
-2.56038
-2.56038
-2.56038
-2.56038
-2.56039
-2.56039
-2.56039
-2.56039
-2.56039
-2.56039
-2.56038
-2.56038
-2.56038
-2.56038
-2.56038
-2.56037
-2.56037
-2.56037
-2.56037
-2.56036
-2.56036
-2.56036
-2.56035
-2.56035
-2.56035
-2.56035
-2.56035
-2.56035
-2.56035
-2.56035
-2.56035
-2.56035
-2.56035
-2.56035
-2.56035
-2.56035
-2.65862
-2.65864
-2.65866
-2.6587
-2.65873
-2.65875
-2.65878
-2.6588
-2.65882
-2.65884
-2.65885
-2.65887
-2.65888
-2.65889
-2.6589
-2.65892
-2.65893
-2.65894
-2.65895
-2.65896
-2.65896
-2.65897
-2.65898
-2.65899
-2.65899
-2.65899
-2.659
-2.659
-2.65899
-2.65899
-2.65899
-2.65898
-2.65897
-2.65896
-2.65895
-2.65894
-2.65893
-2.65892
-2.65891
-2.6589
-2.65889
-2.65888
-2.65887
-2.65886
-2.65885
-2.65884
-2.65884
-2.65884
-2.65884
-2.65884
-2.65885
-2.65884
-2.65884
-2.65883
-2.65883
-2.65883
-2.65883
-2.65883
-2.65884
-2.65884
-2.65884
-2.65885
-2.65885
-2.65885
-2.65886
-2.65886
-2.65887
-2.65887
-2.65887
-2.65887
-2.65887
-2.65887
-2.65887
-2.65887
-2.65887
-2.65887
-2.65887
-2.65886
-2.65886
-2.65886
-2.65886
-2.65885
-2.65885
-2.65885
-2.65884
-2.65884
-2.65884
-2.65884
-2.65883
-2.65883
-2.65883
-2.65883
-2.65883
-2.65883
-2.65883
-2.65883
-2.65883
-2.65883
-2.65883
-2.65883
-2.75712
-2.75713
-2.75715
-2.75718
-2.75721
-2.75723
-2.75725
-2.75727
-2.75729
-2.75731
-2.75733
-2.75734
-2.75736
-2.75737
-2.75738
-2.75739
-2.7574
-2.75742
-2.75743
-2.75744
-2.75744
-2.75745
-2.75746
-2.75747
-2.75747
-2.75748
-2.75748
-2.75748
-2.75748
-2.75747
-2.75747
-2.75746
-2.75745
-2.75744
-2.75743
-2.75742
-2.75741
-2.7574
-2.75739
-2.75738
-2.75737
-2.75736
-2.75735
-2.75734
-2.75733
-2.75732
-2.75732
-2.75732
-2.75732
-2.75732
-2.75732
-2.75731
-2.75731
-2.7573
-2.7573
-2.7573
-2.7573
-2.75731
-2.75731
-2.75732
-2.75732
-2.75733
-2.75733
-2.75734
-2.75734
-2.75735
-2.75735
-2.75735
-2.75736
-2.75736
-2.75736
-2.75736
-2.75736
-2.75736
-2.75736
-2.75735
-2.75735
-2.75735
-2.75735
-2.75734
-2.75734
-2.75734
-2.75733
-2.75733
-2.75733
-2.75733
-2.75732
-2.75732
-2.75732
-2.75732
-2.75732
-2.75732
-2.75732
-2.75732
-2.75732
-2.75732
-2.75732
-2.75732
-2.75732
-2.75731
-2.85562
-2.85563
-2.85565
-2.85567
-2.85569
-2.85571
-2.85573
-2.85575
-2.85577
-2.85579
-2.85581
-2.85582
-2.85583
-2.85585
-2.85586
-2.85587
-2.85588
-2.85589
-2.8559
-2.85591
-2.85592
-2.85593
-2.85594
-2.85595
-2.85595
-2.85596
-2.85596
-2.85596
-2.85596
-2.85595
-2.85595
-2.85594
-2.85593
-2.85592
-2.85591
-2.8559
-2.85589
-2.85588
-2.85587
-2.85586
-2.85585
-2.85584
-2.85583
-2.85582
-2.85581
-2.8558
-2.8558
-2.8558
-2.8558
-2.8558
-2.85579
-2.85579
-2.85578
-2.85578
-2.85578
-2.85578
-2.85578
-2.85579
-2.85579
-2.8558
-2.8558
-2.85581
-2.85581
-2.85582
-2.85582
-2.85583
-2.85583
-2.85584
-2.85584
-2.85584
-2.85584
-2.85584
-2.85584
-2.85584
-2.85584
-2.85584
-2.85584
-2.85583
-2.85583
-2.85583
-2.85583
-2.85582
-2.85582
-2.85582
-2.85581
-2.85581
-2.85581
-2.8558
-2.8558
-2.8558
-2.8558
-2.8558
-2.8558
-2.8558
-2.8558
-2.8558
-2.8558
-2.8558
-2.8558
-2.8558
-2.95412
-2.95413
-2.95414
-2.95416
-2.95418
-2.9542
-2.95421
-2.95423
-2.95425
-2.95427
-2.95428
-2.9543
-2.95431
-2.95432
-2.95434
-2.95435
-2.95436
-2.95437
-2.95438
-2.95439
-2.9544
-2.95441
-2.95442
-2.95442
-2.95443
-2.95443
-2.95443
-2.95443
-2.95443
-2.95443
-2.95442
-2.95442
-2.95441
-2.9544
-2.95439
-2.95438
-2.95437
-2.95436
-2.95435
-2.95434
-2.95433
-2.95431
-2.9543
-2.95429
-2.95429
-2.95428
-2.95428
-2.95427
-2.95427
-2.95427
-2.95427
-2.95426
-2.95426
-2.95425
-2.95425
-2.95425
-2.95426
-2.95426
-2.95427
-2.95428
-2.95428
-2.95429
-2.9543
-2.9543
-2.95431
-2.95431
-2.95432
-2.95432
-2.95432
-2.95432
-2.95433
-2.95433
-2.95433
-2.95432
-2.95432
-2.95432
-2.95432
-2.95432
-2.95431
-2.95431
-2.95431
-2.95431
-2.9543
-2.9543
-2.9543
-2.95429
-2.95429
-2.95429
-2.95429
-2.95429
-2.95429
-2.95429
-2.95429
-2.95429
-2.95429
-2.95429
-2.95429
-2.95429
-2.95429
-2.95428
-3.05261
-3.05262
-3.05263
-3.05264
-3.05266
-3.05268
-3.0527
-3.05271
-3.05273
-3.05275
-3.05276
-3.05278
-3.05279
-3.0528
-3.05281
-3.05283
-3.05284
-3.05285
-3.05286
-3.05287
-3.05288
-3.05289