/*--------------------------------*- C++ -*----------------------------------*\
| =========                 |                                                 |
| \\      /  F ield         | OpenFOAM: The Open Source CFD Toolbox           |
|  \\    /   O peration     | Version:  4.1                                   |
|   \\  /    A nd           | Web:      www.OpenFOAM.org                      |
|    \\/     M anipulation  |                                                 |
\*---------------------------------------------------------------------------*/
FoamFile
{
    version     2.0;
    format      ascii;
    class       surfaceScalarField;
    location    "700";
    object      phi;
}
// * * * * * * * * * * * * * * * * * * * * * * * * * * * * * * * * * * * * * //

dimensions      [0 3 -1 0 0 0 0];

internalField   nonuniform List<scalar> 
3120
(
-5.83545e-06
5.83545e-06
-4.3722e-06
-1.46325e-06
-2.67548e-06
-1.69672e-06
-1.42969e-06
-1.24579e-06
1.96891e-06
-3.39859e-06
4.81184e-06
-2.84293e-06
6.28556e-06
-1.47372e-06
7.17436e-06
-8.88797e-07
7.72874e-06
-5.54378e-07
8.06744e-06
-3.387e-07
8.27583e-06
-2.08393e-07
8.40805e-06
-1.32224e-07
8.52968e-06
-1.21621e-07
8.75904e-06
-2.29362e-07
8.98499e-06
-2.25956e-07
8.8896e-06
9.53944e-08
8.23564e-06
6.53963e-07
8.74021e-06
-5.04576e-07
-1.03979e-06
9.78e-06
-7.38048e-06
6.34069e-06
-3.41579e-06
-3.96469e-06
1.83368e-06
-5.24947e-06
5.89303e-06
-4.05935e-06
8.8235e-06
-2.93047e-06
2.30487e-06
6.51863e-06
-8.82342e-06
1.11283e-05
-8.3248e-06
-4.98626e-07
-3.84479e-06
-4.48001e-06
-1.18102e-06
-2.66377e-06
1.29253e-06
-2.47355e-06
4.46055e-06
-3.16802e-06
6.55205e-06
-2.0915e-06
6.68765e-06
-1.35604e-07
3.69452e-06
2.99313e-06
-4.32286e-06
8.01738e-06
-9.0082e-06
4.68534e-06
-8.05706e-06
-9.51139e-07
-3.34552e-06
-4.71154e-06
4.41159e-06
-7.75712e-06
4.41159e-06
-5.22885e-06
1.10643e-05
-4.96694e-06
-1.72516e-06
-2.59079e-06
-4.07288e-06
1.18437e-06
-5.02094e-06
3.87015e-06
-6.08437e-06
5.41002e-06
-4.38281e-06
6.6329e-06
-2.69661e-06
7.39559e-06
-1.65148e-06
7.8602e-06
-1.01899e-06
8.13053e-06
-6.09033e-07
8.27821e-06
-3.56075e-07
8.36557e-06
-2.19582e-07
8.43842e-06
-1.94471e-07
8.5168e-06
-3.0774e-07
8.61143e-06
-3.20591e-07
8.63692e-06
6.99028e-08
8.74725e-06
5.43639e-07
8.77524e-06
-5.32563e-07
3.04793e-06
1.55073e-05
-4.41606e-06
1.38047e-05
-3.23146e-06
-5.14928e-06
-1.25411e-08
-8.4684e-06
2.92175e-06
-6.99364e-06
5.00497e-06
-5.01369e-06
1.56184e-06
9.96177e-06
-6.64886e-06
1.9339e-05
-5.63649e-06
-1.511e-06
-2.59904e-06
-7.51746e-06
-2.75642e-07
-4.98716e-06
2.30468e-06
-5.05388e-06
4.73689e-06
-5.60023e-06
6.26011e-06
-3.61472e-06
5.94488e-06
1.79631e-07
2.96873e-06
5.96928e-06
-3.62181e-06
1.46079e-05
-7.66478e-06
8.72831e-06
-6.91669e-06
-1.69924e-06
-3.08412e-06
-8.54411e-06
2.91579e-06
-1.3757e-05
7.32738e-06
-3.87852e-06
1.49428e-05
-4.01322e-06
-1.59046e-06
-9.34937e-07
-7.15116e-06
2.56142e-06
-8.5173e-06
4.46699e-06
-7.98995e-06
5.85705e-06
-5.77286e-06
6.88965e-06
-3.72921e-06
7.54983e-06
-2.31166e-06
7.92434e-06
-1.3935e-06
8.11124e-06
-7.95923e-07
8.18283e-06
-4.27666e-07
8.19461e-06
-2.31371e-07
8.17044e-06
-1.70292e-07
8.08131e-06
-2.18611e-07
7.95813e-06
-1.97417e-07
7.92315e-06
1.04884e-07
8.08008e-06
3.86714e-07
7.6807e-06
-1.33181e-07
4.63026e-06
1.85577e-05
-1.99083e-06
2.04258e-05
-3.00052e-06
-4.13959e-06
-7.72075e-07
-1.06968e-05
9.30467e-07
-8.69618e-06
2.03283e-06
-6.11606e-06
5.95383e-07
1.13992e-05
-4.70342e-06
2.46378e-05
-3.18678e-06
-3.02763e-06
-1.9355e-06
-8.76874e-06
-2.52216e-07
-6.67045e-06
1.93323e-06
-7.23933e-06
4.02545e-06
-7.69245e-06
5.27806e-06
-4.86733e-06
4.68487e-06
7.72821e-07
2.01917e-06
8.63498e-06
-3.09715e-06
1.97242e-05
-6.26044e-06
1.18916e-05
-5.54498e-06
-2.41469e-06
-2.26586e-06
-1.18232e-05
2.06918e-06
-1.80921e-05
9.39656e-06
-3.05289e-06
1.79957e-05
-3.16403e-06
-1.47932e-06
1.87397e-07
-1.05026e-05
3.32843e-06
-1.16583e-05
4.93506e-06
-9.59658e-06
6.16551e-06
-7.00331e-06
7.07585e-06
-4.63955e-06
7.65509e-06
-2.8909e-06
7.963e-06
-1.70141e-06
8.08574e-06
-9.18666e-07
8.09519e-06
-4.37113e-07
8.04431e-06
-1.80496e-07
7.95613e-06
-8.21102e-08
7.8153e-06
-7.77783e-08
7.64138e-06
-2.35008e-08
7.52627e-06
2.19991e-07
7.47628e-06
4.36707e-07
6.99547e-06
3.47631e-07
5.27297e-06
2.02802e-05
-3.57553e-07
2.60563e-05
-3.08574e-06
-1.4114e-06
-1.47419e-06
-1.23084e-05
-3.97186e-07
-9.77318e-06
-3.40189e-07
-6.17305e-06
-4.47968e-07
1.1507e-05
-2.93639e-06
2.71262e-05
-1.62793e-06
-4.33609e-06
-1.65488e-06
-8.74179e-06
-4.81231e-07
-7.8441e-06
1.27838e-06
-8.99893e-06
3.00871e-06
-9.42278e-06
4.06976e-06
-5.92838e-06
3.45308e-06
1.3895e-06
1.116e-06
1.09721e-05
-2.77987e-06
2.36201e-05
-5.12699e-06
1.42387e-05
-4.07144e-06
-3.47024e-06
-1.33627e-06
-1.45584e-05
1.50331e-06
-2.09316e-05
1.08999e-05
-2.41581e-06
2.04115e-05
-2.1638e-06
-1.73133e-06
1.09989e-06
-1.37663e-05
3.63779e-06
-1.41962e-05
5.2111e-06
-1.11699e-05
6.33767e-06
-8.12988e-06
7.15572e-06
-5.45759e-06
7.6721e-06
-3.40729e-06
7.93129e-06
-1.96059e-06
8.00652e-06
-9.93899e-07
7.96713e-06
-3.97726e-07
7.86463e-06
-7.79946e-08
7.72312e-06
5.94024e-08
7.54271e-06
1.02628e-07
7.33921e-06
1.80001e-07
7.15891e-06
4.0029e-07
6.96258e-06
6.33035e-07
6.45326e-06
8.56957e-07
5.49599e-06
2.12375e-05
8.13573e-07
3.07387e-05
-3.15012e-06
2.55229e-06
-2.041e-06
-1.34175e-05
-1.47033e-06
-1.03438e-05
-2.49203e-06
-5.15135e-06
-1.54559e-06
1.05606e-05
-1.39401e-06
2.69746e-05
-9.79852e-07
-4.75025e-06
-1.67478e-06
-8.04686e-06
-9.32655e-07
-8.58622e-06
3.43574e-07
-1.02752e-05
1.6642e-06
-1.07434e-05
2.53042e-06
-6.7946e-06
2.08391e-06
1.83602e-06
2.46379e-07
1.28096e-05
-2.61457e-06
2.64811e-05
-4.07789e-06
1.5702e-05
-2.45078e-06
-5.09736e-06
-5.22952e-07
-1.64862e-05
1.02609e-06
-2.24807e-05
1.1926e-05
-1.91907e-06
2.23306e-05
-1.20474e-06
-2.44566e-06
1.774e-06
-1.6745e-05
3.83755e-06
-1.62598e-05
5.32164e-06
-1.2654e-05
6.36372e-06
-9.17195e-06
7.10724e-06
-6.20112e-06
7.57753e-06
-3.87757e-06
7.80582e-06
-2.18889e-06
7.85146e-06
-1.03954e-06
7.77944e-06
-3.25706e-07
7.63872e-06
6.27223e-08
7.45694e-06
2.41183e-07
7.24498e-06
3.1459e-07
7.01364e-06
4.11343e-07
6.78261e-06
6.31319e-07
6.50386e-06
9.11786e-07
5.99302e-06
1.36779e-06
5.52874e-06
2.17018e-05
1.90779e-06
3.43597e-05
-2.73909e-06
7.19916e-06
-2.39064e-06
-1.3766e-05
-2.39754e-06
-1.03369e-05
-3.67082e-06
-3.87807e-06
-2.60958e-06
9.49932e-06
-4.43729e-07
2.48088e-05
-9.43547e-07
-4.25043e-06
-1.95752e-06
-7.03289e-06
-1.62476e-06
-8.91898e-06
-8.16062e-07
-1.10839e-05
-7.78252e-08
-1.14816e-05
5.37107e-07
-7.40953e-06
2.98825e-07
2.0743e-06
-1.0664e-06
1.41748e-05
-2.63089e-06
2.80455e-05
-3.00295e-06
1.60741e-05
-7.20515e-07
-7.37979e-06
1.17196e-07
-1.73239e-05
6.75175e-07
-2.30387e-05
1.26011e-05
-1.57573e-06
2.39063e-05
-4.33613e-07
-3.58778e-06
2.2086e-06
-1.93872e-05
3.96488e-06
-1.80161e-05
5.29201e-06
-1.39811e-05
6.23848e-06
-1.01184e-05
6.9169e-06
-6.87954e-06
7.3556e-06
-4.31626e-06
7.5704e-06
-2.4037e-06
7.60488e-06
-1.07401e-06
7.51703e-06
-2.37861e-07
7.35371e-06
2.26043e-07
7.14858e-06
4.46314e-07
6.91469e-06
5.48483e-07
6.66136e-06
6.64677e-07
6.39535e-06
8.97328e-07
6.07491e-06
1.23222e-06
5.59163e-06
1.85107e-06
5.45273e-06
2.18407e-05
2.51623e-06
3.72962e-05
-2.26487e-06
1.19803e-05
-2.55286e-06
-1.3478e-05
-2.95449e-06
-9.93533e-06
-4.20668e-06
-2.62587e-06
-3.30288e-06
8.59552e-06
-1.62702e-07
2.16686e-05
-1.36513e-06
-3.048e-06
-2.48104e-06
-5.91698e-06
-2.56459e-06
-8.83543e-06
-2.23821e-06
-1.14102e-05
-1.84792e-06
-1.18719e-05
-1.54708e-06
-7.71038e-06
-1.62949e-06
2.15671e-06
-2.54663e-06
1.5092e-05
-2.87552e-06
2.83744e-05
-1.90117e-06
1.50998e-05
6.66487e-07
-9.94745e-06
7.95506e-07
-1.7453e-05
4.09046e-07
-2.26522e-05
1.30102e-05
-1.34605e-06
2.52524e-05
1.04093e-07
-5.03792e-06
2.40869e-06
-2.16918e-05
3.96925e-06
-1.95766e-05
5.11333e-06
-1.51252e-05
5.9502e-06
-1.09553e-05
6.57141e-06
-7.50074e-06
6.99401e-06
-4.73887e-06
7.2135e-06
-2.62319e-06
7.25577e-06
-1.11628e-06
7.17031e-06
-1.52403e-07
7.00251e-06
3.93842e-07
6.78935e-06
6.59479e-07
6.54647e-06
7.91365e-07
6.28197e-06
9.29173e-07
5.99739e-06
1.18191e-06
5.66292e-06
1.56669e-06
5.22661e-06
2.28738e-06
5.29913e-06
2.17682e-05
2.87799e-06
3.97173e-05
-1.82998e-06
1.66882e-05
-2.58752e-06
-1.27204e-05
-3.19126e-06
-9.33159e-06
-4.35516e-06
-1.46196e-06
-3.7179e-06
7.95826e-06
-3.61411e-07
1.83121e-05
-2.04413e-06
-1.36528e-06
-3.19672e-06
-4.7644e-06
-3.68221e-06
-8.34994e-06
-3.83763e-06
-1.12548e-05
-3.85974e-06
-1.18498e-05
-3.76886e-06
-7.80126e-06
-3.64108e-06
2.02894e-06
-3.92312e-06
1.5374e-05
-3.39711e-06
2.78484e-05
-9.24435e-07
1.26271e-05
1.55898e-06
-1.24309e-05
1.22759e-06
-1.71216e-05
2.1029e-07
-2.16349e-05
1.32205e-05
-1.13502e-06
2.63874e-05
3.53702e-07
-6.52664e-06
2.41836e-06
-2.37565e-05
3.82908e-06
-2.09873e-05
4.77628e-06
-1.60724e-05
5.49001e-06
-1.1669e-05
6.06097e-06
-8.07171e-06
6.48458e-06
-5.16247e-06
6.72821e-06
-2.86682e-06
6.7978e-06
-1.18587e-06
6.73366e-06
-8.82679e-08
6.58012e-06
5.47382e-07
6.3759e-06
8.63701e-07
6.13868e-06
1.02859e-06
5.87595e-06
1.1919e-06
5.58805e-06
1.46981e-06
5.25709e-06
1.89765e-06
4.87501e-06
2.66946e-06
5.09815e-06
2.1545e-05
3.09725e-06
4.17182e-05
-1.44801e-06
2.12335e-05
-2.53477e-06
-1.16337e-05
-3.21019e-06
-8.65617e-06
-4.27912e-06
-3.93026e-07
-3.93716e-06
7.6163e-06
-8.50621e-07
1.52256e-05
-2.75773e-06
5.41829e-07
-4.01455e-06
-3.50758e-06
-4.86405e-06
-7.50043e-06
-5.4542e-06
-1.06647e-05
-5.82946e-06
-1.14746e-05
-5.874e-06
-7.75672e-06
-5.48572e-06
1.64065e-06
-5.08906e-06
1.49773e-05
-4.17709e-06
2.69364e-05
-3.08374e-07
8.75838e-06
2.01983e-06
-1.47591e-05
1.4535e-06
-1.65552e-05
8.29891e-08
-2.02644e-05
1.33035e-05
-9.44645e-07
2.7332e-05
5.21957e-07
-7.99325e-06
2.3043e-06
-2.55388e-05
3.54386e-06
-2.22269e-05
4.27782e-06
-1.68064e-05
4.85584e-06
-1.2247e-05
5.38281e-06
-8.59868e-06
5.82553e-06
-5.60519e-06
6.11359e-06
-3.15488e-06
6.23004e-06
-1.30232e-06
6.2059e-06
-6.41321e-08
6.08504e-06
6.6824e-07
5.90743e-06
1.04131e-06
5.69162e-06
1.2444e-06
5.44458e-06
1.43894e-06
5.16696e-06
1.74743e-06
4.84966e-06
2.21495e-06
4.51998e-06
2.99914e-06
4.86927e-06
2.11958e-05
3.22678e-06
4.33607e-05
-1.0953e-06
2.55556e-05
-2.41015e-06
-1.03188e-05
-3.0827e-06
-7.98362e-06
-4.06541e-06
5.89678e-07
-4.0113e-06
7.56219e-06
-1.62826e-06
1.28425e-05
-3.42581e-06
2.33938e-06
-4.82845e-06
-2.10494e-06
-5.98113e-06
-6.34775e-06
-6.93308e-06
-9.71272e-06
-7.59097e-06
-1.08167e-05
-7.69777e-06
-7.64993e-06
-7.0339e-06
9.76789e-07
-5.83528e-06
1.37787e-05
-4.61602e-06
2.57172e-05
5.15074e-07
3.62729e-06
2.11644e-06
-1.63604e-05
1.47369e-06
-1.59125e-05
2.69689e-08
-1.88177e-05
1.33304e-05
-8.03311e-07
2.81353e-05
5.55441e-07
-9.352e-06
2.08437e-06
-2.70677e-05
3.12183e-06
-2.32644e-05
3.62251e-06
-1.7307e-05
4.05469e-06
-1.26792e-05
4.54385e-06
-9.08784e-06
5.02378e-06
-6.08512e-06
5.37618e-06
-3.50729e-06
5.55788e-06
-1.48402e-06
5.59097e-06
-9.72237e-08
5.52039e-06
7.38826e-07
5.38647e-06
1.17523e-06
5.20776e-06
1.42311e-06
4.99031e-06
1.65639e-06
4.73502e-06
2.00272e-06
4.43664e-06
2.51333e-06
4.15022e-06
3.28556e-06
4.62193e-06
2.0724e-05
3.29091e-06
4.46917e-05
-7.41338e-07
2.95878e-05
-2.21461e-06
-8.84555e-06
-2.86997e-06
-7.32827e-06
-3.78374e-06
1.50345e-06
-3.97252e-06
7.75097e-06
-2.47999e-06
1.135e-05
-4.03711e-06
3.8965e-06
-5.53638e-06
-6.05672e-07
-6.91299e-06
-4.97114e-06
-8.14683e-06
-8.47888e-06
-9.04155e-06
-9.92196e-06
-9.22043e-06
-7.47104e-06
-8.27927e-06
3.56318e-08
-6.11752e-06
1.1617e-05
-3.30945e-06
2.29091e-05
2.59443e-06
-2.27659e-06
2.10258e-06
-1.58686e-05
1.2744e-06
-1.50843e-05
2.29716e-08
-1.75662e-05
1.33534e-05
-7.11854e-07
2.88472e-05
4.56922e-07
-1.05208e-05
1.76612e-06
-2.83769e-05
2.57951e-06
-2.40778e-05
2.82734e-06
-1.75549e-05
3.10764e-06
-1.29595e-05
3.56536e-06
-9.54555e-06
4.09799e-06
-6.61775e-06
4.53173e-06
-3.94102e-06
4.79371e-06
-1.74599e-06
4.89869e-06
-2.02212e-07
4.89395e-06
7.43569e-07
4.81915e-06
1.25003e-06
4.69214e-06
1.55013e-06
4.51732e-06
1.8312e-06
4.29501e-06
2.22503e-06
4.01792e-06
2.79043e-06
3.75955e-06
3.54393e-06
4.35846e-06
2.01251e-05
3.28941e-06
4.57607e-05
-3.64806e-07
3.3242e-05
-1.94144e-06
-7.26892e-06
-2.59338e-06
-6.67633e-06
-3.47459e-06
2.38466e-06
-3.85498e-06
8.13136e-06
-3.14968e-06
1.06447e-05
-4.5149e-06
5.26173e-06
-6.04441e-06
9.23832e-07
-7.56333e-06
-3.45222e-06
-8.9881e-06
-7.05411e-06
-1.00839e-05
-8.82614e-06
-1.0386e-05
-7.16893e-06
-9.31859e-06
-1.03181e-06
-6.50183e-06
8.8002e-06
-1.98187e-06
1.83892e-05
3.09675e-06
-7.35521e-06
1.81301e-06
-1.45848e-05
9.16724e-07
-1.4188e-05
7.17783e-08
-1.67213e-05
1.34252e-05
-6.56251e-07
2.95035e-05
2.77012e-07
-1.1454e-05
1.36733e-06
-2.94673e-05
1.94348e-06
-2.46539e-05
1.92562e-06
-1.7537e-05
2.0562e-06
-1.30901e-05
2.48878e-06
-9.97813e-06
3.08183e-06
-7.2108e-06
3.6067e-06
-4.46589e-06
3.95724e-06
-2.09653e-06
4.14467e-06
-3.8964e-07
4.21792e-06
6.70314e-07
4.21505e-06
1.25289e-06
4.1523e-06
1.61288e-06
4.03159e-06
1.95191e-06
3.85174e-06
2.40488e-06
3.59747e-06
3.0447e-06
3.34855e-06
3.79285e-06
4.07688e-06
1.93968e-05
3.20308e-06
4.66345e-05
-1.67425e-08
3.64619e-05
-1.57085e-06
-5.71481e-06
-2.27671e-06
-5.97047e-06
-3.15587e-06
3.26382e-06
-3.68726e-06
8.66276e-06
-3.56314e-06
1.05206e-05
-4.80378e-06
6.50237e-06
-6.30438e-06
2.42443e-06
-7.88183e-06
-1.87477e-06
-9.38114e-06
-5.5548e-06
-1.05942e-05
-7.6131e-06
-1.10376e-05
-6.72554e-06
-1.00415e-05
-2.02786e-06
-6.97076e-06
5.72943e-06
-1.65356e-06
1.30719e-05
1.35971e-06
-1.03685e-05
1.07891e-06
-1.4304e-05
6.23632e-07
-1.37327e-05
1.64785e-07
-1.62624e-05
1.359e-05
-6.2089e-07
3.01243e-05
8.6258e-08
-1.21612e-05
9.18393e-07
-3.02994e-05
1.25002e-06
-2.49855e-05
9.69358e-07
-1.72563e-05
9.68686e-07
-1.30894e-05
1.38037e-06
-1.03898e-05
2.02502e-06
-7.85545e-06
2.63788e-06
-5.07875e-06
3.0753e-06
-2.53396e-06
3.34717e-06
-6.61508e-07
3.50677e-06
5.10717e-07
3.58553e-06
1.17413e-06
3.59733e-06
1.60108e-06
3.54041e-06
2.00883e-06
3.4118e-06
2.5335e-06
3.18313e-06
3.27336e-06
2.92707e-06
4.04891e-06
3.77769e-06
1.85462e-05
3.03472e-06
4.73775e-05
1.46117e-07
3.93505e-05
-1.14424e-06
-4.42446e-06
-1.955e-06
-5.1597e-06
-2.83757e-06
4.14638e-06
-3.48413e-06
9.30932e-06
-3.75119e-06
1.07876e-05
-4.9147e-06
7.66588e-06
-6.34922e-06
3.85894e-06
-7.89402e-06
-3.29968e-07
-9.35022e-06
-4.0986e-06
-1.05494e-05
-6.41394e-06
-1.1052e-05
-6.22297e-06
-1.02045e-05
-2.87535e-06
-7.1741e-06
2.69908e-06
-1.52451e-06
7.42236e-06
1.00416e-07
-1.19934e-05
4.84876e-07
-1.46885e-05
4.91598e-07
-1.37395e-05
2.68517e-07
-1.60394e-05
1.38585e-05
-5.91201e-07
3.07155e-05
-9.46604e-08
-1.26577e-05
4.53094e-07
-3.08472e-05
5.41744e-07
-2.50742e-05
3.88027e-08
-1.67534e-05
-5.60207e-08
-1.29946e-05
3.27281e-07
-1.07731e-05
9.8662e-07
-8.51479e-06
1.66712e-06
-5.75925e-06
2.18066e-06
-3.04749e-06
2.53228e-06
-1.01314e-06
2.78001e-06
2.6299e-07
2.94502e-06
1.00912e-06
3.03809e-06
1.50801e-06
3.05213e-06
1.99479e-06
2.98315e-06
2.60248e-06
2.78566e-06
3.47085e-06
2.51479e-06
4.31979e-06
3.46786e-06
1.75931e-05
2.81205e-06
4.80333e-05
2.04197e-07
4.19583e-05
-7.74636e-07
-3.44563e-06
-1.64648e-06
-4.28785e-06
-2.52633e-06
5.02622e-06
-3.25255e-06
1.00355e-05
-3.76747e-06
1.13025e-05
-4.87598e-06
8.77439e-06
-6.22294e-06
5.20591e-06
-7.67118e-06
1.11827e-06
-9.01879e-06
-2.75098e-06
-1.00974e-05
-5.33537e-06
-1.05558e-05
-5.76457e-06
-9.81537e-06
-3.61574e-06
-7.15297e-06
3.66779e-08
-1.73832e-06
2.0077e-06
-9.09326e-07
-1.28224e-05
4.0333e-08
-1.56382e-05
4.40815e-07
-1.414e-05
3.53494e-07
-1.5952e-05
1.4212e-05
-5.47566e-07
3.12631e-05
-2.90681e-07
-1.29146e-05
-6.30037e-09
-3.11315e-05
-1.32094e-07
-2.49484e-05
-7.69602e-07
-1.61159e-05
-9.10225e-07
-1.2854e-05
-5.84707e-07
-1.10986e-05
1.81839e-08
-9.11768e-06
7.286e-07
-6.46967e-06
1.30585e-06
-3.62474e-06
1.72744e-06
-1.43472e-06
2.05926e-06
-6.88364e-08
2.30907e-06
7.59312e-07
2.48619e-06
1.33089e-06
2.57549e-06
1.90549e-06
2.57452e-06
2.60345e-06
2.41673e-06
3.62864e-06
2.13579e-06
4.60073e-06
3.15662e-06
1.65723e-05
2.54746e-06
4.86425e-05
1.74938e-07
4.43309e-05
-5.09615e-07
-2.76107e-06
-1.36637e-06
-3.4311e-06
-2.2284e-06
5.88826e-06
-2.9974e-06
1.08045e-05
-3.6586e-06
1.19637e-05
-4.72176e-06
9.83754e-06
-5.98255e-06
6.4667e-06
-7.30378e-06
2.4395e-06
-8.50726e-06
-1.5475e-06
-9.41529e-06
-4.42734e-06
-9.76742e-06
-5.41244e-06
-9.09978e-06
-4.28339e-06
-6.84862e-06
-2.21448e-06
-2.32275e-06
-2.51818e-06
-1.53495e-06
-1.36102e-05
-2.12145e-07
-1.6961e-05
4.243e-07
-1.47764e-05
4.11228e-07
-1.5939e-05
1.46232e-05
-4.66495e-07
3.17296e-05
-4.04262e-07
-1.29768e-05
-3.71903e-07
-3.11639e-05
-6.95208e-07
-2.46251e-05
-1.38412e-06
-1.5427e-05
-1.54268e-06
-1.26954e-05
-1.29523e-06
-1.13461e-05
-8.12614e-07
-9.60029e-06
-1.62662e-07
-7.11962e-06
4.70032e-07
-4.25743e-06
9.55079e-07
-1.91977e-06
1.36054e-06
-4.74295e-07
1.69215e-06
4.27694e-07
1.95284e-06
1.07021e-06
2.11894e-06
1.73939e-06
2.19485e-06
2.52753e-06
2.08672e-06
3.73678e-06
1.81137e-06
4.87607e-06
2.85038e-06
1.55333e-05
2.24599e-06
4.92469e-05
1.07943e-07
4.64689e-05
-3.42198e-07
-2.31093e-06
-1.13269e-06
-2.6406e-06
-1.94991e-06
6.70547e-06
-2.72378e-06
1.15784e-05
-3.458e-06
1.2698e-05
-4.4736e-06
1.08531e-05
-5.64476e-06
7.63786e-06
-6.83678e-06
3.63152e-06
-7.88269e-06
-5.01594e-07
-8.60879e-06
-3.70124e-06
-8.83767e-06
-5.18355e-06
-8.19883e-06
-4.92223e-06
-6.23848e-06
-4.17483e-06
-2.83938e-06
-5.91727e-06
-1.86428e-06
-1.45853e-05
-3.62916e-07
-1.84623e-05
4.42681e-07
-1.5582e-05
4.44732e-07
-1.5941e-05
1.50679e-05
-3.33808e-07
3.20634e-05
-4.19651e-07
-1.2891e-05
-6.11803e-07
-3.09717e-05
-1.06862e-06
-2.41683e-05
-1.76058e-06
-1.4735e-05
-1.95909e-06
-1.24969e-05
-1.80696e-06
-1.14982e-05
-1.44995e-06
-9.9573e-06
-9.36801e-07
-7.63277e-06
-3.21502e-07
-4.87273e-06
2.34407e-07
-2.47568e-06
7.02899e-07
-9.42787e-07
1.10808e-06
2.25144e-08
1.4484e-06
7.2989e-07
1.69042e-06
1.49737e-06
1.85298e-06
2.36497e-06
1.80317e-06
3.78659e-06
1.55609e-06
5.12316e-06
2.55228e-06
1.45371e-05
1.90929e-06
4.98899e-05
1.5315e-08
4.83629e-05
-2.49144e-07
-2.04647e-06
-9.60845e-07
-1.9289e-06
-1.69592e-06
7.44055e-06
-2.43752e-06
1.232e-05
-3.19017e-06
1.34506e-05
-4.14923e-06
1.18122e-05
-5.22456e-06
8.71319e-06
-6.28283e-06
4.6898e-06
-7.17284e-06
3.88413e-07
-7.72975e-06
-3.14433e-06
-7.83795e-06
-5.07535e-06
-7.22206e-06
-5.53812e-06
-5.56602e-06
-5.83087e-06
-3.06683e-06
-8.41646e-06
-1.99277e-06
-1.56594e-05
-4.27255e-07
-2.00278e-05
4.86473e-07
-1.64957e-05
4.60813e-07
-1.59154e-05
1.55287e-05
-1.57738e-07
3.22212e-05
-3.01621e-07
-1.27471e-05
-7.12395e-07
-3.0561e-05
-1.22626e-06
-2.36544e-05
-1.90904e-06
-1.40522e-05
-2.17382e-06
-1.22321e-05
-2.1368e-06
-1.15352e-05
-1.91413e-06
-1.018e-05
-1.536e-06
-8.0109e-06
-1.02e-06
-5.38874e-06
-4.55838e-07
-3.03984e-06
8.82169e-08
-1.48684e-06
5.65894e-07
-4.55163e-07
9.80633e-07
3.15152e-07
1.29811e-06
1.17989e-06
1.55715e-06
2.10593e-06
1.57002e-06
3.77371e-06
1.37792e-06
5.31526e-06
2.26165e-06
1.36534e-05
1.53599e-06
5.06155e-05
-8.26342e-08
4.99815e-05
-2.13299e-07
-1.91581e-06
-8.60438e-07
-1.28176e-06
-1.47003e-06
8.05014e-06
-2.14476e-06
1.29947e-05
-2.87389e-06
1.41797e-05
-3.76596e-06
1.27043e-05
-4.74355e-06
9.69078e-06
-5.67489e-06
5.62114e-06
-6.4168e-06
1.13033e-06
-6.82386e-06
-2.73728e-06
-6.8191e-06
-5.08011e-06
-6.2285e-06
-6.12872e-06
-4.86481e-06
-7.19457e-06
-3.01626e-06
-1.0265e-05
-1.96518e-06
-1.67105e-05
-4.25313e-07
-2.15677e-05
5.38265e-07
-1.74593e-05
4.67152e-07
-1.58442e-05
1.59959e-05
1.04874e-07
3.21163e-05
-4.35051e-08
-1.25987e-05
-6.5526e-07
-2.99492e-05
-1.18296e-06
-2.31267e-05
-1.85933e-06
-1.33759e-05
-2.20731e-06
-1.18842e-05
-2.29457e-06
-1.1448e-05
-2.20797e-06
-1.02666e-05
-1.9601e-06
-8.25876e-06
-1.54161e-06
-5.80723e-06
-1.01696e-06
-3.56449e-06
-4.89032e-07
-2.01477e-06
4.18748e-08
-9.8607e-07
5.41465e-07
-1.84438e-07
9.52322e-07
7.69036e-07
1.31626e-06
1.74199e-06
1.38659e-06
3.70339e-06
1.28466e-06
5.41719e-06
1.97306e-06
1.2965e-05
1.12557e-06
5.1463e-05
-1.8176e-07
5.12888e-05
-2.03501e-07
-1.89407e-06
-8.32553e-07
-6.52712e-07
-1.27422e-06
8.49181e-06
-1.85158e-06
1.35721e-05
-2.52434e-06
1.48525e-05
-3.34215e-06
1.35221e-05
-4.2324e-06
1.0581e-05
-5.06715e-06
6.45588e-06
-5.67596e-06
1.73914e-06
-5.93912e-06
-2.47412e-06
-5.83571e-06
-5.18351e-06
-5.26878e-06
-6.69566e-06
-4.15085e-06
-8.3125e-06
-2.76145e-06
-1.16544e-05
-1.81193e-06
-1.766e-05
-3.74835e-07
-2.30048e-05
6.01307e-07
-1.84354e-05
4.71826e-07
-1.57148e-05
1.64677e-05
4.89625e-07
3.16267e-05
2.65671e-07
-1.23748e-05
-4.54116e-07
-2.92294e-05
-9.78269e-07
-2.26025e-05
-1.64568e-06
-1.27085e-05
-2.08215e-06
-1.14477e-05
-2.29206e-06
-1.12381e-05
-2.33377e-06
-1.02249e-05
-2.20751e-06
-8.38502e-06
-1.89191e-06
-6.12284e-06
-1.43261e-06
-4.02379e-06
-9.34256e-07
-2.51312e-06
-4.17713e-07
-1.50261e-06
1.16305e-07
-7.18457e-07
6.55296e-07
2.30046e-07
1.14009e-06
1.25719e-06
1.2486e-06
3.59489e-06
1.26531e-06
5.40047e-06
1.67312e-06
1.25571e-05
6.84652e-07
5.24515e-05
-2.84327e-07
5.22578e-05
-2.53901e-07
-1.92449e-06
-8.49988e-07
-5.66244e-08
-1.10865e-06
8.75047e-06
-1.56356e-06
1.4027e-05
-2.15247e-06
1.54414e-05
-2.88863e-06
1.42582e-05
-3.69875e-06
1.13911e-05
-4.4576e-06
7.21473e-06
-4.96688e-06
2.24843e-06
-5.11529e-06
-2.32571e-06
-4.93764e-06
-5.36116e-06
-4.38982e-06
-7.24349e-06
-3.45669e-06
-9.24563e-06
-2.38061e-06
-1.27305e-05
-1.56235e-06
-1.84782e-05
-2.87043e-07
-2.42801e-05
6.78338e-07
-1.94008e-05
4.81443e-07
-1.55179e-05
1.69492e-05
8.73815e-07
3.07528e-05
6.4348e-07
-1.21445e-05
-1.37282e-07
-2.84487e-05
-6.59709e-07
-2.20801e-05
-1.30372e-06
-1.20645e-05
-1.82162e-06
-1.09298e-05
-2.14423e-06
-1.09155e-05
-2.30031e-06
-1.00688e-05
-2.28442e-06
-8.40091e-06
-2.07213e-06
-6.33513e-06
-1.69682e-06
-4.39909e-06
-1.2502e-06
-2.95974e-06
-7.60681e-07
-1.99213e-06
-2.17383e-07
-1.26175e-06
4.21867e-07
-4.09205e-07
1.03048e-06
6.48575e-07
1.16122e-06
3.46414e-06
1.29802e-06
5.26368e-06
1.33234e-06
1.25228e-05
2.36992e-07
5.35468e-05
-3.73242e-07
5.2868e-05
-3.45071e-07
-1.95266e-06
-8.77995e-07
4.76299e-07
-9.7603e-07
8.8485e-06
-1.28601e-06
1.4337e-05
-1.76596e-06
1.59214e-05
-2.41132e-06
1.49036e-05
-3.14475e-06
1.21246e-05
-3.84992e-06
7.9199e-06
-4.29713e-06
2.69563e-06
-4.373e-06
-2.24983e-06
-4.15533e-06
-5.57884e-06
-3.62568e-06
-7.77313e-06
-2.81926e-06
-1.0052e-05
-1.94141e-06
-1.36083e-05
-1.2454e-06
-1.91743e-05
-1.65096e-07
-2.53604e-05
7.72376e-07
-2.03383e-05
4.99883e-07
-1.52454e-05
1.74491e-05
1.25065e-06
2.95022e-05
1.11289e-06
-1.20067e-05
2.78961e-07
-2.76147e-05
-2.8331e-07
-2.15178e-05
-8.67355e-07
-1.14804e-05
-1.44876e-06
-1.03484e-05
-1.86872e-06
-1.04955e-05
-2.12131e-06
-9.81619e-06
-2.20074e-06
-8.32148e-06
-2.08438e-06
-6.4515e-06
-1.79731e-06
-4.68616e-06
-1.41267e-06
-3.34438e-06
-9.63115e-07
-2.44168e-06
-4.26824e-07
-1.79805e-06
2.84585e-07
-1.12061e-06
9.72139e-07
-3.89789e-08
1.12949e-06
3.3068e-06
1.3666e-06
5.02657e-06
8.77798e-07
1.30116e-05
-3.19521e-07
5.47441e-05
-5.21445e-07
5.307e-05
-5.58554e-07
-1.91556e-06
-9.45442e-07
8.63188e-07
-8.8529e-07
8.78835e-06
-1.02489e-06
1.44766e-05
-1.37047e-06
1.62669e-05
-1.91256e-06
1.54457e-05
-2.56574e-06
1.27778e-05
-3.23446e-06
8.58862e-06
-3.65174e-06
3.11291e-06
-3.70352e-06
-2.19805e-06
-3.48624e-06
-5.79612e-06
-2.98399e-06
-8.27538e-06
-2.26203e-06
-1.0774e-05
-1.49575e-06
-1.43746e-05
-8.89188e-07
-1.97808e-05
5.71164e-09
-2.62553e-05
8.82815e-07
-2.12154e-05
5.27396e-07
-1.489e-05
1.79764e-05
1.61805e-06
2.78841e-05
1.62608e-06
-1.20147e-05
7.46403e-07
-2.67351e-05
7.7447e-08
-2.08489e-05
-3.69225e-07
-1.10337e-05
-9.87237e-07
-9.73037e-06
-1.48496e-06
-9.99779e-06
-1.81299e-06
-9.48816e-06
-1.96703e-06
-8.16744e-06
-1.92931e-06
-6.48921e-06
-1.71884e-06
-4.89663e-06
-1.39204e-06
-3.67118e-06
-9.80395e-07
-2.85333e-06
-4.55325e-07
-2.32312e-06
2.65046e-07
-1.84098e-06
9.53437e-07
-7.2737e-07
1.15927e-06
3.10096e-06
1.46032e-06
4.72552e-06
2.84836e-07
1.41871e-05
-9.2145e-07
5.59504e-05
-6.81016e-07
5.28295e-05
-7.82786e-07
-1.81379e-06
-1.06321e-06
1.14362e-06
-8.45658e-07
8.57079e-06
-7.87423e-07
1.44184e-05
-9.71102e-07
1.64506e-05
-1.39264e-06
1.58672e-05
-1.95164e-06
1.33368e-05
-2.5892e-06
9.22618e-06
-2.99486e-06
3.51857e-06
-3.06917e-06
-2.12373e-06
-2.89313e-06
-5.97217e-06
-2.43929e-06
-8.72922e-06
-1.78278e-06
-1.14305e-05
-1.07368e-06
-1.50837e-05
-5.22838e-07
-2.03317e-05
1.52778e-07
-2.69309e-05
9.9951e-07
-2.20621e-05
5.61043e-07
-1.44515e-05
1.85375e-05
1.97259e-06
2.59116e-05
2.14297e-06
-1.21851e-05
1.23618e-06
-2.58283e-05
5.2108e-07
-2.01338e-05
1.12651e-07
-1.06253e-05
-4.64267e-07
-9.15345e-06
-1.01423e-06
-9.44783e-06
-1.39477e-06
-9.10762e-06
-1.59727e-06
-7.96494e-06
-1.61102e-06
-6.47546e-06
-1.45146e-06
-5.0562e-06
-1.16277e-06
-3.95986e-06
-7.75051e-07
-3.24105e-06
-2.69987e-07
-2.82818e-06
3.74983e-07
-2.48595e-06
9.6582e-07
-1.31821e-06
1.21378e-06
2.853e-06
1.47587e-06
4.46343e-06
-4.53995e-07
1.6117e-05
-1.50551e-06
5.70019e-05
-8.38863e-07
5.21629e-05
-1.01444e-06
-1.63821e-06
-1.22933e-06
1.35851e-06
-8.6474e-07
8.20621e-06
-5.82398e-07
1.4136e-05
-5.74299e-07
1.64425e-05
-8.5215e-07
1.61451e-05
-1.29182e-06
1.37764e-05
-1.88329e-06
9.81765e-06
-2.2776e-06
3.91289e-06
-2.4145e-06
-1.98684e-06
-2.3165e-06
-6.07017e-06
-1.93998e-06
-9.10574e-06
-1.35244e-06
-1.2018e-05
-6.81443e-07
-1.57547e-05
-1.6876e-07
-2.08443e-05
3.22722e-07
-2.74224e-05
1.11774e-06
-2.28571e-05
5.95125e-07
-1.39289e-05
1.91326e-05
2.30902e-06
2.36025e-05
2.62855e-06
-1.25046e-05
1.69356e-06
-2.48933e-05
8.99612e-07
-1.93398e-05
6.18424e-07
-1.03441e-05
9.77662e-08
-8.63279e-06
-4.80467e-07
-8.8696e-06
-8.9162e-07
-8.69647e-06
-1.11447e-06
-7.74209e-06
-1.14665e-06
-6.44328e-06
-1.00423e-06
-5.19862e-06
-7.25691e-07
-4.2384e-06
-3.45399e-07
-3.62134e-06
1.10175e-07
-3.28375e-06
5.99282e-07
-2.97506e-06
9.86856e-07
-1.70578e-06
1.21156e-06
2.6283e-06
1.2341e-06
4.44089e-06
-1.30505e-06
1.86561e-05
-2.08658e-06
5.77835e-05
-1.0003e-06
5.10766e-05
-1.28541e-06
-1.3531e-06
-1.44925e-06
1.52235e-06
-9.50894e-07
7.70785e-06
-4.21137e-07
1.36063e-05
-1.91582e-07
1.6213e-05
-2.95022e-07
1.62485e-05
-5.85762e-07
1.40672e-05
-1.0772e-06
1.03091e-05
-1.44572e-06
4.2814e-06
-1.68101e-06
-1.75155e-06
-1.69226e-06
-6.05891e-06
-1.42475e-06
-9.37326e-06
-9.24865e-07
-1.25179e-05
-3.02154e-07
-1.63774e-05
1.67053e-07
-2.13136e-05
5.05986e-07
-2.77613e-05
1.22126e-06
-2.35724e-05
6.18133e-07
-1.33258e-05
1.97507e-05
2.61967e-06
2.09829e-05
3.05141e-06
-1.29364e-05
2.07167e-06
-2.39135e-05
1.19678e-06
-1.8465e-05
1.03593e-06
-1.01833e-05
6.46751e-07
-8.24361e-06
8.83588e-08
-8.3112e-06
-3.35331e-07
-8.27278e-06
-5.54522e-07
-7.5229e-06
-5.75063e-07
-6.42274e-06
-4.19839e-07
-5.35385e-06
-1.31197e-07
-4.52704e-06
2.43753e-07
-3.99629e-06
6.08075e-07
-3.64808e-06
8.42131e-07
-3.20912e-06
9.509e-07
-1.81455e-06
1.0935e-06
2.4857e-06
6.14082e-07
4.9203e-06
-2.16179e-06
2.1432e-05
-2.64917e-06
5.82709e-05
-1.17215e-06
4.95996e-05
-1.61235e-06
-9.129e-07
-1.73254e-06
1.64254e-06
-1.11375e-06
7.08906e-06
-3.16985e-07
1.28095e-05
1.63781e-07
1.57322e-05
2.67165e-07
1.61451e-05
1.43125e-07
1.41912e-05
-1.38835e-07
1.0591e-05
-4.4314e-07
4.58571e-06
-8.1246e-07
-1.38223e-06
-9.64567e-07
-5.90681e-06
-8.3837e-07
-9.49946e-06
-4.51874e-07
-1.29044e-05
9.16554e-08
-1.69209e-05
4.96184e-07
-2.17181e-05
6.9276e-07
-2.79579e-05
1.28745e-06
-2.41671e-05
6.10458e-07
-1.26488e-05
2.03612e-05
2.89372e-06
1.80891e-05
3.38082e-06
-1.34235e-05
2.32558e-06
-2.28583e-05
1.37868e-06
-1.7518e-05
1.33589e-06
-1.01405e-05
1.12165e-06
-8.02937e-06
6.4934e-07
-7.83889e-06
2.35571e-07
-7.85901e-06
3.3983e-08
-7.32131e-06
4.28068e-08
-6.43156e-06
2.24369e-07
-5.53541e-06
5.21854e-07
-4.82453e-06
8.42304e-07
-4.31674e-06
1.03562e-06
-3.84139e-06
9.74303e-07
-3.1478e-06
7.81405e-07
-1.62165e-06
7.93859e-07
2.47325e-06
-2.26458e-07
5.94062e-06
-2.96447e-06
2.417e-05
-3.16467e-06
5.8471e-05
-1.36516e-06
4.78001e-05
-1.99936e-06
-2.78697e-07
-2.08997e-06
1.73314e-06
-1.36437e-06
6.36346e-06
-2.84379e-07
1.17295e-05
4.98215e-07
1.49496e-05
8.13081e-07
1.58303e-05
9.53399e-07
1.40509e-05
9.24695e-07
1.06197e-05
6.76779e-07
4.83363e-06
2.36284e-07
-9.41735e-07
-8.51172e-08
-5.5854e-06
-1.34329e-07
-9.45024e-06
1.06514e-07
-1.31453e-05
5.18001e-07
-1.73324e-05
8.20886e-07
-2.2021e-05
8.73081e-07
-2.80101e-05
1.29144e-06
-2.45855e-05
5.41737e-07
-1.18991e-05
2.09029e-05
3.11631e-06
1.49728e-05
3.58502e-06
-1.38922e-05
2.41234e-06
-2.16856e-05
1.40874e-06
-1.65144e-05
1.48417e-06
-1.02159e-05
1.47101e-06
-8.01621e-06
1.13657e-06
-7.50446e-06
7.70013e-07
-7.49245e-06
5.92714e-07
-7.14401e-06
6.30781e-07
-6.46963e-06
8.30991e-07
-5.73562e-06
1.09811e-06
-5.09164e-06
1.29381e-06
-4.51244e-06
1.26255e-06
-3.81013e-06
9.38141e-07
-2.82339e-06
4.61007e-07
-1.14452e-06
2.77838e-07
2.65642e-06
-1.0499e-06
7.26836e-06
-3.67039e-06
2.67905e-05
-3.60526e-06
5.84059e-05
-1.59167e-06
4.57865e-05
-2.44941e-06
5.79041e-07
-2.53252e-06
1.81625e-06
-1.71677e-06
5.54771e-06
-3.47706e-07
1.03604e-05
7.85226e-07
1.38167e-05
1.32617e-06
1.52893e-05
1.72483e-06
1.36522e-05
1.96257e-06
1.0382e-05
1.80567e-06
4.99052e-06
1.32717e-06
-4.63238e-07
8.99047e-07
-5.15728e-06
6.83876e-07
-9.23507e-06
7.63316e-07
-1.32247e-05
1.00874e-06
-1.75779e-05
1.16887e-06
-2.21811e-05
1.03641e-06
-2.78776e-05
1.21075e-06
-2.47598e-05
3.78906e-07
-1.10672e-05
2.12818e-05
3.26767e-06
1.17052e-05
3.63062e-06
-1.42551e-05
2.29164e-06
-2.03466e-05
1.25327e-06
-1.54761e-05
1.43358e-06
-1.03963e-05
1.62021e-06
-8.20284e-06
1.46663e-06
-7.35088e-06
1.18518e-06
-7.211e-06
1.03758e-06
-6.99641e-06
1.08285e-06
-6.5149e-06
1.25657e-06
-5.90934e-06
1.43261e-06
-5.26768e-06
1.45612e-06
-4.53595e-06
1.20125e-06
-3.55526e-06
6.75098e-07
-2.29724e-06
-6.648e-08
-4.0294e-07
-4.91519e-07
3.08146e-06
-2.08584e-06
8.86268e-06
-4.2957e-06
2.90004e-05
-3.94825e-06
5.80585e-05
-1.85071e-06
4.36889e-05
-2.95314e-06
1.68148e-06
-3.06497e-06
1.92808e-06
-2.18722e-06
4.66996e-06
-5.41353e-07
8.71458e-06
1.00515e-06
1.22702e-05
1.79274e-06
1.45017e-05