/*--------------------------------*- C++ -*----------------------------------*\
| =========                 |                                                 |
| \\      /  F ield         | OpenFOAM: The Open Source CFD Toolbox           |
|  \\    /   O peration     | Version:  4.1                                   |
|   \\  /    A nd           | Web:      www.OpenFOAM.org                      |
|    \\/     M anipulation  |                                                 |
\*---------------------------------------------------------------------------*/
FoamFile
{
    version     2.0;
    format      ascii;
    class       volScalarField;
    location    "700";
    object      T;
}
// * * * * * * * * * * * * * * * * * * * * * * * * * * * * * * * * * * * * * //

dimensions      [0 0 0 1 0 0 0];

internalField   nonuniform List<scalar> 
5000
(
284.702
284.412
284.229
284.082
283.955
283.841
283.735
283.635
283.538
283.442
283.349
283.278
283.225
283.186
283.16
283.145
283.139
283.142
283.153
283.174
283.206
283.257
283.325
283.388
283.452
283.521
283.594
283.673
283.757
283.844
283.928
284
284.045
284.059
284.068
284.16
284.363
284.661
285.085
284.405
283.88
283.541
283.287
283.08
282.898
282.751
282.63
282.53
282.447
282.366
282.368
282.462
282.595
282.752
282.908
283.071
283.246
283.459
284.484
285.212
285.083
284.984
285.235
285.765
286.176
286.188
285.969
285.796
285.806
285.958
286.002
285.767
285.304
284.737
284.162
283.643
283.314
283.147
283.059
282.998
282.976
283.622
284.002
284.084
283.997
283.905
283.856
283.852
283.889
283.966
284.081
284.233
284.417
284.63
284.87
285.122
285.369
285.612
285.854
286.16
284.064
283.379
282.983
282.726
282.538
282.394
282.285
282.205
282.153
282.128
282.125
282.12
282.115
282.11
282.104
282.098
282.091
282.085
282.079
282.073
282.068
282.064
282.06
282.058
282.056
282.054
282.051
282.049
282.047
282.044
282.042
282.039
282.036
282.035
282.04
282.08
282.394
283.285
284.407
283.97
282.807
282.217
281.959
281.892
281.909
281.937
281.963
281.982
281.988
281.991
282.024
282.01
281.978
281.962
281.998
282.073
282.212
282.973
283.846
283.443
282.401
282
281.974
281.981
281.995
282.008
282.028
282.07
282.16
282.346
282.703
283.05
283.114
282.846
282.416
282.13
282.015
281.984
281.981
281.984
281.987
281.991
281.994
281.996
281.997
281.997
281.998
281.998
282
282.001
282.002
282.003
282.005
282.007
282.01
282.028
282.061
282.132
282.992
284.836
283.746
282.964
282.582
282.383
282.271
282.207
282.173
282.157
282.15
282.147
282.142
282.136
282.129
282.121
282.112
282.103
282.094
282.085
282.076
282.068
282.06
282.054
282.05
282.047
282.044
282.042
282.04
282.038
282.037
282.035
282.033
282.031
282.028
282.026
282.029
282.059
282.236
282.91
284.006
283.859
282.573
282.027
281.92
281.938
281.981
282.028
282.064
282.078
282.068
282.071
282.135
282.131
282.086
282.032
281.994
281.982
282.226
283.068
283.434
282.83
282.136
281.953
281.924
281.921
281.923
281.926
281.931
281.937
281.948
281.968
282.008
282.079
282.111
282.053
281.982
281.97
281.974
281.978
281.981
281.984
281.986
281.987
281.988
281.988
281.989
281.989
281.99
281.991
281.993
281.994
281.994
281.993
281.991
281.987
281.983
281.98
281.978
281.984
282.431
284.305
283.549
282.752
282.418
282.277
282.214
282.188
282.179
282.175
282.172
282.168
282.162
282.154
282.144
282.134
282.122
282.11
282.098
282.086
282.075
282.064
282.054
282.047
282.041
282.036
282.032
282.029
282.027
282.026
282.025
282.025
282.025
282.025
282.025
282.024
282.029
282.058
282.198
282.736
283.709
283.734
282.669
281.987
281.951
282.009
282.075
282.134
282.172
282.168
282.134
282.154
282.262
282.284
282.231
282.142
282.062
282.202
282.554
283.099
283.149
282.563
282.092
281.963
281.931
281.93
281.934
281.937
281.942
281.946
281.95
281.955
281.959
281.963
281.968
281.971
281.975
281.979
281.982
281.985
281.987
281.988
281.989
281.989
281.989
281.989
281.988
281.987
281.987
281.989
281.993
281.996
281.999
282
281.999
281.996
281.99
281.984
281.977
281.972
282.237
284.003
283.415
282.629
282.342
282.241
282.207
282.198
282.196
282.194
282.191
282.186
282.178
282.169
282.158
282.145
282.131
282.117
282.102
282.087
282.073
282.06
282.049
282.04
282.032
282.025
282.02
282.016
282.013
282.011
282.01
282.01
282.011
282.012
282.014
282.016
282.022
282.051
282.174
282.625
283.468
283.611
282.8
282.079
281.997
282.089
282.18
282.249
282.278
282.245
282.192
282.246
282.398
282.464
282.437
282.439
282.428
282.53
282.805
283.098
282.971
282.456
282.101
281.975
281.935
281.938
281.942
281.947
281.951
281.956
281.96
281.964
281.968
281.972
281.975
281.978
281.981
281.983
281.985
281.987
281.988
281.988
281.988
281.988
281.986
281.985
281.983
281.981
281.981
281.983
281.988
281.995
282.001
282.004
282.004
282.001
281.996
281.988
281.979
281.971
282.149
283.806
283.32
282.553
282.303
282.231
282.213
282.211
282.212
282.211
282.207
282.2
282.191
282.181
282.168
282.154
282.138
282.121
282.104
282.087
282.071
282.057
282.044
282.033
282.023
282.014
282.008
282.002
281.998
281.996
281.994
281.994
281.995
281.997
282
282.004
282.011
282.039
282.15
282.535
283.261
283.489
282.924
282.263
282.058
282.174
282.296
282.369
282.381
282.313
282.243
282.331
282.534
282.672
282.74
282.752
282.752
282.822
282.986
283.099
282.891
282.446
282.136
281.981
281.938
281.943
281.948
281.953
281.957
281.961
281.965
281.969
281.972
281.975
281.978
281.98
281.982
281.984
281.985
281.986
281.986
281.986
281.985
281.984
281.982
281.979
281.976
281.973
281.972
281.974
281.981
281.991
282.001
282.006
282.008
282.005
282
281.991
281.981
281.97
282.103
283.668
283.251
282.503
282.283
282.23
282.222
282.225
282.226
282.224
282.219
282.21
282.2
282.189
282.176
282.16
282.142
282.124
282.104
282.086
282.069
282.053
282.038
282.025
282.013
282.004
281.996
281.989
281.984
281.981
281.979
281.979
281.98
281.982
281.985
281.99
281.998
282.024
282.123
282.453
283.076
283.365
283.02
282.475
282.186
282.214
282.395
282.487
282.481
282.376
282.278
282.376
282.617
282.81
282.929
282.976
283
283.046
283.122
283.127
282.893
282.495
282.174
281.969
281.94
281.945
281.951
281.955
281.959
281.963
281.967
281.97
281.973
281.975
281.978
281.98
281.981
281.982
281.983
281.983
281.983
281.982
281.981
281.979
281.976
281.972
281.968
281.964
281.962
281.964
281.972
281.986
282
282.008
282.01
282.008
282.002
281.992
281.981
281.969
282.075
283.566
283.199
282.47
282.272
282.232
282.231
282.236
282.238
282.234
282.227
282.217
282.206
282.194
282.18
282.163
282.144
282.124
282.104
282.084
282.065
282.047
282.031
282.016
282.003
281.992
281.983
281.976
281.97
281.966
281.964
281.963
281.964
281.966
281.97
281.976
281.984
282.008
282.095
282.376
282.909
283.237
283.073
282.67
282.371
282.307
282.42
282.562
282.578
282.443
282.294
282.362
282.604
282.818
282.973
283.079
283.145
283.191
283.222
283.174
282.944
282.571
282.198
281.951
281.941
281.946
281.951
281.955
281.959
281.962
281.965
281.968
281.971
281.973
281.975
281.976
281.977
281.978
281.978
281.978
281.978
281.976
281.975
281.972
281.969
281.964
281.959
281.954
281.951
281.952
281.962
281.978
281.997
282.009
282.012
282.009
282.002
281.992
281.979
281.967
282.056
283.486
283.16
282.447
282.266
282.236
282.239
282.246
282.248
282.243
282.233
282.221
282.209
282.197
282.181
282.164
282.144
282.123
282.101
282.08
282.059
282.04
282.022
282.006
281.992
281.98
281.97
281.962
281.956
281.952
281.949
281.948
281.948
281.951
281.955
281.961
281.97
281.991
282.065
282.303
282.758
283.104
283.083
282.822
282.565
282.454
282.495
282.604
282.669
282.527
282.307
282.306
282.52
282.724
282.888
283.042
283.157
283.231
283.257
283.199
282.984
282.607
282.154
281.941
281.941
281.946
281.95
281.953
281.956
281.959
281.961
281.964
281.966
281.968
281.969
281.97
281.971
281.971
281.971
281.971
281.97
281.969
281.967
281.964
281.96
281.955
281.95
281.944
281.939
281.94
281.95
281.968
281.992
282.008
282.012
282.008
282
281.99
281.977
281.964
282.043
283.422
283.131
282.43
282.262
282.239
282.246
282.255
282.258
282.253
282.241
282.224
282.21
282.196
282.181
282.163
282.142
282.119
282.096
282.073
282.051
282.03
282.011
281.995
281.98
281.968
281.957
281.948
281.942
281.937
281.934
281.933
281.933
281.936
281.94
281.947
281.955
281.973
282.036
282.236
282.623
282.97
283.054
282.919
282.73
282.615
282.609
282.674
282.743
282.645
282.341
282.242
282.401
282.564
282.712
282.872
283.018
283.124
283.17
283.122
282.92
282.522
282.045
281.936
281.939
281.943
281.946
281.949
281.951
281.953
281.956
281.958
281.96
281.961
281.962
281.962
281.962
281.962
281.961
281.961
281.96
281.959
281.957
281.954
281.951
281.946
281.939
281.933
281.927
281.927
281.938
281.956
281.984
282.006
282.01
282.005
281.997
281.986
281.973
281.961
282.032
283.369
283.109
282.419
282.259
282.24
282.251
282.262
282.268
282.264
282.247
282.227
282.21
282.196
282.18
282.16
282.138
282.113
282.088
282.064
282.04
282.019
281.999
281.982
281.967
281.954
281.943
281.934
281.927
281.922
281.919
281.918
281.919
281.921
281.926
281.932
281.94
281.957
282.008
282.173
282.502
282.839
282.994
282.962
282.848
282.755
282.728
282.758
282.796
282.765
282.428
282.199
282.298
282.428
282.508
282.625
282.754
282.864
282.92
282.881
282.687
282.305
281.969
281.934
281.936
281.939
281.941
281.943
281.945
281.947
281.949
281.95
281.951
281.952
281.952
281.951
281.951
281.95
281.949
281.948
281.948
281.947
281.946
281.943
281.94
281.935
281.929
281.922
281.915
281.915
281.926
281.943
281.972
282.003
282.006
282
281.991
281.981
281.969
281.957
282.023
283.324
283.092
282.41
282.256
282.24
282.253
282.266
282.274
282.269
282.247
282.225
282.208
282.194
282.176
282.155
282.131
282.105
282.078
282.052
282.028
282.005
281.985
281.968
281.952
281.939
281.928
281.92
281.913
281.908
281.905
281.904
281.904
281.907
281.911
281.917
281.926
281.941
281.983
282.117
282.396
282.713
282.913
282.96
282.916
282.857
282.829
282.836
282.847
282.8
282.596
282.194
282.21
282.342
282.341
282.386
282.456
282.527
282.564
282.521
282.357
282.089
281.939
281.93
281.932
281.933
281.934
281.935
281.937
281.939
281.94
281.941
281.941
281.94
281.939
281.938
281.936
281.935
281.934
281.934
281.933
281.933
281.933
281.931
281.929
281.925
281.919
281.912
281.905
281.904
281.916
281.931
281.958
282
282
281.992
281.984
281.975
281.964
281.953
282.015
283.285
283.078
282.404
282.251
282.239
282.252
282.266
282.272
282.263
282.237
282.218
282.204
282.19
282.171
282.148
282.121
282.093
282.065
282.038
282.013
281.99
281.97
281.952
281.937
281.924
281.914
281.905
281.899
281.894
281.891
281.89
281.891
281.893
281.897
281.903
281.912
281.926
281.96
282.068
282.303
282.597
282.821
282.925
282.939
282.917
282.899
282.895
282.886
282.824
282.647
282.313
282.13
282.309
282.239
282.215
282.222
282.239
282.241
282.198
282.096
281.973
281.927
281.925
281.925
281.925
281.926
281.927
281.929
281.93
281.93
281.93
281.928
281.926
281.924
281.921
281.919
281.918
281.917
281.917
281.918
281.918
281.919
281.919
281.918
281.915
281.91
281.903
281.896
281.895
281.907
281.92
281.943
281.994
281.994
281.983
281.976
281.969
281.959
281.949
282.007
283.25
283.067
282.397
282.248
282.237
282.248
282.26
282.262
282.242
282.221
282.21
282.2
282.185
282.164
282.137
282.108
282.078
282.049
282.021
281.996
281.973
281.954
281.936
281.922
281.91
281.9
281.892
281.886
281.881
281.878
281.877
281.878
281.88
281.884
281.89
281.899
281.913
281.941
282.026
282.221
282.489
282.723
282.866
282.926
282.939
282.937
282.93
282.908
282.834
282.662
282.378
282.111
282.317
282.197
282.125
282.088
282.067
282.046
282.013
281.967
281.929
281.918
281.917
281.917
281.917
281.918
281.919
281.92
281.92
281.919
281.917
281.913
281.91
281.906
281.902
281.9
281.899
281.898
281.899
281.901
281.903
281.905
281.906
281.907
281.906
281.903
281.897
281.889
281.889
281.9
281.911
281.93
281.98
281.988
281.974
281.966
281.961
281.954
281.945
282
283.22
283.057
282.389
282.244
282.232
282.241
282.247
282.241
282.219
282.211
282.206
282.197
282.179
282.154
282.124
282.092
282.06
282.03
282.003
281.978
281.956
281.937
281.92
281.907
281.895
281.886
281.879
281.873
281.869
281.867
281.866
281.866
281.868
281.872
281.878
281.887
281.9
281.924
281.991
282.151
282.391
282.626
282.794
282.888
282.931
282.945
282.941
282.911
282.828
282.659
282.398
282.129
282.331
282.199
282.094
282.034
281.996
281.965
281.94
281.922
281.913
281.91
281.909
281.908
281.908
281.909
281.91
281.91
281.908
281.906
281.901
281.896
281.891
281.886
281.882
281.879
281.878
281.879
281.881
281.883
281.887
281.891
281.894
281.897
281.898
281.897
281.892
281.885
281.886
281.896
281.905
281.919
281.959
281.979
281.966
281.957
281.953
281.948
281.941
281.993
283.192
283.048
282.38
282.24
282.225
282.229
282.228
282.212
282.206
282.211
282.209
282.195
282.171
282.14
282.106
282.072
282.04
282.01
281.983
281.959
281.938
281.92
281.905
281.892
281.882
281.874
281.867
281.862
281.859
281.856
281.855
281.856
281.858
281.861
281.868
281.877
281.889
281.91
281.963
282.092
282.304
282.531
282.713
282.833
282.899
282.928
282.929
282.895
282.806
282.64
282.399
282.152
282.317
282.233
282.099
282.028
281.983
281.946
281.919
281.905
281.903
281.901
281.9
281.899
281.899
281.9
281.9
281.899
281.895
281.89
281.883
281.876
281.87
281.864
281.86
281.858
281.857
281.859
281.862
281.866
281.871
281.877
281.882
281.887
281.891
281.892
281.89
281.884
281.886
281.895
281.902
281.912
281.94
281.969
281.959
281.947
281.944
281.941
281.936
281.986
283.166
283.041
282.371
282.234
282.215
282.211
282.202
282.198
282.214
282.222
282.213
282.189
282.157
282.121
282.084
282.05
282.018
281.989
281.963
281.94
281.921
281.904
281.89
281.879
281.87
281.863
281.858
281.853
281.85
281.848
281.847
281.847
281.849
281.852
281.858
281.867
281.879
281.899
281.941
282.044
282.226
282.441
282.629
282.765
282.849
282.89
282.896
282.86
282.768
282.606
282.385
282.164
282.281
282.272
282.129
282.048
282
281.954
281.915
281.896
281.894
281.893
281.891
281.891
281.891
281.891
281.89
281.886
281.88
281.872
281.864
281.855
281.847
281.841
281.837
281.836
281.836
281.838
281.843
281.848
281.855
281.863
281.871
281.879
281.885
281.889
281.889
281.885
281.889
281.897
281.901
281.908
281.926
281.965
281.958
281.94
281.935
281.934
281.931
281.98
283.142
283.033
282.367
282.229
282.202
282.19
282.187
282.218
282.238
282.234
282.211
282.176
282.137
282.097
282.059
282.025
281.995
281.967
281.943
281.922
281.904
281.889
281.877
281.868
281.86
281.855
281.85
281.847
281.844
281.842
281.841
281.841
281.842
281.845
281.851
281.859
281.871
281.889
281.923
282.005
282.159
282.357
282.544
282.689
282.785
282.836
282.845
282.808
282.715
282.56
282.358
282.163
282.239
282.292
282.179
282.082
282.034
281.977
281.92
281.889
281.886
281.884
281.882
281.882
281.881
281.881
281.878
281.872
281.863
281.853
281.842
281.832
281.824
281.818
281.815
281.813
281.815
281.818
281.824
281.831
281.84
281.85
281.86
281.87
281.88
281.887
281.89
281.888
281.895
281.902
281.905
281.907
281.918
281.961
281.963
281.938
281.927
281.927
281.926
281.973
283.121
283.025
282.375
282.229
282.191
282.179
282.224
282.26
282.262
282.238
282.199
282.154
282.109
282.069
282.032
282
281.972
281.947
281.925
281.906
281.889
281.876
281.866
281.859
281.853
281.849
281.845
281.843
281.84
281.838
281.837
281.836
281.837
281.839
281.844
281.852
281.863
281.88
281.91
281.975
282.103
282.28
282.46
282.608
282.711
282.768
282.779
282.742
282.649
282.502
282.319
282.151
282.201
282.296
282.229
282.128
282.08
282.014
281.932
281.884
281.879
281.876
281.874
281.873
281.872
281.869
281.864
281.856
281.844
281.832
281.82
281.809
281.801
281.795
281.792
281.791
281.793
281.798
281.805
281.814
281.824
281.836
281.849
281.863
281.875
281.885
281.892
281.893
281.902
281.909
281.911
281.91
281.914
281.956
281.97
281.945
281.924
281.92
281.921
281.968
283.1
283.016
282.401
282.244
282.2
282.233
282.29
282.299
282.272
282.225
282.172
282.122
282.077
282.039
282.006
281.976
281.951
281.928
281.908
281.89
281.877
281.866
281.858
281.852
281.848
281.845
281.843
281.841
281.839
281.837
281.835
281.834
281.834
281.836
281.84
281.847
281.857
281.873
281.899
281.952
282.057
282.212
282.38
282.526
282.631
282.69
282.702
282.664
282.573
282.436
282.271
282.13
282.17
282.294
282.269
282.18
282.133
282.062
281.951
281.879
281.872
281.868
281.865
281.864
281.861
281.857
281.849
281.838
281.825
281.81
281.797
281.786
281.777
281.772
281.769
281.769
281.772
281.778
281.786
281.797
281.809
281.824
281.839
281.855
281.87
281.884
281.894
281.898
281.91
281.919
281.92
281.916
281.914
281.943
281.971
281.955
281.926
281.915
281.916
281.962
283.081
283.007
282.451
282.293
282.263
282.335
282.35
282.315
282.256
282.192
282.134
282.084
282.044
282.01
281.981
281.955
281.932
281.911
281.892
281.877
281.866
281.858
281.852
281.848
281.846
281.845
281.843
281.842
281.841
281.838
281.836
281.834
281.833
281.834
281.837
281.843
281.853
281.867
281.89
281.935
282.02
282.153
282.306
282.444
282.547
282.607
282.618
282.579
282.491
282.364
282.216
282.103
282.149
282.293
282.304
282.23
282.191
282.122
281.977
281.875
281.866
281.861
281.857
281.854
281.85
281.843
281.833
281.819
281.804
281.788
281.775
281.763
281.755
281.75
281.747
281.748
281.752
281.759
281.768
281.78
281.795
281.811
281.829
281.848
281.866
281.883
281.896
281.904
281.919
281.93
281.932
281.926
281.919
281.93
281.963
281.961
281.932
281.913
281.911
281.957
283.062
282.997
282.526
282.389
282.414
282.424
282.372
282.292
282.212
282.144
282.089
282.047
282.013
281.985
281.959
281.936
281.914
281.895
281.879
281.867
281.858
281.852
281.849
281.847
281.847
281.846
281.846
281.845
281.844
281.841
281.839
281.836
281.834
281.833
281.835
281.84
281.849
281.863
281.884
281.921
281.992
282.104
282.239
282.367
282.465
282.521
282.53
282.491
282.407
282.289
282.158
282.076
282.14
282.302
282.337
282.277
282.25
282.191
282.006
281.871
281.86
281.854
281.849
281.845
281.839
281.829
281.816
281.8
281.784
281.767
281.753
281.741
281.733
281.728
281.727
281.728
281.733
281.74
281.751
281.764
281.781
281.799
281.82
281.841
281.862
281.882
281.899
281.911
281.928
281.942
281.946
281.939
281.927
281.925
281.953
281.962
281.938
281.913
281.907
281.952
283.045
282.985
282.623
282.533
282.524
282.441
282.331
282.229
282.149
282.089
282.047
282.014
281.988
281.964
281.941
281.919
281.899
281.882
281.868
281.859
281.853
281.85
281.849
281.849
281.849
281.849
281.849
281.849
281.847
281.845
281.842
281.839
281.836
281.834
281.834
281.838
281.846
281.859
281.879
281.911
281.97
282.064
282.181
282.296
282.385
282.436
282.443
282.403
282.323
282.215
282.102
282.056
282.15
282.328
282.373
282.322
282.303
282.266
282.037
281.868
281.855
281.847
281.841
281.835
281.827
281.815
281.799
281.782
281.763
281.746
281.732
281.721
281.713
281.709
281.708
281.71
281.715
281.723
281.735
281.749
281.767
281.788
281.811
281.835
281.859
281.881
281.901
281.918
281.938
281.954
281.96
281.954
281.939
281.928
281.945
281.96
281.943
281.914
281.904
281.947
283.028
282.971
282.727
282.657
282.519
282.363
282.235
282.143
282.082
282.042
282.014
281.991
281.969
281.947
281.926
281.905
281.886
281.871
281.86
281.854
281.851
281.85
281.85
281.851
281.852
281.852
281.852
281.852
281.851
281.849
281.846
281.842
281.838
281.835
281.834
281.837
281.844
281.856
281.875
281.904
281.954
282.032
282.132
282.233
282.313
282.357
282.359
282.32
282.244
282.145
282.052
282.052
282.184
282.37
282.412
282.364
282.351
282.334
282.066
281.866
281.849
281.84
281.833
281.825
281.815
281.801
281.783
281.763
281.744
281.727
281.712
281.702
281.695
281.691
281.691
281.693
281.699
281.708
281.72
281.736
281.755
281.778
281.803
281.829
281.856
281.881
281.904
281.924
281.947
281.967
281.976
281.971
281.954
281.935
281.942
281.958
281.946
281.917
281.901
281.942
283.012
282.949
282.795
282.574
282.361
282.211
282.118
282.065
282.033
282.012
281.993
281.975
281.955
281.933
281.911
281.891
281.875
281.862
281.855
281.851
281.851
281.852
281.853
281.854
281.854
281.854
281.854
281.854
281.854
281.852
281.849
281.845
281.84
281.836
281.834
281.837
281.843
281.855
281.872
281.899
281.942
282.008
282.093
282.179
282.248
282.285
282.283
282.243
282.171
282.081
282.016
282.073
282.243
282.424
282.45
282.401
282.39
282.379
282.086
281.864
281.843
281.832
281.824
281.815
281.803
281.787
281.767
281.746
281.726
281.709
281.695
281.684
281.678
281.675
281.676
281.679
281.685
281.695
281.707
281.724
281.744
281.769
281.796
281.825
281.854
281.881
281.907
281.931
281.957
281.979
281.991
281.988
281.971
281.947
281.944
281.957
281.95
281.919
281.9
281.938
282.997
282.859
282.534
282.277
282.138
282.071
282.039
282.023
282.011
281.998
281.982
281.963
281.942
281.919
281.898
281.879
281.865
281.856
281.852
281.852
281.854
281.855
281.856
281.856
281.855
281.854
281.854
281.855
281.855
281.854
281.851
281.846
281.841
281.837
281.835
281.836
281.843
281.854
281.871
281.895
281.933
281.989
282.061
282.135
282.193
282.222
282.216
282.175
282.107
282.026
282.004
282.126
282.32
282.474
282.482
282.431
282.419
282.398
282.08
281.865
281.837
281.825
281.816
281.805
281.791
281.773
281.752
281.73
281.709
281.692
281.679
281.669
281.664
281.662
281.663
281.667
281.674
281.683
281.696
281.714
281.735
281.761
281.791
281.822
281.853
281.883
281.911
281.939
281.968
281.992
282.007
282.006
281.989
281.961
281.949
281.958
281.953
281.923
281.899
281.935
282.983
282.295
282.085
282.033
282.022
282.02
282.019
282.014
282.004
281.99
281.972
281.951
281.929
281.906
281.886
281.87
281.859
281.854
281.853
281.855
281.857
281.858
281.858
281.857
281.854
281.853
281.853
281.854
281.855
281.855
281.852
281.847
281.841
281.837
281.835
281.836
281.842
281.854
281.87
281.894
281.928
281.976
282.037
282.098
282.146
282.168
282.158
282.116
282.052
281.987
282.025
282.206
282.391
282.509
282.502
282.449
282.431
282.387
282.05
281.862
281.83
281.817
281.807
281.795
281.779
281.76
281.737
281.715
281.694
281.677
281.665
281.656
281.652
281.651
281.652
281.657
281.664
281.674
281.688
281.705
281.728
281.756
281.787
281.82
281.853
281.884
281.915
281.947
281.979
282.006
282.023
282.024
282.009
281.978
281.956
281.96
281.957
281.927
281.898
281.931
282.969
281.988
282.003
282.014
282.022
282.024
282.021
282.013
282
281.983
281.962
281.94
281.916
281.895
281.876
281.863
281.856
281.854
281.855
281.858
281.86
281.861
281.859
281.855
281.851
281.849
281.85
281.852
281.854
281.854
281.852
281.847
281.841
281.836
281.834
281.836
281.843
281.854
281.871
281.893
281.925
281.967
282.018
282.069
282.107
282.122
282.108
282.066
282.006
281.972
282.082
282.281
282.442
282.525
282.503
282.449
282.42
282.346
282.006
281.853
281.822
281.809
281.798
281.784
281.767
281.747
281.724
281.701
281.681
281.664
281.652
281.645
281.642
281.641
281.644
281.649
281.656
281.667
281.681
281.699
281.723
281.752
281.785
281.82
281.854
281.887
281.921
281.956
281.991
282.02
282.039
282.043
282.028
281.997
281.965
281.963
281.96
281.931
281.899
281.928
282.955
281.993
282.012
282.024
282.029
282.029
282.022
282.01
281.994
281.974
281.952
281.928
281.905
281.885
281.869
281.859
281.855
281.856
281.859
281.862
281.863
281.861
281.857
281.852
281.848
281.845
281.847
281.851
281.854
281.854
281.85
281.845
281.84
281.836
281.834
281.837
281.844
281.856
281.873
281.895
281.924
281.961
282.004
282.046
282.075
282.083
282.066
282.024
281.975
281.989
282.144
282.337
282.469
282.518
282.482
282.424
282.382
282.277
281.958
281.841
281.814
281.8
281.788
281.774
281.756
281.734
281.711
281.688
281.668
281.652
281.642
281.635
281.633
281.634
281.637
281.642
281.65
281.661
281.675
281.695
281.72
281.75
281.786
281.821
281.856
281.891
281.928
281.967
282.004
282.035
282.055
282.061
282.049
282.017
281.979
281.967
281.964
281.936
281.901
281.926
282.943
281.997
282.02
282.032
282.035
282.031
282.021
282.006
281.987
281.965
281.942
281.918
281.896
281.877
281.864
281.857
281.856
281.859
281.863
281.865
281.864
281.861
281.855
281.849
281.844
281.842
281.845
281.85
281.853
281.851
281.847
281.842
281.838
281.835
281.835
281.839
281.847
281.859
281.876
281.898
281.925
281.958
281.994
282.027
282.048
282.05
282.029
281.991
281.962
282.024
282.196
282.37
282.47
282.487
282.437
282.373
282.316
282.19
281.912
281.827
281.805
281.79
281.777
281.762
281.744
281.722
281.699
281.677
281.657
281.642
281.632
281.627
281.626
281.627
281.631
281.637
281.646
281.657
281.672
281.692
281.719
281.751
281.787
281.824
281.86
281.898
281.938
281.98
282.019
282.052
282.072
282.079
282.068
282.037
281.995
281.973
281.967
281.941
281.903
281.924
282.931
282.001
282.027
282.038
282.038
282.031
282.019
282.001
281.98
281.957
281.933
281.909
281.889
281.872
281.862
281.858
281.859
281.863
281.866
281.867
281.864
281.859
281.853
281.846
281.842
281.841
281.843
281.847
281.848
281.846
281.843
281.84
281.836
281.835
281.836
281.841
281.85
281.863
281.881
281.902
281.927
281.956
281.986
282.011
282.025
282.021
281.999
281.968
281.967
282.061
282.232
282.38
282.447
282.434
282.369
282.298
282.229
282.097
281.873
281.815
281.794
281.78
281.766
281.751
281.732
281.71
281.687
281.666
281.647
281.632
281.624
281.62
281.619
281.621
281.626
281.633
281.642
281.654
281.671
281.692
281.719
281.752
281.789
281.828
281.866
281.906
281.949
281.994
282.036
282.069
282.09
282.097
282.088
282.058
282.013
281.981
281.971
281.946
281.906
281.922
282.919
282.004
282.032
282.042
282.041
282.031
282.016
281.996
281.974
281.95
281.926
281.903
281.884
281.87
281.862
281.861
281.863
281.866
281.868
281.868
281.864
281.858
281.851
281.845
281.841
281.84
281.841
281.842
281.843
281.842
281.84
281.837
281.836
281.836
281.839
281.845
281.855
281.869
281.886
281.907
281.93
281.955
281.979
281.998
282.005
281.997
281.975
281.955
281.981
282.093
282.251
282.369
282.404
282.364
282.285
282.209
282.134
282.01
281.843
281.802
281.783
281.769
281.754
281.739
281.72
281.699
281.676
281.655
281.637
281.624
281.616
281.613
281.614
281.617
281.623
281.63
281.64
281.653
281.67
281.693
281.721
281.756
281.794
281.833
281.873
281.916
281.964
282.012
282.055
282.088
282.109
282.116
282.107
282.078
282.031
281.991
281.976
281.951
281.909
281.921
282.908
282.007
282.037
282.046
282.042
282.03
282.013
281.992
281.968
281.944
281.92
281.899
281.882
281.87
281.864
281.864
281.866
281.869
281.87
281.869
281.864
281.858
281.852
281.846
281.842
281.839
281.839
281.839
281.839
281.839
281.838
281.837
281.837
281.839
281.843
281.851
281.862
281.876
281.893
281.913
281.934
281.955
281.973
281.985
281.987
281.977
281.958
281.952
281.999
282.116
282.254
282.342
282.345
282.282
282.195
282.117
282.042
281.937
281.82
281.79
281.772
281.757
281.742
281.726
281.708
281.687
281.666
281.646
281.629
281.616
281.61
281.608
281.609
281.613
281.62
281.628
281.639
281.653
281.671
281.695
281.725
281.761
281.8
281.841
281.883
281.929
281.981
282.032
282.076
282.108
282.127
282.133
282.125
282.097
282.049
282.003
281.981
281.956
281.911
281.92
282.898
282.01
282.041
282.048
282.042
282.029
282.01
281.988
281.964
281.94
281.917
281.897
281.882
281.872
281.868
281.868
281.87
281.872
281.872
281.87
281.866
281.86
281.854
281.848
281.843
281.84
281.839
281.838
281.838
281.838
281.838
281.839
281.84
281.844
281.85
281.858
281.87
281.884
281.901
281.918
281.937
281.954
281.967
281.974
281.972
281.961
281.948
281.956
282.017
282.129
282.244
282.301
282.278
282.198
282.107
282.032
281.964
281.881
281.802
281.777
281.76
281.744
281.729
281.713
281.695
281.676
281.656
281.637
281.622
281.61
281.605
281.604
281.606
281.611
281.618
281.627
281.639
281.654
281.673
281.698
281.73
281.768
281.808
281.85
281.895
281.945
282.001
282.055
282.099
282.129
282.146
282.15
282.141
282.115
282.066
282.014
281.986
281.96
281.914
281.919
282.889
282.012
282.044
282.05
282.042
282.027
282.008
281.985
281.962
281.938
281.916
281.898
281.884
281.875
281.871
281.871
281.873
281.874
281.874
281.872
281.868
281.863
281.857
281.852
281.847
281.844
281.842
281.841
281.841
281.841
281.842
281.843
281.846
281.851
281.858
281.867
281.879
281.893
281.908
281.924
281.939
281.952
281.961
281.964
281.959
281.949
281.944
281.965
282.032
282.133
282.223
282.253
282.208
282.118
282.028
281.961
281.904
281.841
281.787
281.765
281.747
281.732
281.716
281.7
281.683
281.665
281.646
281.63
281.616
281.606
281.601
281.601
281.604
281.609
281.618
281.628
281.64
281.656
281.676
281.703
281.737
281.776
281.818
281.862
281.909
281.964
282.024
282.08
282.123
282.15
282.163
282.165
282.156
282.131
282.081
282.024
281.991
281.964
281.916
281.918
282.88
282.015
282.046
282.051
282.042
282.027
282.006
281.984
281.961
281.938
281.917
281.9
281.887
281.879
281.876
281.875
281.876
281.876
281.876
281.875
281.872
281.867
281.863
281.858
281.853
281.85
281.848
281.846
281.846
281.847
281.848
281.851
281.855
281.86
281.868
281.877
281.889
281.902
281.915
281.929
281.941
281.95
281.955
281.954
281.949
281.942
281.945
281.975
282.042
282.129
282.194
282.201
282.141
282.046
281.962
281.905
281.859
281.812
281.773
281.753
281.735
281.719
281.704
281.688
281.672
281.655
281.638
281.623
281.611
281.603
281.599
281.599
281.603
281.61
281.619
281.629
281.643
281.66
281.681
281.71
281.746
281.787
281.83
281.875
281.925
281.986
282.051
282.108
282.147
282.169
282.177
282.177
282.168
282.144
282.092
282.032
281.996
281.967
281.917
281.918
282.873
282.017
282.048
282.051
282.042
282.026
282.006
281.984
281.962
281.94
281.921
281.904
281.892
281.884
281.88
281.879
281.879
281.879
281.879
281.878
281.876
281.873
281.869
281.865
281.861
281.858
281.856
281.855
281.855
281.856
281.858
281.861
281.865
281.871
281.879
281.888
281.899
281.91
281.921
281.932
281.941
281.947
281.949
281.946
281.941
281.939
281.95
281.986
282.048
282.118
282.161
282.148
282.078
281.985
281.911
281.864
281.827
281.791
281.762
281.742
281.724
281.708
281.692
281.677
281.661
281.646
281.631
281.618
281.608
281.601
281.599
281.6
281.605
281.612
281.622
281.633
281.647
281.665
281.688
281.719
281.756
281.799
281.843
281.889
281.945
282.012
282.081
282.137
282.171
282.184
282.187
282.185
282.177
282.153
282.1
282.036
281.999
281.969