/*--------------------------------*- C++ -*----------------------------------*\
| =========                 |                                                 |
| \\      /  F ield         | OpenFOAM: The Open Source CFD Toolbox           |
|  \\    /   O peration     | Version:  4.1                                   |
|   \\  /    A nd           | Web:      www.OpenFOAM.org                      |
|    \\/     M anipulation  |                                                 |
\*---------------------------------------------------------------------------*/
FoamFile
{
    version     2.0;
    format      ascii;
    class       volVectorField;
    location    "700";
    object      U;
}
// * * * * * * * * * * * * * * * * * * * * * * * * * * * * * * * * * * * * * //

dimensions      [0 1 -1 0 0 0 0];

internalField   nonuniform List<vector> 
5000
(
(-0.00386435 0.00288379 0)
(-0.00597552 0.00154266 0)
(-0.00818128 0.00102548 0)
(-0.00983733 0.000787919 0)
(-0.0111896 0.000632032 0)
(-0.0122966 0.000501297 0)
(-0.0131693 0.000374967 0)
(-0.0138 0.00024516 0)
(-0.0141737 0.000109126 0)
(-0.014274 -3.4617e-05 0)
(-0.0140905 -0.000187436 0)
(-0.0136276 -0.000339909 0)
(-0.0129036 -0.000480866 0)
(-0.011953 -0.00060343 0)
(-0.0108176 -0.000704011 0)
(-0.00954147 -0.000781571 0)
(-0.00816707 -0.000837243 0)
(-0.00673273 -0.000873524 0)
(-0.00527447 -0.000892829 0)
(-0.00382698 -0.000896884 0)
(-0.00241749 -0.000883763 0)
(-0.00103005 -0.000843657 0)
(0.000341986 -0.000760541 0)
(0.0014526 -0.000670852 0)
(0.00251862 -0.000593112 0)
(0.0034856 -0.000525275 0)
(0.00434824 -0.000462976 0)
(0.00511238 -0.000404415 0)
(0.0057823 -0.000349078 0)
(0.00636179 -0.000297457 0)
(0.00685752 -0.000252594 0)
(0.00728454 -0.000222692 0)
(0.00767417 -0.000221674 0)
(0.00807621 -0.000260209 0)
(0.00853344 -0.000318506 0)
(0.00900582 -0.000294166 0)
(0.00920117 7.73604e-05 0)
(0.00870993 0.00139507 0)
(0.00486307 0.00390628 0)
(-0.00407829 0.0025451 0)
(-0.00600209 0.000813212 0)
(-0.0073534 0.000113845 0)
(-0.00790558 -0.000151155 0)
(-0.00810293 -0.000262685 0)
(-0.00803731 -0.000380656 0)
(-0.00762329 -0.000595096 0)
(-0.00665314 -0.000936876 0)
(-0.00497136 -0.0014141 0)
(-0.0026114 -0.00203232 0)
(0.000634105 -0.00289859 0)
(0.0043563 -0.00244204 0)
(0.00612835 -0.00133144 0)
(0.00698624 -0.000558692 0)
(0.0069391 -7.75201e-05 0)
(0.00618305 0.000243657 0)
(0.00499587 0.000463861 0)
(0.00356213 0.000628793 0)
(0.00219095 0.00124488 0)
(-0.00268968 0.0030805 0)
(-0.00785864 0.00191593 0)
(-0.00828539 9.59532e-05 0)
(-0.0078007 -0.000469929 0)
(-0.00704441 -0.000377513 0)
(-0.00655066 -4.71513e-05 0)
(-0.00643818 0.00015834 0)
(-0.00643743 6.94856e-05 0)
(-0.00625481 -0.000140088 0)
(-0.00587553 -0.000243973 0)
(-0.00547815 -0.000154759 0)
(-0.00532335 0.000124144 0)
(-0.0056882 0.000473543 0)
(-0.00662117 0.000632509 0)
(-0.00774128 0.00039936 0)
(-0.00843965 -0.000125452 0)
(-0.00830598 -0.000654194 0)
(-0.00740098 -0.000986723 0)
(-0.00622164 -0.00109564 0)
(-0.00501911 -0.00108634 0)
(-0.00383697 -0.00108253 0)
(-0.00264326 -0.00116783 0)
(-0.001524 -0.00132345 0)
(-7.3831e-05 -0.000500943 0)
(0.000236909 -9.11804e-05 0)
(0.000618851 -6.93111e-05 0)
(0.00113305 -0.000230729 0)
(0.00185951 -0.000378516 0)
(0.00272255 -0.000453787 0)
(0.00362216 -0.000467976 0)
(0.00447926 -0.00043677 0)
(0.00523306 -0.000375381 0)
(0.00584402 -0.00029974 0)
(0.00629735 -0.000224135 0)
(0.00660101 -0.000158845 0)
(0.00677898 -0.000109588 0)
(0.00686168 -7.5083e-05 0)
(0.00687134 -4.66732e-05 0)
(0.0068288 -2.58432e-05 0)
(0.00674715 1.78229e-05 0)
(0.00611642 0.000697315 0)
(0.00504501 0.0031036 0)
(-0.00328458 0.00624317 0)
(-0.00534445 0.00402562 0)
(-0.00778756 0.00289619 0)
(-0.0095904 0.00229405 0)
(-0.0110497 0.00187178 0)
(-0.0122196 0.00150404 0)
(-0.0131147 0.00113945 0)
(-0.0137301 0.000758325 0)
(-0.0140544 0.000356505 0)
(-0.0140738 -6.23293e-05 0)
(-0.0137906 -0.000487969 0)
(-0.0132357 -0.000894578 0)
(-0.0124325 -0.00125773 0)
(-0.0114191 -0.00156302 0)
(-0.0102387 -0.00180403 0)
(-0.00893502 -0.00198023 0)
(-0.0075498 -0.00209673 0)
(-0.00611979 -0.00216198 0)
(-0.00468148 -0.0021841 0)
(-0.00326858 -0.00217176 0)
(-0.00190485 -0.00213081 0)
(-0.000529989 -0.00203521 0)
(0.000730439 -0.00186772 0)
(0.00184087 -0.00168287 0)
(0.00288849 -0.0015147 0)
(0.00383903 -0.00135978 0)
(0.004691 -0.00121243 0)
(0.00544987 -0.00107107 0)
(0.00612152 -0.000936454 0)
(0.00671291 -0.000811295 0)
(0.00723297 -0.00070219 0)
(0.00769172 -0.000622406 0)
(0.00809733 -0.00059112 0)
(0.00845073 -0.000618403 0)
(0.0087369 -0.000659085 0)
(0.00891367 -0.000498504 0)
(0.00877786 0.000517033 0)
(0.00819871 0.00328339 0)
(0.0057664 0.00742599 0)
(-5.69745e-05 0.00703511 0)
(-0.0027208 0.00331413 0)
(-0.00434309 0.00149569 0)
(-0.00538359 0.000734093 0)
(-0.0060993 0.000325811 0)
(-0.00644845 -0.000136081 0)
(-0.00623733 -0.000813919 0)
(-0.00538394 -0.00176701 0)
(-0.0037695 -0.00296874 0)
(-0.00150734 -0.00431967 0)
(0.0015566 -0.00560077 0)
(0.00386171 -0.00403071 0)
(0.00525833 -0.00180414 0)
(0.00583105 -0.000170694 0)
(0.00563538 0.000893955 0)
(0.00481113 0.00159637 0)
(0.00351409 0.00212396 0)
(0.00178222 0.00268042 0)
(-0.00178104 0.00509088 0)
(-0.0061949 0.00626967 0)
(-0.00881642 0.00350769 0)
(-0.00913274 0.000355953 0)
(-0.00892288 -0.000937723 0)
(-0.00845447 -0.000951162 0)
(-0.00791089 -0.000546672 0)
(-0.00732652 -0.00024714 0)
(-0.00680865 -0.000257449 0)
(-0.0064443 -0.000440163 0)
(-0.00622647 -0.000541346 0)
(-0.0060697 -0.000404317 0)
(-0.00586241 2.40056e-05 0)
(-0.00556798 0.000658879 0)
(-0.00533224 0.00117129 0)
(-0.00523914 0.00117587 0)
(-0.00514169 0.000577107 0)
(-0.00488902 -0.000357793 0)
(-0.00463051 -0.00111645 0)
(-0.00434704 -0.00139644 0)
(-0.0040005 -0.00138821 0)
(-0.00358267 -0.00134759 0)
(-0.00317475 -0.00140236 0)
(-0.00285838 -0.00145447 0)
(-0.00236784 -0.001029 0)
(-0.00151499 -0.000826784 0)
(-0.000482738 -0.000900183 0)
(0.00056121 -0.00112284 0)
(0.00145619 -0.00128514 0)
(0.00237188 -0.0013572 0)
(0.00326879 -0.00132425 0)
(0.00409594 -0.00119529 0)
(0.00480021 -0.000993829 0)
(0.00533902 -0.000754448 0)
(0.00569228 -0.000513104 0)
(0.00586401 -0.000298122 0)
(0.0058782 -0.000126694 0)
(0.0057583 -1.02512e-07 0)
(0.00554892 9.36126e-05 0)
(0.00529327 0.000133822 0)
(0.00499329 0.000195422 0)
(0.00431217 0.00195716 0)
(0.00402688 0.00674145 0)
(-0.00267137 0.00973193 0)
(-0.00436879 0.00662467 0)
(-0.00667214 0.00490173 0)
(-0.00839862 0.00391048 0)
(-0.00984626 0.00317723 0)
(-0.0110207 0.00252196 0)
(-0.0119203 0.00186797 0)
(-0.0125329 0.00118693 0)
(-0.0128436 0.000476356 0)
(-0.0128364 -0.000249522 0)
(-0.0125223 -0.000965287 0)
(-0.0119329 -0.00163547 0)
(-0.0111013 -0.00222516 0)
(-0.0100718 -0.00271336 0)
(-0.00889045 -0.00309177 0)
(-0.00760273 -0.00336016 0)
(-0.00625029 -0.00352848 0)
(-0.00486746 -0.00361116 0)
(-0.00349291 -0.00361897 0)
(-0.00215658 -0.00356789 0)
(-0.000858893 -0.00346303 0)
(0.000423249 -0.0032635 0)
(0.00150664 -0.00301351 0)
(0.00254965 -0.00274693 0)
(0.00351613 -0.00249119 0)
(0.00439302 -0.00224588 0)
(0.00517902 -0.00200901 0)
(0.00587699 -0.00178111 0)
(0.00649098 -0.00156442 0)
(0.00702545 -0.00136298 0)
(0.00748448 -0.00118376 0)
(0.00787038 -0.00103779 0)
(0.00818111 -0.000937827 0)
(0.00840651 -0.000882354 0)
(0.00852136 -0.00080236 0)
(0.00846424 -0.000418351 0)
(0.00818631 0.00110277 0)
(0.00777632 0.00491683 0)
(0.00618912 0.0103053 0)
(0.00269347 0.0110075 0)
(-0.000115058 0.00593839 0)
(-0.00210741 0.00283964 0)
(-0.00348552 0.00166663 0)
(-0.00456074 0.000886136 0)
(-0.00515975 -6.05063e-05 0)
(-0.0051516 -0.0013167 0)
(-0.00445307 -0.00297454 0)
(-0.00301099 -0.00496987 0)
(-0.000982851 -0.00699471 0)
(0.00124864 -0.00805351 0)
(0.00264378 -0.00568895 0)
(0.00363631 -0.00276822 0)
(0.0040252 -0.000460889 0)
(0.00387815 0.00129875 0)
(0.00316967 0.00245557 0)
(0.00182864 0.00346008 0)
(-0.0012446 0.00568288 0)
(-0.00511195 0.00896793 0)
(-0.00772354 0.00865836 0)
(-0.00901121 0.00467321 0)
(-0.0089512 0.000584094 0)
(-0.00868955 -0.00124473 0)
(-0.00831178 -0.00147987 0)
(-0.00789269 -0.00115234 0)
(-0.0074673 -0.000853488 0)
(-0.00711462 -0.000709342 0)
(-0.00688937 -0.000667517 0)
(-0.00678506 -0.000634818 0)
(-0.00673632 -0.000519386 0)
(-0.00662867 -0.000259104 0)
(-0.00631272 0.000139308 0)
(-0.00572931 0.000499946 0)
(-0.00503679 0.00047762 0)
(-0.00443163 -7.12432e-05 0)
(-0.00406943 -0.000849563 0)
(-0.00398416 -0.00138132 0)
(-0.00397067 -0.00160991 0)
(-0.00385877 -0.0016781 0)
(-0.00362099 -0.00172422 0)
(-0.00331063 -0.0018056 0)
(-0.00293727 -0.00186474 0)
(-0.00241323 -0.00179112 0)
(-0.00170206 -0.00180371 0)
(-0.000903092 -0.0019201 0)
(4.57089e-05 -0.00209456 0)
(0.000938683 -0.00222953 0)
(0.00182835 -0.00228138 0)
(0.00271731 -0.00219981 0)
(0.00354419 -0.00196907 0)
(0.00425026 -0.00161354 0)
(0.00478543 -0.00118746 0)
(0.00512453 -0.000752605 0)
(0.00527136 -0.0003564 0)
(0.00523953 -2.39569e-05 0)
(0.00504461 0.000237867 0)
(0.00471896 0.000430169 0)
(0.00427185 0.000539426 0)
(0.00359062 0.000660583 0)
(0.00267958 0.0030864 0)
(0.00314691 0.0100869 0)
(-0.00219809 0.0127388 0)
(-0.00357186 0.00892345 0)
(-0.00564469 0.00676631 0)
(-0.00721997 0.00547712 0)
(-0.00860162 0.00448116 0)
(-0.00974108 0.00356393 0)
(-0.0106171 0.00263453 0)
(-0.0112062 0.00166074 0)
(-0.0114855 0.000642584 0)
(-0.0114336 -0.000397256 0)
(-0.0110727 -0.0014142 0)
(-0.0104401 -0.00234805 0)
(-0.00957567 -0.00315608 0)
(-0.00852973 -0.00381389 0)
(-0.00734998 -0.00431576 0)
(-0.00608442 -0.00466259 0)
(-0.00477302 -0.00487313 0)
(-0.00344526 -0.00496598 0)
(-0.00214841 -0.0049543 0)
(-0.000888002 -0.00485685 0)
(0.000363274 -0.00465369 0)
(0.00142883 -0.00437407 0)
(0.00245003 -0.00404438 0)
(0.00340593 -0.00370315 0)
(0.00428278 -0.00336361 0)
(0.00507407 -0.00303037 0)
(0.00577827 -0.0027062 0)
(0.00639711 -0.00239386 0)
(0.00693395 -0.0020964 0)
(0.00739241 -0.00181744 0)
(0.00777499 -0.001562 0)
(0.00808129 -0.00133713 0)
(0.00830599 -0.00114987 0)
(0.00843744 -0.000991458 0)
(0.00845827 -0.000777823 0)
(0.00834234 -0.000196433 0)
(0.00807447 0.00158941 0)
(0.00775365 0.00595173 0)
(0.00669317 0.0121284 0)
(0.00449272 0.0136842 0)
(0.00215859 0.00908281 0)
(-0.000569429 0.0044851 0)
(-0.00216389 0.00299804 0)
(-0.00340517 0.00188509 0)
(-0.00417882 0.000436974 0)
(-0.00437363 -0.00147214 0)
(-0.00388864 -0.00385311 0)
(-0.0027522 -0.00658289 0)
(-0.00120261 -0.00901138 0)
(1.22536e-05 -0.0095076 0)
(0.000672552 -0.00658856 0)
(0.00127723 -0.00326913 0)
(0.00155875 -0.000747746 0)
(0.00157514 0.00127941 0)
(0.00059558 0.00305087 0)
(-0.00186611 0.00634531 0)
(-0.00470794 0.00934082 0)
(-0.00719418 0.0115354 0)
(-0.00874681 0.01002 0)
(-0.00927732 0.0050601 0)
(-0.00901173 0.00049019 0)
(-0.00859125 -0.00157409 0)
(-0.00819961 -0.00185896 0)
(-0.00787895 -0.00148303 0)
(-0.007574 -0.00114749 0)
(-0.00732196 -0.00093693 0)
(-0.00713767 -0.000811187 0)
(-0.00701144 -0.000713128 0)
(-0.00690281 -0.000595499 0)
(-0.00674415 -0.000434399 0)
(-0.00645324 -0.00024903 0)
(-0.0059844 -0.000131021 0)
(-0.00540215 -0.000214459 0)
(-0.00487449 -0.000552228 0)
(-0.00452395 -0.00100826 0)
(-0.00432602 -0.00140432 0)
(-0.00416371 -0.00167901 0)
(-0.00395293 -0.00186769 0)
(-0.00367316 -0.00202152 0)
(-0.00333395 -0.00216492 0)
(-0.00292494 -0.00228193 0)
(-0.00241223 -0.00237334 0)
(-0.00179061 -0.00250949 0)
(-0.00109857 -0.00270758 0)
(-0.000343378 -0.00292972 0)
(0.000518755 -0.00311232 0)
(0.00134417 -0.00316648 0)
(0.00219489 -0.00305512 0)
(0.00300447 -0.00273696 0)
(0.00370579 -0.00223164 0)
(0.00423686 -0.00161403 0)
(0.00456429 -0.000980031 0)
(0.00469459 -0.000397574 0)
(0.00463633 0.000103072 0)
(0.00441689 0.000513774 0)
(0.00405975 0.000836052 0)
(0.0035813 0.001078 0)
(0.00294525 0.00134651 0)
(0.00189294 0.00386655 0)
(0.00258233 0.0125192 0)
(-0.00183108 0.0151843 0)
(-0.00293129 0.0108438 0)
(-0.00475458 0.00840423 0)
(-0.00613696 0.00690861 0)
(-0.00739731 0.00569712 0)
(-0.00844736 0.00453754 0)
(-0.00925543 0.00333658 0)
(-0.00978828 0.00206568 0)
(-0.0100121 0.00073272 0)
(-0.00989416 -0.000624849 0)
(-0.00947288 -0.00193765 0)
(-0.00878799 -0.00312304 0)
(-0.00788724 -0.00413081 0)
(-0.00682777 -0.00493421 0)
(-0.00565545 -0.00553695 0)
(-0.0044252 -0.00593981 0)
(-0.00316373 -0.00617426 0)
(-0.00190589 -0.00625869 0)
(-0.00069369 -0.00620811 0)
(0.000518893 -0.00602349 0)
(0.00156236 -0.00574263 0)
(0.0025632 -0.00538521 0)
(0.00350099 -0.00498804 0)
(0.00436625 -0.00457206 0)
(0.00515173 -0.00415033 0)
(0.00585286 -0.00373166 0)
(0.00646821 -0.0033224 0)
(0.00699904 -0.00292745 0)
(0.0074483 -0.00255075 0)
(0.00781944 -0.0021956 0)
(0.00811511 -0.00186502 0)
(0.00833554 -0.00156212 0)
(0.00847673 -0.00128872 0)
(0.00853019 -0.00103232 0)
(0.00848781 -0.000707368 0)
(0.00835124 3.77674e-06 0)
(0.00812911 0.00193572 0)
(0.0079058 0.0065562 0)
(0.00724606 0.0131611 0)
(0.00591106 0.0155004 0)
(0.00405668 0.0118551 0)
(0.00116038 0.00683848 0)
(-0.00110181 0.00438348 0)
(-0.00242548 0.00297885 0)
(-0.00335556 0.00107734 0)
(-0.00377403 -0.00144024 0)
(-0.00359546 -0.00444499 0)
(-0.00294044 -0.00772328 0)
(-0.00213807 -0.0102 0)
(-0.00183363 -0.0099072 0)
(-0.0018842 -0.00668388 0)
(-0.00185588 -0.00331568 0)
(-0.00187976 -0.000444556 0)
(-0.0026465 0.00290422 0)
(-0.00377193 0.00567307 0)
(-0.0052368 0.00875946 0)
(-0.00705511 0.0116545 0)
(-0.00851758 0.0130405 0)
(-0.00930275 0.0105858 0)
(-0.00938574 0.00498664 0)
(-0.00894143 0.000136611 0)
(-0.00835634 -0.00205392 0)
(-0.00800883 -0.00223736 0)
(-0.00777126 -0.00176479 0)
(-0.00755285 -0.00138394 0)
(-0.00737158 -0.00112854 0)
(-0.00721816 -0.000964567 0)
(-0.00707849 -0.000852236 0)
(-0.00692588 -0.000759368 0)
(-0.00672278 -0.000670552 0)
(-0.00643112 -0.000598816 0)
(-0.00603813 -0.000593268 0)
(-0.00558311 -0.000714964 0)
(-0.00514595 -0.000977932 0)
(-0.00478636 -0.00131601 0)
(-0.00449959 -0.00164269 0)
(-0.004239 -0.00191868 0)
(-0.00396167 -0.0021497 0)
(-0.00364776 -0.00235617 0)
(-0.00329037 -0.00254987 0)
(-0.00287775 -0.00273175 0)
(-0.00239477 -0.00291584 0)
(-0.00183975 -0.00313093 0)
(-0.00122793 -0.00338637 0)
(-0.000587953 -0.00366155 0)
(0.000162979 -0.00390671 0)
(0.000923241 -0.00399482 0)
(0.00170905 -0.00387392 0)
(0.00247899 -0.00348766 0)
(0.00316215 -0.00284348 0)
(0.00368429 -0.00203018 0)
(0.00399716 -0.00119152 0)
(0.00411192 -0.000420152 0)
(0.00404135 0.000248588 0)
(0.0038191 0.000804872 0)
(0.00347164 0.00125225 0)
(0.0030207 0.00160929 0)
(0.0025051 0.00198326 0)
(0.00144978 0.00444546 0)
(0.00218952 0.0142978 0)
(-0.00153296 0.0171736 0)
(-0.00238631 0.0124262 0)
(-0.00395353 0.00979965 0)
(-0.00511446 0.0081647 0)
(-0.00621062 0.00678362 0)
(-0.00712855 0.00541415 0)
(-0.00783581 0.00396517 0)
(-0.00829003 0.00241188 0)
(-0.00843961 0.000768031 0)
(-0.00823181 -0.000912908 0)
(-0.00773669 -0.00252058 0)
(-0.00699314 -0.00394242 0)
(-0.00605702 -0.00512889 0)
(-0.00499423 -0.00605133 0)
(-0.0038381 -0.00673333 0)
(-0.00266526 -0.00717105 0)
(-0.0014575 -0.00741177 0)
(-0.000282176 -0.00746078 0)
(0.000849278 -0.00733828 0)
(0.00187564 -0.00708782 0)
(0.00285346 -0.00673361 0)
(0.00377109 -0.00631138 0)
(0.00462014 -0.00584419 0)
(0.00539415 -0.00535087 0)
(0.00608782 -0.00484649 0)
(0.00669767 -0.0043427 0)
(0.0072225 -0.00384842 0)
(0.00766326 -0.00337049 0)
(0.00802245 -0.00291395 0)
(0.00830346 -0.00248223 0)
(0.00850954 -0.00207713 0)
(0.00864262 -0.0016989 0)
(0.00870184 -0.00134544 0)
(0.00868321 -0.00100287 0)
(0.00858571 -0.000592631 0)
(0.00842986 0.000190488 0)
(0.0082504 0.00218201 0)
(0.00813514 0.00688523 0)
(0.0078379 0.013669 0)
(0.00715411 0.016722 0)
(0.00576288 0.0142131 0)
(0.00321535 0.00965919 0)
(0.000460743 0.00623018 0)
(-0.00134866 0.00404574 0)
(-0.00250689 0.00178613 0)
(-0.00322321 -0.0011209 0)
(-0.00343325 -0.00460009 0)
(-0.00341507 -0.00819601 0)
(-0.00345912 -0.010475 0)
(-0.00388148 -0.00948266 0)
(-0.00451139 -0.00603865 0)
(-0.00510077 -0.00267735 0)
(-0.00566051 0.000475591 0)
(-0.00612333 0.00362518 0)
(-0.00668153 0.00677101 0)
(-0.00749046 0.0100675 0)
(-0.00838287 0.0128633 0)
(-0.00901048 0.0136982 0)
(-0.00925692 0.0106888 0)
(-0.00907344 0.00471897 0)
(-0.0084855 -0.000344501 0)
(-0.00782552 -0.00256659 0)
(-0.00765249 -0.00250852 0)
(-0.00751447 -0.00194298 0)
(-0.0073839 -0.00153428 0)
(-0.00726296 -0.0012668 0)
(-0.00713729 -0.00110088 0)
(-0.0069957 -0.00100186 0)
(-0.00682359 -0.000944224 0)
(-0.00660283 -0.000915723 0)
(-0.00631801 -0.000921835 0)
(-0.00596915 -0.000985342 0)
(-0.00558113 -0.0011315 0)
(-0.0051946 -0.00136195 0)
(-0.00483971 -0.00164401 0)
(-0.00451868 -0.00193498 0)
(-0.00421308 -0.00220911 0)
(-0.00390163 -0.00246223 0)
(-0.00357014 -0.00270116 0)
(-0.00320935 -0.00293321 0)
(-0.00280978 -0.0031651 0)
(-0.00236293 -0.00340926 0)
(-0.00186656 -0.00368022 0)
(-0.0013256 -0.00398224 0)
(-0.000751533 -0.00430181 0)
(-0.000134312 -0.00459274 0)
(0.000562295 -0.00474533 0)
(0.00127041 -0.00463341 0)
(0.00197883 -0.00419971 0)
(0.00262576 -0.00343787 0)
(0.00313403 -0.00242845 0)
(0.00342884 -0.00138288 0)
(0.00352685 -0.000428269 0)
(0.00345175 0.000396487 0)
(0.00324408 0.00108157 0)
(0.00293264 0.0016341 0)
(0.00253599 0.00207915 0)
(0.00214897 0.00252491 0)
(0.00114474 0.00493851 0)
(0.00189303 0.0157256 0)
(-0.00128444 0.0188006 0)
(-0.00190527 0.0137115 0)
(-0.00320893 0.0109458 0)
(-0.00412386 0.00921358 0)
(-0.00502204 0.00770125 0)
(-0.00577416 0.00615621 0)
(-0.00635585 0.00448749 0)
(-0.00671602 0.00266949 0)
(-0.00677424 0.000718014 0)
(-0.00644493 -0.00129102 0)
(-0.0058666 -0.00317991 0)
(-0.00506605 -0.00480838 0)
(-0.00410267 -0.00614541 0)
(-0.00305823 -0.00715327 0)
(-0.0019315 -0.00789077 0)
(-0.000835714 -0.00833922 0)
(0.000318969 -0.00855596 0)
(0.00135288 -0.0085417 0)
(0.00235044 -0.00836469 0)
(0.00329825 -0.00805254 0)
(0.0041895 -0.00763855 0)
(0.00501669 -0.00714997 0)
(0.00577348 -0.00660988 0)
(0.00645463 -0.00603818 0)
(0.00705597 -0.00545155 0)
(0.00757475 -0.00486352 0)
(0.00800988 -0.00428494 0)
(0.00836195 -0.00372433 0)
(0.00863305 -0.00318801 0)
(0.00882634 -0.00268002 0)
(0.00894556 -0.00220189 0)
(0.00899424 -0.00175245 0)
(0.00897476 -0.00132724 0)
(0.00888772 -0.000912415 0)
(0.00873749 -0.000440738 0)
(0.00855533 0.000369364 0)
(0.00840355 0.00234129 0)
(0.00839596 0.00698503 0)
(0.00842982 0.0137654 0)
(0.00827171 0.0174402 0)
(0.00735999 0.0160869 0)
(0.00529593 0.0122742 0)
(0.00271965 0.00864189 0)
(0.000649064 0.00596527 0)
(-0.000999496 0.00303103 0)
(-0.00245311 -0.000625455 0)
(-0.00314322 -0.00421289 0)
(-0.00381188 -0.00791908 0)
(-0.00461137 -0.00998192 0)
(-0.00551896 -0.00862091 0)
(-0.00652008 -0.00522478 0)
(-0.00737807 -0.00214273 0)
(-0.00791317 0.000763446 0)
(-0.00815856 0.0038812 0)
(-0.0084115 0.00719404 0)
(-0.00863928 0.0105371 0)
(-0.00876524 0.0131913 0)
(-0.00871359 0.0137378 0)
(-0.00855149 0.0105266 0)
(-0.00819201 0.00438933 0)
(-0.00751826 -0.000871175 0)
(-0.00701141 -0.00298962 0)
(-0.00712117 -0.00261088 0)
(-0.00711029 -0.00200486 0)
(-0.00708012 -0.00160548 0)
(-0.00702008 -0.00136061 0)
(-0.00692441 -0.00122293 0)
(-0.00679104 -0.00115804 0)
(-0.00661677 -0.0011428 0)
(-0.00639653 -0.0011656 0)
(-0.00612688 -0.00122679 0)
(-0.0058123 -0.00133588 0)
(-0.0054686 -0.00150228 0)
(-0.00511785 -0.00172352 0)
(-0.00477674 -0.00198193 0)
(-0.00444913 -0.00225468 0)
(-0.00412839 -0.00252565 0)
(-0.00380453 -0.00278925 0)
(-0.00346899 -0.00304748 0)
(-0.00311485 -0.00330569 0)
(-0.00273551 -0.00357164 0)
(-0.00232539 -0.00385569 0)
(-0.00188139 -0.00416704 0)
(-0.00140292 -0.00450695 0)
(-0.000891459 -0.00486184 0)
(-0.000358736 -0.00519166 0)
(0.000254634 -0.00540772 0)
(0.000892266 -0.00532022 0)
(0.00152307 -0.00485297 0)
(0.00211178 -0.0040044 0)
(0.0026011 -0.00280417 0)
(0.00287556 -0.00155047 0)
(0.00295294 -0.000424992 0)
(0.00287918 0.0005349 0)
(0.00269944 0.00132476 0)
(0.00244103 0.0019584 0)
(0.00211161 0.00246711 0)
(0.0018523 0.00296415 0)
(0.000926045 0.0053711 0)
(0.00166309 0.0169417 0)
(-0.00107527 0.0201184 0)
(-0.00147461 0.0147194 0)
(-0.00250896 0.0118324 0)
(-0.0031565 0.010029 0)
(-0.00382753 0.00841866 0)
(-0.0043809 0.00673554 0)
(-0.00481201 0.00488404 0)
(-0.00506825 0.00282864 0)
(-0.0050213 0.000572351 0)
(-0.00452824 -0.00177616 0)
(-0.00386815 -0.00391263 0)
(-0.00302464 -0.00570377 0)
(-0.00205046 -0.00716368 0)
(-0.00105118 -0.00822331 0)
(2.59812e-05 -0.00898782 0)
(0.00104339 -0.00940959 0)
(0.00202561 -0.00957363 0)
(0.00297505 -0.00952079 0)
(0.00388332 -0.00929448 0)
(0.00473944 -0.00892771 0)
(0.00553596 -0.00845198 0)
(0.0062671 -0.00789524 0)
(0.00692797 -0.00728181 0)
(0.00751447 -0.0066326 0)
(0.00802328 -0.00596536 0)
(0.00845205 -0.00529498 0)
(0.00879965 -0.00463377 0)
(0.00906629 -0.00399171 0)
(0.00925356 -0.00337643 0)
(0.00936432 -0.00279301 0)
(0.00940246 -0.00224356 0)
(0.0093726 -0.00172675 0)
(0.00927956 -0.00123728 0)
(0.00912779 -0.000762221 0)
(0.00892498 -0.000247853 0)
(0.00870609 0.000553185 0)
(0.00855765 0.00243018 0)
(0.00863835 0.00687957 0)
(0.00895557 0.0135061 0)
(0.00922992 0.0176867 0)
(0.00879591 0.0174041 0)
(0.00728235 0.0144464 0)
(0.00511764 0.0109345 0)
(0.00307074 0.00786072 0)
(0.00140697 0.00500714 0)
(-8.34028e-05 0.00180702 0)
(-0.00225634 -0.00303252 0)
(-0.00371816 -0.00689687 0)
(-0.00514175 -0.0089496 0)
(-0.00632085 -0.00756196 0)
(-0.00749368 -0.00430346 0)
(-0.00849568 -0.00149878 0)
(-0.00906324 0.00115894 0)
(-0.00926771 0.00405584 0)
(-0.0092561 0.00723148 0)
(-0.00900073 0.0103987 0)
(-0.00849987 0.0128476 0)
(-0.00785897 0.0132697 0)
(-0.00731278 0.0101579 0)
(-0.00679036 0.00408496 0)
(-0.00609535 -0.00129068 0)
(-0.00605791 -0.00310556 0)
(-0.00646218 -0.0024896 0)
(-0.00660964 -0.00193103 0)
(-0.0066832 -0.00159459 0)
(-0.00668381 -0.00140831 0)
(-0.00662184 -0.00132238 0)
(-0.00650727 -0.00130423 0)
(-0.0063466 -0.00133375 0)
(-0.0061429 -0.00140106 0)
(-0.00589843 -0.00150457 0)
(-0.00561839 -0.00164773 0)
(-0.00531278 -0.00183331 0)
(-0.00499411 -0.00205778 0)
(-0.00467237 -0.00231028 0)
(-0.00435169 -0.0025772 0)
(-0.00403092 -0.00284797 0)
(-0.00370645 -0.00311789 0)
(-0.00337434 -0.00338773 0)
(-0.00303083 -0.0036624 0)
(-0.0026721 -0.00394988 0)
(-0.00229434 -0.00425981 0)
(-0.0018941 -0.00459995 0)
(-0.00146787 -0.00497067 0)
(-0.00101205 -0.00535826 0)
(-0.000527058 -0.00572509 0)
(-2.19609e-06 -0.00598558 0)
(0.00058453 -0.00593141 0)
(0.00113338 -0.00543002 0)
(0.00164236 -0.00452928 0)
(0.00210519 -0.00315498 0)
(0.00236175 -0.00168809 0)
(0.00241179 -0.000410169 0)
(0.00234312 0.000655737 0)
(0.00220099 0.00152215 0)
(0.00200528 0.00221377 0)
(0.00174655 0.00276737 0)
(0.00160627 0.00330343 0)
(0.000768963 0.00573833 0)
(0.00148218 0.0180004 0)
(-0.000899114 0.0211611 0)
(-0.00109003 0.0154607 0)
(-0.00185712 0.0124503 0)
(-0.00222341 0.0105894 0)
(-0.00264534 0.00890666 0)
(-0.00296592 0.00711893 0)
(-0.00320972 0.00512223 0)
(-0.0033434 0.00286477 0)
(-0.00314963 0.000304118 0)
(-0.00247941 -0.0023824 0)
(-0.00175963 -0.00471113 0)
(-0.000904951 -0.00660798 0)
(5.30338e-05 -0.00816522 0)
(0.000990544 -0.00924058 0)
(0.00192584 -0.00995732 0)
(0.00284583 -0.0103612 0)
(0.00374107 -0.0104975 0)
(0.00459882 -0.0104064 0)
(0.00540907 -0.0101299 0)
(0.00616426 -0.00970568 0)
(0.00685897 -0.00916681 0)
(0.00748906 -0.00854234 0)
(0.00805104 -0.00785731 0)
(0.00854179 -0.00713323 0)
(0.0089586 -0.00638854 0)
(0.00929932 -0.00563903 0)
(0.00956263 -0.00489812 0)
(0.00974829 -0.00417703 0)
(0.00985729 -0.00348472 0)
(0.00989201 -0.00282757 0)
(0.00985625 -0.00220891 0)
(0.00975516 -0.00162828 0)
(0.00959502 -0.00108078 0)
(0.00938246 -0.000554918 0)
(0.00912831 -7.0664e-06 0)
(0.00886085 0.000762106 0)
(0.00868486 0.00248097 0)
(0.00881338 0.0066123 0)
(0.00934485 0.0129538 0)
(0.00996476 0.0175052 0)
(0.00997582 0.0181651 0)
(0.0090104 0.0160707 0)
(0.00733378 0.0129113 0)
(0.00548359 0.00968682 0)
(0.00376327 0.0066143 0)
(0.00223589 0.00360531 0)
(-7.59729e-05 -0.000303152 0)
(-0.00288891 -0.00505718 0)
(-0.00494665 -0.00748462 0)
(-0.00631606 -0.00635654 0)
(-0.00761819 -0.00320243 0)
(-0.00884751 -0.00065674 0)
(-0.00951401 0.00158666 0)
(-0.00974097 0.00411709 0)
(-0.00954852 0.00695805 0)
(-0.00893895 0.00978667 0)
(-0.00795804 0.0119498 0)
(-0.00680222 0.012312 0)
(-0.00583631 0.00951701 0)
(-0.0050762 0.00378586 0)
(-0.00444422 -0.00149452 0)
(-0.00513722 -0.0027467 0)
(-0.005771 -0.00213894 0)
(-0.00608469 -0.00172735 0)
(-0.00625101 -0.0015082 0)
(-0.00630689 -0.00141138 0)
(-0.00628171 -0.00139357 0)
(-0.00619627 -0.00142884 0)
(-0.00606348 -0.00150304 0)
(-0.00589022 -0.0016102 0)
(-0.00568037 -0.00174956 0)
(-0.00543802 -0.00192248 0)
(-0.00516927 -0.00212897 0)
(-0.00488154 -0.00236505 0)
(-0.00458153 -0.00262275 0)
(-0.00427353 -0.00289261 0)
(-0.00395937 -0.00316705 0)
(-0.0036393 -0.00344247 0)
(-0.00331283 -0.00371981 0)
(-0.00297901 -0.00400425 0)
(-0.00263637 -0.00430433 0)
(-0.00228271 -0.00463022 0)
(-0.0019148 -0.00499031 0)
(-0.00152779 -0.0053861 0)
(-0.00111468 -0.00580464 0)
(-0.000669038 -0.00620684 0)
(-0.000192478 -0.00650636 0)
(0.000350202 -0.00647361 0)
(0.000826932 -0.00592186 0)
(0.00124339 -0.00499571 0)
(0.0016656 -0.0034862 0)
(0.00191459 -0.00179032 0)
(0.00192901 -0.000383157 0)
(0.00186765 0.000752749 0)
(0.00176884 0.00166681 0)
(0.00163784 0.00239752 0)
(0.00144428 0.00298353 0)
(0.00140529 0.00355248 0)
(0.000653807 0.00604045 0)
(0.00133714 0.0189345 0)
(-0.000752144 0.02196 0)
(-0.000753876 0.0159507 0)
(-0.00126858 0.0127988 0)
(-0.00135353 0.0108832 0)
(-0.00152302 0.00914612 0)
(-0.00159496 0.00728848 0)
(-0.00162409 0.00521009 0)
(-0.00164008 0.00289685 0)
(-0.000981449 6.33795e-05 0)
(-0.000330264 -0.00306384 0)
(0.000412076 -0.00558243 0)
(0.00122578 -0.00752081 0)
(0.00207241 -0.00903043 0)
(0.00293143 -0.0101245 0)
(0.00379052 -0.0108442 0)
(0.00462816 -0.0112295 0)
(0.00542973 -0.0113292 0)
(0.00618558 -0.0111917 0)
(0.0068892 -0.0108615 0)
(0.00753624 -0.0103786 0)
(0.00812372 -0.00977753 0)
(0.00864931 -0.00908782 0)
(0.00911082 -0.00833482 0)
(0.00950599 -0.00754022 0)
(0.00983249 -0.00672273 0)
(0.0100882 -0.00589865 0)
(0.0102715 -0.00508219 0)
(0.0103815 -0.00428567 0)
(0.0104187 -0.00351932 0)
(0.0103847 -0.00279099 0)
(0.0102829 -0.00210559 0)
(0.0101185 -0.00146425 0)
(0.00989837 -0.000863469 0)
(0.00962938 -0.000294109 0)
(0.00932344 0.000283691 0)
(0.00899951 0.00101406 0)
(0.00876689 0.00253543 0)
(0.00888809 0.00624842 0)
(0.00954725 0.0121889 0)
(0.0104203 0.0169665 0)
(0.0108135 0.0184217 0)
(0.0103471 0.0171554 0)
(0.00915418 0.0144938 0)
(0.00759409 0.0113919 0)
(0.00592879 0.00828304 0)
(0.00424114 0.00533854 0)
(0.00245907 0.00248522 0)
(-0.000936169 -0.0020773 0)
(-0.0040914 -0.00556871 0)
(-0.00568174 -0.00505704 0)
(-0.00700319 -0.00199784 0)
(-0.00844856 0.000477248 0)
(-0.00937527 0.0021318 0)
(-0.00973335 0.0041449 0)
(-0.00950472 0.00648053 0)
(-0.00871227 0.00883218 0)
(-0.00743167 0.0106179 0)
(-0.00588856 0.0108865 0)
(-0.00450212 0.00847501 0)
(-0.00347479 0.00334396 0)
(-0.00326363 -0.00126586 0)
(-0.00445342 -0.0019505 0)
(-0.00519885 -0.00161346 0)
(-0.00561749 -0.00142955 0)
(-0.0058448 -0.00136472 0)
(-0.00594363 -0.00137426 0)
(-0.00595599 -0.0014308 0)
(-0.00590811 -0.00152024 0)
(-0.00581444 -0.00163742 0)
(-0.0056817 -0.00178204 0)
(-0.00551273 -0.0019556 0)
(-0.00530984 -0.00215898 0)
(-0.0050766 -0.00239064 0)
(-0.00481798 -0.00264586 0)
(-0.00453935 -0.00291737 0)
(-0.00424541 -0.00319736 0)
(-0.00393978 -0.00347977 0)
(-0.00362502 -0.00376194 0)
(-0.00330295 -0.00404544 0)
(-0.00297472 -0.00433608 0)
(-0.00264076 -0.0046433 0)
(-0.00230045 -0.00497849 0)
(-0.00195144 -0.00535198 0)
(-0.00158863 -0.00576789 0)
(-0.00120302 -0.00621575 0)
(-0.000784374 -0.00665623 0)
(-0.000325442 -0.00699487 0)
(0.000184444 -0.00696243 0)
(0.000608833 -0.00633163 0)
(0.000936215 -0.00538763 0)
(0.00129642 -0.00381008 0)
(0.00155359 -0.00185638 0)
(0.00152589 -0.000346333 0)
(0.00147505 0.000820548 0)
(0.00142152 0.00175759 0)
(0.00134962 0.00251529 0)
(0.00120821 0.00312772 0)
(0.00124627 0.00372831 0)
(0.000568005 0.00628688 0)
(0.00121855 0.0197706 0)
(-0.000632005 0.02255 0)
(-0.000472303 0.0162149 0)
(-0.000764326 0.0128919 0)
(-0.000582659 0.0109256 0)
(-0.000516166 0.00915077 0)
(-0.000333797 0.00725064 0)
(-0.000101665 0.00507357 0)
(9.23713e-05 0.00248045 0)
(0.00108722 -0.000761324 0)
(0.00172587 -0.00372396 0)
(0.0024281 -0.00625148 0)
(0.00320372 -0.00829287 0)
(0.00401219 -0.00985223 0)
(0.0048186 -0.0109563 0)
(0.00560274 -0.0116556 0)
(0.00634931 -0.0120047 0)
(0.00704828 -0.0120582 0)
(0.0076943 -0.0118683 0)
(0.00828482 -0.0114823 0)
(0.00881884 -0.0109413 0)
(0.00929596 -0.0102807 0)
(0.00971566 -0.00953004 0)
(0.010077 -0.0087144 0)
(0.0103783 -0.00785514 0)
(0.0106176 -0.00697084 0)
(0.0107925 -0.00607795 0)
(0.010901 -0.0051912 0)
(0.0109416 -0.00432381 0)
(0.010914 -0.00348729 0)
(0.010819 -0.00269104 0)
(0.0106593 -0.00194177 0)
(0.0104399 -0.00124257 0)
(0.0101667 -0.000591903 0)
(0.00984853 2.4688e-05 0)
(0.00948834 0.000628555 0)
(0.00910648 0.00132587 0)
(0.00879725 0.00263827 0)
(0.00885252 0.00586529 0)
(0.00954318 0.0113037 0)
(0.0105707 0.0161604 0)
(0.0112605 0.018258 0)
(0.0112152 0.017759 0)
(0.0104595 0.0156785 0)
(0.00921739 0.0128978 0)
(0.00768944 0.00995275 0)
(0.00597196 0.00713742 0)
(0.00407451 0.00454185 0)
(0.00186866 0.00186306 0)
(-0.00242381 -0.00295086 0)
(-0.0046636 -0.00362779 0)
(-0.00586151 -0.000784525 0)
(-0.00750875 0.00184365 0)
(-0.00871785 0.00292577 0)
(-0.00930422 0.0042875 0)
(-0.00919451 0.00597523 0)
(-0.00841094 0.0077256 0)
(-0.00704331 0.00903419 0)
(-0.0053161 0.00911917 0)
(-0.00365646 0.00704546 0)
(-0.00257169 0.00279428 0)
(-0.00296688 -0.000488775 0)
(-0.0041346 -0.000996228 0)
(-0.0048444 -0.00102998 0)
(-0.00526893 -0.00109455 0)
(-0.00551226 -0.00118987 0)
(-0.0056383 -0.00130407 0)
(-0.00568719 -0.00143056 0)
(-0.00568207 -0.00157032 0)
(-0.00563383 -0.00172854 0)
(-0.00554605 -0.00191079 0)
(-0.00541928 -0.00212067 0)
(-0.00525421 -0.00235851 0)
(-0.00505323 -0.00262114 0)