/*--------------------------------*- C++ -*----------------------------------*\
| =========                 |                                                 |
| \\      /  F ield         | OpenFOAM: The Open Source CFD Toolbox           |
|  \\    /   O peration     | Version:  4.1                                   |
|   \\  /    A nd           | Web:      www.OpenFOAM.org                      |
|    \\/     M anipulation  |                                                 |
\*---------------------------------------------------------------------------*/
FoamFile
{
    version     2.0;
    format      ascii;
    class       volScalarField;
    location    "1220";
    object      mag(U);
}
// * * * * * * * * * * * * * * * * * * * * * * * * * * * * * * * * * * * * * //

dimensions      [0 1 -1 0 0 0 0];

internalField   nonuniform List<scalar> 
5000
(
0.00476349
0.00564998
0.0070541
0.00798827
0.00873905
0.00941001
0.0100383
0.010632
0.0111855
0.0116861
0.0121169
0.0124593
0.012694
0.0128017
0.0127634
0.0125563
0.0121628
0.0115725
0.0107808
0.00979063
0.00861342
0.00727149
0.00579931
0.00424673
0.0027038
0.00143491
0.00140669
0.00233723
0.00324041
0.00403393
0.00480216
0.00556106
0.00630056
0.00701246
0.00769288
0.00834081
0.00895752
0.00954602
0.0101104
0.0106553
0.0111853
0.0117045
0.0122167
0.0127248
0.0132307
0.0137355
0.0142395
0.014742
0.0152416
0.0157361
0.0162229
0.016699
0.0171607
0.0176044
0.0180263
0.0184225
0.0187893
0.0191228
0.0194196
0.0196763
0.0198901
0.0200582
0.0201788
0.0202503
0.0202736
0.0202519
0.020185
0.0200729
0.0199165
0.0197167
0.0194742
0.0191904
0.0188667
0.018505
0.0181073
0.0176759
0.0172136
0.0167233
0.0162085
0.015673
0.0151211
0.0145578
0.0139888
0.0134203
0.0128591
0.0123122
0.0117857
0.0112835
0.0108042
0.0103357
0.00984771
0.00927867
0.00851584
0.00736728
0.00566446
0.00346312
0.00250986
0.00373035
0.00377045
0.00316462
0.00690945
0.00589945
0.00701823
0.00803469
0.00891942
0.00971545
0.0104516
0.011135
0.0117596
0.0123123
0.0127761
0.0131329
0.0133647
0.0134547
0.0133863
0.0131522
0.0127428
0.0121519
0.0113793
0.0104303
0.0093185
0.00806854
0.00671991
0.00533516
0.00402286
0.0029804
0.00240461
0.00221853
0.00287249
0.0037699
0.00468742
0.00557168
0.0064114
0.00720796
0.00796486
0.00868571
0.00937448
0.0100356
0.0106737
0.0112935
0.0118993
0.0124949
0.0130838
0.0136686
0.014251
0.0148321
0.0154123
0.0159909
0.0165667
0.0171381
0.0177028
0.0182579
0.0188007
0.0193277
0.0198359
0.0203217
0.020782
0.0212136
0.0216135
0.0219789
0.0223074
0.0225967
0.0228447
0.0230498
0.0232087
0.0233169
0.0233735
0.0233785
0.023332
0.0232348
0.0230875
0.0228911
0.0226469
0.0223564
0.022021
0.0216426
0.0212231
0.0207644
0.0202689
0.019739
0.0191775
0.0185874
0.0179721
0.017335
0.0166798
0.0160095
0.0153259
0.0146279
0.0139103
0.0131599
0.012353
0.0114535
0.010422
0.00925575
0.00817706
0.00737074
0.00564143
0.00408437
0.00177654
0.00283181
0.00980066
0.00658054
0.00651828
0.00725035
0.00812641
0.00898876
0.00981104
0.0105811
0.0112852
0.0119072
0.0124298
0.012836
0.0131108
0.0132407
0.0132144
0.0130288
0.0126834
0.0121794
0.0115214
0.0107178
0.00978283
0.00873924
0.00762187
0.00648328
0.00540257
0.00449112
0.00385145
0.00323412
0.00319582
0.00381157
0.00461826
0.00545215
0.00626325
0.00704094
0.0077841
0.00849427
0.00917456
0.00982912
0.0104624
0.0110791
0.0116833
0.0122789
0.0128691
0.0134564
0.0140423
0.0146278
0.0152129
0.0157969
0.0163785
0.0169558
0.0175264
0.0180877
0.0186366
0.0191702
0.0196852
0.0201783
0.0206465
0.0210867
0.0214962
0.0218722
0.0222124
0.0225145
0.0227767
0.022997
0.0231738
0.023306
0.0233923
0.0234314
0.0234232
0.0233679
0.023266
0.0231179
0.0229243
0.0226861
0.0224042
0.0220796
0.0217132
0.021306
0.0208588
0.0203725
0.0198482
0.0192868
0.0186895
0.0180574
0.0173918
0.0166934
0.0159625
0.0151985
0.0143988
0.0135596
0.0126774
0.0117576
0.0108371
0.0100133
0.00944349
0.00911815
0.00797791
0.00627025
0.0043202
0.00292531
0.0124808
0.00776316
0.0065683
0.00685231
0.00760117
0.00845126
0.00930096
0.0101074
0.0108442
0.0114904
0.0120283
0.0124438
0.0127261
0.0128681
0.0128648
0.0127217
0.0124472
0.0120483
0.0115341
0.0109142
0.0101997
0.00940374
0.00854304
0.00764166
0.00673887
0.00589925
0.00519623
0.0045381
0.00402157
0.00431058
0.00489659
0.00558784
0.00630261
0.00701189
0.00770405
0.00837459
0.00902322
0.00965199
0.0102641
0.0108634
0.0114533
0.0120373
0.012618
0.0131976
0.0137772
0.0143573
0.0149377
0.0155172
0.0160944
0.0166673
0.0172334
0.0177902
0.0183346
0.0188638
0.0193747
0.0198643
0.0203295
0.0207675
0.0211757
0.0215513
0.0218921
0.0221958
0.0224604
0.022684
0.0228651
0.0230022
0.0230949
0.0231418
0.0231428
0.0230982
0.0230085
0.0228741
0.0226959
0.0224747
0.0222113
0.0219066
0.0215613
0.0211758
0.0207503
0.0202849
0.0197793
0.0192333
0.0186463
0.0180181
0.0173483
0.0166369
0.0158842
0.0150911
0.0142602
0.0133979
0.0125189
0.0116576
0.0108859
0.0103136
0.00998092
0.00971582
0.00879683
0.00727117
0.00547122
0.00401056
0.0147143
0.00898648
0.00703837
0.00691328
0.00745954
0.00820472
0.00899239
0.00975245
0.0104463
0.0110492
0.0115442
0.0119203
0.012172
0.0122985
0.0123012
0.0121937
0.0119943
0.0117158
0.011371
0.0109687
0.0105123
0.00999853
0.0094163
0.00875227
0.0080083
0.00722808
0.00649523
0.00584025
0.00509545
0.00512493
0.00546459
0.0059618
0.00653173
0.00713284
0.00774264
0.00834909
0.00894678
0.00953436
0.0101127
0.0106838
0.0112501
0.0118139
0.0123772
0.0129411
0.0135062
0.0140726
0.0146393
0.0152052
0.0157685
0.0163273
0.0168793
0.0174219
0.0179526
0.0184686
0.0189673
0.0194459
0.0199017
0.0203319
0.0207341
0.0211057
0.0214445
0.0217481
0.0220144
0.0222414
0.0224271
0.0225699
0.0226688
0.0227226
0.0227304
0.0226926
0.0226099
0.0224827
0.0223121
0.0220993
0.0218453
0.0215512
0.0212177
0.0208454
0.0204343
0.0199839
0.0194935
0.0189618
0.0183875
0.0177691
0.0171054
0.0163961
0.015642
0.0148461
0.0140155
0.0131644
0.0123199
0.0115309
0.0108774
0.0104516
0.0102293
0.00997029
0.00918199
0.00789407
0.00662699
0.00631308
0.0165881
0.0101201
0.00771324
0.00729364
0.0076229
0.00820063
0.00885084
0.00948938
0.0100706
0.0105676
0.0109648
0.0112547
0.0114374
0.0115189
0.0115079
0.0114278
0.0113059
0.0111601
0.0110054
0.0108477
0.0106803
0.0104787
0.0101984
0.00978362
0.00919962
0.00848259
0.00774379
0.0070847
0.00625324
0.00608802
0.00620552
0.00649959
0.0069015
0.00736856
0.00787229
0.00839454
0.00892476
0.00945757
0.00999078
0.0105241
0.011058
0.0115933
0.0121307
0.0126703
0.0132118
0.0137546
0.0142974
0.0148388
0.015377
0.0159103
0.0164368
0.0169543
0.0174608
0.017954
0.0184316
0.0188913
0.0193308
0.0197476
0.0201395
0.0205042
0.0208394
0.0211429
0.0214124
0.0216455
0.0218401
0.0219938
0.0221049
0.0221717
0.022192
0.022166
0.0220944
0.0219776
0.0218168
0.0216135
0.0213692
0.0210855
0.0207636
0.0204045
0.0200085
0.0195753
0.019104
0.018593
0.0180405
0.0174445
0.0168033
0.0161164
0.0153849
0.0146136
0.0138125
0.0130008
0.0122116
0.0114987
0.0109377
0.0105992
0.0104322
0.0101882
0.00951662
0.00853739
0.00802572
0.00892255
0.0182051
0.0111576
0.008466
0.00785162
0.00798612
0.00837281
0.00883987
0.00930259
0.00971509
0.0100518
0.0103005
0.0104592
0.0105352
0.0105433
0.0105011
0.0104438
0.0104023
0.0103981
0.0104466
0.0105501
0.0106914
0.0108245
0.0108687
0.0107212
0.0103081
0.00966448
0.00893699
0.00826318
0.00741517
0.00710089
0.00703067
0.00713436
0.00736415
0.00768431
0.00806639
0.00848929
0.00893858
0.00940507
0.00988322
0.0103698
0.0108631
0.0113617
0.0118647
0.0123709
0.0128791
0.0133877
0.0138953
0.0144005
0.0149018
0.0153978
0.0158872
0.0163685
0.0168402
0.0173007
0.0177481
0.0181807
0.0185964
0.0189933
0.0193695
0.0197229
0.0200516
0.0203535
0.0206261
0.0208672
0.0210742
0.0212443
0.0213746
0.0214635
0.0215058
0.0215016
0.0214508
0.0213534
0.0212106
0.021024
0.0207954
0.0205272
0.0202212
0.0198792
0.0195022
0.0190907
0.0186443
0.0181616
0.0176411
0.0170805
0.0164781
0.0158333
0.0151477
0.0144267
0.013682
0.0129344
0.0122187
0.0115868
0.0111047
0.010823
0.0106845
0.0104682
0.0099277
0.00928347
0.00950205
0.0113979
0.0196263
0.0121045
0.00922728
0.00848578
0.00845933
0.00865973
0.00892715
0.00918388
0.00938945
0.00952381
0.00958165
0.00957022
0.00950767
0.00942054
0.00933716
0.00930466
0.00934804
0.00948834
0.00973977
0.0101034
0.0105556
0.0110323
0.0114175
0.011556
0.0113272
0.0107676
0.010065
0.00937238
0.00853838
0.008108
0.00788121
0.00781469
0.00787943
0.00805012
0.00830274
0.00861655
0.00897515
0.0093663
0.0097812
0.0102135
0.0106587
0.011113
0.0115734
0.0120374
0.0125026
0.012967
0.013429
0.0138873
0.0143411
0.0147897
0.0152322
0.0156681
0.0160964
0.016516
0.0169256
0.0173238
0.017709
0.0180795
0.0184338
0.0187703
0.0190874
0.0193833
0.019656
0.0199032
0.0201223
0.0203104
0.0204639
0.0205812
0.0206546
0.0206823
0.0206634
0.0205972
0.0204839
0.0203249
0.0201222
0.0198785
0.0195964
0.0192786
0.0189272
0.0185438
0.018129
0.0176824
0.017203
0.0166892
0.0161397
0.015554
0.0149337
0.0142845
0.0136179
0.0129545
0.012327
0.0117817
0.0113726
0.0111349
0.0110162
0.0108387
0.0104369
0.0101062
0.0109427
0.0136437
0.0208874
0.0129634
0.00995642
0.00913057
0.00897631
0.00901046
0.00908377
0.00912688
0.00910707
0.00901295
0.00885034
0.00864106
0.00841986
0.00822983
0.00811168
0.00811802
0.00825359
0.00853242
0.00896724
0.00956417
0.0103035
0.011113
0.0118442
0.0122824
0.0122492
0.0117823
0.0111155
0.0104063
0.00959731
0.00907611
0.00871886
0.00850336
0.00841588
0.00844186
0.00856398
0.00876436
0.0090265
0.0093362
0.00968178
0.0100538
0.0104445
0.0108478
0.0112586
0.0116726
0.0120867
0.0124987
0.0129069
0.0133108
0.0137099
0.0141043
0.014494
0.0148791
0.015259
0.0156331
0.0160004
0.0163594
0.016709
0.0170478
0.0173745
0.017688
0.0179871
0.0182706
0.0185371
0.0187846
0.019011
0.0192133
0.0193881
0.0195325
0.0196414
0.0197079
0.0197293
0.0197044
0.0196319
0.0195122
0.019347
0.019139
0.0188912
0.0186071
0.0182901
0.0179428
0.0175673
0.0171646
0.016735
0.0162778
0.0157924
0.0152787
0.0147386
0.0141771
0.0136048
0.0130401
0.0125114
0.0120574
0.0117205
0.011525
0.0114282
0.011297
0.0110283
0.0109692
0.0123128
0.0156759
0.0220132
0.0137367
0.01063
0.00974594
0.00949219
0.00938609
0.00928459
0.00912438
0.00887978
0.00854897
0.00815228
0.00773243
0.00734932
0.00706956
0.00694752
0.00702254
0.00726188
0.00766289
0.00823865
0.00901181
0.00998371
0.0110898
0.012156
0.012899
0.0130668
0.012698
0.012076
0.0113578
0.0105749
0.00998311
0.00951772
0.00917374
0.0089497
0.00884071
0.00883673
0.00892419
0.00908795
0.00931292
0.00958513
0.00989223
0.0102236
0.0105705
0.0109259
0.0112843
0.0116418
0.0119962
0.0123463
0.0126919
0.0130335
0.0133718
0.0137074
0.0140408
0.0143717
0.0146996
0.0150232
0.0153413
0.0156527
0.0159561
0.0162506
0.0165356
0.0168105
0.0170747
0.0173273
0.0175672
0.0177928
0.0180016
0.0181906
0.0183563
0.0184972
0.0186016
0.0186661
0.0186878
0.0186634
0.0185921
0.0184744
0.0183125
0.0181095
0.0178694
0.0175963
0.0172941
0.0169663
0.0166156
0.0162437
0.0158514
0.0154391
0.0150073
0.0145578
0.014095
0.0136276
0.0131706
0.0127471
0.0123877
0.0121248
0.0119751
0.011907
0.0118258
0.0116772
0.0118457
0.0136065
0.0175241
0.0230227
0.0144281
0.0112358
0.0103089
0.00997856
0.00975891
0.00950882
0.00916777
0.00871458
0.0081557
0.00752718
0.00689863
0.00636622
0.00602979
0.00596157
0.00614907
0.00650735
0.00700689
0.00766493
0.00853327
0.00965491
0.0109958
0.0123675
0.0134082
0.0137749
0.013506
0.0129349
0.0122195
0.011459
0.0108134
0.0102597
0.00980703
0.00946362
0.00923275
0.00911125
0.00909027
0.00915699
0.00929639
0.00949296
0.00973197
0.0100003
0.0102869
0.0105832
0.0108826
0.0111811
0.0114765
0.0117679
0.012056
0.0123418
0.0126264
0.0129109
0.0131956
0.0134804
0.0137641
0.0140455
0.014323
0.0145951
0.0148609
0.0151198
0.0153717
0.0156169
0.0158553
0.0160869
0.0163112
0.0165273
0.0167335
0.0169274
0.0171051
0.0172691
0.0174044
0.0175077
0.0175745
0.0176001
0.0175813
0.0175175
0.0174095
0.01726
0.0170729
0.0168527
0.0166045
0.0163328
0.016042
0.0157352
0.015415
0.0150828
0.01474
0.0143881
0.0140307
0.0136739
0.0133292
0.013014
0.012751
0.0125641
0.0124656
0.0124332
0.0124037
0.0123601
0.0127172
0.0148256
0.0192142
0.0239309
0.015042
0.0117687
0.0108075
0.0104186
0.0101103
0.00974013
0.00924745
0.00861251
0.00784711
0.00700142
0.00617504
0.0055137
0.00516616
0.00522159
0.0055683
0.00605869
0.00663371
0.00731873
0.00819905
0.00937461
0.0108688
0.0124988
0.0138166
0.014371
0.0142001
0.0136831
0.0129835
0.0122417
0.0115562
0.0109326
0.0103906
0.00994602
0.00960872
0.00938129
0.00925943
0.00923302
0.00928792
0.00940794
0.00957678
0.0097795
0.0100035
0.0102389
0.0104787
0.0107188
0.010957
0.0111931
0.0114279
0.0116629
0.0118995
0.0121385
0.0123801
0.0126234
0.0128668
0.0131083
0.013346
0.0135783
0.0138046
0.0140249
0.0142398
0.0144504
0.0146576
0.0148621
0.0150641
0.0152633
0.0154585
0.0156481
0.0158285
0.016002
0.0161599
0.016294
0.0163994
0.0164712
0.0165042
0.0164959
0.0164458
0.0163555
0.0162282
0.0160685
0.0158819
0.0156739
0.0154501
0.0152152
0.0149731
0.0147266
0.0144775
0.0142275
0.0139786
0.0137348
0.0135036
0.0132966
0.01313
0.0130209
0.0129781
0.0129875
0.0130097
0.0130568
0.0135706
0.0159743
0.0207676
0.0247496
0.0155831
0.0122278
0.0112366
0.0108031
0.0104282
0.00996601
0.00935342
0.00856931
0.00762698
0.00658626
0.00557547
0.00480322
0.00449422
0.00472469
0.00526548
0.00589155
0.00652668
0.00720664
0.00804085
0.00918562
0.0107456
0.0125733
0.0141338
0.0148556
0.0147772
0.0143147
0.0136426
0.0129173
0.0122048
0.0115288
0.0109169
0.0103903
0.00996364
0.00964409
0.00943114
0.00931745
0.00929035
0.00933395
0.00943144
0.00956706
0.00972739
0.00990205
0.0100838
0.0102684
0.0104539
0.0106403
0.0108284
0.0110197
0.0112153
0.0114156
0.0116202
0.0118271
0.012034
0.0122378
0.0124362
0.0126277
0.0128122
0.0129906
0.0131647
0.0133365
0.0135078
0.0136803
0.0138546
0.0140309
0.0142086
0.0143864
0.0145617
0.0147339
0.0149042
0.0150589
0.0151943
0.0153053
0.0153855
0.0154308
0.0154392
0.0154107
0.0153476
0.0152539
0.015135
0.0149971
0.0148465
0.0146892
0.0145302
0.0143734
0.0142212
0.0140748
0.0139352
0.0138038
0.0136843
0.0135836
0.0135119
0.0134807
0.0134969
0.0135523
0.013625
0.0137507
0.014397
0.0170575
0.0222022
0.0254887
0.0160565
0.0126151
0.0115948
0.0111275
0.010705
0.0101766
0.00947552
0.00857665
0.00749062
0.00627999
0.00509472
0.00421462
0.00397436
0.00441763
0.00516847
0.00592296
0.00661044
0.00727902
0.0080459
0.00910629
0.0106548
0.0126134
0.0143704
0.0152316
0.0152367
0.014827
0.0141915
0.0134832
0.0127561
0.0120452
0.0113828
0.010794
0.0102964
0.00990003
0.00960741
0.00941374
0.00930833
0.00927659
0.00930244
0.0093704
0.0094672
0.0095825
0.00970906
0.00984256
0.00998102
0.0101241
0.0102726
0.0104274
0.0105891
0.0107575
0.0109307
0.011106
0.0112792
0.0114466
0.0116054
0.0117543
0.0118941
0.0120271
0.0121566
0.0122856
0.0124172
0.0125534
0.0126957
0.0128445
0.0129994
0.0131595
0.0133231
0.0134879
0.0136605
0.0138258
0.013982
0.0141242
0.0142455
0.0143406
0.0144057
0.0144397
0.0144432
0.0144192
0.0143728
0.01431
0.0142376
0.0141624
0.0140904
0.014026
0.0139721
0.0139295
0.0138978
0.0138761
0.0138649
0.0138666
0.0138867
0.0139325
0.0140091
0.0141125
0.0142343
0.0144287
0.0151898
0.0180798
0.023533
0.0261568
0.0164674
0.0129337
0.0118836
0.0113899
0.0109353
0.0103636
0.00960319
0.00862326
0.00742745
0.00607265
0.0047171
0.00371169
0.00354958
0.00423563
0.00519934
0.00606766
0.00680237
0.00746627
0.00817171
0.00912913
0.0106121
0.0126372
0.0145366
0.0155038
0.0155802
0.0152201
0.0146272
0.0139389
0.0132102
0.0124821
0.0117893
0.0111586
0.010609
0.0101522
0.00979244
0.00952734
0.00934853
0.00924364
0.0091985
0.00919912
0.00923325
0.00929114
0.00936574
0.00945258
0.00954936
0.00965529
0.00977044
0.00989509
0.010029
0.0101709
0.0103176
0.0104647
0.0106065
0.010738
0.0108559
0.0109598
0.0110519
0.0111362
0.0112176
0.0113006
0.0113891
0.0114858
0.0115921
0.0117089
0.0118361
0.0119731
0.0121188
0.0122707
0.0124383
0.012606
0.0127747
0.0129407
0.0130972
0.0132379
0.0133578
0.0134539
0.0135253
0.0135738
0.0136033
0.0136195
0.0136293
0.0136397
0.0136573
0.0136869
0.0137313
0.0137911
0.0138643
0.0139482
0.0140402
0.0141392
0.0142469
0.0143672
0.014504
0.0146561
0.0148249
0.0150806
0.0159444
0.0190451
0.0247715
0.0267613
0.0168213
0.0131883
0.0121056
0.0115901
0.0111152
0.010519
0.00972515
0.00869542
0.00742304
0.00595036
0.00442545
0.00325647
0.00316904
0.00412928
0.00530168
0.00626547
0.00704136
0.0077082
0.00836784
0.00922798
0.0106174
0.0126542
0.0146398
0.0156777
0.0158111
0.0154964
0.0149495
0.0142867
0.0135703
0.0128432
0.0121403
0.0114882
0.0109059
0.0104053
0.0099919
0.00966509
0.00941921
0.00924477
0.00913058
0.00906508
0.00903784
0.00904024
0.00906556
0.00910918
0.00916834
0.00924151
0.0093279
0.00942694
0.00953743
0.0096568
0.00978045
0.00990183
0.0100134
0.0101088
0.0101844
0.0102409
0.0102825
0.0103154
0.0103464
0.0103812
0.0104243
0.0104786
0.0105455
0.0106259
0.01072
0.0108275
0.0109483
0.0110811
0.011232
0.0113987
0.0115744
0.0117585
0.0119461
0.0121297
0.0123031
0.0124616
0.0126025
0.0127257
0.012834
0.0129323
0.0130271
0.0131255
0.0132342
0.013358
0.0134997
0.0136591
0.0138331
0.0140171
0.0142062
0.0143964
0.0145865
0.0147779
0.0149731
0.0151732
0.0153867
0.0156981
0.0166572
0.0199564
0.0259272
0.0273092
0.0171238
0.013384
0.0122643
0.0117288
0.0112413
0.0106352
0.00982911
0.00877728
0.00746011
0.005898
0.00420789
0.00281909
0.00279324
0.00406823
0.00543998
0.00647993
0.00728956
0.00796309
0.00859087
0.00936939
0.0106582
0.0126652
0.0146838
0.0157583
0.0159335
0.0156606
0.0151601
0.0145321
0.0138422
0.0131341
0.0124412
0.0117882
0.0111923
0.0106648
0.0102118
0.00983413
0.00952914
0.00929057
0.00911084
0.00898153
0.00889458
0.00884302
0.00882066
0.00882287
0.00884642
0.00888898
0.00894884
0.00902446
0.00911365
0.00921254
0.00931482
0.00941173
0.00949352
0.00955215
0.00958411
0.00959153
0.00958107
0.00956149
0.00954125
0.00952704
0.00952341
0.00953297
0.00955701
0.00959613
0.00965071
0.00972139
0.00980914
0.00991473
0.0100431
0.0102002
0.0103768
0.0105755
0.0107921
0.0110181
0.0112459
0.0114685
0.0116811
0.0118816
0.0120714
0.0122542
0.0124361
0.0126238
0.0128238
0.013041
0.0132777
0.0135328
0.0138024
0.0140802
0.0143594
0.0146341
0.0149006
0.0151586
0.0154094
0.0156558
0.0159116
0.016275
0.0173255
0.0208162
0.0270072
0.0278067
0.0173805
0.0135265
0.0123644
0.0118076
0.0113114
0.0107046
0.00990219
0.00885101
0.00751862
0.0058995
0.00406087
0.00238645
0.0023943
0.00403665
0.00558977
0.00668892
0.00752448
0.00820474
0.00880911
0.00952062
0.0107142
0.0126624
0.014669
0.0157493
0.0159519
0.0157188
0.0152641
0.0146835
0.0140349
0.0133631
0.0126993
0.0120638
0.0114727
0.0109348
0.0104567
0.0100402
0.00968579
0.00939046
0.00915057
0.00896114
0.00881673
0.00871252
0.00864304
0.00860387
0.00859162
0.00860321
0.00863606
0.00868778
0.00875522
0.00883331
0.00891399
0.0089862
0.00903773
0.00905897
0.00904659
0.00900465
0.00894258
0.0088715
0.0088012
0.00873861
0.00868783
0.00865077
0.00862814
0.00862026
0.00862787
0.00865262
0.00869733
0.00876552
0.0088633
0.0090029
0.00917505
0.00938629
0.00963228
0.00990325
0.0101888
0.0104793
0.0107671
0.011048
0.0113216
0.0115908
0.0118609
0.0121381
0.0124287
0.0127372
0.0130653
0.0134113
0.0137702
0.0141348
0.0144967
0.0148485
0.0151851
0.0155044
0.0158074
0.0160975
0.0163934
0.0168062
0.0179473
0.0216266
0.0280177
0.0282596
0.0175972
0.0136222
0.0124113
0.0118298
0.0113245
0.0107212
0.00993188
0.0088977
0.00757551
0.00593566
0.00398716
0.00197617
0.0019578
0.00403119
0.00573078
0.00687723
0.00773162
0.00841589
0.00900108
0.00965559
0.0107641
0.0126331
0.0145897
0.0156524
0.0158704
0.0156778
0.0152728
0.0147475
0.0141572
0.0135407
0.0129236
0.0123214
0.0117515
0.011218
0.0107287
0.0102859
0.00989311
0.00955026
0.00925742
0.00901329
0.00881473
0.00865955
0.00854306
0.00846134
0.00841125
0.00838916
0.00839187
0.0084164
0.00845886
0.0085132
0.00856986
0.00861559
0.00863575
0.00861926
0.00856317
0.00847376
0.00836313
0.00824421
0.0081272
0.00801839
0.00792075
0.00783513
0.0077615
0.0076999
0.00765144
0.00761913
0.00760839
0.00762658
0.00768335
0.00779731
0.00796069
0.00818441
0.00846366
0.00878553
0.0091354
0.00949959
0.00986726
0.0102319
0.0105915
0.0109481
0.0113062
0.011672
0.012051
0.0124474
0.0128623
0.0132933
0.0137347
0.0141784
0.0146151
0.0150364
0.0154362
0.0158115
0.0161624
0.0164933
0.0168271
0.0172881
0.0185213
0.0223894
0.0289633
0.0286735
0.0177799
0.0136782
0.0124118
0.0118
0.0112821
0.0106814
0.00990806
0.00889967
0.00760709
0.00598299
0.00398864
0.00167746
0.00151082
0.00405846
0.00584391
0.00703099
0.00789958
0.00858469
0.00915253
0.00975282
0.010777
0.0125637
0.0144406
0.0154676
0.0156932
0.0155448
0.015198
0.0147398
0.0142194
0.0136711
0.0131162
0.0125677
0.0120336
0.0115172
0.0110283
0.0105711
0.0101504
0.00977032
0.00943311
0.00914153
0.00889367
0.00869039
0.00852756
0.00840188
0.00831093
0.00825077
0.00821799
0.00820949
0.00822107
0.00824615
0.00827416
0.00829011
0.00827731
0.00822342
0.00812613
0.00799386
0.00784082
0.00768063
0.00752257
0.00737122
0.00722779
0.00709185
0.00696262
0.00683975
0.00672458
0.00662161
0.00653966
0.00649165
0.00649372
0.00657309
0.00672467
0.00696446
0.00728553
0.00766865
0.00809251
0.00853804
0.00899078
0.0094421
0.00988889
0.0103325
0.0107773
0.0112289
0.0116928
0.0121724
0.0126683
0.0131775
0.0136938
0.0142084
0.0147117
0.0151948
0.0156508
0.016076
0.0164705
0.0168391
0.0172087
0.0177179
0.0190468
0.0231065
0.0298483
0.0290536
0.0179346
0.0137021
0.0123737
0.0117251
0.0111884
0.0105859
0.00982754
0.00884808
0.00759127
0.00601293
0.00405943
0.0016747
0.00118279
0.0040975
0.00590705
0.00713416
0.00801678
0.00869627
0.00924213
0.0097917
0.0107347
0.0124373
0.0142216
0.0151938
0.0154253
0.0153274
0.0150497
0.0146717
0.0142358
0.0137693
0.0132876
0.0127998
0.0123121
0.0118289
0.0113551
0.0108943
0.0104539
0.0100466
0.0096733
0.00934277
0.00905205
0.00880528
0.00859832
0.00842814
0.00829356
0.00819033
0.0081154
0.0080662
0.00803881
0.00802687
0.00801962
0.00800118
0.00795351
0.00786352
0.00772967
0.00756211
0.00737599
0.00718402
0.00699305
0.00680483
0.00661831
0.00643162
0.00624317
0.00605189
0.0058588
0.0056694
0.00549617
0.00535977
0.00528764
0.0053185
0.00545882
0.00572437
0.00610272
0.00656285
0.00707325
0.00760844
0.00815071
0.00869014
0.00922336
0.00975178
0.0102798
0.0108129
0.0113563
0.0119129
0.0124827
0.0130623
0.0136451
0.0142222
0.0147836
0.0153205
0.0158256
0.016295
0.0167285
0.0171315
0.0175353
0.0180938
0.0195239
0.0237795
0.0306762
0.029405
0.0180674
0.0137018
0.0123058
0.0116137
0.0110513
0.0104401
0.00968304
0.0087218
0.00750218
0.00597604
0.00409631
0.00184656
0.00144468
0.00405002
0.00590257
0.00716441
0.00806709
0.00874762
0.00926999
0.00976367
0.0106246
0.0122423
0.0139213
0.0148283
0.0150725
0.0150339
0.0148374
0.0145529
0.0142149
0.0138428
0.0134459
0.0130289
0.012595
0.0121479
0.0116939
0.0112408
0.0107975
0.0103726
0.00997031
0.00960907
0.00928302
0.00899868
0.00875186
0.00853843
0.00835878
0.00820815
0.00808438
0.00798611
0.00791043
0.00785214
0.00780146
0.00774288
0.00765821
0.00753435
0.00737057
0.00717785
0.00697069
0.00675908
0.00654602
0.00632964
0.00610623
0.00587226
0.00562493
0.00536181
0.00508216
0.00479081
0.00450258
0.00424705
0.0040688
0.00403032
0.00416041
0.00447079
0.00493179
0.00549012
0.00610071
0.00673223
0.00736556
0.00799132
0.00860712
0.0092152
0.0098204
0.0104284
0.0110439
0.0116696
0.012305
0.0129463
0.0135865
0.014217
0.0148281
0.0154107
0.0159579
0.0164656
0.0169334
0.0173679
0.0178048
0.0184148
0.0199532
0.0244104
0.0314502
0.0297324
0.0181844
0.0136855
0.0122175
0.0114758
0.0108801
0.0102469
0.0094863
0.00853704
0.00734717
0.0058716
0.00407988
0.00204433
0.00185916
0.00410245
0.00589691
0.00715478
0.00806418
0.00873864
0.0092296
0.0096603
0.010437
0.0119689
0.0135333
0.0143715
0.0146414
0.0146728
0.0145704
0.0143925
0.0141643
0.0138973
0.0135943
0.0132558
0.0128824
0.0124776
0.0120483
0.0116047
0.0111592
0.0107253
0.0103129
0.00993059
0.00957733
0.00926185
0.0089811
0.00872744
0.00850335
0.00830294
0.00812494
0.00796991
0.00783656
0.00772197
0.00761879
0.00751351
0.00738936
0.00723426
0.00704826
0.00684197
0.00662738
0.00641018
0.0061886
0.00595689
0.00570864
0.00543828
0.00514117
0.00481273
0.00444846
0.00404872
0.00362513
0.003211
0.00287371
0.00272261
0.00284102
0.00323089
0.00381251
0.00449291
0.00521342
0.00594157
0.00666103
0.00736567
0.00805554
0.00873416
0.00940721
0.0100805
0.0107586
0.0114436
0.0121346
0.0128275
0.0135156
0.0141901
0.014842
0.0154625
0.016045
0.0165852
0.017083
0.0175461
0.0180157
0.0186808
0.0203358
0.0250013
0.0321733
0.0300402
0.0182912
0.0136612
0.0121183
0.0113217
0.0106847
0.0100206
0.00924807
0.00830164
0.00713197
0.00570043
0.0039958
0.00218493
0.00223673
0.00420127
0.00588149
0.00710929
0.00801342
0.00867281
0.00912147
0.00947861
0.0101667
0.0116103
0.0130527
0.0138276
0.0141392
0.0142528
0.0142574
0.0141979
0.01409
0.0139366
0.0137346
0.01348
0.0131716
0.0128126
0.0124114
0.0119813
0.0115385
0.0110993
0.0106773
0.0102827
0.0099187
0.00958493
0.00927782
0.00898839
0.00872291
0.00847275
0.00823751
0.00802007
0.00782113
0.00764099
0.00747614
0.00731696
0.00715013
0.00696594
0.00676504
0.00655629
0.00634755
0.00613925
0.00592472
0.00569465
0.00544037
0.00515414
0.00482923
0.00445888
0.00403493
0.00355045
0.00300421
0.00240978
0.00182553
0.00143911
0.00153488
0.00208325
0.00283558
0.00364984
0.00447265
0.00528242
0.00607125
0.00683849
0.00758741
0.00832223
0.00904955
0.00977525
0.0105034
0.0112357
0.0119709
0.0127044
0.0134297
0.0141387
0.0148226
0.0154732
0.0160842
0.0166515
0.0171753
0.0176648
0.0181674
0.0188923
0.0206736
0.0255547
0.0328483
0.0303324
0.0183931
0.0136363
0.0120173
0.0111615
0.0104762
0.00977485
0.00897998
0.00802645
0.00686613
0.00546709
0.00383591
0.00223536
0.00253775
0.00430891
0.00586249
0.00704429
0.00792979
0.00855983
0.00895025
0.00921937
0.00981268
0.0111634
0.0124789
0.0132028
0.0135733
0.013782
0.0139056
0.013975
0.0139959
0.0139628
0.0138667
0.0136998
0.013459
0.0131477
0.0127763
0.0123617
0.0119244
0.0114851
0.0110605
0.0106611
0.0102898
0.00994541
0.00962257
0.00931354
0.00901329
0.00871619
0.00842401
0.00814221
0.00787277
0.00761964
0.0073848
0.00716418
0.00695009
0.00673673
0.00652566
0.00632283
0.00613075
0.00594428
0.00575245
0.00554318
0.00530628
0.00503235
0.00471335
0.0043415
0.00390857
0.00340568
0.00282494
0.00216034
0.00140899
0.000574634
0.000361966
0.0012897
0.00220638
0.00310064
0.00397299
0.00482033
0.00564268
0.0064429
0.00722527
0.00799475
0.00875762
0.00951881
0.0102815
0.0110468
0.011813
0.0125749
0.0133262
0.0140596
0.0147668
0.0154399
0.0160731
0.0166625
0.0172087
0.0177229
0.0182599
0.0190509
0.0209691
0.0260731
0.0334782
0.0306125
0.018495
0.0136175
0.0119227
0.0110047
0.0102665
0.00952222
0.00869616
0.00772485
0.00656105
0.00517853
0.00360003
0.00220715
0.0027754
0.00440768
0.00584672
0.00697647
0.0078288
0.00841049
0.00872227
0.00888578
0.00937698
0.0106278
0.0118136
0.0125062
0.0129514
0.0132678
0.013521
0.0137277
0.0138835
0.0139754
0.0139887
0.0139121
0.0137406
0.0134779
0.0131368
0.0127384
0.0123088
0.0118733
0.0114517
0.0110552
0.010686
0.0103401
0.0100092
0.0096841
0.00935826
0.00902666
0.00868785
0.00834527
0.0080051
0.00767464
0.00736381
0.00707463
0.00680685
0.00656012
0.00633841
0.00614472
0.0059755
0.00582035
0.00566494
0.00549523
0.00529909
0.0050669
0.00479048
0.00446259
0.00407675
0.00362793
0.00311479
0.00254419
0.00194361
0.00140007
0.00117291
0.00152266
0.00219988
0.00298057
0.00378921
0.00460002
0.00540311
0.00619715
0.00699242
0.00777003
0.00854456
0.00932003
0.0100982
0.0108792
0.0116606
0.0124368
0.0132021
0.0139497
0.0146717
0.0153601
0.0160095
0.0166164
0.017182
0.0177201
0.0182944
0.0191591
0.0212256
0.0265594
0.0340658
0.0308837
0.0186009
0.0136108
0.0118418
0.0108602
0.0100653
0.00927615
0.00841055
0.00741012
0.00622721
0.00484065
0.0032942
0.00214297
0.00297721
0.00450511
0.00584788
0.00692193
0.00772357
0.0082338
0.00844347
0.00848211
0.00886418
0.0100073
0.0110601
0.0117476
0.0122811
0.0127166
0.0131075
0.0134573
0.0137523
0.0139724
0.0140976
0.0141131
0.0140121
0.0137985
0.0134878
0.0131062
0.0126856
0.0122569
0.0118435
0.011457
0.0110982
0.01076
0.0104313
0.0101007
0.00975888
0.00939985
0.00902208
0.00862883
0.00822706
0.00782685
0.00744006
0.00707796
0.00674969
0.0064627
0.00622288
0.00603145
0.00588166
0.00575933
0.00564714
0.00552883
0.00539113
0.00522377
0.00501875
0.00477002
0.00447363
0.00412887
0.00374075
0.00332444
0.00291295
0.00256815
0.00238449
0.00247537
0.00282183
0.00335142
0.00398671
0.00467886
0.00540065
0.00613902
0.00689273
0.00764788
0.00840768
0.00917402
0.00994685
0.0107248
0.0115118
0.01229
0.0130565
0.0138075
0.0145348
0.0152312
0.0158917
0.0165122
0.0170949
0.0176572
0.0182726
0.01922
0.0214466
0.0270167
0.0346141
0.0311486
0.0187143
0.0136208
0.0117807
0.0107353
0.00988049
0.0090475
0.00813582
0.00709213
0.00586975
0.00445474
0.00293003
0.00212392
0.00318139
0.00462006
0.00588267
0.00689408
0.00762306
0.00803546
0.00811818
0.0080127
0.00827963
0.00930643
0.0102263
0.0109371
0.0115695
0.0121327
0.0126666
0.0131628
0.0135993
0.0139494
0.0141886
0.0142981
0.0142691
0.0141055
0.0138255
0.0134607
0.0130503
0.0126313
0.0122307
0.0118608
0.0115202
0.0111988
0.0108825
0.0105571
0.0102117
0.00983877
0.00943599
0.00900574
0.00855496
0.00809485
0.00764018
0.00720741
0.00681325
0.00647302
0.0061982
0.00599226
0.00584805
0.00574953
0.00567701
0.00561195
0.00553918
0.00544706
0.00532684
0.0051724
0.00498037
0.00475106
0.00449002
0.00421041
0.00393597
0.00370237
0.00355266
0.00355579
0.00372212
0.00404307
0.00448807
0.00502354
0.00562221
0.00626576
0.00694374
0.00764305
0.00835923
0.00909068
0.00983528
0.0105907
0.0113584
0.012121
0.0128769
0.0136235
0.0143547
0.0150525
0.0157183
0.0163491
0.0169476
0.0175353
0.0181975
0.0192379
0.0216365
0.0274484
0.0351263
0.0314093
0.0188379
0.0136516
0.0117442
0.0106355
0.00971943
0.00883932
0.00788243
0.00677284
0.00548474
0.00401725
0.00253411
0.00220622
0.00340438
0.00477504
0.00596838
0.00690241
0.00753156
0.00781769
0.00774898
0.00748194
0.00763023
0.00852912
0.00932481
0.0100832
0.0108224