/*--------------------------------*- C++ -*----------------------------------*\
| =========                 |                                                 |
| \\      /  F ield         | OpenFOAM: The Open Source CFD Toolbox           |
|  \\    /   O peration     | Version:  4.1                                   |
|   \\  /    A nd           | Web:      www.OpenFOAM.org                      |
|    \\/     M anipulation  |                                                 |
\*---------------------------------------------------------------------------*/
FoamFile
{
    version     2.0;
    format      ascii;
    class       volVectorField;
    location    "1220";
    object      U;
}
// * * * * * * * * * * * * * * * * * * * * * * * * * * * * * * * * * * * * * //

dimensions      [0 1 -1 0 0 0 0];

internalField   nonuniform List<vector> 
5000
(
(-0.00389543 0.00274161 0)
(-0.00553008 0.00115783 0)
(-0.00702823 0.000603534 0)
(-0.00797706 0.000423108 0)
(-0.00873179 0.000356253 0)
(-0.00940433 0.000327039 0)
(-0.0100335 0.000308901 0)
(-0.010628 0.000291017 0)
(-0.0111823 0.000268188 0)
(-0.0116837 0.000237615 0)
(-0.0121152 0.000197779 0)
(-0.0124584 0.000147909 0)
(-0.0126937 8.75142e-05 0)
(-0.0128017 1.57297e-05 0)
(-0.0127632 -6.91956e-05 0)
(-0.0125552 -0.000168122 0)
(-0.0121597 -0.000277904 0)
(-0.0115657 -0.000394871 0)
(-0.0107685 -0.000515416 0)
(-0.00976998 -0.000635478 0)
(-0.00858069 -0.000750122 0)
(-0.00722123 -0.000853495 0)
(-0.00572265 -0.000939826 0)
(-0.0041257 -0.00100663 0)
(-0.00248739 -0.00105992 0)
(-0.000908098 -0.00111101 0)
(0.000938129 -0.00104819 0)
(0.00225494 -0.000614722 0)
(0.00321035 -0.000440303 0)
(0.00401452 -0.000395295 0)
(0.00478656 -0.000386797 0)
(0.00554791 -0.000382304 0)
(0.00628947 -0.000373625 0)
(0.00700322 -0.000359986 0)
(0.00768523 -0.000342941 0)
(0.00833449 -0.000324557 0)
(0.00895227 -0.000306586 0)
(0.00954161 -0.000290227 0)
(0.0101067 -0.000276162 0)
(0.010652 -0.000264674 0)
(0.0111823 -0.000255751 0)
(0.0117019 -0.000249169 0)
(0.0122143 -0.000244555 0)
(0.0127225 -0.000241444 0)
(0.0132285 -0.000239319 0)
(0.0137334 -0.000237652 0)
(0.0142375 -0.000235927 0)
(0.0147401 -0.000233668 0)
(0.0152398 -0.00023045 0)
(0.0157345 -0.000225913 0)
(0.0162215 -0.000219762 0)
(0.0166976 -0.000211774 0)
(0.0171595 -0.000201793 0)
(0.0176034 -0.000189724 0)
(0.0180255 -0.000175532 0)
(0.0184219 -0.00015923 0)
(0.0187887 -0.000140879 0)
(0.0191224 -0.000120574 0)
(0.0194193 -9.84475e-05 0)
(0.0196762 -7.46644e-05 0)
(0.01989 -4.94357e-05 0)
(0.0200582 -2.30541e-05 0)
(0.0201788 4.00382e-06 0)
(0.0202502 3.08046e-05 0)
(0.0202735 5.5952e-05 0)
(0.0202518 7.88566e-05 0)
(0.0201847 0.000100361 0)
(0.0200725 0.000121044 0)
(0.019916 0.00014106 0)
(0.019716 0.000160458 0)
(0.0194734 0.000179172 0)
(0.0191894 0.000197112 0)
(0.0188655 0.000214143 0)
(0.0185036 0.000230119 0)
(0.0181056 0.000244877 0)
(0.017674 0.000258233 0)
(0.0172115 0.000269982 0)
(0.016721 0.000279886 0)
(0.016206 0.000287673 0)
(0.0156702 0.000293025 0)
(0.0151182 0.000295585 0)
(0.0145548 0.000294962 0)
(0.0139858 0.000290764 0)
(0.0134173 0.00028266 0)
(0.0128563 0.000270511 0)
(0.0123096 0.000254592 0)
(0.0117834 0.00023599 0)
(0.0112815 0.000217256 0)
(0.0108022 0.000203456 0)
(0.0103337 0.000203822 0)
(0.00984492 0.000234457 0)
(0.00927303 0.00032343 0)
(0.0084999 0.000520636 0)
(0.00731187 0.000901813 0)
(0.00545807 0.00151515 0)
(0.00226642 0.00261851 0)
(-0.00243386 0.000612952 0)
(-0.00351422 -0.00125132 0)
(-0.00319821 -0.00199692 0)
(-0.00124653 -0.00290878 0)
(-0.00338631 0.00602274 0)
(-0.00499194 0.00314388 0)
(-0.00677955 0.00181473 0)
(-0.00792719 0.00130991 0)
(-0.00885084 0.00110397 0)
(-0.00966324 0.00100592 0)
(-0.0104091 0.000942354 0)
(-0.0111 0.000881491 0)
(-0.0117318 0.000807465 0)
(-0.0122917 0.000711643 0)
(-0.0127625 0.000589453 0)
(-0.0131256 0.000438967 0)
(-0.0133622 0.00025984 0)
(-0.0134546 5.21677e-05 0)
(-0.0133851 -0.000184526 0)
(-0.0131445 -0.000449274 0)
(-0.0127216 -0.000734208 0)
(-0.0121082 -0.00103019 0)
(-0.0113015 -0.00132844 0)
(-0.0103039 -0.00161897 0)
(-0.00912497 -0.00188929 0)
(-0.00778396 -0.00212395 0)
(-0.00631176 -0.00230628 0)
(-0.00475248 -0.00242442 0)
(-0.00316695 -0.0024807 0)
(-0.00163988 -0.00248869 0)
(-0.000238482 -0.00239275 0)
(0.0013684 -0.00174624 0)
(0.00252303 -0.00137315 0)
(0.00355414 -0.00125706 0)
(0.00452993 -0.00120485 0)
(0.00544934 -0.00116117 0)
(0.00631369 -0.00111505 0)
(0.00712873 -0.00106579 0)
(0.00789986 -0.00101552 0)
(0.00863171 -0.000967067 0)
(0.00932895 -0.00092286 0)
(0.00999655 -0.000884498 0)
(0.0106396 -0.000852793 0)
(0.0112631 -0.000827913 0)
(0.0118717 -0.000809518 0)
(0.0124695 -0.000796884 0)
(0.01306 -0.000789008 0)
(0.013646 -0.000784706 0)
(0.0142295 -0.000782698 0)
(0.0148115 -0.000781679 0)
(0.0153925 -0.000780383 0)
(0.0159719 -0.000777634 0)
(0.0165487 -0.000772377 0)
(0.0171211 -0.000763705 0)
(0.0176868 -0.000750872 0)
(0.0182432 -0.000733295 0)
(0.0187872 -0.000710551 0)
(0.0193157 -0.000682375 0)
(0.0198253 -0.000648642 0)
(0.0203126 -0.000609354 0)
(0.0207743 -0.000564626 0)
(0.0212073 -0.000514672 0)
(0.0216086 -0.000459786 0)
(0.0219753 -0.000400347 0)
(0.0223049 -0.00033682 0)
(0.0225951 -0.000269798 0)
(0.0228439 -0.000200095 0)
(0.0230494 -0.000128935 0)
(0.0232086 -5.75127e-05 0)
(0.0233169 1.37143e-05 0)
(0.0233733 8.42687e-05 0)
(0.023378 0.000154089 0)
(0.023331 0.000223014 0)
(0.0232329 0.000290779 0)
(0.0230847 0.000357008 0)
(0.0228872 0.000421297 0)
(0.0226418 0.00048324 0)
(0.0223498 0.000542438 0)
(0.0220129 0.000598498 0)
(0.0216328 0.000651019 0)
(0.0212115 0.00069957 0)
(0.0207511 0.00074367 0)
(0.0202538 0.00078276 0)
(0.0197222 0.000816188 0)
(0.019159 0.000843203 0)
(0.0185674 0.000862986 0)
(0.0179508 0.000874718 0)
(0.0173128 0.000877732 0)
(0.016657 0.000871791 0)
(0.0159866 0.000857582 0)
(0.015303 0.000837569 0)
(0.0146051 0.000817396 0)
(0.0138868 0.000808138 0)
(0.0131337 0.000829738 0)
(0.0123189 0.000916091 0)
(0.0113984 0.00112244 0)
(0.0103085 0.00153399 0)
(0.00897811 0.00225001 0)
(0.00750269 0.00325177 0)
(0.00587364 0.00445287 0)
(0.00426386 0.00369394 0)
(0.00341061 0.00224718 0)
(0.00169014 0.000547295 0)
(0.000881464 -0.00269113 0)
(-0.00277061 0.00940088 0)
(-0.00396985 0.00524821 0)
(-0.00567686 0.00320332 0)
(-0.00684728 0.00238378 0)
(-0.00786938 0.00202763 0)
(-0.00879748 0.00184449 0)
(-0.00965959 0.00171722 0)
(-0.0104605 0.00159299 0)
(-0.0111923 0.0014449 0)
(-0.0118405 0.00125855 0)
(-0.0123873 0.00102686 0)
(-0.0128142 0.000747742 0)
(-0.0131039 0.000422439 0)
(-0.0132406 5.41974e-05 0)
(-0.0132096 -0.000353294 0)
(-0.0130043 -0.000798048 0)
(-0.0126197 -0.00126995 0)
(-0.0120521 -0.00175611 0)
(-0.0113008 -0.00224355 0)
(-0.0103677 -0.00271696 0)
(-0.00925971 -0.00315618 0)
(-0.00799247 -0.0035348 0)
(-0.00659434 -0.00382199 0)
(-0.00510995 -0.00399014 0)
(-0.00360017 -0.00402822 0)
(-0.00213822 -0.00394945 0)
(-0.000818278 -0.00376352 0)
(0.0006541 -0.00316728 0)
(0.00193922 -0.00254022 0)
(0.00301207 -0.00233571 0)
(0.00405398 -0.00221213 0)
(0.00502966 -0.00210441 0)
(0.00593513 -0.00200062 0)
(0.00677984 -0.00189963 0)
(0.0075723 -0.00180348 0)
(0.00831934 -0.00171495 0)
(0.00902745 -0.00163638 0)
(0.00970304 -0.00156926 0)
(0.0103523 -0.00151418 0)
(0.010981 -0.00147096 0)
(0.0115944 -0.00143878 0)
(0.0121969 -0.00141629 0)
(0.0127925 -0.00140177 0)
(0.013384 -0.00139324 0)
(0.0139735 -0.00138859 0)
(0.014562 -0.0013857 0)
(0.01515 -0.0013825 0)
(0.0157368 -0.00137708 0)
(0.0163213 -0.00136774 0)
(0.0169017 -0.001353 0)
(0.0174757 -0.00133165 0)
(0.0180407 -0.00130276 0)
(0.0185936 -0.00126564 0)
(0.0191314 -0.00121987 0)
(0.0196506 -0.00116525 0)
(0.0201482 -0.00110182 0)
(0.0206208 -0.00102979 0)
(0.0210654 -0.000949511 0)
(0.0214789 -0.000861508 0)
(0.0218588 -0.000766401 0)
(0.0222024 -0.000664926 0)
(0.0225076 -0.00055793 0)
(0.0227723 -0.000446375 0)
(0.0229946 -0.000331271 0)
(0.0231728 -0.000213284 0)
(0.0233058 -9.28884e-05 0)
(0.0233923 2.8752e-05 0)
(0.0234309 0.000150219 0)
(0.0234216 0.00027068 0)
(0.0233647 0.000389491 0)
(0.0232605 0.000506028 0)
(0.0231096 0.000619646 0)
(0.0229127 0.000729755 0)
(0.0226707 0.000835811 0)
(0.0223846 0.000937313 0)
(0.0220554 0.00103377 0)
(0.0216841 0.00112469 0)
(0.0212716 0.00120949 0)
(0.020819 0.00128749 0)
(0.0203272 0.00135789 0)
(0.0197974 0.00141974 0)
(0.0192306 0.00147202 0)
(0.0186281 0.00151378 0)
(0.0179913 0.00154436 0)
(0.0173213 0.0015639 0)
(0.016619 0.00157405 0)
(0.0158842 0.00157917 0)
(0.0151153 0.00158813 0)
(0.0143077 0.00161703 0)
(0.0134535 0.00169299 0)
(0.0125404 0.00185894 0)
(0.011554 0.00217877 0)
(0.0104857 0.00273724 0)
(0.0093435 0.00360065 0)
(0.00822654 0.00463719 0)
(0.00726207 0.00551389 0)
(0.00638867 0.00477827 0)
(0.00543532 0.00312625 0)
(0.00402561 0.00156799 0)
(0.002913 -0.000268083 0)
(-0.00230109 0.0122668 0)
(-0.00319272 0.00707624 0)
(-0.00475861 0.0045275 0)
(-0.00588949 0.00350259 0)
(-0.00696587 0.0030421 0)
(-0.0079775 0.00278984 0)
(-0.00892979 0.0026013 0)
(-0.0098159 0.0024101 0)
(-0.0106224 0.00218206 0)
(-0.0113323 0.00189913 0)
(-0.0119276 0.001553 0)
(-0.0123913 0.00114202 0)
(-0.0127085 0.000669033 0)
(-0.0128673 0.000139671 0)
(-0.0128573 -0.000439478 0)
(-0.0126775 -0.00106035 0)
(-0.0123292 -0.00171008 0)
(-0.011812 -0.00237466 0)
(-0.0111263 -0.00304 0)
(-0.0102721 -0.00368853 0)
(-0.00925145 -0.00429483 0)
(-0.00807307 -0.00482244 0)
(-0.00675883 -0.00522511 0)
(-0.0053498 -0.0054566 0)
(-0.00390601 -0.0054914 0)
(-0.00249396 -0.00534615 0)
(-0.00116878 -0.00506308 0)
(9.54357e-05 -0.0045371 0)
(0.00151079 -0.003727 0)
(0.00258908 -0.00344642 0)
(0.00367183 -0.00323948 0)
(0.00467865 -0.0030552 0)
(0.00560467 -0.00288281 0)
(0.0064624 -0.00272102 0)
(0.00726206 -0.00257193 0)
(0.00801181 -0.0024382 0)
(0.00871938 -0.00232185 0)
(0.00939228 -0.00222397 0)
(0.0100376 -0.00214467 0)
(0.0106617 -0.00208318 0)
(0.0112705 -0.00203796 0)
(0.0118688 -0.00200684 0)
(0.0124606 -0.00198719 0)
(0.0130488 -0.00197609 0)
(0.0136356 -0.00197049 0)
(0.0142219 -0.00196733 0)
(0.014808 -0.00196373 0)
(0.0153933 -0.00195701 0)
(0.0159765 -0.00194482 0)
(0.0165557 -0.00192515 0)
(0.0171288 -0.00189636 0)
(0.017693 -0.00185719 0)
(0.0182454 -0.00180672 0)
(0.018783 -0.0017444 0)
(0.0193026 -0.00166999 0)
(0.0198011 -0.00158353 0)
(0.0202752 -0.00148532 0)
(0.0207219 -0.00137586 0)
(0.0211384 -0.00125586 0)
(0.0215219 -0.00112613 0)
(0.0218698 -0.000987622 0)
(0.0221798 -0.000841394 0)
(0.0224498 -0.000688586 0)
(0.0226778 -0.00053039 0)
(0.0228621 -0.000367994 0)
(0.0230013 -0.000202631 0)
(0.0230949 -3.54915e-05 0)
(0.0231414 0.000131776 0)
(0.0231409 0.000297896 0)
(0.0230936 0.000461987 0)
(0.023 0.000623357 0)
(0.0228608 0.000781239 0)
(0.0226766 0.000934952 0)
(0.0224485 0.0010839 0)
(0.0221773 0.00122759 0)
(0.021864 0.00136561 0)
(0.0215092 0.00149753 0)
(0.0211135 0.00162288 0)
(0.0206771 0.00174109 0)
(0.0202002 0.00185139 0)
(0.0196827 0.00195286 0)
(0.0191243 0.00204444 0)
(0.0185248 0.00212513 0)
(0.017884 0.00219429 0)
(0.0172015 0.00225219 0)
(0.016477 0.00230089 0)
(0.01571 0.00234554 0)
(0.0148996 0.00239631 0)
(0.0140445 0.00247108 0)
(0.0131434 0.00259891 0)
(0.0121963 0.00282365 0)
(0.0112082 0.00320563 0)
(0.0101962 0.00381323 0)
(0.00919525 0.00467096 0)
(0.0082691 0.00558933 0)
(0.00750812 0.00616646 0)
(0.00680264 0.00557748 0)
(0.00587714 0.00428124 0)
(0.00434361 0.00332675 0)
(0.00283254 0.00283925 0)
(-0.00195002 0.0145845 0)
(-0.00263556 0.00859131 0)
(-0.00407496 0.00573876 0)
(-0.0051454 0.00461717 0)
(-0.00623157 0.00410028 0)
(-0.00727449 0.00379463 0)
(-0.00826457 0.00354399 0)
(-0.00918556 0.00327656 0)
(-0.0100196 0.00295523 0)
(-0.0107483 0.00256099 0)
(-0.0113541 0.00208629 0)
(-0.0118214 0.00153167 0)
(-0.0121384 0.000903388 0)
(-0.0122967 0.000211513 0)
(-0.0122897 -0.000532441 0)
(-0.0121224 -0.00131671 0)
(-0.0118042 -0.00212683 0)
(-0.0113385 -0.00294952 0)
(-0.0107269 -0.00377293 0)
(-0.00996631 -0.00458096 0)
(-0.00905145 -0.00534609 0)
(-0.00798068 -0.00602322 0)
(-0.00676555 -0.00654935 0)
(-0.00544037 -0.00685598 0)
(-0.00406397 -0.00690051 0)
(-0.00270088 -0.0067045 0)
(-0.0013931 -0.00634408 0)
(-0.000221703 -0.00583604 0)
(0.00120916 -0.0049499 0)
(0.00228529 -0.0045872 0)
(0.00338395 -0.00429076 0)
(0.00439831 -0.00402466 0)
(0.00532761 -0.0037789 0)
(0.00618525 -0.00355247 0)
(0.00698157 -0.00334757 0)
(0.00772528 -0.00316661 0)
(0.00842483 -0.00301118 0)
(0.00908839 -0.00288187 0)
(0.00972359 -0.00277818 0)
(0.0103374 -0.00269861 0)
(0.0109358 -0.00264076 0)
(0.0115239 -0.00260151 0)
(0.0121059 -0.00257722 0)
(0.0126845 -0.00256395 0)
(0.0132619 -0.00255764 0)
(0.0138388 -0.00255432 0)
(0.0144155 -0.00255029 0)
(0.0149912 -0.00254216 0)
(0.0155648 -0.00252699 0)
(0.0161344 -0.0025023 0)
(0.0166981 -0.00246606 0)
(0.0172534 -0.00241673 0)
(0.0177977 -0.0023532 0)
(0.018328 -0.00227476 0)
(0.0188415 -0.00218111 0)
(0.0193352 -0.00207231 0)
(0.019806 -0.00194871 0)
(0.0202511 -0.00181093 0)
(0.0206675 -0.00165978 0)
(0.0210526 -0.00149625 0)
(0.0214037 -0.00132147 0)
(0.0217184 -0.00113666 0)
(0.0219942 -0.000943147 0)
(0.022229 -0.000742324 0)
(0.0224207 -0.000535671 0)
(0.0225676 -0.000324744 0)
(0.0226685 -0.000111133 0)
(0.0227224 0.000103339 0)
(0.0227282 0.00031685 0)
(0.0226865 0.000528103 0)
(0.0225979 0.000736044 0)
(0.0224631 0.000939678 0)
(0.0222831 0.00113816 0)
(0.0220592 0.0013308 0)
(0.0217925 0.00151717 0)
(0.0214843 0.00169697 0)
(0.0211352 0.00187004 0)
(0.0207457 0.00203621 0)
(0.020316 0.00219522 0)
(0.0198457 0.00234665 0)
(0.0193338 0.00248981 0)
(0.0187794 0.00262384 0)
(0.018181 0.00274782 0)
(0.0175372 0.00286109 0)
(0.0168467 0.00296387 0)
(0.0161084 0.00305808 0)
(0.0153218 0.00314871 0)
(0.014487 0.00324561 0)
(0.0136053 0.0033659 0)
(0.0126804 0.00353676 0)
(0.0117199 0.00379779 0)
(0.0107388 0.00420007 0)
(0.00976389 0.00479415 0)
(0.00883766 0.00557965 0)
(0.00800478 0.00636889 0)
(0.00729944 0.00679153 0)
(0.00659795 0.00638561 0)
(0.00564515 0.00551803 0)
(0.00404089 0.00525244 0)
(0.00251688 0.00578967 0)
(-0.00167711 0.0165031 0)
(-0.00222019 0.00987358 0)
(-0.00355359 0.00684588 0)
(-0.00455413 0.00569711 0)
(-0.00561385 0.00515686 0)
(-0.00664122 0.00481088 0)
(-0.00762115 0.0045006 0)
(-0.00853174 0.00415425 0)
(-0.00935237 0.00373502 0)
(-0.0100635 0.00322486 0)
(-0.0106476 0.00261804 0)
(-0.0110901 0.00191799 0)
(-0.011381 0.00113488 0)
(-0.0115154 0.000283986 0)
(-0.0114913 -0.00061726 0)
(-0.0113221 -0.00155056 0)
(-0.0110261 -0.00249969 0)
(-0.0106116 -0.00345557 0)
(-0.0100818 -0.00441309 0)
(-0.00942952 -0.0053626 0)
(-0.00863985 -0.00627866 0)
(-0.00769788 -0.00710956 0)
(-0.00660106 -0.00777395 0)
(-0.00537411 -0.00817546 0)
(-0.00407446 -0.00824813 0)
(-0.00276879 -0.00801798 0)
(-0.00149818 -0.00759748 0)
(-0.000377771 -0.00707462 0)
(0.00100318 -0.00617224 0)
(0.00207278 -0.00572429 0)
(0.00316205 -0.00533947 0)
(0.00416433 -0.00499029 0)
(0.00508252 -0.00466892 0)
(0.00592879 -0.00437552 0)
(0.00671263 -0.00411261 0)
(0.00744275 -0.00388249 0)
(0.00812782 -0.00368645 0)
(0.00877626 -0.0035246 0)
(0.00939596 -0.00339581 0)
(0.00999402 -0.00329777 0)
(0.0105766 -0.00322709 0)
(0.0111487 -0.00317961 0)
(0.0117144 -0.00315057 0)
(0.0122763 -0.00313491 0)
(0.0128363 -0.0031276 0)
(0.0133952 -0.00312376 0)
(0.0139531 -0.00311891 0)
(0.0145094 -0.00310908 0)
(0.0150632 -0.00309082 0)
(0.0156131 -0.00306124 0)
(0.0161573 -0.00301801 0)
(0.0166941 -0.00295932 0)
(0.017221 -0.00288384 0)
(0.0177358 -0.00279072 0)
(0.0182358 -0.00267957 0)
(0.0187184 -0.00255037 0)
(0.0191808 -0.00240349 0)
(0.0196202 -0.00223958 0)
(0.0200339 -0.00205954 0)
(0.0204192 -0.00186442 0)
(0.0207735 -0.00165544 0)
(0.0210942 -0.00143389 0)
(0.0213786 -0.00120117 0)
(0.0216243 -0.00095882 0)
(0.0218286 -0.000708471 0)
(0.0219892 -0.00045195 0)
(0.022104 -0.000191259 0)
(0.0221716 7.1194e-05 0)
(0.0221895 0.000332927 0)
(0.0221581 0.000592072 0)
(0.0220782 0.000847062 0)
(0.0219502 0.00109661 0)
(0.0217756 0.00133967 0)
(0.021556 0.0015755 0)
(0.0212929 0.00180372 0)
(0.0209881 0.00202426 0)
(0.0206427 0.00223732 0)
(0.0202577 0.00244322 0)
(0.0198333 0.00264223 0)
(0.019369 0.00283447 0)
(0.0188638 0.00301976 0)
(0.018316 0.00319759 0)
(0.0177235 0.00336724 0)
(0.017084 0.00352804 0)
(0.0163954 0.00367991 0)
(0.0156561 0.00382422 0)
(0.0148652 0.00396504 0)
(0.0140235 0.00411074 0)
(0.0131339 0.00427608 0)
(0.0122029 0.00448442 0)
(0.0112418 0.00476911 0)
(0.0102701 0.00517146 0)
(0.00931771 0.00572827 0)
(0.00842684 0.00642891 0)
(0.00763167 0.00711259 0)
(0.00692761 0.00747047 0)
(0.0061873 0.00723073 0)
(0.00521713 0.00675786 0)
(0.00363649 0.00715459 0)
(0.00221643 0.00864288 0)
(-0.00145998 0.0181464 0)
(-0.00190129 0.0109944 0)
(-0.00313845 0.00786278 0)
(-0.00405946 0.00672077 0)
(-0.00506536 0.00617416 0)
(-0.00604257 0.00579579 0)
(-0.00697677 0.00542845 0)
(-0.007843 0.00500256 0)
(-0.0086189 0.00448303 0)
(-0.00928375 0.00385372 0)
(-0.00981925 0.00311163 0)
(-0.0102112 0.00226418 0)
(-0.0104513 0.00132718 0)
(-0.0105384 0.000323507 0)
(-0.0104763 -0.000721072 0)
(-0.0102909 -0.00178061 0)
(-0.0100076 -0.00283835 0)
(-0.00964177 -0.00389328 0)
(-0.00919812 -0.00495231 0)
(-0.00866531 -0.00601802 0)
(-0.00801803 -0.00707231 0)
(-0.00722549 -0.00805988 0)
(-0.00626764 -0.00887948 0)
(-0.00515683 -0.00939954 0)
(-0.00394918 -0.00952163 0)
(-0.00271627 -0.00927492 0)
(-0.00150414 -0.00880951 0)
(-0.000424216 -0.00825228 0)
(0.000872387 -0.00736367 0)
(0.00192331 -0.00683546 0)
(0.00298128 -0.00636728 0)
(0.00395552 -0.00593742 0)
(0.00484998 -0.00554152 0)
(0.00567455 -0.00518151 0)
(0.00643753 -0.00486054 0)
(0.00714717 -0.00458105 0)
(0.00781192 -0.0043442 0)
(0.00844011 -0.0041497 0)
(0.00903947 -0.00399575 0)
(0.00961694 -0.00387913 0)
(0.0101784 -0.00379542 0)
(0.0107287 -0.00373929 0)
(0.0112715 -0.00370483 0)
(0.0118091 -0.00368591 0)
(0.0123432 -0.00367655 0)
(0.0128745 -0.00367111 0)
(0.0134034 -0.00366451 0)
(0.0139297 -0.0036523 0)
(0.0144528 -0.00363068 0)
(0.0149719 -0.00359647 0)
(0.0154862 -0.00354707 0)
(0.0159942 -0.00348039 0)
(0.0164945 -0.00339488 0)
(0.0169851 -0.00328948 0)
(0.0174639 -0.0031636 0)
(0.0179286 -0.00301712 0)
(0.0183766 -0.00285033 0)
(0.0188056 -0.00266387 0)
(0.0192128 -0.00245864 0)
(0.0195958 -0.00223571 0)
(0.019952 -0.00199627 0)
(0.0202788 -0.00174161 0)
(0.0205735 -0.00147308 0)
(0.0208332 -0.00119216 0)
(0.021055 -0.000900502 0)
(0.0212358 -0.000600009 0)
(0.0213726 -0.000292853 0)
(0.0214635 1.82606e-05 0)
(0.0215033 0.000329956 0)
(0.0214921 0.000639342 0)
(0.02143 0.000944024 0)
(0.0213173 0.00124219 0)
(0.0211552 0.00153229 0)
(0.0209456 0.00181329 0)
(0.0206907 0.00208473 0)
(0.0203926 0.00234673 0)
(0.0200533 0.00259986 0)
(0.0196745 0.002845 0)
(0.019257 0.00308315 0)
(0.0188007 0.00331522 0)
(0.0183048 0.00354177 0)
(0.0177675 0.00376292 0)
(0.0171866 0.00397835 0)
(0.0165592 0.00418746 0)
(0.0158826 0.00438986 0)
(0.0151546 0.00458613 0)
(0.0143741 0.00477893 0)
(0.013542 0.00497451 0)
(0.0126616 0.00518447 0)
(0.0117405 0.00542758 0)
(0.0107915 0.00573061 0)
(0.00983494 0.00612602 0)
(0.00890028 0.00664069 0)
(0.00802558 0.00726131 0)
(0.00723724 0.00786002 0)
(0.00651336 0.00819507 0)
(0.0057358 0.00810308 0)
(0.00477276 0.00796264 0)
(0.00325933 0.00892556 0)
(0.00196037 0.0112281 0)
(-0.00128489 0.0195842 0)
(-0.00165126 0.0119914 0)
(-0.00279432 0.008794 0)
(-0.0036264 0.00767187 0)
(-0.00455886 0.0071258 0)
(-0.00546239 0.00671961 0)
(-0.00632688 0.00629799 0)
(-0.00712568 0.00579383 0)
(-0.00783531 0.00517394 0)
(-0.00843372 0.00442441 0)
(-0.00890147 0.00354568 0)
(-0.00922412 0.00255045 0)
(-0.00939457 0.00146211 0)
(-0.00941531 0.000313979 0)
(-0.00929771 -0.000857442 0)
(-0.00908347 -0.00201672 0)
(-0.00880197 -0.00314821 0)
(-0.00847691 -0.00426271 0)
(-0.00811608 -0.00538446 0)
(-0.00770557 -0.00653472 0)
(-0.00721025 -0.00770921 0)
(-0.00658234 -0.0088535 0)
(-0.00578123 -0.00984563 0)
(-0.00480417 -0.01051 0)
(-0.00370575 -0.0107039 0)
(-0.00256351 -0.010458 0)
(-0.00143081 -0.00996274 0)
(-0.000395117 -0.00936404 0)
(0.00079836 -0.00850097 0)
(0.00181402 -0.00790247 0)
(0.00282329 -0.00735816 0)
(0.00375632 -0.0068527 0)
(0.00461597 -0.00638579 0)
(0.00540971 -0.0059615 0)
(0.00614451 -0.00558396 0)
(0.00682781 -0.00525604 0)
(0.00746749 -0.00497894 0)
(0.00807131 -0.004752 0)
(0.00864649 -0.00457276 0)
(0.00919939 -0.00443706 0)
(0.00973535 -0.00433937 0)
(0.0102586 -0.0042732 0)
(0.0107721 -0.00423154 0)
(0.0112782 -0.00420732 0)
(0.0117782 -0.0041938 0)
(0.0122731 -0.00418478 0)
(0.0127635 -0.00417481 0)
(0.0132499 -0.00415917 0)
(0.0137324 -0.00413384 0)
(0.0142113 -0.00409543 0)
(0.0146864 -0.00404105 0)
(0.0151572 -0.00396834 0)
(0.0156229 -0.00387538 0)
(0.0160821 -0.00376078 0)
(0.0165332 -0.00362367 0)
(0.016974 -0.00346371 0)
(0.0174023 -0.00328107 0)
(0.0178158 -0.00307632 0)
(0.0182121 -0.00285034 0)
(0.0185888 -0.00260421 0)
(0.0189436 -0.00233904 0)
(0.0192739 -0.00205602 0)
(0.0195774 -0.00175632 0)
(0.0198509 -0.00144121 0)
(0.0200916 -0.00111215 0)
(0.0202958 -0.000770837 0)
(0.0204596 -0.000419384 0)
(0.0205812 -6.01903e-05 0)
(0.0206524 0.000302455 0)
(0.0206716 0.000663958 0)
(0.0206381 0.0010208 0)
(0.0205515 0.00137046 0)
(0.0204124 0.00171049 0)
(0.0202223 0.00203929 0)
(0.0199838 0.00235608 0)
(0.0196996 0.00266096 0)
(0.0193723 0.00295479 0)
(0.0190045 0.00323905 0)
(0.0185979 0.00351554 0)
(0.0181532 0.0037861 0)
(0.0176703 0.00405227 0)
(0.0171478 0.00431506 0)
(0.0165836 0.00457476 0)
(0.0159747 0.00483105 0)
(0.0153183 0.00508332 0)
(0.0146117 0.0053313 0)
(0.0138536 0.0055761 0)
(0.0130443 0.00582158 0)
(0.0121873 0.00607587 0)
(0.0112897 0.00635301 0)
(0.0103643 0.00667352 0)
(0.00943048 0.00706225 0)
(0.00851489 0.00753881 0)
(0.00764998 0.008091 0)
(0.00685627 0.00862249 0)
(0.00610891 0.00895316 0)
(0.00530562 0.00898776 0)
(0.0043641 0.00911536 0)
(0.00292787 0.0105438 0)
(0.00174166 0.0135321 0)
(-0.00114148 0.0208562 0)
(-0.00144975 0.0128821 0)
(-0.00249846 0.00963784 0)
(-0.00323519 0.0085382 0)
(-0.0040817 0.00799461 0)
(-0.00489725 0.00756342 0)
(-0.00567795 0.00709055 0)
(-0.00639627 0.00651057 0)
(-0.0070282 0.00579165 0)
(-0.00755035 0.00492195 0)
(-0.0079419 0.00390574 0)
(-0.00818764 0.00276234 0)
(-0.00828057 0.00152517 0)
(-0.00822629 0.000241356 0)
(-0.00804484 -0.00103922 0)
(-0.007794 -0.00227065 0)
(-0.00750228 -0.00344058 0)
(-0.00720315 -0.00457348 0)
(-0.00691003 -0.00571514 0)
(-0.00661051 -0.0069119 0)
(-0.00626325 -0.00818132 0)
(-0.00580434 -0.00947671 0)
(-0.00517022 -0.0106561 0)
(-0.00434011 -0.0114901 0)
(-0.00336657 -0.0117775 0)
(-0.00233209 -0.0115492 0)
(-0.00129714 -0.0110396 0)
(-0.000316822 -0.0104014 0)
(0.000763097 -0.00956693 0)
(0.00172668 -0.00891035 0)
(0.00267372 -0.00829878 0)
(0.00355446 -0.00772483 0)
(0.00436989 -0.00719244 0)
(0.00512518 -0.00670802 0)
(0.0058259 -0.00627699 0)
(0.00647846 -0.00590285 0)
(0.00708971 -0.00558692 0)
(0.00766646 -0.00532824 0)
(0.00821494 -0.00512363 0)
(0.00874055 -0.00496799 0)
(0.00924769 -0.00485473 0)
(0.00973974 -0.00477627 0)
(0.0102192 -0.00472471 0)
(0.010688 -0.00469226 0)
(0.0111474 -0.00467171 0)
(0.0115988 -0.00465662 0)
(0.0120435 -0.00464143 0)
(0.0124828 -0.00462134 0)
(0.0129179 -0.00459224 0)
(0.01335 -0.00455054 0)
(0.01378 -0.00449303 0)
(0.0142084 -0.00441692 0)
(0.0146348 -0.00431977 0)
(0.0150585 -0.00419968 0)
(0.0154779 -0.00405532 0)
(0.0158912 -0.00388605 0)
(0.016296 -0.00369186 0)
(0.0166902 -0.00347328 0)
(0.0170714 -0.00323121 0)
(0.0174374 -0.00296674 0)
(0.0177862 -0.00268099 0)
(0.0181156 -0.00237499 0)
(0.0184234 -0.0020497 0)
(0.018707 -0.00170606 0)
(0.0189633 -0.0013451 0)
(0.0191889 -0.000968161 0)
(0.0193795 -0.000576984 0)
(0.0195317 -0.000173404 0)
(0.01964 0.000238601 0)
(0.0196971 0.00065274 0)
(0.0197006 0.00106377 0)
(0.0196497 0.00146777 0)
(0.0195435 0.00186123 0)
(0.0193831 0.00224152 0)
(0.0191706 0.00260712 0)
(0.018909 0.00295778 0)
(0.0186017 0.00329443 0)
(0.0182518 0.00361898 0)
(0.017862 0.00393402 0)
(0.0174341 0.00424239 0)
(0.0169687 0.00454677 0)
(0.0164654 0.00484924 0)
(0.0159225 0.005151 0)
(0.0153375 0.00545222 0)
(0.0147075 0.00575226 0)
(0.0140298 0.00605017 0)
(0.0133026 0.00634558 0)
(0.012526 0.00663995 0)
(0.0117027 0.00693805 0)
(0.0108393 0.00724938 0)
(0.00994708 0.00758881 0)
(0.0090434 0.00797477 0)
(0.0081514 0.00842168 0)
(0.00729778 0.00892007 0)
(0.00649875 0.00940054 0)
(0.0057332 0.00973407 0)
(0.00491592 0.00987201 0)
(0.00400303 0.0102126 0)
(0.00264276 0.0120259 0)
(0.00155436 0.0155986 0)
(-0.0010219 0.0219894 0)
(-0.00128203 0.0136768 0)
(-0.00223656 0.010392 0)
(-0.00287534 0.00931213 0)
(-0.00362962 0.00877084 0)
(-0.00435031 0.00831706 0)
(-0.00504126 0.00779675 0)
(-0.00567478 0.00714501 0)
(-0.00622711 0.00633037 0)
(-0.00667398 0.00534256 0)
(-0.00699325 0.00418976 0)
(-0.00716843 0.00289898 0)
(-0.00719129 0.00151587 0)
(-0.00706879 0.000104158 0)
(-0.00683028 -0.00127096 0)
(-0.00654223 -0.00255251 0)
(-0.00622934 -0.00373233 0)
(-0.00593496 -0.00484729 0)
(-0.00568133 -0.0059664 0)
(-0.00546404 -0.00716638 0)
(-0.00524286 -0.00849629 0)
(-0.00494187 -0.00992786 0)
(-0.00447331 -0.011303 0)
(-0.00379564 -0.0123279 0)
(-0.00295812 -0.0127276 0)
(-0.00204526 -0.0125322 0)
(-0.00112206 -0.0120238 0)
(-0.000212564 -0.0113558 0)
(0.000749851 -0.0105482 0)
(0.00164578 -0.00984652 0)
(0.00252002 -0.00917804 0)
(0.00333932 -0.00854438 0)
(0.00410287 -0.00795384 0)
(0.00481378 -0.00741523 0)
(0.0054762 -0.00693535 0)
(0.00609518 -0.00651844 0)
(0.00667622 -0.00616595 0)
(0.0072247 -0.00587658 0)
(0.00774545 -0.00564648 0)
(0.00824252 -0.00546965 0)
(0.0087191 -0.00533853 0)
(0.00917764 -0.00524476 0)
(0.00962004 -0.00517979 0)
(0.0100479 -0.00513553 0)
(0.010463 -0.00510467 0)
(0.0108671 -0.00508086 0)
(0.0112624 -0.00505867 0)
(0.0116511 -0.00503343 0)
(0.0120358 -0.00500098 0)
(0.0124188 -0.00495749 0)
(0.012802 -0.00489931 0)
(0.0131865 -0.00482299 0)
(0.0135727 -0.00472535 0)
(0.0139601 -0.00460371 0)
(0.0143471 -0.00445612 0)
(0.0147318 -0.00428152 0)
(0.0151117 -0.00407969 0)
(0.0154843 -0.00385118 0)
(0.0158475 -0.00359704 0)
(0.0161992 -0.0033185 0)
(0.0165376 -0.00301674 0)
(0.016861 -0.00269275 0)
(0.0171676 -0.00234722 0)
(0.0174552 -0.00198071 0)
(0.0177213 -0.00159373 0)
(0.0179624 -0.00118706 0)
(0.0181747 -0.000761836 0)
(0.0183535 -0.000319366 0)
(0.0184967 0.000137535 0)
(0.0185919 0.000602157 0)
(0.0186356 0.00106746 0)
(0.0186253 0.00152727 0)
(0.0185584 0.00197669 0)
(0.018435 0.00241166 0)
(0.0182564 0.0028295 0)
(0.0180255 0.00322919 0)
(0.0177458 0.00361137 0)
(0.017421 0.00397814 0)
(0.0170545 0.0043327 0)
(0.0166491 0.00467889 0)
(0.0162065 0.00502053 0)
(0.015727 0.00536095 0)
(0.0152099 0.00570242 0)
(0.0146531 0.00604586 0)
(0.0140542 0.00639086 0)
(0.0134106 0.00673601 0)
(0.0127204 0.00707967 0)
(0.0119832 0.00742115 0)
(0.0112009 0.00776212 0)
(0.010379 0.008108 0)
(0.00952729 0.00846871 0)
(0.00866041 0.00885738 0)
(0.00779777 0.00928464 0)
(0.00696101 0.00974412 0)
(0.00616316 0.0101878 0)
(0.00538901 0.0105266 0)
(0.00456882 0.0107463 0)
(0.00368903 0.0112566 0)
(0.0024011 0.013393 0)
(0.00139443 0.0174686 0)
(-0.000920532 0.0230043 0)
(-0.00113848 0.0143831 0)
(-0.00200036 0.0110563 0)
(-0.00254184 0.00999063 0)
(-0.00320243 0.00945072 0)
(-0.00382693 0.00897724 0)
(-0.00442821 0.00841479 0)
(-0.00497926 0.00769773 0)
(-0.00545771 0.00679392 0)
(-0.00583929 0.0056937 0)
(-0.00610094 0.00440874 0)
(-0.00622464 0.00297405 0)
(-0.00619916 0.00144882 0)
(-0.00602918 -8.54588e-05 0)
(-0.00575743 -0.00154674 0)
(-0.00543908 -0.00286835 0)
(-0.00509906 -0.00404292 0)
(-0.00478815 -0.00511568 0)
(-0.00453861 -0.00617675 0)
(-0.00436056 -0.007335 0)
(-0.00422541 -0.0086812 0)
(-0.00405397 -0.0102212 0)
(-0.0037357 -0.0117898 0)
(-0.00320627 -0.0130192 0)
(-0.00250969 -0.0135444 0)
(-0.0017276 -0.0133951 0)
(-0.000924962 -0.0129018 0)
(-0.000103098 -0.0122191 0)
(0.000742332 -0.011435 0)
(0.00155699 -0.0107007 0)
(0.0023504 -0.00998686 0)
(0.00310108 -0.00930383 0)
(0.00380691 -0.00866415 0)
(0.00446926 -0.00807895 0)
(0.00509076 -0.00755639 0)
(0.00567486 -0.00710134 0)
(0.00622533 -0.00671533 0)
(0.00674574 -0.00639671 0)
(0.00723912 -0.00614097 0)
(0.00770789 -0.00594135 0)
(0.0081539 -0.00578965 0)
(0.0085786 -0.00567704 0)
(0.0089834 -0.00559482 0)
(0.00936992 -0.005535 0)
(0.00974019 -0.00549059 0)
(0.0100968 -0.00545564 0)
(0.0104428 -0.00542509 0)
(0.0107818 -0.00539448 0)
(0.0111172 -0.00535963 0)
(0.0114526 -0.00531638 0)
(0.0117906 -0.00526044 0)
(0.0121332 -0.00518743 0)
(0.0124812 -0.00509313 0)
(0.012834 -0.00497383 0)
(0.0131901 -0.00482672 0)
(0.0135471 -0.00465021 0)
(0.0139021 -0.00444391 0)
(0.0142525 -0.00420854 0)
(0.0145959 -0.00394542 0)
(0.0149306 -0.00365614 0)
(0.015255 -0.0033421 0)
(0.015568 -0.0030043 0)
(0.0158682 -0.00264323 0)
(0.0161541 -0.00225901 0)
(0.0164233 -0.00185159 0)
(0.016673 -0.00142107 0)
(0.0168997 -0.000967958 0)
(0.0170979 -0.000493089 0)
(0.0172691 2.743e-06 0)
(0.0173968 0.000513418 0)
(0.0174774 0.00103034 0)
(0.0175065 0.0015453 0)
(0.0174801 0.0020517 0)
(0.0173964 0.00254346 0)
(0.0172558 0.00301632 0)
(0.0170606 0.00346802 0)
(0.016814 0.00389852 0)
(0.01652 0.00430977 0)
(0.0161825 0.00470537 0)
(0.0158051 0.00508996 0)
(0.0153901 0.00546853 0)
(0.014939 0.00584565 0)
(0.0144516 0.0062248 0)
(0.0139269 0.00660784 0)
(0.0133627 0.00699483 0)
(0.012757 0.00738417 0)
(0.0121077 0.00777325 0)
(0.011414 0.00815958 0)
(0.0106775 0.00854212 0)
(0.0099022 0.00892273 0)
(0.0090962 0.00930712 0)
(0.00827156 0.00970408 0)
(0.00744413 0.0101214 0)
(0.00663134 0.0105554 0)
(0.00584384 0.0109743 0)
(0.00507236 0.0113192 0)
(0.00425975 0.0116029 0)
(0.00341656 0.0122496 0)
(0.00219731 0.0146619 0)
(0.00125796 0.019173 0)
(-0.000833445 0.0239164 0)
(-0.00101319 0.0150078 0)
(-0.00178542 0.0116324 0)
(-0.00223266 0.0105744 0)
(-0.00280136 0.0100349 0)
(-0.00333193 0.00954547 0)
(-0.00384736 0.00894807 0)
(-0.00432217 0.00817522 0)
(-0.00473681 0.00719291 0)
(-0.0050681 0.00599096 0)
(-0.00529276 0.00458329 0)
(-0.00539068 0.00301192 0)