/*--------------------------------*- C++ -*----------------------------------*\
| =========                 |                                                 |
| \\      /  F ield         | OpenFOAM: The Open Source CFD Toolbox           |
|  \\    /   O peration     | Version:  4.1                                   |
|   \\  /    A nd           | Web:      www.OpenFOAM.org                      |
|    \\/     M anipulation  |                                                 |
\*---------------------------------------------------------------------------*/
FoamFile
{
    version     2.0;
    format      ascii;
    class       volVectorField;
    location    "110";
    object      U;
}
// * * * * * * * * * * * * * * * * * * * * * * * * * * * * * * * * * * * * * //

dimensions      [0 1 -1 0 0 0 0];

internalField   nonuniform List<vector> 
400
(
(-1.40368e-07 1.11413e-07 0)
(-1.50133e-07 -6.10372e-08 0)
(-1.81294e-08 -4.50616e-08 0)
(-8.99448e-09 -5.88351e-09 0)
(1.82897e-09 -3.49524e-09 0)
(5.15855e-09 -9.56956e-10 0)
(6.2257e-09 -3.10248e-10 0)
(8.49362e-09 -3.52538e-10 0)
(5.18634e-09 4.20988e-09 0)
(-2.77779e-09 3.41871e-09 0)
(-4.82397e-09 4.25945e-10 0)
(-4.06929e-09 -6.61475e-10 0)
(-2.96383e-09 -5.66155e-10 0)
(-2.02003e-09 -6.90584e-10 0)
(-1.0933e-09 -3.62716e-10 0)
(-1.04621e-09 5.76113e-10 0)
(-2.45942e-09 5.32901e-11 0)
(2.11161e-10 -2.78584e-10 0)
(-2.05381e-09 1.30054e-09 0)
(-3.99738e-09 -2.03489e-09 0)
(9.85308e-09 1.89692e-07 0)
(3.51403e-09 -9.50886e-08 0)
(-1.87866e-08 -7.0764e-08 0)
(-1.6146e-08 -1.69146e-08 0)
(-6.23282e-09 -1.0847e-08 0)
(-3.95878e-09 -4.37572e-09 0)
(-1.22597e-09 -2.08874e-09 0)
(-7.50098e-10 -6.76808e-10 0)
(-1.76712e-09 7.82599e-09 0)
(-1.26656e-09 6.05995e-09 0)
(-1.07815e-09 5.95763e-10 0)
(-1.0081e-09 -1.39966e-09 0)
(-8.16937e-10 -1.19291e-09 0)
(-1.00064e-09 -1.08894e-09 0)
(-1.66405e-09 -6.74266e-10 0)
(-1.55658e-09 6.91939e-10 0)
(-1.56467e-09 -8.98012e-10 0)
(5.99724e-10 -7.80819e-10 0)
(1.98821e-10 3.74066e-09 0)
(-1.37933e-09 -4.399e-09 0)
(7.07004e-08 1.07776e-07 0)
(7.37651e-08 -4.12421e-08 0)
(4.64892e-09 -3.22638e-08 0)
(2.36264e-09 -1.8934e-08 0)
(-5.79252e-10 -1.2e-08 0)
(-2.90836e-09 -4.90696e-09 0)
(-3.4836e-09 -2.87595e-09 0)
(-5.27421e-09 5.08794e-10 0)
(-4.13771e-09 5.00333e-09 0)
(1.00557e-09 3.05183e-09 0)
(2.16852e-09 2.50091e-10 0)
(1.45365e-09 -8.8799e-10 0)
(8.79041e-10 -6.837e-10 0)
(-1.42055e-10 1.45737e-10 0)
(-1.82695e-09 3.05162e-10 0)
(-2.22066e-09 3.93221e-10 0)
(-2.33274e-09 -1.75396e-09 0)
(-1.6599e-09 -2.29374e-09 0)
(1.05947e-09 3.41234e-09 0)
(1.32777e-09 -3.48135e-09 0)
(3.25596e-08 4.65542e-08 0)
(3.55757e-08 -1.00216e-08 0)
(7.69425e-09 -1.06824e-08 0)
(5.65508e-09 -1.3769e-08 0)
(-1.2022e-10 -7.96566e-09 0)
(-1.29748e-09 -2.26109e-09 0)
(-3.05064e-09 -8.53942e-10 0)
(-4.41236e-09 7.76562e-10 0)
(-1.73689e-09 1.27423e-09 0)
(9.04533e-10 3.41729e-10 0)
(1.56602e-09 1.79214e-10 0)
(1.19667e-09 -1.70328e-10 0)
(4.72874e-10 1.41296e-10 0)
(-5.13891e-10 1.55907e-09 0)
(-1.55451e-09 1.50058e-09 0)
(-1.83987e-09 7.65076e-10 0)
(-1.86721e-09 -1.41596e-09 0)
(-2.3984e-09 -3.83469e-09 0)
(3.40211e-11 7.00447e-10 0)
(1.43085e-09 -2.01824e-09 0)
(1.40552e-08 2.52977e-08 0)
(1.73099e-08 -2.09311e-09 0)
(8.4741e-09 -5.05563e-09 0)
(5.60189e-09 -8.61093e-09 0)
(-7.47571e-10 -4.78197e-09 0)
(-1.38571e-09 -1.75673e-09 0)
(-2.16923e-09 7.26885e-10 0)
(-2.20821e-09 -3.94671e-10 0)
(-2.83885e-10 -9.71112e-10 0)
(4.62946e-10 -5.14241e-10 0)
(9.71306e-10 6.87755e-11 0)
(7.48048e-10 4.49155e-10 0)
(-5.9437e-10 1.05064e-09 0)
(-1.43335e-09 2.23789e-09 0)
(-1.68067e-09 1.73154e-09 0)
(-1.18521e-09 4.82278e-10 0)
(-1.85282e-10 -1.23582e-09 0)
(-1.08134e-09 -3.97171e-09 0)
(-1.29581e-10 -1.00057e-09 0)
(1.01288e-09 -1.57664e-09 0)
(7.49116e-09 1.22841e-08 0)
(1.03412e-08 7.2263e-10 0)
(6.38528e-09 -1.59323e-09 0)
(3.32952e-09 -3.90698e-09 0)
(2.01184e-10 -1.65387e-09 0)
(-1.67752e-09 -7.16553e-10 0)
(-2.17447e-09 -1.18975e-10 0)
(-4.81665e-12 -1.23725e-09 0)
(-1.00102e-10 -1.42206e-09 0)
(-1.7362e-10 -8.91594e-10 0)
(3.39223e-10 -1.4762e-10 0)
(4.02403e-11 1.40497e-09 0)
(-1.45697e-09 2.38595e-09 0)
(-2.0295e-09 2.52673e-09 0)
(-1.95313e-09 1.36798e-09 0)
(-9.14608e-10 -8.07548e-10 0)
(6.26076e-10 -1.60237e-09 0)
(1.42219e-10 -3.77293e-09 0)
(3.37384e-10 -1.56814e-09 0)
(7.18742e-10 -1.0339e-09 0)
(4.31852e-09 5.06231e-09 0)
(5.58326e-09 1.68511e-09 0)
(3.41754e-09 8.09725e-10 0)
(1.17365e-09 -1.37707e-09 0)
(-4.10332e-10 -1.56649e-10 0)
(-1.01377e-09 1.03434e-09 0)
(-1.30525e-09 -1.42728e-09 0)
(1.38866e-10 -2.09478e-09 0)
(-4.04172e-10 -9.80355e-10 0)
(-4.42023e-10 -9.51627e-10 0)
(-5.32096e-10 -1.62007e-10 0)
(-1.08672e-09 2.23164e-09 0)
(-1.90277e-09 3.13023e-09 0)
(-1.63285e-09 2.48717e-09 0)
(-1.10667e-09 9.06905e-10 0)
(-3.97471e-10 -2.1734e-09 0)
(8.93217e-10 -2.25565e-09 0)
(3.9445e-10 -3.51107e-09 0)
(3.18008e-10 -1.70325e-09 0)
(6.12856e-10 -4.86632e-10 0)
(2.09972e-09 1.29173e-09 0)
(2.27328e-09 2.75772e-09 0)
(1.18582e-09 2.02982e-09 0)
(7.07331e-10 4.15415e-10 0)
(-1.58231e-09 4.5589e-10 0)
(-4.56628e-10 3.57096e-10 0)
(4.18744e-10 -1.50908e-09 0)
(-7.76469e-10 -2.03974e-09 0)
(-4.63923e-10 -9.43829e-10 0)
(-2.0424e-10 -7.31765e-10 0)
(-1.0607e-09 4.67557e-10 0)
(-1.73963e-09 2.83533e-09 0)
(-2.12533e-09 3.13108e-09 0)
(-1.16964e-09 1.45174e-09 0)
(2.51486e-10 2.92256e-10 0)
(4.88475e-10 -2.87261e-09 0)
(9.1524e-10 -2.32799e-09 0)
(7.14623e-11 -3.12363e-09 0)
(2.43068e-10 -1.95429e-09 0)
(7.00366e-10 -4.04651e-11 0)
(3.0092e-10 1.89891e-10 0)
(2.73474e-10 3.26032e-09 0)
(-8.05667e-11 2.11444e-09 0)
(8.8076e-11 1.4029e-09 0)
(-8.51882e-10 1.1375e-09 0)
(9.43102e-11 -1.10356e-09 0)
(5.78868e-10 -1.03169e-09 0)
(-9.26569e-10 -1.39132e-09 0)
(-4.00218e-10 -1.57784e-09 0)
(-2.068e-10 -3.9634e-10 0)
(-1.33812e-09 1.51784e-09 0)
(-1.67877e-09 3.03023e-09 0)
(-1.35011e-09 2.9471e-09 0)
(-6.66016e-10 1.33484e-11 0)
(6.22293e-10 -5.90988e-10 0)
(7.61871e-10 -3.01587e-09 0)
(7.91934e-10 -1.9668e-09 0)
(3.0389e-10 -2.84076e-09 0)
(4.78666e-10 -2.34447e-09 0)
(6.98721e-10 5.03968e-10 0)
(-5.91526e-10 5.85663e-10 0)
(-5.07165e-10 3.1907e-09 0)
(2.17221e-10 2.18288e-09 0)
(-6.66871e-10 1.32762e-09 0)
(3.47976e-10 4.14124e-10 0)
(5.01543e-10 -1.06505e-09 0)
(-3.86375e-10 -4.92362e-10 0)
(6.83001e-11 -1.00362e-09 0)
(-3.63433e-10 -1.62057e-09 0)
(-9.49374e-10 1.59781e-10 0)
(-1.73126e-09 2.09432e-09 0)
(-1.48241e-09 2.5235e-09 0)
(-3.00549e-10 2.28281e-09 0)
(4.59608e-10 -6.59285e-10 0)
(8.40416e-10 -1.06471e-09 0)
(9.59434e-10 -3.0655e-09 0)
(1.07402e-09 -1.92959e-09 0)
(9.37059e-10 -2.66843e-09 0)
(7.43342e-10 -2.42927e-09 0)
(5.09443e-10 1.17432e-09 0)
(-3.78812e-10 1.23495e-09 0)
(-5.66117e-10 2.57699e-09 0)
(3.85839e-10 2.08927e-09 0)
(-1.10083e-11 1.44649e-09 0)
(5.61174e-10 -1.99891e-10 0)
(-5.50435e-11 -2.50236e-10 0)
(-4.31807e-10 -6.97856e-10 0)
(9.44555e-10 -1.27664e-09 0)
(-1.55003e-10 -7.17006e-10 0)
(-1.04831e-09 1.10912e-09 0)
(-1.61707e-09 2.20251e-09 0)
(-1.23339e-09 1.57392e-09 0)
(1.63202e-10 1.07877e-09 0)
(1.17519e-09 -1.16953e-09 0)
(1.56194e-09 -1.25778e-09 0)
(1.49777e-09 -3.05875e-09 0)
(1.57074e-09 -2.08558e-09 0)
(1.58297e-09 -2.35641e-09 0)
(8.96197e-10 -2.01597e-09 0)
(2.54367e-10 1.79936e-09 0)
(1.00174e-11 1.45334e-09 0)
(1.42803e-10 2.53951e-09 0)
(-3.86018e-10 1.7502e-09 0)
(4.36817e-10 1.07254e-09 0)
(5.33672e-10 4.56115e-10 0)
(-1.73991e-10 2.56556e-11 0)
(9.13566e-10 -1.50564e-09 0)
(9.5477e-10 -1.12857e-09 0)
(-6.1791e-10 3.02033e-10 0)
(-1.07946e-09 1.53688e-09 0)
(-7.68036e-10 2.2608e-09 0)
(-5.80944e-10 7.07639e-10 0)
(5.88386e-10 -1.47888e-10 0)
(1.4875e-09 -1.89278e-09 0)
(2.04944e-09 -1.53532e-09 0)
(2.09666e-09 -2.97995e-09 0)
(2.13457e-09 -2.21404e-09 0)
(2.03927e-09 -1.8451e-09 0)
(8.09163e-10 -1.07631e-09 0)
(-5.7402e-11 2.27778e-09 0)
(-2.75082e-10 1.19026e-09 0)
(2.63587e-10 2.75238e-09 0)
(-2.39716e-11 1.85464e-09 0)
(2.24785e-10 4.67225e-10 0)
(4.48946e-10 5.71371e-10 0)
(1.12566e-09 -7.66443e-10 0)
(1.72534e-09 -1.67648e-09 0)
(5.29417e-10 1.70102e-10 0)
(-6.77412e-10 1.47196e-09 0)
(-1.15859e-09 1.11706e-09 0)
(-1.80934e-10 1.79303e-09 0)
(1.99234e-10 1.59109e-10 0)
(7.88761e-10 -1.01246e-09 0)
(1.62503e-09 -2.63117e-09 0)
(2.42943e-09 -2.04892e-09 0)
(2.74342e-09 -2.95266e-09 0)
(2.50583e-09 -2.14926e-09 0)
(1.94117e-09 -9.74622e-10 0)
(3.42569e-10 1.70579e-10 0)
(-4.05757e-10 2.46659e-09 0)
(-3.08348e-10 1.50808e-09 0)
(-4.84033e-10 2.32017e-09 0)
(5.39053e-10 1.67085e-09 0)
(3.26729e-10 5.56177e-10 0)
(6.87356e-10 -3.74684e-10 0)
(2.25086e-09 -1.39884e-09 0)
(9.99591e-10 -6.55621e-10 0)
(-2.58645e-10 1.01226e-09 0)
(1.33857e-10 2.05532e-09 0)
(-2.87367e-10 9.57169e-10 0)
(-4.66236e-11 1.09109e-09 0)
(6.95902e-10 -2.90021e-10 0)
(1.105e-09 -1.70298e-09 0)
(2.10002e-09 -3.46246e-09 0)
(2.91843e-09 -2.76516e-09 0)
(3.03598e-09 -2.79202e-09 0)
(2.20913e-09 -1.51572e-09 0)
(1.1705e-09 2.72369e-10 0)
(-3.09604e-10 1.33026e-09 0)
(-6.18637e-10 2.18184e-09 0)
(-5.93975e-11 1.90044e-09 0)
(-4.17304e-11 1.87944e-09 0)
(6.54576e-10 1.10671e-09 0)
(5.83154e-10 4.66105e-10 0)
(1.34398e-09 -1.55678e-09 0)
(1.61594e-09 -9.64443e-10 0)
(3.35019e-10 8.93747e-10 0)
(-3.97791e-10 1.02188e-09 0)
(6.01561e-10 1.55298e-09 0)
(7.77721e-10 1.19768e-09 0)
(4.0285e-10 7.23898e-10 0)
(1.35363e-09 -9.10467e-10 0)
(1.88579e-09 -2.53862e-09 0)
(2.7357e-09 -4.20267e-09 0)
(3.05594e-09 -3.10602e-09 0)
(2.56221e-09 -2.09749e-09 0)
(1.21971e-09 -3.26354e-10 0)
(8.93348e-11 1.47908e-09 0)
(-8.31628e-10 2.04612e-09 0)
(-6.62281e-10 1.48197e-09 0)
(-2.83273e-10 1.6795e-09 0)
(6.53745e-10 1.48333e-09 0)
(5.8359e-10 1.17323e-09 0)
(7.13886e-10 -1.28548e-10 0)
(1.21849e-09 -1.54378e-09 0)
(-4.76526e-10 -2.19507e-10 0)
(1.97684e-10 1.13744e-09 0)
(8.27138e-10 7.76993e-10 0)
(1.16437e-09 8.9715e-10 0)
(1.27722e-09 1.3329e-09 0)
(1.14245e-09 3.05971e-10 0)
(2.16116e-09 -1.53627e-09 0)
(2.57465e-09 -3.21279e-09 0)
(2.76907e-09 -4.44979e-09 0)
(2.4375e-09 -2.76489e-09 0)
(1.46204e-09 -8.7056e-10 0)
(1.34581e-11 9.59155e-10 0)
(-7.95604e-10 2.24992e-09 0)
(-1.04071e-09 2.19069e-09 0)
(-5.73937e-10 6.21051e-10 0)
(-3.39728e-10 1.65692e-09 0)
(2.49082e-10 9.2752e-10 0)
(5.7295e-10 1.14158e-09 0)
(9.97665e-10 -4.66698e-10 0)
(4.01486e-10 -2.36026e-10 0)
(-1.07868e-09 6.00499e-11 0)
(5.00221e-10 -4.5483e-10 0)
(1.76616e-09 2.75862e-10 0)
(1.75038e-09 8.07919e-10 0)
(1.37493e-09 1.57727e-09 0)
(1.43788e-09 -4.10416e-10 0)
(2.41208e-09 -2.16572e-09 0)
(2.71283e-09 -3.33377e-09 0)
(2.09733e-09 -3.91785e-09 0)
(1.13823e-09 -1.92537e-09 0)
(7.78709e-11 3.97614e-10 0)
(-9.62893e-10 1.92434e-09 0)
(-1.23827e-09 2.48196e-09 0)
(-9.75784e-10 1.91353e-09 0)
(-4.13312e-10 -2.05742e-10 0)
(1.21769e-10 1.69483e-09 0)
(1.79066e-10 5.19908e-10 0)
(7.57529e-10 5.10974e-10 0)
(8.79414e-10 -2.72549e-11 0)
(7.44717e-11 6.85415e-10 0)
(3.36708e-10 -3.29738e-10 0)
(1.03873e-09 -1.78347e-09 0)
(1.31329e-09 -1.88595e-10 0)
(1.35045e-09 9.38772e-10 0)
(1.41041e-09 1.79017e-09 0)
(1.62729e-09 -9.00291e-10 0)
(1.95996e-09 -2.71223e-09 0)
(1.92106e-09 -2.96469e-09 0)
(7.62116e-10 -2.77344e-09 0)
(-5.65711e-10 -8.63615e-10 0)
(-1.30924e-09 1.25597e-09 0)
(-1.56824e-09 2.29161e-09 0)
(-1.22606e-09 2.20702e-09 0)
(-6.31835e-10 1.42619e-09 0)
(-1.71302e-10 -8.00252e-10 0)
(4.58586e-10 1.32888e-09 0)
(6.7478e-10 3.62078e-10 0)
(8.50549e-10 3.13025e-10 0)
(8.45574e-10 3.43222e-10 0)
(8.43272e-10 2.2132e-10 0)
(1.66555e-09 -9.22251e-10 0)
(1.02625e-09 -1.43251e-09 0)
(3.78e-10 5.14683e-11 0)
(4.70971e-10 7.02054e-10 0)
(1.2845e-09 1.22453e-09 0)
(1.87803e-09 -8.89324e-10 0)
(9.92368e-10 -2.47962e-09 0)
(6.01028e-11 -2.1239e-09 0)
(-1.30928e-09 -1.37457e-09 0)
(-2.37972e-09 9.52633e-11 0)
(-2.43424e-09 1.41701e-09 0)
(-1.7551e-09 1.83324e-09 0)
(-8.45153e-10 1.49285e-09 0)
(1.34635e-11 8.73942e-10 0)
(2.17823e-10 -1.00546e-09 0)
(6.36557e-10 5.26523e-10 0)
(1.1863e-09 1.5259e-10 0)
(1.31419e-09 2.20497e-10 0)
(1.6082e-09 1.17509e-10 0)
(1.78647e-09 -2.00309e-10 0)
(1.67216e-09 -5.7292e-10 0)
(1.47493e-10 -4.30173e-10 0)
(-6.96197e-12 2.25586e-10 0)
(3.68162e-10 2.29402e-10 0)
(1.00668e-09 3.11517e-10 0)
(1.61577e-09 -4.08222e-10 0)
(-1.82943e-10 -1.00565e-09 0)
(-1.89662e-09 -7.57133e-10 0)
(-3.10437e-09 -3.09726e-10 0)
(-3.4755e-09 2.45945e-10 0)
(-2.75637e-09 6.30829e-10 0)
(-1.3904e-09 6.69553e-10 0)
(-3.00037e-10 5.05256e-10 0)
(7.33515e-10 2.92822e-10 0)
(7.12916e-10 -4.99446e-10 0)
)
;

boundaryField
{
    floor
    {
        type            noSlip;
    }
    ceiling
    {
        type            noSlip;
    }
    fixedWalls
    {
        type            noSlip;
    }
    frontAndBack
    {
        type            empty;
    }
}


// ************************************************************************* //
