/*--------------------------------*- C++ -*----------------------------------*\
| =========                 |                                                 |
| \\      /  F ield         | OpenFOAM: The Open Source CFD Toolbox           |
|  \\    /   O peration     | Version:  4.1                                   |
|   \\  /    A nd           | Web:      www.OpenFOAM.org                      |
|    \\/     M anipulation  |                                                 |
\*---------------------------------------------------------------------------*/
FoamFile
{
    version     2.0;
    format      ascii;
    class       surfaceScalarField;
    location    "2000";
    object      phi;
}
// * * * * * * * * * * * * * * * * * * * * * * * * * * * * * * * * * * * * * //

dimensions      [0 3 -1 0 0 0 0];

internalField   nonuniform List<scalar> 
3120
(
2.69119e-06
-2.69119e-06
4.06306e-06
-1.37188e-06
4.26942e-06
-2.06359e-07
5.75971e-06
-1.49029e-06
7.91018e-06
-2.15047e-06
3.7573e-06
4.15287e-06
-3.6381e-06
7.3954e-06
-4.0165e-06
3.78397e-07
-4.72081e-06
7.04319e-07
-5.32941e-06
6.08594e-07
-5.92892e-06
5.99513e-07
-6.47599e-06
5.47072e-07
-6.59322e-06
1.17229e-07
-6.00607e-06
-5.87154e-07
-4.66822e-06
-1.33785e-06
-2.84191e-06
-1.82631e-06
-3.0438e-07
-2.53753e-06
2.32544e-06
-2.62982e-06
4.92935e-06
-2.60392e-06
7.74383e-06
-2.81447e-06
1.08717e-05
-3.12785e-06
1.39522e-05
-3.08053e-06
1.55439e-05
-1.59173e-06
1.3095e-05
2.44892e-06
5.34368e-06
7.75134e-06
-1.50751e-06
6.85119e-06
-2.72782e-06
1.22031e-06
-3.53316e-06
8.05341e-07
-4.16878e-06
6.35616e-07
-4.20129e-06
3.25174e-08
-3.53036e-06
-6.70932e-07
-2.20437e-06
-1.32599e-06
-1.11801e-07
-2.09257e-06
2.64741e-06
-2.75921e-06
6.22347e-06
-3.57607e-06
8.5557e-06
-2.33222e-06
4.56437e-06
3.99133e-06
-3.01366e-06
7.57803e-06
-2.63016e-06
-3.83506e-07
-2.63016e-06
1.7914e-06
-4.48259e-06
3.23806e-06
-2.81853e-06
4.70871e-06
-1.67701e-06
5.74111e-06
-2.52269e-06
6.87065e-06
-3.28001e-06
2.91196e-06
8.11157e-06
-3.3224e-06
1.36298e-05
-4.36358e-06
1.41958e-06
-5.2077e-06
1.54844e-06
-5.9697e-06
1.37059e-06
-6.54513e-06
1.17495e-06
-6.78028e-06
7.82217e-07
-6.57246e-06
-9.05912e-08
-5.85202e-06
-1.30759e-06
-4.55384e-06
-2.63604e-06
-2.60805e-06
-3.7721e-06
-2.24607e-07
-4.92097e-06
2.38805e-06
-5.24247e-06
5.14243e-06
-5.3583e-06
7.93546e-06
-5.6075e-06
1.07432e-05
-5.93556e-06
1.34008e-05
-5.73813e-06
1.49029e-05
-3.09383e-06
1.32496e-05
4.10218e-06
7.86857e-06
1.31324e-05
1.34445e-06
1.33753e-05
-1.81055e-06
4.37531e-06
-3.01098e-06
2.00577e-06
-3.77959e-06
1.40423e-06
-3.85476e-06
1.07686e-07
-3.1353e-06
-1.39039e-06
-1.60904e-06
-2.85225e-06
4.19303e-07
-4.12091e-06
2.85935e-06
-5.19926e-06
5.49715e-06
-6.21386e-06
7.38034e-06
-4.21542e-06
4.47375e-06
6.89793e-06
-1.21862e-06
1.32704e-05
-1.47983e-06
-1.22298e-07
-4.10999e-06
2.02454e-06
-6.50713e-06
3.49093e-06
-4.28492e-06
4.7242e-06
-2.91029e-06
5.41858e-06
-3.21707e-06
5.6089e-06
-3.47033e-06
2.68933e-06
1.10311e-05
-1.77205e-06
1.80911e-05
-3.73926e-06
3.38678e-06
-4.75493e-06
2.56411e-06
-5.72447e-06
2.34013e-06
-6.39472e-06
1.84521e-06
-6.63499e-06
1.02249e-06
-6.40723e-06
-3.1835e-07
-5.62172e-06
-2.0931e-06
-4.269e-06
-3.98876e-06
-2.36197e-06
-5.67913e-06
-9.24715e-08
-7.19047e-06
2.4036e-06
-7.73855e-06
5.00934e-06
-7.96403e-06
7.616e-06
-8.21417e-06
1.00968e-05
-8.41635e-06
1.22602e-05
-7.90152e-06
1.35175e-05
-4.35119e-06
1.26602e-05
4.95948e-06
9.26141e-06
1.65312e-05
4.47355e-06
1.81632e-05
1.11736e-07
8.73712e-06
-1.84031e-06
3.95781e-06
-2.76103e-06
2.32495e-06
-2.89365e-06
2.40308e-07
-2.22721e-06
-2.05683e-06
-8.67893e-07
-4.21157e-06
8.60235e-07
-5.84904e-06
2.85732e-06
-7.19635e-06
4.79421e-06
-8.15075e-06
6.04338e-06
-5.46459e-06
4.09858e-06
8.84272e-06
2.86896e-08
1.73403e-05
-1.25004e-06
1.15644e-06
-5.36003e-06
2.13281e-06
-8.63993e-06
3.67717e-06
-5.82928e-06
4.78239e-06
-4.01551e-06
5.26194e-06
-3.69662e-06
5.07844e-06
-3.28683e-06
2.90773e-06
1.32018e-05
-5.8511e-07
2.1584e-05
-3.02583e-06
5.8275e-06
-4.27118e-06
3.80946e-06
-5.3749e-06
3.44384e-06
-6.09849e-06
2.5688e-06
-6.33658e-06
1.26057e-06
-6.03056e-06
-6.24364e-07
-5.13291e-06
-2.99075e-06
-3.69842e-06
-5.42325e-06
-1.80036e-06
-7.57719e-06
3.39642e-07
-9.33047e-06
2.66654e-06
-1.00654e-05
5.08512e-06
-1.03826e-05
7.47216e-06
-1.06012e-05
9.65494e-06
-1.05991e-05
1.14433e-05
-9.68985e-06
1.25175e-05
-5.42545e-06
1.2188e-05
5.28904e-06
1.0153e-05
1.85661e-05
6.7829e-06
2.15333e-05
2.33423e-06
1.31858e-05
-3.40197e-07
6.63224e-06
-1.45744e-06
3.4422e-06
-1.62286e-06
4.05725e-07
-1.02582e-06
-2.65388e-06
6.7852e-08
-5.30524e-06
1.48085e-06
-7.26203e-06
3.05735e-06
-8.77284e-06
4.45809e-06
-9.55149e-06
5.25257e-06
-6.25906e-06
3.77497e-06
1.03203e-05
7.89895e-07
2.03254e-05
-1.0024e-06
2.94873e-06
-6.36244e-06
2.08901e-06
-1.07289e-05
3.72198e-06
-7.46225e-06
4.81445e-06
-5.10798e-06
5.20264e-06
-4.08481e-06
4.8702e-06
-2.95439e-06
3.35106e-06
1.4721e-05
6.12304e-07
2.43227e-05
-2.30595e-06
8.74575e-06
-3.69396e-06
5.19748e-06
-4.88602e-06
4.6359e-06
-5.62855e-06
3.31134e-06
-5.8243e-06
1.45631e-06
-5.41026e-06
-1.0384e-06
-4.38206e-06
-4.01895e-06
-2.85904e-06
-6.94628e-06
-9.62292e-07
-9.47393e-06
1.05067e-06
-1.13434e-05
3.18181e-06
-1.21966e-05
5.3948e-06
-1.25956e-05
7.54461e-06
-1.2751e-05
9.43845e-06
-1.2493e-05
1.08977e-05
-1.11491e-05
1.18094e-05
-6.33715e-06
1.18518e-05
5.24665e-06
1.08039e-05
1.9614e-05
8.48252e-06
2.38547e-05
4.6858e-06
1.69825e-05
1.67149e-06
9.64656e-06
2.53837e-07
4.85985e-06
-4.26532e-10
6.59989e-07
3.60827e-07
-3.01513e-06
1.18573e-06
-6.13015e-06
2.28556e-06
-8.36186e-06
3.45417e-06
-9.94145e-06
4.37574e-06
-1.04731e-05
4.74965e-06
-6.63297e-06
3.52481e-06
1.15452e-05
1.34658e-06
2.25036e-05
-4.76616e-07
4.77193e-06
-6.83905e-06
1.96747e-06
-1.26964e-05
3.66211e-06
-9.15689e-06
4.8073e-06
-6.25317e-06
5.19045e-06
-4.46796e-06
4.84511e-06
-2.60906e-06
3.94088e-06
1.56252e-05
2.11494e-06
2.61487e-05
-1.32411e-06
1.21848e-05
-2.99501e-06
6.86837e-06
-4.23637e-06
5.87726e-06
-4.97777e-06
4.05274e-06
-5.11469e-06
1.59324e-06
-4.58272e-06
-1.57037e-06
-3.42334e-06
-5.17833e-06
-1.81329e-06
-8.55633e-06
5.36048e-08
-1.13408e-05
1.93267e-06
-1.32225e-05
3.89562e-06
-1.41595e-05
5.90492e-06
-1.46049e-05
7.81685e-06
-1.4663e-05
9.4348e-06
-1.41109e-05
1.05924e-05
-1.23068e-05
1.13316e-05
-7.07627e-06
1.16252e-05
4.95297e-06
1.12958e-05
1.99434e-05
9.79914e-06
2.53514e-05
6.79667e-06
1.9985e-05
3.91779e-06
1.25254e-05
2.27688e-06
6.50077e-06
1.72261e-06
1.21425e-06
1.91844e-06
-3.21096e-06
2.48476e-06
-6.69647e-06
3.25284e-06
-9.12995e-06
4.01847e-06
-1.07071e-05
4.48602e-06
-1.09406e-05
4.43177e-06
-6.57872e-06
3.27434e-06
1.27026e-05
1.59899e-06
2.41789e-05
1.09878e-07
6.26105e-06
-6.72917e-06
1.82462e-06
-1.4521e-05
3.54169e-06
-1.0874e-05
4.76918e-06
-7.48065e-06
5.21384e-06
-4.91262e-06
4.95369e-06
-2.34891e-06
4.62308e-06
1.59558e-05
3.54697e-06
2.72248e-05
1.11051e-07
1.56207e-05
-2.18551e-06
9.16493e-06
-3.4275e-06
7.11925e-06
-4.16096e-06
4.7862e-06
-4.23638e-06
1.66866e-06
-3.58302e-06
-2.22372e-06
-2.30059e-06
-6.46076e-06
-6.21113e-07
-1.02358e-05
1.15308e-06
-1.3115e-05
2.91286e-06
-1.49823e-05
4.74454e-06
-1.59912e-05
6.56416e-06
-1.64245e-05
8.24986e-06
-1.63487e-05
9.61232e-06
-1.54734e-05
1.04948e-05
-1.31893e-05
1.10453e-05
-7.62676e-06
1.14839e-05
4.51435e-06
1.16623e-05
1.97651e-05
1.0827e-05
2.61867e-05
8.60076e-06
2.22112e-05
6.16624e-06
1.496e-05
4.53882e-06
8.12818e-06
3.75868e-06
1.9944e-06
3.65493e-06
-3.10721e-06
3.91078e-06
-6.95231e-06
4.33432e-06
-9.55349e-06
4.70989e-06
-1.10826e-05
4.74395e-06
-1.09747e-05
4.23831e-06
-6.07308e-06
2.95158e-06
1.39893e-05
1.51638e-06
2.56141e-05
4.53749e-07
7.32368e-06
-6.27543e-06
1.69195e-06
-1.6213e-05
3.3969e-06
-1.25789e-05
4.71272e-06
-8.79648e-06
5.28312e-06
-5.48302e-06
5.16456e-06
-2.23035e-06
5.33272e-06
1.57877e-05
4.81663e-06
2.77409e-05
1.41319e-06
1.90242e-05
-1.15165e-06
1.17298e-05
-2.45534e-06
8.42295e-06
-3.18102e-06
5.51187e-06
-3.19352e-06
1.68116e-06
-2.41345e-06
-3.00379e-06
-1.02421e-06
-7.85e-06
6.22486e-07
-1.18825e-05
2.29038e-06
-1.47829e-05
3.97423e-06
-1.66661e-05
5.67649e-06
-1.76935e-05
7.31865e-06
-1.80667e-05
8.79465e-06
-1.78247e-05
9.92581e-06
-1.66045e-05
1.05638e-05
-1.38273e-05
1.0915e-05
-7.97797e-06
1.1399e-05
4.0304e-06
1.19103e-05
1.92538e-05
1.15985e-05
2.64985e-05
1.0067e-05
2.37426e-05
8.17351e-06
1.68535e-05
6.72686e-06
9.57483e-06
5.83402e-06
2.88725e-06
5.44317e-06
-2.71636e-06
5.38128e-06
-6.89042e-06
5.46774e-06
-9.63995e-06
5.47806e-06
-1.1093e-05
5.10366e-06
-1.06003e-05
4.10943e-06
-5.07885e-06
2.51116e-06
1.55876e-05
1.21766e-06
2.69076e-05
6.8722e-07
7.85412e-06
-5.58821e-06
1.58255e-06
-1.77955e-05
3.25181e-06
-1.42482e-05
4.64391e-06
-1.01886e-05
5.39573e-06
-6.23484e-06
5.4484e-06
-2.28301e-06
6.02629e-06
1.52098e-05
5.96498e-06
2.78022e-05
3.06705e-06
2.19221e-05
1.81416e-07
1.46154e-05
-1.32258e-06
9.92695e-06
-2.03413e-06
6.22342e-06
-1.94843e-06
1.59546e-06
-1.04245e-06
-3.90977e-06
3.52871e-07
-9.24533e-06
1.88654e-06
-1.34162e-05
3.46941e-06
-1.63658e-05
5.07474e-06
-1.82715e-05
6.64572e-06
-1.92645e-05
8.11693e-06
-1.95379e-05
9.39785e-06
-1.91056e-05
1.03208e-05
-1.75274e-05
1.0744e-05
-1.42505e-05
1.08953e-05
-8.12923e-06
1.1335e-05
3.59072e-06
1.20322e-05
1.85565e-05
1.21206e-05
2.64102e-05
1.11823e-05
2.46808e-05
9.81116e-06
1.82247e-05
8.61729e-06
1.07687e-05
7.71965e-06
3.7849e-06
7.13153e-06
-2.12825e-06
6.79618e-06
-6.55508e-06
6.58042e-06
-9.42419e-06
6.26435e-06
-1.07769e-05
5.51371e-06
-9.84964e-06
3.97166e-06
-3.53681e-06
1.921e-06
1.76383e-05
7.95847e-07
2.80328e-05
7.11888e-07
7.93808e-06
-4.87632e-06
1.49771e-06
-1.92932e-05
3.11868e-06
-1.58691e-05
4.56285e-06
-1.16328e-05
5.51071e-06
-7.1827e-06
5.77475e-06
-2.54705e-06
6.68001e-06
1.43045e-05
7.00916e-06
2.7473e-05
4.75193e-06
2.41793e-05
1.96416e-06
1.74032e-05
8.42536e-08
1.18068e-05
-6.60384e-07
6.96806e-06
-4.10585e-07
1.34566e-06
5.16774e-07
-4.83713e-06
1.76417e-06
-1.04927e-05
3.18056e-06
-1.48326e-05
4.68485e-06
-1.78701e-05
6.1847e-06
-1.97713e-05
7.61202e-06
-2.06918e-05
8.91017e-06
-2.0836e-05
1.00038e-05
-2.01992e-05
1.07356e-05
-1.82593e-05
1.09706e-05
-1.44855e-05
1.09296e-05
-8.08821e-06
1.12524e-05
3.26787e-06
1.20121e-05
1.77969e-05
1.23892e-05
2.6033e-05
1.19397e-05
2.51303e-05
1.10317e-05
1.91327e-05
1.01019e-05
1.16985e-05
9.27383e-06
4.61301e-06
8.58983e-06
-1.44425e-06
8.05833e-06
-6.02358e-06
7.59828e-06
-8.96414e-06
7.00492e-06
-1.01835e-05
5.90708e-06
-8.75179e-06
3.73113e-06
-1.36086e-06
1.15815e-06
2.02112e-05
3.34698e-07
2.88562e-05
6.23965e-07
7.64881e-06
-4.25235e-06
1.43236e-06
-2.07256e-05
3.00007e-06
-1.74369e-05
4.46976e-06
-1.31024e-05
5.58926e-06
-8.3022e-06
6.10869e-06
-3.06649e-06
7.27163e-06
1.31416e-05
7.92861e-06
2.68161e-05
6.2914e-06
2.58165e-05
3.83135e-06
1.98632e-05
1.97438e-06
1.36638e-05
1.15872e-06
7.78372e-06
1.3471e-06
1.15727e-06
2.13492e-06
-5.62495e-06
3.2315e-06
-1.15893e-05
4.52807e-06
-1.61291e-05
5.91067e-06
-1.92527e-05
7.27347e-06
-2.11341e-05
8.53658e-06
-2.19549e-05
9.6501e-06
-2.19495e-05
1.05539e-05
-2.1103e-05
1.11025e-05
-1.88079e-05
1.11678e-05
-1.45508e-05
1.09495e-05
-7.86986e-06
1.11051e-05
3.1122e-06
1.18287e-05
1.70733e-05
1.23975e-05
2.54642e-05
1.23397e-05
2.51881e-05
1.18288e-05
1.96437e-05
1.11542e-05
1.2373e-05
1.04434e-05
5.32386e-06
9.74447e-06
-7.45346e-07
9.09682e-06
-5.37593e-06
8.45741e-06
-8.32473e-06
7.6355e-06
-9.36163e-06
6.17533e-06
-7.29162e-06
3.25031e-06
1.56416e-06
2.8865e-07
2.31729e-05
-1.23095e-07
2.9268e-05
4.62417e-07
7.0633e-06
-3.78994e-06
1.37886e-06
-2.21045e-05
2.89139e-06
-1.89494e-05
4.3637e-06
-1.45747e-05
5.62144e-06
-9.55994e-06
6.41852e-06
-3.86356e-06
7.77748e-06
1.17826e-05
8.69728e-06
2.58963e-05
7.62691e-06
2.68869e-05
5.64141e-06
2.18487e-05
3.99619e-06
1.5309e-05
3.25021e-06
8.52971e-06
3.27459e-06
1.13289e-06
3.84922e-06
-6.19958e-06
4.75855e-06
-1.24986e-05
5.88917e-06
-1.72598e-05
7.11233e-06
-2.04758e-05
8.30602e-06
-2.23278e-05
9.37878e-06
-2.30276e-05
1.02867e-05
-2.28575e-05
1.09858e-05
-2.1802e-05
1.1346e-05
-1.91681e-05
1.1252e-05
-1.44568e-05
1.08753e-05
-7.49316e-06
1.08387e-05
3.14886e-06
1.14563e-05
1.64557e-05
1.21388e-05
2.47816e-05
1.23902e-05
2.49367e-05
1.22173e-05
1.98166e-05
1.17884e-05
1.28019e-05
1.12214e-05
5.89083e-06
1.05696e-05
-9.35637e-08
9.87113e-06
-4.67742e-06
9.10775e-06
-7.56134e-06
8.09609e-06
-8.34997e-06
6.20416e-06
-5.39969e-06
2.33602e-06
5.43231e-06
-9.68556e-07
2.64775e-05
-5.36693e-07
2.88361e-05
2.22078e-07
6.30453e-06
-3.56786e-06
1.32943e-06
-2.34339e-05
2.78391e-06
-2.04039e-05
4.23945e-06
-1.60303e-05
5.60046e-06
-1.0921e-05
6.67084e-06
-4.93395e-06
8.17133e-06
1.02821e-05
9.28989e-06
2.47777e-05
8.7174e-06
2.74594e-05
7.24528e-06
2.33208e-05
5.92969e-06
1.66246e-05
5.28726e-06
9.17213e-06
5.19689e-06
1.22327e-06
5.55839e-06
-6.56109e-06
6.26636e-06
-1.32066e-05
7.20916e-06
-1.82025e-05
8.24668e-06
-2.15134e-05
9.24223e-06
-2.33233e-05
1.00948e-05
-2.38802e-05
1.07669e-05
-2.35296e-05
1.12309e-05
-2.2266e-05
1.13808e-05
-1.93181e-05
1.11292e-05
-1.42052e-05
1.06156e-05
-6.97957e-06
1.03882e-05
3.37633e-06
1.08646e-05
1.59793e-05
1.1608e-05
2.40382e-05
1.21058e-05
2.44389e-05
1.2226e-05
1.96963e-05
1.20376e-05
1.29904e-05
1.1639e-05
6.28938e-06
1.1075e-05
4.70499e-07
1.03672e-05
-3.9696e-06
9.50898e-06
-6.70316e-06
8.31731e-06
-7.15829e-06
5.80327e-06
-2.88566e-06
9.74895e-07
1.02607e-05
-2.15306e-06
2.96054e-05
-9.23377e-07
2.76064e-05
-9.67354e-09
5.39083e-06
-3.57753e-06
1.27725e-06
-2.47111e-05
2.6675e-06
-2.17941e-05
4.08823e-06
-1.7451e-05
5.51543e-06
-1.23481e-05
6.83156e-06
-6.25008e-06
8.42516e-06
8.68853e-06
9.68158e-06
2.35213e-05
9.52895e-06
2.7612e-05
8.54505e-06
2.43047e-05
7.57471e-06
1.7595e-05
7.05118e-06
9.69566e-06
6.91623e-06
1.35821e-06
7.13051e-06
-6.77537e-06
7.66865e-06
-1.37447e-05
8.42821e-06
-1.89621e-05
9.26653e-06
-2.23517e-05
1.00385e-05
-2.40954e-05
1.06379e-05
-2.44796e-05
1.1034e-05
-2.39257e-05
1.1214e-05
-2.2446e-05
1.11091e-05
-1.92132e-05
1.06918e-05
-1.37878e-05
1.00687e-05
-6.35653e-06
9.67946e-06
3.76559e-06
1.00196e-05
1.56391e-05
1.08027e-05
2.32552e-05
1.15083e-05
2.37333e-05
1.1894e-05
1.93105e-05
1.19482e-05
1.29362e-05
1.17389e-05
6.49866e-06
1.12853e-05
9.24092e-07
1.0584e-05
-3.26827e-06
9.62687e-06
-5.74605e-06
8.10125e-06
-5.63268e-06
4.47789e-06
7.37698e-07
-9.39448e-07
1.5678e-05
-3.17782e-06
3.18438e-05
-1.24165e-06
2.56703e-05
-2.72831e-07
4.42201e-06
-3.85036e-06
1.21681e-06
-2.59279e-05
2.5327e-06
-2.311e-05
3.89996e-06
-1.88183e-05
5.3537e-06
-1.38019e-05
6.86988e-06
-7.76626e-06
8.51061e-06
7.04779e-06
9.84842e-06
2.21835e-05
1.00371e-05
2.74234e-05
9.48823e-06
2.48536e-05
8.84341e-06
1.82398e-05
8.45483e-06
1.00843e-05
8.33155e-06
1.48148e-06
8.48089e-06
-6.9247e-06
8.89894e-06
-1.41628e-05
9.49348e-06
-1.95566e-05
1.0126e-05
-2.29842e-05
1.06501e-05
-2.46194e-05
1.09591e-05
-2.47886e-05
1.10277e-05
-2.39943e-05
1.08523e-05
-2.22707e-05
1.0419e-05
-1.87799e-05
9.81512e-06
-1.31839e-05
9.11943e-06
-5.66084e-06
8.63208e-06
4.25293e-06
8.8883e-06
1.53829e-05
9.72688e-06
2.24166e-05
1.06287e-05
2.28315e-05
1.12716e-05
1.86677e-05
1.15792e-05
1.26286e-05
1.15742e-05
6.50364e-06
1.12321e-05
1.26624e-06
1.05206e-05
-2.55678e-06
9.43128e-06
-4.65676e-06
7.20162e-06
-3.40302e-06
2.18454e-06
5.75478e-06
-2.90375e-06
2.07663e-05
-3.9951e-06
3.29352e-05
-1.46602e-06
2.31412e-05
-5.11988e-07
3.46798e-06
-4.36235e-06
1.14393e-06
-2.70719e-05
2.37176e-06
-2.43378e-05
3.6653e-06
-2.01118e-05
5.10252e-06
-1.52391e-05
6.75574e-06
-9.41948e-06
8.4017e-06
5.40184e-06
9.76993e-06
2.08152e-05
1.02285e-05
2.69648e-05
1.00561e-05
2.5026e-05
9.71244e-06
1.85834e-05
9.47966e-06
1.0317e-05
9.42296e-06
1.53818e-06
9.57442e-06
-7.07616e-06
9.91773e-06
-1.45061e-05
1.03644e-05
-2.00034e-05
1.07834e-05
-2.34032e-05
1.10321e-05
-2.48682e-05
1.10078e-05
-2.47643e-05
1.06852e-05
-2.36716e-05
1.00576e-05
-2.16431e-05
9.18764e-06
-1.79099e-05
8.35825e-06
-1.23545e-05
7.64556e-06
-4.94815e-06
7.1717e-06
4.72679e-06
7.451e-06
1.51036e-05
8.39909e-06
2.14685e-05
9.51296e-06
2.17176e-05
1.04238e-05
1.77569e-05
1.10016e-05
1.20508e-05
1.12023e-05
6.30293e-06
1.09429e-05
1.52562e-06
1.01602e-05
-1.7741e-06
8.74751e-06
-3.24402e-06
5.14925e-06
1.95233e-07
-6.10582e-07
1.15146e-05
-4.47451e-06
2.46302e-05
-4.55563e-06
3.30163e-05
-1.60909e-06
2.01946e-05
-7.14262e-07
2.57315e-06
-5.07661e-06
1.05552e-06
-2.81274e-05
2.17908e-06
-2.54614e-05
3.37695e-06
-2.13097e-05
4.75054e-06
-1.66127e-05
6.46303e-06
-1.1132e-05
8.07686e-06
3.78801e-06
9.43202e-06
1.94601e-05
1.01022e-05
2.62946e-05
1.02551e-05
2.48731e-05
1.01946e-05
1.86439e-05
1.01433e-05
1.03684e-05
1.02041e-05
1.47736e-06
1.0407e-05
-7.279e-06
1.07057e-05
-1.48049e-05
1.1011e-05
-2.03086e-05
1.12006e-05
-2.35928e-05
1.11396e-05
-2.48072e-05
1.07323e-05
-2.4357e-05
9.94236e-06
-2.28817e-05
8.74277e-06
-2.04435e-05
7.29826e-06
-1.64654e-05
6.19151e-06
-1.12478e-05
5.53678e-06
-4.29343e-06
5.26676e-06
4.99681e-06
5.72819e-06
1.46422e-05
6.86818e-06
2.03285e-05
8.23175e-06
2.0354e-05
9.43511e-06
1.65535e-05
1.02918e-05
1.1194e-05
1.06683e-05
5.92642e-06
1.04147e-05
1.77929e-06
9.44642e-06
-8.05848e-07
7.13966e-06
-9.37261e-07
1.96173e-06
5.37317e-06
-3.26842e-06
1.67448e-05
-5.60994e-06
2.69718e-05
-4.84101e-06
3.22473e-05
-1.69819e-06
1.70518e-05
-8.71249e-07
1.74621e-06
-5.94786e-06
9.49464e-07
-2.90769e-05
1.95114e-06
-2.64631e-05
3.03002e-06
-2.23886e-05
4.28912e-06
-1.78718e-05
5.9736e-06
-1.28165e-05
7.52002e-06
2.24158e-06
8.8291e-06
1.8151e-05
9.67038e-06
2.54533e-05
1.01124e-05
2.44312e-05
1.03272e-05
1.8429e-05
1.04866e-05
1.0209e-05
1.07085e-05
1.25548e-06
1.09913e-05
-7.56182e-06
1.12548e-05
-1.50684e-05
1.14084e-05
-2.04622e-05
1.13402e-05
-2.35246e-05
1.09253e-05
-2.43923e-05
1.00775e-05
-2.35092e-05
8.73507e-06
-2.15393e-05
6.83821e-06
-1.85466e-05
4.70539e-06
-1.43326e-05
3.29277e-06
-9.83516e-06
2.83174e-06
-3.8324e-06
3.0394e-06
4.78915e-06
3.82777e-06
1.38538e-05
5.23468e-06
1.89216e-05
6.89129e-06
1.86974e-05
8.40612e-06
1.50387e-05
9.51207e-06
1.00881e-05
9.94469e-06
5.4938e-06
9.47432e-06
2.24966e-06
7.90799e-06
7.60484e-07
4.18264e-06
2.78809e-06
-1.33742e-06
1.08932e-05
-5.18548e-06
2.05928e-05
-6.38359e-06
2.81699e-05
-4.88218e-06
3.07459e-05
-1.77585e-06
1.39455e-05
-9.79327e-07
9.49686e-07
-6.92719e-06
8.24442e-07
-2.99013e-05
1.68638e-06
-2.7325e-05
2.62239e-06
-2.33246e-05
3.7134e-06
-1.89628e-05
5.26854e-06
-1.43716e-05
6.72192e-06
7.88206e-07
7.96684e-06
1.69061e-05
8.96081e-06
2.44593e-05
9.67315e-06
2.37188e-05
1.01666e-05
1.79355e-05
1.0566e-05
9.80967e-06
1.09793e-05
8.42111e-07
1.13457e-05
-7.92815e-06
1.15595e-05
-1.52822e-05
1.15321e-05
-2.04348e-05
1.11625e-05
-2.3155e-05
1.03374e-05
-2.35671e-05
8.98196e-06
-2.21538e-05
6.99953e-06
-1.95569e-05
4.32019e-06
-1.58673e-05
1.58771e-06
-1.16001e-05
-2.04503e-08
-8.227e-06
8.4406e-08
-3.93725e-06
8.67706e-07
4.00585e-06
1.9552e-06
1.27663e-05
3.65622e-06
1.72206e-05
5.62669e-06
1.6727e-05
7.42394e-06
1.32415e-05
8.65235e-06
8.85968e-06
8.91077e-06
5.23538e-06
7.97441e-06
3.18603e-06
5.51423e-06
3.22066e-06
6.77123e-07
7.62519e-06
-4.07367e-06
1.5644e-05
-6.54117e-06
2.30603e-05
-6.84421e-06
2.84729e-05
-4.73782e-06
2.86395e-05
-1.91133e-06
1.1119e-05
-1.06454e-06
1.02903e-07
-7.99173e-06
6.79742e-07
-3.0581e-05
1.38508e-06
-2.80304e-05
2.15513e-06
-2.40946e-05
3.02548e-06
-1.98331e-05
4.32905e-06
-1.56752e-05
5.68397e-06
-5.66713e-07
6.86977e-06
1.57203e-05
8.02177e-06
2.33073e-05
9.00206e-06
2.27385e-05
9.78558e-06
1.7152e-05
1.04495e-05
9.14576e-06
1.10579e-05
2.33701e-07
1.14845e-05
-8.35478e-06
1.16102e-05
-1.54079e-05
1.13532e-05
-2.01778e-05
1.06216e-05
-2.24234e-05
9.31497e-06
-2.22605e-05
7.3728e-06
-2.02117e-05
4.67208e-06
-1.68561e-05
1.26228e-06
-1.24575e-05
-1.25413e-06
-9.08368e-06
-2.02361e-06
-7.45752e-06
-2.02261e-06
-3.93826e-06
-1.16175e-06
3.145e-06
3.21828e-07
1.12827e-05
2.31276e-06
1.52296e-05
4.54603e-06
1.44937e-05
6.48527e-06
1.13022e-05
7.60029e-06
7.74466e-06
7.45608e-06
5.3796e-06
5.87703e-06
4.76507e-06
2.23978e-06
6.85792e-06
-2.55912e-06
1.24241e-05
-5.95648e-06
1.90414e-05
-7.47537e-06
2.45792e-05
-7.04782e-06
2.80454e-05
-4.48876e-06
2.60805e-05
-2.13414e-06
8.76439e-06
-1.18126e-06
-8.49985e-07
-9.17299e-06
5.15149e-07
-3.10962e-05
1.04897e-06
-2.85642e-05
1.63317e-06
-2.46788e-05
2.24011e-06
-2.04401e-05
3.12148e-06
-1.65565e-05
4.40367e-06
-1.8489e-06
5.59242e-06
1.45315e-05
6.92736e-06
2.19724e-05
8.18309e-06
2.14828e-05
9.26853e-06
1.60666e-05
1.02043e-05
8.21004e-06
1.09774e-05
-5.3946e-07
1.14115e-05
-8.78883e-06
1.13896e-05
-1.5386e-05
1.08354e-05
-1.96236e-05
9.66229e-06
-2.12503e-05
7.78376e-06
-2.03819e-05
5.1594e-06
-1.75873e-05
1.69795e-06
-1.33947e-05
-1.58517e-06
-9.17437e-06
-2.98361e-06
-7.68523e-06
-3.36329e-06
-7.07785e-06
-3.43987e-06
-3.86168e-06
-2.73196e-06
2.43709e-06
-9.98039e-07
9.54882e-06
1.28305e-06
1.29486e-05
3.60151e-06
1.21752e-05
5.34127e-06
9.56246e-06
5.97725e-06
7.10868e-06
5.21604e-06
6.14081e-06
2.73382e-06
7.24729e-06
-1.26125e-06
1.0853e-05
-5.01836e-06
1.61812e-05
-7.33004e-06
2.13531e-05
-8.07249e-06
2.53217e-05
-7.04677e-06
2.70196e-05
-4.21642e-06
2.32501e-05
-2.33788e-06
6.88584e-06
-1.29945e-06
-1.88841e-06
-1.04724e-05
3.30626e-07
-3.14268e-05
6.80375e-07
-2.89139e-05
1.06403e-06
-2.50625e-05
1.39514e-06
-2.07712e-05
1.71198e-06
-1.68734e-05
3.00415e-06
-3.14107e-06
4.24419e-06
1.32915e-05
5.77954e-06
2.0437e-05
7.31499e-06
1.99473e-05
8.70009e-06
1.46815e-05
9.88088e-06
7.02924e-06
1.075e-05
-1.40862e-06
1.11147e-05
-9.15353e-06
1.08693e-05
-1.51406e-05
9.93262e-06
-1.86869e-05
8.21714e-06
-1.95348e-05
5.64896e-06
-1.78138e-05
2.23631e-06
-1.41747e-05
-1.43245e-06
-9.72593e-06
-3.45395e-06
-7.15287e-06
-3.83706e-06
-7.30212e-06
-4.15831e-06
-6.75659e-06
-4.29029e-06
-3.7297e-06
-3.69036e-06
1.83716e-06
-1.93628e-06
7.79474e-06
4.16076e-07
1.05962e-05
2.47729e-06
1.0114e-05
3.64177e-06
8.39798e-06
3.59835e-06
7.1521e-06
2.10147e-06
7.63768e-06
-7.79257e-07
1.0128e-05
-4.14094e-06
1.42147e-05
-6.81651e-06
1.88568e-05
-8.3079e-06
2.28445e-05
-8.39674e-06
2.54105e-05
-6.89697e-06
2.55199e-05
-3.98799e-06
2.03412e-05
-2.511e-06
5.40886e-06
-1.4039e-06
-2.99552e-06
-1.18763e-05
1.23522e-07
-3.15503e-05
2.81182e-07
-2.90716e-05
4.55666e-07
-2.5237e-05
5.26661e-07
-2.08422e-05
2.99528e-07
-1.66463e-05
1.66126e-06
-4.5028e-06
2.97052e-06
1.19822e-05
4.69363e-06
1.87139e-05
6.49441e-06
1.81466e-05
8.14345e-06
1.30324e-05
9.49454e-06
5.67815e-06
1.03608e-05
-2.27484e-06
1.05674e-05
-9.36015e-06
1.00095e-05
-1.45827e-05
8.585e-06
-1.72624e-05
6.20019e-06
-1.71499e-05
2.8005e-06
-1.44141e-05
-1.15711e-06
-1.02171e-05
-3.81612e-06
-7.06692e-06
-4.43671e-06
-6.53228e-06
-4.65022e-06
-7.08861e-06
-4.94199e-06
-6.46482e-06
-5.05173e-06
-3.61996e-06
-4.41752e-06
1.20295e-06
-2.78522e-06
6.16244e-06
-7.39103e-07
8.55008e-06
7.60756e-07
8.61415e-06
1.21912e-06
7.93962e-06
5.07156e-07
7.86407e-06
-1.27326e-06
9.41809e-06
-3.79059e-06
1.26453e-05
-6.30127e-06
1.67254e-05
-8.14453e-06
2.07e-05
-8.95466e-06
2.36546e-05
-8.50266e-06
2.49585e-05
-6.66459e-06
2.36818e-05
-3.85374e-06
1.75303e-05
-2.65045e-06
4.20557e-06
-1.4763e-06
-4.16966e-06
-1.33526e-05
-1.06215e-07
-3.14441e-05
-1.47638e-07
-2.90302e-05
-1.80195e-07
-2.52044e-05
-3.14869e-07
-2.07075e-05
-8.23927e-07
-1.61372e-05
4.18161e-07
-5.74489e-06
1.89247e-06
1.05079e-05
3.76396e-06
1.68424e-05
5.78483e-06
1.61257e-05
7.61314e-06
1.12041e-05
9.01811e-06
4.27318e-06
9.77358e-06
-3.03031e-06
9.73001e-06
-9.31658e-06
8.7562e-06
-1.36089e-05
6.71152e-06
-1.52177e-05
3.49707e-06
-1.39355e-05
-7.08111e-07
-1.02089e-05
-3.99072e-06
-6.93444e-06
-5.21114e-06
-5.84651e-06
-5.46679e-06
-6.27663e-06
-5.77378e-06
-6.78161e-06
-6.1261e-06
-6.11251e-06
-6.17232e-06
-3.57373e-06
-5.48786e-06
5.18488e-07
-4.04454e-06
4.71912e-06
-2.518e-06
7.02354e-06
-1.59388e-06
7.69004e-06
-1.5887e-06
7.93444e-06
-2.52512e-06
8.80049e-06
-4.18279e-06
1.10758e-05
-6.14432e-06
1.46069e-05
-7.92717e-06
1.85082e-05
-9.085e-06
2.18578e-05
-9.32067e-06
2.38903e-05
-8.44005e-06
2.40779e-05
-6.41185e-06
2.16536e-05
-3.82951e-06
1.4948e-05
-2.74533e-06
3.12138e-06
-1.49473e-06
-5.42026e-06
-1.48474e-05
-3.4827e-07
-3.10958e-05
-6.04978e-07
-2.87735e-05
-8.28196e-07
-2.49812e-05
-1.06759e-06
-2.04681e-05
-1.65311e-06
-1.55517e-05
-7.45004e-07
-6.65299e-06
1.03439e-06
8.72854e-06
3.02443e-06
1.48524e-05
5.18211e-06
1.3968e-05
7.06126e-06
9.32497e-06
8.39446e-06
2.93999e-06
8.94233e-06
-3.57819e-06
8.55053e-06
-8.92478e-06
7.03331e-06
-1.20917e-05
4.19238e-06
-1.23768e-05
-4.18524e-08
-9.70126e-06
-3.76926e-06
-6.48149e-06
-5.57982e-06
-5.12389e-06
-6.22685e-06
-5.19947e-06
-6.60873e-06
-5.89476e-06
-7.07114e-06
-6.3192e-06
-7.51914e-06
-5.66452e-06
-7.60205e-06
-3.49082e-06
-7.01741e-06
-6.61487e-08
-5.84516e-06
3.54687e-06
-4.73703e-06
5.9154e-06
-4.17627e-06
7.12929e-06
-4.34072e-06
8.09888e-06
-5.20425e-06
9.66403e-06
-6.52003e-06
1.23915e-05
-7.94158e-06
1.60284e-05
-9.10852e-06
1.96752e-05
-9.68843e-06
2.24378e-05
-9.44705e-06
2.36489e-05
-8.24903e-06
2.28799e-05
-6.16857e-06
1.95731e-05
-3.87462e-06
1.2654e-05
-2.77206e-06
2.01883e-06
-1.4485e-06
-6.74382e-06
-1.62959e-05
-6.1702e-07
-3.04788e-05
-1.09538e-06
-2.82951e-05
-1.48611e-06
-2.45905e-05
-1.83108e-06
-2.01231e-05
-2.36923e-06
-1.50135e-05
-1.80507e-06
-7.21715e-06
3.37245e-07
6.58622e-06
2.4246e-06
1.2765e-05
4.60313e-06
1.17895e-05
6.40003e-06
7.52807e-06
7.56221e-06
1.77781e-06
7.81349e-06
-3.82948e-06
6.95218e-06
-8.06347e-06
4.71446e-06
-9.85397e-06
7.7316e-07
-8.43549e-06
-3.39669e-06
-5.53141e-06
-5.77184e-06
-4.10635e-06
-6.77377e-06
-4.12196e-06
-7.29206e-06
-4.68118e-06
-7.79495e-06
-5.39187e-06
-8.37737e-06
-5.73677e-06
-8.89227e-06
-5.14962e-06
-9.05473e-06
-3.32835e-06
-8.64862e-06
-4.72262e-07
-7.764e-06
2.66225e-06
-6.93146e-06
5.08286e-06
-6.53246e-06
6.73029e-06
-6.69316e-06
8.25958e-06
-7.36474e-06
1.03356e-05
-8.31797e-06
1.33448e-05
-9.2563e-06
1.69667e-05
-9.89862e-06
2.03175e-05
-9.99398e-06
2.25331e-05
-9.36748e-06
2.30224e-05
-7.9529e-06
2.14653e-05
-5.91469e-06
1.75349e-05
-3.88978e-06
1.06291e-05
-2.69095e-06
8.19999e-07
-1.334e-06
-8.10076e-06
-1.76299e-05
-9.09936e-07
-2.95689e-05
-1.61894e-06
-2.75861e-05
-2.17066e-06
-2.40387e-05
-2.6036e-06
-1.96902e-05
-3.03895e-06
-1.45782e-05
-2.6701e-06
-7.58601e-06
-2.72848e-07
4.18897e-06
1.84327e-06
1.06489e-05
3.92674e-06
9.70602e-06
5.55744e-06
5.89738e-06
6.46955e-06
8.65693e-07
6.31074e-06
-3.67066e-06
4.797e-06
-6.54973e-06
1.47941e-06
-6.53638e-06
-2.74766e-06
-4.20841e-06
-5.61759e-06
-2.66149e-06
-6.97306e-06
-2.75087e-06
-7.75649e-06
-3.33853e-06
-8.35407e-06
-4.0836e-06
-8.95942e-06
-4.78652e-06
-9.59445e-06
-5.10173e-06
-1.01178e-05
-4.62625e-06
-1.03258e-05
-3.12033e-06
-1.0074e-05
-7.24102e-07
-9.43946e-06
2.02769e-06
-8.80377e-06
4.44717e-06
-8.47841e-06
6.40493e-06
-8.56888e-06
8.35005e-06
-9.01951e-06
1.07862e-05
-9.62691e-06
1.39522e-05
-1.01402e-05
1.748e-05
-1.03377e-05
2.05151e-05
-1.00329e-05
2.22282e-05
-9.10613e-06
2.20957e-05
-7.555e-06
1.99141e-05
-5.59405e-06
1.5574e-05
-3.74341e-06
8.77846e-06
-2.45541e-06
-4.68002e-07
-1.14848e-06
-9.4077e-06
-1.87784e-05
-1.227e-06
-2.83419e-05
-2.17888e-06
-2.66342e-05
-2.89832e-06
-2.33193e-05
-3.41536e-06
-1.91732e-05
-3.77329e-06
-1.42202e-05
-3.5009e-06
-7.8584e-06
-1.10652e-06
1.7946e-06
1.12854e-06
8.41387e-06
3.06321e-06
7.77135e-06
4.48485e-06
4.47574e-06
5.03655e-06
3.13993e-07
4.28488e-06
-2.91899e-06
1.70933e-06
-3.97418e-06
-2.30828e-06
-2.51878e-06
-5.47394e-06
-1.04275e-06
-7.04974e-06
-1.08569e-06
-8.02106e-06
-1.77955e-06
-8.74659e-06
-2.613e-06
-9.40274e-06
-3.42745e-06
-1.00589e-05
-4.1304e-06
-1.06813e-05
-4.47929e-06
-1.11587e-05
-4.14883e-06
-1.13617e-05
-2.9174e-06
-1.12092e-05
-8.766e-07
-1.07594e-05
1.5779e-06
-1.02685e-05
3.9563e-06
-9.97765e-06
6.1141e-06
-9.97419e-06
8.34659e-06
-1.02037e-05
1.10158e-05
-1.04928e-05
1.42412e-05
-1.0635e-05
1.76223e-05
-1.04584e-05
2.03384e-05
-9.8292e-06
2.1599e-05
-8.67679e-06
2.09432e-05
-7.04599e-06
1.82833e-05
-5.15974e-06
1.36877e-05
-3.39619e-06
7.01491e-06
-2.05479e-06
-1.8094e-06
-8.92738e-07
-1.05697e-05
-1.96711e-05
-1.56757e-06
-2.67743e-05
-2.77725e-06
-2.54245e-05
-3.6808e-06
-2.24158e-05
-4.30146e-06
-1.85525e-05
-4.66347e-06
-1.38582e-05
-4.53983e-06
-7.98204e-06
-2.3732e-06
-3.72035e-07
1.74427e-07
5.86624e-06
1.94718e-06
5.9986e-06
3.07438e-06
3.34855e-06
3.08367e-06
3.04699e-07
1.25498e-06
-1.0903e-06
-2.36436e-06
-3.54832e-07
-5.58384e-06
7.00696e-07
-7.25449e-06
6.27901e-07
-8.23653e-06
-1.03655e-07
-9.01298e-06
-1.00309e-06
-9.72993e-06
-1.89605e-06
-1.04172e-05
-2.74022e-06
-1.10663e-05
-3.48123e-06
-1.16202e-05
-3.9254e-06
-1.2008e-05
-3.76106e-06
-1.21652e-05
-2.76018e-06
-1.20564e-05
-9.85377e-07
-1.17234e-05
1.24491e-06
-1.13292e-05
3.56209e-06
-1.10458e-05
5.83064e-06
-1.09383e-05
8.2391e-06
-1.09563e-05
1.10338e-05
-1.0957e-05
1.42419e-05
-1.07768e-05
1.7442e-05
-1.02873e-05
1.98489e-05
-9.39968e-06
2.07114e-05
-8.08271e-06
1.96263e-05
-6.40787e-06
1.66085e-05
-4.58257e-06
1.18624e-05
-2.84524e-06
5.27757e-06
-1.50709e-06
-3.14755e-06
-5.71974e-07
-1.15049e-05
-2.02431e-05
-1.92874e-06
-2.48456e-05
-3.41111e-06
-2.39422e-05
-4.52065e-06
-2.13062e-05
-5.27772e-06
-1.77954e-05
-5.68179e-06
-1.34542e-05
-5.51867e-06
-8.14516e-06
-3.88198e-06
-2.00872e-06
-1.3495e-06
3.33376e-06
3.38349e-07
4.31075e-06
9.81526e-07
2.70537e-06
-4.83398e-07
1.76962e-06
-3.51472e-06
1.94102e-06
-6.15719e-06
2.28764e-06
-7.60185e-06
2.14535e-06
-8.49978e-06
1.52584e-06
-9.25484e-06
6.51402e-07
-9.97544e-06
-2.82489e-07
-1.06896e-05
-1.18193e-06
-1.13706e-05
-2.05922e-06
-1.19608e-05
-2.89103e-06
-1.24013e-05
-3.48481e-06
-1.2663e-05
-3.49936e-06
-1.27383e-05
-2.68488e-06
-1.26267e-05
-1.09706e-06
-1.23543e-05
9.72579e-07
-1.20139e-05
3.22168e-06
-1.17151e-05
5.53179e-06
-1.14985e-05
8.02247e-06
-1.13175e-05
1.08529e-05
-1.10584e-05
1.39828e-05
-1.05976e-05
1.69812e-05
-9.84645e-06
1.90978e-05
-8.75423e-06
1.96192e-05
-7.3183e-06
1.81903e-05
-5.61501e-06
1.49052e-05