/*--------------------------------*- C++ -*----------------------------------*\
| =========                 |                                                 |
| \\      /  F ield         | OpenFOAM: The Open Source CFD Toolbox           |
|  \\    /   O peration     | Version:  4.1                                   |
|   \\  /    A nd           | Web:      www.OpenFOAM.org                      |
|    \\/     M anipulation  |                                                 |
\*---------------------------------------------------------------------------*/
FoamFile
{
    version     2.0;
    format      ascii;
    class       volScalarField;
    location    "2000";
    object      T;
}
// * * * * * * * * * * * * * * * * * * * * * * * * * * * * * * * * * * * * * //

dimensions      [0 0 0 1 0 0 0];

internalField   nonuniform List<scalar> 
5000
(
287.843
286.487
286.392
286.391
286.412
286.44
286.471
286.502
286.531
286.558
286.582
286.605
286.625
286.644
286.662
286.679
286.697
286.715
286.736
286.759
286.784
286.814
286.847
286.885
286.926
286.972
287.02
287.07
287.122
287.173
287.222
287.269
287.311
287.35
287.384
287.414
287.442
287.47
287.5
287.533
287.568
287.604
287.641
287.68
287.721
287.763
287.808
287.856
287.907
287.963
288.024
288.093
288.171
288.261
288.369
288.506
288.687
288.885
288.755
288.418
288.235
288.066
287.901
287.74
287.58
287.421
287.263
287.106
286.947
286.785
286.617
286.459
286.319
286.196
286.088
285.995
285.913
285.826
285.786
285.803
285.863
285.966
286.122
286.291
286.49
286.786
287.471
287.743
287.509
287.314
287.125
286.931
286.774
286.642
286.522
286.404
286.272
286.415
286.718
287.135
285.435
285.423
285.42
285.42
285.422
285.423
285.423
285.423
285.422
285.421
285.419
285.417
285.415
285.413
285.412
285.41
285.408
285.406
285.405
285.403
285.402
285.401
285.401
285.4
285.4
285.4
285.4
285.4
285.4
285.4
285.399
285.399
285.399
285.398
285.398
285.397
285.396
285.395
285.394
285.393
285.397
285.406
285.424
285.451
285.489
285.539
285.602
285.68
285.772
285.879
286.001
286.139
286.293
286.467
286.667
286.919
287.295
287.828
288.125
287.443
286.404
286.143
285.97
285.831
285.708
285.597
285.498
285.413
285.345
285.3
285.282
285.276
285.272
285.269
285.268
285.267
285.268
285.27
285.279
285.293
285.302
285.299
285.295
285.392
285.654
286.228
287.149
286.816
286.202
285.881
285.753
285.745
285.743
285.741
285.741
285.74
285.736
285.729
285.697
286.59
285.207
285.255
285.284
285.303
285.316
285.325
285.332
285.338
285.342
285.346
285.349
285.352
285.354
285.356
285.358
285.359
285.36
285.36
285.361
285.361
285.362
285.362
285.362
285.362
285.362
285.362
285.362
285.361
285.36
285.36
285.359
285.358
285.358
285.357
285.357
285.357
285.357
285.357
285.357
285.357
285.357
285.357
285.358
285.36
285.364
285.371
285.383
285.403
285.433
285.475
285.533
285.61
285.709
285.836
286
286.224
286.574
287.114
287.597
287.347
286.393
285.682
285.561
285.478
285.415
285.365
285.329
285.303
285.288
285.281
285.278
285.279
285.281
285.284
285.288
285.291
285.295
285.301
285.319
285.348
285.371
285.362
285.343
285.36
285.541
286.141
286.996
286.385
285.902
285.763
285.739
285.736
285.735
285.737
285.74
285.743
285.741
285.741
285.677
286.403
285.211
285.284
285.319
285.339
285.35
285.358
285.362
285.366
285.368
285.37
285.371
285.371
285.372
285.372
285.372
285.371
285.371
285.371
285.371
285.371
285.372
285.372
285.373
285.374
285.375
285.376
285.377
285.377
285.378
285.378
285.379
285.379
285.38
285.381
285.382
285.383
285.385
285.387
285.39
285.392
285.395
285.396
285.397
285.397
285.396
285.395
285.395
285.396
285.4
285.411
285.43
285.463
285.514
285.59
285.701
285.87
286.151
286.618
287.139
287.19
286.6
285.815
285.447
285.392
285.354
285.328
285.311
285.3
285.296
285.295
285.297
285.303
285.31
285.316
285.321
285.325
285.33
285.34
285.367
285.415
285.458
285.449
285.41
285.399
285.556
286.27
286.806
286.13
285.804
285.743
285.732
285.728
285.729
285.736
285.744
285.75
285.751
285.757
285.685
286.302
285.217
285.311
285.349
285.367
285.375
285.38
285.381
285.381
285.38
285.379
285.377
285.376
285.374
285.372
285.37
285.369
285.368
285.367
285.367
285.367
285.368
285.37
285.372
285.375
285.378
285.381
285.384
285.388
285.391
285.394
285.397
285.4
285.403
285.407
285.411
285.416
285.422
285.428
285.434
285.44
285.446
285.451
285.454
285.455
285.455
285.452
285.448
285.443
285.438
285.434
285.434
285.441
285.46
285.498
285.566
285.683
285.894
286.273
286.763
286.985
286.686
286.068
285.532
285.371
285.344
285.327
285.317
285.313
285.314
285.318
285.326
285.335
285.345
285.353
285.357
285.36
285.365
285.38
285.415
285.482
285.551
285.552
285.484
285.45
285.698
286.39
286.596
285.969
285.765
285.734
285.725
285.722
285.728
285.741
285.754
285.762
285.763
285.776
285.706
286.241
285.222
285.33
285.367
285.38
285.383
285.383
285.38
285.376
285.373
285.369
285.365
285.362
285.359
285.356
285.354
285.352
285.351
285.35
285.35
285.352
285.354
285.357
285.362
285.367
285.373
285.379
285.385
285.392
285.398
285.404
285.411
285.417
285.425
285.432
285.441
285.451
285.461
285.472
285.483
285.492
285.501
285.508
285.514
285.517
285.517
285.515
285.51
285.502
285.492
285.481
285.471
285.463
285.463
285.476
285.511
285.586
285.738
286.034
286.465
286.769
286.679
286.243
285.722
285.409
285.349
285.336
285.331
285.332
285.338
285.348
285.36
285.373
285.385
285.392
285.395
285.395
285.399
285.418
285.465
285.544
285.636
285.662
285.542
285.553
285.907
286.424
286.393
285.871
285.749
285.73
285.72
285.721
285.734
285.753
285.769
285.777
285.778
285.797
285.728
286.201
285.226
285.342
285.375
285.381
285.379
285.374
285.368
285.362
285.356
285.351
285.346
285.342
285.339
285.336
285.334
285.332
285.332
285.332
285.333
285.335
285.339
285.345
285.352
285.36
285.369
285.379
285.389
285.399
285.409
285.419
285.429
285.441
285.452
285.465
285.479
285.493
285.507
285.52
285.53
285.539
285.547
285.552
285.557
285.56
285.561
285.56
285.556
285.549
285.539
285.526
285.512
285.497
285.486
285.482
285.495
285.538
285.644
285.869
286.234
286.564
286.614
286.339
285.895
285.517
285.367
285.349
285.348
285.355
285.366
285.382
285.398
285.414
285.427
285.433
285.432
285.428
285.429
285.45
285.506
285.602
285.704
285.73
285.628
285.727
286.066
286.395
286.214
285.813
285.742
285.728
285.72
285.725
285.745
285.77
285.789
285.794
285.794
285.82
285.753
286.179
285.229
285.35
285.376
285.376
285.369
285.36
285.352
285.344
285.337
285.332
285.327
285.323
285.32
285.317
285.316
285.315
285.315
285.315
285.318
285.322
285.327
285.335
285.345
285.357
285.37
285.384
285.398
285.413
285.427
285.442
285.457
285.473
285.489
285.506
285.522
285.536
285.547
285.555
285.56
285.562
285.564
285.565
285.566
285.568
285.57
285.571
285.57
285.568
285.563
285.554
285.542
285.527
285.511
285.5
285.498
285.519
285.589
285.757
286.057
286.381
286.52
286.376
286.025
285.646
285.419
285.364
285.366
285.378
285.396
285.418
285.44
285.457
285.471
285.476
285.471
285.46
285.456
285.474
285.533
285.64
285.763
285.819
285.78
285.891
286.162
286.331
286.071
285.78
285.74
285.729
285.722
285.732
285.761
285.792
285.812
285.814
285.809
285.841
285.806
286.172
285.233
285.352
285.372
285.367
285.356
285.345
285.335
285.327
285.32
285.314
285.309
285.306
285.303
285.301
285.3
285.3
285.3
285.302
285.306
285.311
285.318
285.329
285.342
285.357
285.375
285.394
285.413
285.433
285.453
285.472
285.492
285.511
285.529
285.544
285.555
285.562
285.564
285.564
285.561
285.558
285.555
285.552
285.551
285.552
285.554
285.557
285.56
285.563
285.564
285.562
285.555
285.545
285.531
285.517
285.508
285.514
285.558
285.682
285.924
286.224
286.413
286.371
286.114
285.768
285.498
285.39
285.384
285.402
285.427
285.456
285.484
285.506
285.518
285.521
285.511
285.493
285.479
285.488
285.541
285.653
285.802
285.92
285.938
286.017
286.21
286.261
285.969
285.766
285.742
285.733
285.726
285.743
285.782
285.819
285.839
285.835
285.823
285.864
285.914
286.163
285.235
285.352
285.366
285.356
285.342
285.33
285.319
285.31
285.303
285.298
285.294
285.291
285.289
285.288
285.287
285.288
285.289
285.292
285.296
285.302
285.311
285.324
285.34
285.359
285.382
285.406
285.431
285.457
285.481
285.505
285.526
285.545
285.558
285.566
285.568
285.565
285.559
285.552
285.545
285.539
285.535
285.532
285.531
285.531
285.533
285.537
285.542
285.548
285.554
285.557
285.557
285.553
285.543
285.53
285.519
285.517
285.542
285.631
285.824
286.093
286.306
286.338
286.167
285.871
285.589
285.433
285.402
285.423
285.456
285.493
285.529
285.555
285.568
285.57
285.556
285.53
285.503
285.495
285.53
285.63
285.793
285.968
286.061
286.109
286.236
286.211
285.915
285.773
285.758
285.753
285.75
285.772
285.816
285.851
285.869
285.859
285.835
285.88
285.985
286.153
285.238
285.35
285.358
285.345
285.329
285.315
285.304
285.295
285.288
285.283
285.28
285.278
285.277
285.277
285.277
285.279
285.281
285.284
285.288
285.295
285.305
285.319
285.338
285.361
285.388
285.418
285.448
285.478
285.506
285.531
285.55
285.563
285.569
285.567
285.561
285.552
285.542
285.533
285.525
285.519
285.516
285.514
285.514
285.515
285.517
285.522
285.527
285.534
285.542
285.548
285.553
285.553
285.549
285.539
285.528
285.521
285.535
285.598
285.75
285.985
286.204
286.289
286.191
285.952
285.68
285.491
285.426
285.441
285.482
285.528
285.571
285.605
285.621
285.623
285.607
285.574
285.534
285.504
285.509
285.576
285.724
285.932
286.118
286.182
286.264
286.209
285.924
285.824
285.813
285.812
285.824
285.847
285.872
285.894
285.905
285.888
285.846
285.878
286.004
286.14
285.24
285.347
285.35
285.333
285.315
285.301
285.289
285.281
285.275
285.271
285.269
285.268
285.268
285.268
285.27
285.272
285.274
285.278
285.282
285.289
285.3
285.315
285.335
285.36
285.391
285.424
285.459
285.492
285.52
285.543
285.558
285.564
285.562
285.554
285.544
285.532
285.521
285.513
285.507
285.503
285.501
285.501
285.503
285.505
285.508
285.512
285.518
285.524
285.532
285.54
285.547
285.551
285.55
285.544
285.534
285.526
285.532
285.576
285.696
285.897
286.111
286.23
286.192
286.011
285.765
285.559
285.461
285.457
285.5
285.558
285.611
285.654
285.679
285.679
285.664
285.629
285.579
285.527
285.495
285.513
285.611
285.804
286.061
286.248
286.304
286.263
286.006
285.948
285.937
285.936
285.946
285.953
285.956
285.955
285.948
285.923
285.861
285.863
285.992
286.123
285.242
285.343
285.341
285.321
285.302
285.287
285.276
285.268
285.263
285.26
285.259
285.259
285.26
285.262
285.264
285.267
285.27
285.273
285.278
285.285
285.295
285.31
285.33
285.356
285.388
285.423
285.459
285.493
285.52
285.54
285.549
285.55
285.544
285.533
285.521
285.51
285.501
285.495
285.491
285.49
285.491
285.493
285.496
285.5
285.504
285.508
285.513
285.519
285.527
285.534
285.542
285.548
285.549
285.546
285.539
285.531
285.532
285.562
285.655
285.826
286.027
286.168
286.178
286.049
285.838
285.632
285.507
285.478
285.512
285.573
285.643
285.696
285.73
285.736
285.726
285.692
285.64
285.574
285.511
285.474
285.497
285.615
285.853
286.185
286.349
286.321
286.164
286.125
286.109
286.099
286.085
286.068
286.047
286.024
285.996
285.957
285.886
285.844
285.964
286.098
285.243
285.339
285.331
285.309
285.289
285.274
285.264
285.257
285.253
285.251
285.252
285.253
285.255
285.258
285.261
285.264
285.267
285.271
285.276
285.282
285.291
285.304
285.323
285.349
285.38
285.414
285.449
285.481
285.506
285.522
285.529
285.527
285.519
285.508
285.497
285.488
285.483
285.48
285.48
285.481
285.484
285.488
285.493
285.498
285.503
285.508
285.513
285.518
285.525
285.532
285.539
285.545
285.549
285.548
285.542
285.535
285.532
285.553
285.626
285.769
285.954
286.105
286.151
286.071
285.897
285.702
285.561
285.507
285.525
285.581
285.653
285.721
285.773
285.791
285.784
285.758
285.71
285.643
285.565
285.49
285.441
285.456
285.584
285.883
286.368
286.343
286.27
286.218
286.171
286.139
286.118
286.101
286.083
286.059
286.026
285.982
285.913
285.831
285.921
286.064
285.245
285.334
285.322
285.297
285.277
285.262
285.253
285.247
285.245
285.244
285.246
285.248
285.252
285.255
285.259
285.263
285.267
285.27
285.274
285.28
285.288
285.299
285.316
285.339
285.367
285.399
285.431
285.459
285.481
285.495
285.499
285.496
285.488
285.48
285.473
285.469
285.468
285.469
285.472
285.476
285.481
285.487
285.493
285.5
285.505
285.511
285.516
285.52
285.526
285.532
285.538
285.544
285.548
285.548
285.544
285.537
285.534
285.547
285.604
285.723
285.89
286.044
286.117
286.077
285.942
285.768
285.62
285.544
285.542
285.587
285.655
285.724
285.783
285.826
285.831
285.815
285.778
285.72
285.643
285.555
285.466
285.391
285.354
285.399
285.629
285.921
285.775
285.707
285.703
285.739
285.799
285.864
285.92
285.957
285.972
285.966
285.922
285.829
285.865
286.017
285.246
285.329
285.312
285.285
285.265
285.251
285.243
285.239
285.238
285.239
285.242
285.245
285.25
285.255
285.259
285.264
285.268
285.271
285.275
285.279
285.286
285.295
285.309
285.328
285.352
285.38
285.407
285.431
285.45
285.46
285.463
285.461
285.457
285.453
285.453
285.455
285.458
285.463
285.468
285.474
285.481
285.489
285.497
285.504
285.511
285.517
285.521
285.525
285.529
285.534
285.539
285.544
285.548
285.549
285.546
285.539
285.535
285.544
285.587
285.687
285.835
285.986
286.078
286.073
285.974
285.824
285.68
285.589
285.566
285.595
285.654
285.719
285.778
285.824
285.853
285.856
285.833
285.788
285.722
285.641
285.55
285.459
285.374
285.302
285.246
285.204
285.198
285.21
285.245
285.306
285.397
285.511
285.63
285.735
285.816
285.867
285.882
285.827
285.791
285.912
285.247
285.324
285.302
285.274
285.254
285.241
285.234
285.232
285.232
285.235
285.239
285.244
285.25
285.256
285.261
285.266
285.27
285.273
285.277
285.28
285.285
285.292
285.304
285.319
285.338
285.36
285.382
285.402
285.416
285.424
285.428
285.429
285.431
285.435
285.441
285.448
285.456
285.462
285.468
285.475
285.483
285.492
285.502
285.511
285.519
285.525
285.529
285.532
285.535
285.538
285.542
285.546
285.549
285.55
285.547
285.541
285.536
285.541
285.575
285.658
285.789
285.933
286.036
286.058
285.994
285.871
285.737
285.639
285.597
285.608
285.654
285.712
285.768
285.815
285.849
285.868
285.868
285.839
285.787
285.716
285.631
285.541
285.453
285.374
285.304
285.248
285.211
285.186
285.178
285.194
285.246
285.336
285.456
285.584
285.701
285.79
285.839
285.822
285.706
285.676
285.247
285.318
285.292
285.263
285.244
285.232
285.227
285.226
285.228
285.232
285.237
285.244
285.251
285.258
285.264
285.269
285.274
285.277
285.28
285.283
285.286
285.292
285.3
285.312
285.327
285.344
285.361
285.375
285.387
285.394
285.4
285.407
285.417
285.429
285.441
285.451
285.458
285.463
285.469
285.476
285.486
285.498
285.51
285.521
285.53
285.536
285.539
285.541
285.542
285.544
285.546
285.549
285.551
285.551
285.548
285.542
285.537
285.539
285.566
285.634
285.749
285.885
285.994
286.037
286.002
285.907
285.789
285.69
285.635
285.629
285.659
285.706
285.757
285.803
285.84
285.866
285.877
285.867
285.833
285.773
285.695
285.608
285.519
285.432
285.357
285.294
285.243
285.202
285.173
285.163
285.183
285.245
285.348
285.478
285.609
285.722
285.797
285.81
285.756
285.671
285.248
285.312
285.282
285.253
285.234
285.224
285.22
285.221
285.224
285.23
285.237
285.245
285.253
285.261
285.268
285.274
285.279
285.282
285.284
285.287
285.289
285.293
285.299
285.308
285.319
285.332
285.345
285.357
285.367
285.377
285.389
285.404
285.421
285.437
285.45
285.458
285.462
285.464
285.469
285.478
285.491
285.506
285.521
285.533
285.542
285.547
285.549
285.55
285.549
285.549
285.55
285.552
285.553
285.552
285.549
285.543
285.537
285.538
285.558
285.616
285.716
285.841
285.952
286.012
286.002
285.932
285.833
285.739
285.677
285.657
285.671
285.706
285.75
285.793
285.83
285.86
285.878
285.879
285.856
285.809
285.741
285.658
285.569
285.482
285.402
285.331
285.27
285.22
285.18
285.155
285.155
285.193
285.277
285.4
285.537
285.664
285.757
285.793
285.765
285.708
285.247
285.305
285.272
285.243
285.226
285.217
285.215
285.217
285.222
285.229
285.237
285.247
285.256
285.265
285.273
285.28
285.285
285.289
285.291
285.293
285.295
285.298
285.303
285.309
285.318
285.328
285.339
285.35
285.363
285.379
285.398
285.42
285.44
285.455
285.462
285.464
285.462
285.463
285.468
285.48
285.496
285.514
285.531
285.544
285.553
285.557
285.558
285.557
285.556
285.555
285.554
285.555
285.555
285.553
285.55
285.544
285.537
285.537
285.553
285.6
285.688
285.802
285.912
285.983
285.994
285.948
285.869
285.784
285.721
285.69
285.691
285.714
285.749
285.787
285.824
285.855
285.877
285.884
285.87
285.831
285.769
285.691
285.605
285.517
285.433
285.358
285.291
285.234
285.187
285.154
285.141
285.162
285.229
285.342
285.48
285.616
285.723
285.776
285.765
285.72
285.247
285.299
285.263
285.234
285.218
285.211
285.21
285.214
285.22
285.228
285.238
285.249
285.26
285.27
285.28
285.287
285.293
285.297
285.3
285.302
285.304
285.307
285.311
285.317
285.325
285.335
285.347
285.361
285.38
285.404
285.429
285.452
285.466
285.472
285.469
285.463
285.458
285.459
285.466
285.481
285.5
285.521
285.538
285.552
285.559
285.563
285.563
285.562
285.56
285.559
285.558
285.557
285.556
285.554
285.55
285.543
285.537
285.535
285.548
285.588
285.664
285.768
285.875
285.952
285.98
285.955
285.895
285.823
285.763
285.727
285.718
285.73
285.756
285.789
285.823
285.854
285.878
285.887
285.877
285.843
285.786
285.711
285.626
285.538
285.452
285.373
285.303
285.242
285.191
285.153
285.133
285.143
285.196
285.299
285.436
285.578
285.696
285.76
285.761
285.722
285.246
285.292
285.254
285.226
285.211
285.206
285.207
285.211
285.219
285.228
285.24
285.252
285.264
285.276
285.286
285.295
285.302
285.308
285.312
285.315
285.318
285.322
285.327
285.334
285.343
285.356
285.372
285.394
285.42
285.447
285.47
285.482
285.484
285.478
285.468
285.459
285.453
285.455
285.464
285.481
285.501
285.522
285.54
285.552
285.56
285.564
285.565
285.564
285.563
285.561
285.56
285.559
285.557
285.554
285.549
285.542
285.536
285.533
285.543
285.577
285.643
285.738
285.84
285.921
285.961
285.955
285.913
285.855
285.801
285.763
285.748
285.753
285.771
285.798
285.829
285.858
285.881
285.891
285.882
285.849
285.793
285.719
285.635
285.546
285.46
285.379
285.307
285.244
285.192
285.151
285.127
285.129
285.173
285.268
285.403
285.55
285.675
285.748
285.757
285.721
285.245
285.285
285.245
285.218
285.205
285.201
285.203
285.209
285.218
285.228
285.241
285.254
285.268
285.282
285.294
285.305
285.314
285.321
285.327
285.333
285.338
285.344
285.352
285.362
285.375
285.393
285.415
285.443
285.471
285.492
285.5
285.498
285.489
285.477
285.465
285.456
285.451
285.453
285.462
285.477
285.495
285.515
285.533
285.546
285.555
285.56
285.562
285.563
285.562
285.561
285.56
285.558
285.556
285.552
285.547
285.54
285.534
285.531
285.539
285.568
285.626
285.712
285.808
285.891
285.94
285.949
285.923
285.879
285.833
285.798
285.78
285.779
285.792
285.814
285.84
285.867
285.887
285.896
285.884
285.849
285.792
285.717
285.632
285.543
285.457
285.376
285.304
285.241
285.188
285.146
285.12
285.119
285.156
285.246
285.381
285.531
285.662
285.74
285.752
285.718
285.243
285.277
285.237
285.211
285.2
285.197
285.2
285.207
285.216
285.228
285.242
285.257
285.272
285.287
285.302
285.315
285.327
285.337
285.347
285.355
285.364
285.374
285.386
285.401
285.419
285.441
285.467
285.492
285.511
285.517
285.512
285.503
285.492
285.48
285.469
285.46
285.454
285.453
285.458
285.468
285.483
285.5
285.518
285.532
285.543
285.551
285.556
285.558
285.559
285.559
285.558
285.556
285.553
285.549
285.544
285.537
285.531
285.527
285.534
285.56
285.611
285.689
285.78
285.862
285.918
285.938
285.927
285.896
285.859
285.829
285.811
285.807
285.816
285.834
285.856
285.879
285.896
285.9
285.884
285.844
285.783
285.705
285.619
285.53
285.444
285.365
285.294
285.232
285.18
285.139
285.113
285.11
285.145
285.233
285.368
285.522
285.656
285.736
285.749
285.713
285.241
285.27
285.229
285.205
285.195
285.193
285.197
285.205
285.215
285.228
285.242
285.258
285.275
285.293
285.31
285.326
285.342
285.356
285.369
285.382
285.396
285.41
285.427
285.446
285.467
285.489
285.509
285.523
285.529
285.526
285.52
285.512
285.504
285.495
285.485
285.475
285.466
285.46
285.458
285.46
285.468
285.48
285.496
285.512
285.526
285.536
285.544
285.549
285.552
285.553
285.552
285.551
285.548
285.544
285.539
285.532
285.526
285.523
285.529
285.552
285.599
285.67
285.755
285.836
285.895
285.925
285.925
285.906
285.879
285.854
285.839
285.834
285.841
285.855
285.875
285.894
285.906
285.903
285.879
285.832
285.764
285.683
285.595
285.507
285.423
285.345
285.277
285.218
285.168
285.129
285.105
285.103
285.139
285.227
285.364
285.522
285.658
285.735
285.745
285.706
285.239
285.263
285.222
285.199
285.191
285.19
285.195
285.203
285.213
285.226
285.242
285.259
285.278
285.297
285.317
285.337
285.356
285.375
285.393
285.411
285.429
285.448
285.468
285.488
285.507
285.523
285.534
285.54
285.541
285.539
285.536
285.532
285.528
285.521
285.513
285.503
285.492
285.481
285.471
285.464
285.461
285.465
285.476
285.491
285.505
285.517
285.527
285.535
285.54
285.543
285.544
285.543
285.541
285.537
285.532
285.526
285.52
285.518
285.524
285.545
285.588
285.653
285.733
285.812
285.874
285.91
285.92
285.911
285.892
285.874
285.862
285.859
285.864
285.877
285.893
285.907
285.913
285.901
285.866
285.81
285.736
285.651
285.562
285.475
285.393
285.319
285.255
285.2
285.154
285.118
285.096
285.097
285.136
285.229
285.371
285.532
285.666
285.737
285.741
285.697
285.236
285.256
285.216
285.194
285.187
285.187
285.192
285.2
285.211
285.224
285.24
285.258
285.278
285.3
285.323
285.346
285.37
285.393
285.415
285.437
285.459
285.48
285.5
285.518
285.533
285.544
285.551
285.555
285.558
285.56
285.562
285.563
285.562
285.559
285.554
285.546
285.535
285.521
285.506
285.491
285.479
285.47
285.47
285.477
285.489
285.5
285.51
285.519
285.525
285.53
285.532
285.532
285.531
285.527
285.523
285.518
285.513
285.512
285.519
285.539
285.579
285.641
285.716
285.792
285.855
285.895
285.912
285.911
285.901
285.889
285.881
285.88
285.886
285.897
285.909
285.918
285.914
285.89
285.844
285.777
285.696
285.608
285.519
285.434
285.357
285.288
285.229
285.178
285.137
285.105
285.088
285.093
285.139
285.239
285.388
285.552
285.681
285.74
285.736
285.686
285.233
285.25
285.21
285.19
285.183
285.183
285.188
285.197
285.208
285.221
285.237
285.256
285.277
285.3
285.326
285.352
285.379
285.406
285.432
285.457
285.481
285.502
285.521
285.536
285.549
285.558
285.565
285.572
285.578
285.585
285.592
285.599
285.604
285.607
285.607
285.603
285.595
285.584
285.569
285.55
285.53
285.511
285.495
285.487
285.49
285.495
285.501
285.507
285.513
285.517
285.52
285.52
285.519
285.517
285.513
285.509
285.506
285.506
285.513
285.534
285.573
285.632
285.703
285.777
285.839
285.881
285.903
285.909
285.905
285.899
285.896
285.897
285.903
285.913
285.921
285.922
285.906
285.868
285.807
285.73
285.643
285.553
285.467
285.387
285.315
285.253
285.2
285.155
285.119
285.092
285.08
285.093
285.148
285.259
285.417
285.586
285.698
285.739
285.728
285.67
285.229
285.244
285.205
285.186
285.179
285.18
285.185
285.193
285.203
285.216
285.232
285.251
285.272
285.297
285.324
285.352
285.382
285.411
285.44
285.467
285.491
285.513
285.53
285.544
285.556
285.566
285.575
285.585
285.595
285.607
285.62
285.632
285.644
285.654
285.661
285.664
285.663
285.657
285.646
285.629
285.608
285.584
285.558
285.536
285.52
285.513
285.51
285.509
285.509
285.511
285.511
285.511
285.51
285.507
285.504
285.5
285.498
285.5
285.51
285.532
285.571
285.627
285.696
285.766
285.827
285.87
285.895
285.905
285.907
285.906
285.907
285.911
285.918
285.925
285.927
285.916
285.884
285.828
285.754
285.668
285.577
285.489
285.407
285.334
285.271
285.216
285.17
285.132
285.101
285.079
285.073
285.097
285.166
285.292
285.47
285.621
285.71
285.735
285.716
285.649
285.225
285.238
285.2
285.182
285.175
285.176
285.181
285.188
285.198
285.211
285.226
285.244
285.265
285.289
285.316
285.346
285.376
285.407
285.437
285.465
285.489
285.51
285.527
285.541
285.552
285.563
285.574
285.587
285.601
285.617
285.635
285.653
285.671
285.687
285.701
285.712
285.718
285.719
285.715
285.704
285.688
285.665
285.637
285.607
285.577
285.555
285.54
285.528
285.521
285.515
285.511
285.508
285.505
285.501
285.498
285.495
285.494
285.498
285.509
285.534
285.573
285.629
285.695
285.762
285.82
285.862
285.888
285.902
285.908
285.912
285.916
285.921
285.927
285.928
285.92
285.892
285.84
285.767
285.681
285.59
285.501
285.418
285.344
285.28
285.225
285.179
285.14
285.108
285.083
285.067
285.071
285.108
285.198
285.358
285.524
285.65
285.717
285.727
285.697
285.617
285.22
285.234
285.196
285.178
285.172
285.172
285.176
285.183
285.193
285.204
285.218
285.234
285.254
285.277
285.303
285.331
285.361
285.391
285.421
285.448
285.472
285.492
285.508
285.522
285.533
285.544
285.556
285.57
285.587
285.605
285.626
285.648
285.67
285.691
285.711
285.727
285.741
285.75
285.754
285.752
285.743
285.727
285.705
285.676
285.643
285.61
285.584
285.563
285.546
285.533
285.523
285.515
285.508
285.502
285.498
285.495
285.496
285.501
285.515
285.541
285.583
285.639
285.702
285.765
285.818
285.858
285.884
285.9
285.909
285.916
285.922
285.927
285.927
285.918
285.893
285.842
285.769
285.682
285.59
285.5
285.416
285.343
285.279
285.226
285.181
285.143
285.112
285.086
285.066
285.06
285.077
285.136
285.268
285.429
285.572
285.673
285.717
285.711
285.663
285.559
285.214
285.229
285.192
285.174
285.168
285.168
285.171
285.178
285.186
285.196
285.208
285.223
285.24
285.26
285.284
285.309
285.337
285.364
285.391
285.416
285.438
285.457
285.472
285.484
285.495
285.505
285.517
285.53
285.546
285.565
285.586
285.608
285.632
285.655
285.677
285.698
285.717
285.734
285.747
285.756
285.76
285.757
285.746
285.726
285.699
285.667
285.634
285.606
285.582
285.562
285.546
285.533
285.522
285.514
285.509
285.506
285.508
285.516
285.532
285.56
285.601
285.654
285.715
285.774
285.823
285.859
285.884
285.901
285.912
285.919
285.924
285.923
285.912
285.884
285.835
285.759
285.669
285.575
285.485
285.402
285.33
285.269
285.217
285.175
285.14
285.11
285.085
285.064
285.053
285.06
285.1
285.206
285.349
285.492
285.611
285.687
285.709
285.683
285.6
285.434
285.208
285.225
285.188
285.171
285.164
285.163
285.167
285.172
285.18
285.189
285.199
285.21
285.225
285.241
285.261
285.282
285.305
285.328
285.351
285.372
285.391
285.406
285.419
285.429
285.437
285.445
285.454
285.465
285.479
285.495
285.513
285.533
285.555
285.576
285.597
285.618
285.64
285.661
285.683
285.705
285.726
285.741
285.749
285.747
285.734
285.711
285.682
285.652
285.625
285.601
285.58
285.563
285.55
285.54
285.533
285.531
285.534
285.544
285.562
285.59
285.629
285.679
285.734
285.788
285.833
285.865
285.888
285.903
285.912
285.916
285.912
285.897
285.865
285.811
285.733
285.64
285.545
285.455
285.375
285.306
285.248
285.201
285.161
285.129
285.102
285.079
285.06
285.049
285.052
285.081
285.168
285.29
285.423
285.546
285.641
285.692
285.694
285.648
285.54
285.334
285.2
285.222
285.185
285.168
285.16
285.159
285.161
285.167
285.173
285.181
285.189
285.198
285.209
285.222
285.237
285.253
285.27
285.288
285.305
285.321
285.335
285.346
285.355
285.362
285.367
285.372
285.378
285.385
285.394
285.405
285.419
285.433
285.449
285.465
285.481
285.497
285.515
285.537
285.562
285.593
285.628
285.665
285.698
285.722
285.734
285.731
285.716
285.693
285.669
285.645
285.624
285.605
285.59
285.579
285.573
285.571
285.575
285.585
285.604
285.631
285.667
285.711
285.759
285.806
285.846
285.873
285.89
285.9
285.902
285.893
285.871
285.831
285.771
285.689
285.593
285.498
285.411
285.336
285.272
285.22
285.176
285.141
285.112
285.088
285.068
285.052
285.044
285.048
285.074
285.148
285.252
285.37
285.488
285.589
285.66
285.689
285.675
285.618
285.509
285.314
285.19
285.22
285.183
285.165
285.157
285.154
285.156
285.161
285.167
285.173
285.18
285.187
285.195
285.204
285.215
285.226
285.238
285.249
285.261
285.271
285.28
285.287
285.293
285.296
285.299
285.301
285.303
285.307
285.311
285.317
285.324
285.332
285.341
285.349
285.358
285.367
285.377
285.392
285.413
285.442
285.481
285.529
285.582
285.633
285.675
285.703
285.714
285.71
285.699
285.684
285.667
285.652
285.639
285.629
285.623
285.622
285.626
285.636
285.653
285.677
285.709
285.746
285.786
285.824
285.855
285.873
285.88
285.877
285.861
285.829
285.779
285.71
285.625
285.53
285.437
285.356
285.288
285.231
285.185
285.148
285.117
285.092
285.072
285.056
285.045
285.041
285.048
285.077
285.143
285.23
285.333
285.441
285.541
285.622
285.67
285.681
285.656
285.599
285.52
285.292
285.178
285.218
285.181
285.163
285.154
285.15
285.151
285.155
285.161
285.167
285.173
285.178
285.184
285.191
285.197
285.205
285.212
285.219
285.226
285.233
285.238
285.242
285.245
285.247
285.248
285.25
285.251
285.252
285.254
285.256
285.259
285.262
285.265
285.267
285.27
285.273
285.276
285.283
285.294
285.313
285.343
285.385
285.438
285.499
285.561
285.615
285.655
285.681
285.693
285.695
285.692
285.685
285.679
285.673
285.67
285.671
285.676
285.685
285.7
285.721
285.746
285.775
285.804
285.829
285.846
285.847
285.835
285.809
285.766
285.706
285.63
285.543
285.453
285.367
285.294
285.235
285.187
285.149
285.118
285.094
285.074
285.059
285.048
285.043
285.045
285.057
285.091
285.147
285.222
285.311
285.407
285.502
285.584
285.643
285.671
285.666
285.627
285.549
285.387
285.27
285.16
285.217
285.18
285.161
285.151
285.146
285.146
285.149
285.155
285.161
285.167
285.172
285.177
285.181
285.186
285.191
285.196
285.201
285.206
285.21
285.214
285.218
285.221
285.224
285.226
285.229
285.231
285.234
285.236
285.239
285.241
285.242
285.243
285.244
285.244
285.245
285.245
285.247
285.252
285.262
285.279
285.306
285.345
285.395
285.453
285.512
285.566
285.611
285.643
285.664
285.677
285.684
285.688
285.691
285.694
285.698
285.705
285.714
285.726
285.742
285.759
285.777
285.791
285.799
285.793
285.768
285.73
285.678
285.611
285.533
285.449
285.366
285.291
285.228
285.181
285.144
285.117
285.095
285.078
285.065
285.056
285.052
285.053
285.06
285.078
285.112
285.16
285.224
285.301
285.385
285.472
285.551
285.614
285.652
285.661
285.638
285.578