/*--------------------------------*- C++ -*----------------------------------*\
| =========                 |                                                 |
| \\      /  F ield         | OpenFOAM: The Open Source CFD Toolbox           |
|  \\    /   O peration     | Version:  4.1                                   |
|   \\  /    A nd           | Web:      www.OpenFOAM.org                      |
|    \\/     M anipulation  |                                                 |
\*---------------------------------------------------------------------------*/
FoamFile
{
    version     2.0;
    format      ascii;
    class       volVectorField;
    location    "2000";
    object      U;
}
// * * * * * * * * * * * * * * * * * * * * * * * * * * * * * * * * * * * * * //

dimensions      [0 1 -1 0 0 0 0];

internalField   nonuniform List<vector> 
5000
(
(-0.000561481 0.000933761 0)
(0.00296026 -0.00189791 0)
(0.00485565 -0.00158056 0)
(0.00658917 -0.00120523 0)
(0.00800637 -0.000945086 0)
(0.00913823 -0.000774286 0)
(0.0100882 -0.00065979 0)
(0.0109372 -0.00058184 0)
(0.0117321 -0.000528482 0)
(0.0124982 -0.000491654 0)
(0.0132498 -0.00046577 0)
(0.0139941 -0.000446873 0)
(0.0147349 -0.000432198 0)
(0.0154728 -0.000419742 0)
(0.0162067 -0.000407921 0)
(0.0169338 -0.000395411 0)
(0.0176501 -0.000381066 0)
(0.01835 -0.000363856 0)
(0.0190264 -0.000342891 0)
(0.0196711 -0.000317531 0)
(0.0202754 -0.00028754 0)
(0.02083 -0.00025319 0)
(0.0213268 -0.000215291 0)
(0.0217591 -0.000175141 0)
(0.0221229 -0.00013441 0)
(0.0224173 -9.49657e-05 0)
(0.0226446 -5.86777e-05 0)
(0.0228106 -2.72243e-05 0)
(0.0229237 -1.92365e-06 0)
(0.0229945 1.64003e-05 0)
(0.0230348 2.75124e-05 0)
(0.0230569 3.18217e-05 0)
(0.0230716 3.03928e-05 0)
(0.0230882 2.49014e-05 0)
(0.0231127 1.7532e-05 0)
(0.0231473 1.0823e-05 0)
(0.0231901 7.44824e-06 0)
(0.0232344 9.91639e-06 0)
(0.0232701 2.01073e-05 0)
(0.0232832 3.83813e-05 0)
(0.0232629 6.3791e-05 0)
(0.0231939 9.60355e-05 0)
(0.0230605 0.000134885 0)
(0.0228477 0.000180195 0)
(0.0225414 0.000231575 0)
(0.0221288 0.000288282 0)
(0.0215993 0.000349256 0)
(0.0209451 0.000413231 0)
(0.0201613 0.000478808 0)
(0.0192468 0.00054455 0)
(0.0182034 0.000609117 0)
(0.0170354 0.000671438 0)
(0.015749 0.000731007 0)
(0.0143501 0.000788823 0)
(0.0128404 0.000853661 0)
(0.0112008 0.00098179 0)
(0.00934044 0.00141272 0)
(0.00688028 0.00250907 0)
(0.0014816 0.00268163 0)
(-0.0024262 0.00109627 0)
(-0.00377242 0.000497764 0)
(-0.00465564 0.000322875 0)
(-0.00530309 0.000243781 0)
(-0.00584047 0.00020123 0)
(-0.00631669 0.000172182 0)
(-0.00674769 0.000145276 0)
(-0.00713159 0.00011369 0)
(-0.00745413 7.25311e-05 0)
(-0.00769179 1.76501e-05 0)
(-0.00781332 -5.47428e-05 0)
(-0.0077791 -0.000149737 0)
(-0.00754442 -0.0002761 0)
(-0.00705465 -0.000438741 0)
(-0.00625002 -0.000640033 0)
(-0.00507788 -0.000883304 0)
(-0.00353052 -0.00117289 0)
(-0.00170305 -0.00150504 0)
(0.000808656 -0.00192588 0)
(0.00374984 -0.00209856 0)
(0.00626717 -0.00179349 0)
(0.00835452 -0.00124831 0)
(0.00965855 -0.000677624 0)
(0.0100964 -0.000215413 0)
(0.00970182 0.000171773 0)
(0.00854974 0.000656883 0)
(0.00688775 0.00163381 0)
(0.00208889 0.00332552 0)
(-0.00412803 0.00193076 0)
(-0.0053527 0.000653441 0)
(-0.00626204 0.000121592 0)
(-0.00651097 -0.000138419 0)
(-0.00635957 -0.000321811 0)
(-0.00591324 -0.000510697 0)
(-0.00514157 -0.000733767 0)
(-0.00398466 -0.00102934 0)
(-0.00239237 -0.00146665 0)
(-0.000255747 -0.00220018 0)
(0.00212086 -0.00139168 0)
(0.00297851 -0.000641208 0)
(0.00298974 0.00148494 0)
(0.00240025 -0.00317002 0)
(0.00421946 -0.00343646 0)
(0.00584613 -0.00279536 0)
(0.0072265 -0.00216185 0)
(0.00839824 -0.00172375 0)
(0.00940853 -0.00144796 0)
(0.0103141 -0.0012793 0)
(0.0111621 -0.00118016 0)
(0.0119822 -0.00112579 0)
(0.0127906 -0.00109917 0)
(0.0135952 -0.00108859 0)
(0.0143996 -0.00108619 0)
(0.0152046 -0.00108672 0)
(0.0160094 -0.00108671 0)
(0.0168125 -0.00108363 0)
(0.0176113 -0.00107536 0)
(0.0184026 -0.00105992 0)
(0.0191819 -0.00103527 0)
(0.0199437 -0.000999502 0)
(0.0206811 -0.000951099 0)
(0.0213863 -0.000889348 0)
(0.0220511 -0.000814659 0)
(0.0226674 -0.000728739 0)
(0.0232287 -0.000634556 0)
(0.0237302 -0.00053608 0)
(0.02417 -0.000437884 0)
(0.0245484 -0.000344665 0)
(0.0248689 -0.000260785 0)
(0.0251371 -0.000189855 0)
(0.0253604 -0.00013441 0)
(0.0255475 -9.56594e-05 0)
(0.0257078 -7.33365e-05 0)
(0.0258502 -6.56393e-05 0)
(0.0259829 -6.92965e-05 0)
(0.0261124 -7.9759e-05 0)
(0.026243 -9.15172e-05 0)
(0.026376 -9.85353e-05 0)
(0.0265097 -9.47928e-05 0)
(0.0266387 -7.49429e-05 0)
(0.0267542 -3.51522e-05 0)
(0.0268396 2.74264e-05 0)
(0.0268758 0.000113475 0)
(0.0268452 0.000222999 0)
(0.02673 0.000355408 0)
(0.0265132 0.000509173 0)
(0.0261791 0.000681537 0)
(0.0257143 0.000868663 0)
(0.0251082 0.00106599 0)
(0.0243535 0.00126864 0)
(0.0234462 0.00147186 0)
(0.0223846 0.00167167 0)
(0.0211689 0.00186579 0)
(0.0197981 0.0020552 0)
(0.0182662 0.00224773 0)
(0.0165552 0.002469 0)
(0.0146232 0.00280395 0)
(0.0124048 0.00351015 0)
(0.00986746 0.00497126 0)
(0.00640292 0.00635819 0)
(0.00214101 0.00510746 0)
(-0.00179933 0.00201466 0)
(-0.00311424 0.00118844 0)
(-0.00395515 0.000934785 0)
(-0.00465543 0.000810887 0)
(-0.00528093 0.000733675 0)
(-0.00585007 0.000666201 0)
(-0.00635969 0.000586182 0)
(-0.00679338 0.00047778 0)
(-0.00712515 0.000328105 0)
(-0.00732237 0.000126543 0)
(-0.00734639 -0.000136791 0)
(-0.00715342 -0.000475754 0)
(-0.00669609 -0.000894335 0)
(-0.00592122 -0.00138803 0)
(-0.00478439 -0.00195202 0)
(-0.00327496 -0.00258044 0)
(-0.00147682 -0.00325218 0)
(0.00077204 -0.00395093 0)
(0.0033387 -0.00425447 0)
(0.00557019 -0.00365408 0)
(0.00742051 -0.00241567 0)
(0.00854848 -0.00098749 0)
(0.00878439 0.000235259 0)
(0.00811988 0.00128962 0)
(0.00661326 0.00252524 0)
(0.00468052 0.00458004 0)
(0.000176338 0.00692193 0)
(-0.00347834 0.00450421 0)
(-0.00427885 0.00205279 0)
(-0.0050584 0.000824755 0)
(-0.00535492 0.000149133 0)
(-0.00531686 -0.000334054 0)
(-0.00496011 -0.000796141 0)
(-0.00428518 -0.00128373 0)
(-0.00325962 -0.00186215 0)
(-0.00188601 -0.00262102 0)
(-0.000350444 -0.00362918 0)
(0.00131506 -0.00198587 0)
(0.00150577 -0.000407108 0)
(0.00229773 0.00386057 0)
(0.00155222 -0.00620629 0)
(0.00332511 -0.00539117 0)
(0.00483479 -0.00433278 0)
(0.00599815 -0.00346285 0)
(0.00696261 -0.00286176 0)
(0.00783002 -0.00247991 0)
(0.00865352 -0.00224874 0)
(0.00946299 -0.00211506 0)
(0.0102744 -0.00204225 0)
(0.0110944 -0.0020056 0)
(0.0119238 -0.00198872 0)
(0.0127605 -0.00198107 0)
(0.0136019 -0.00197601 0)
(0.0144447 -0.00196927 0)
(0.015286 -0.00195784 0)
(0.0161228 -0.00193908 0)
(0.0169517 -0.00191013 0)
(0.0177685 -0.0018678 0)
(0.0185679 -0.00180881 0)
(0.019343 -0.00173039 0)
(0.0200857 -0.00163093 0)
(0.0207876 -0.00151068 0)
(0.0214401 -0.00137206 0)
(0.0220362 -0.00121962 0)
(0.0225711 -0.00105955 0)
(0.0230423 -0.000899017 0)
(0.0234505 -0.000745319 0)
(0.0237989 -0.000605182 0)
(0.024093 -0.000484159 0)
(0.02434 -0.000386189 0)
(0.0245483 -0.000313302 0)
(0.024727 -0.000265442 0)
(0.0248851 -0.000240416 0)
(0.025031 -0.000233947 0)
(0.0251718 -0.000239883 0)
(0.0253131 -0.000250551 0)
(0.0254576 -0.000257267 0)
(0.0256056 -0.00025096 0)
(0.0257537 -0.000222801 0)
(0.0258957 -0.000164594 0)
(0.0260213 -6.87411e-05 0)
(0.0261196 6.95624e-05 0)
(0.0261679 0.000250797 0)
(0.0261504 0.000473369 0)
(0.0260501 0.000734523 0)
(0.0258495 0.00102983 0)
(0.0255324 0.00135309 0)
(0.0250846 0.00169687 0)
(0.0244943 0.00205313 0)
(0.0237526 0.00241423 0)
(0.0228531 0.00277408 0)
(0.0217911 0.00312993 0)
(0.020562 0.00348527 0)
(0.0191587 0.0038553 0)
(0.0175692 0.00428015 0)
(0.0157784 0.00486195 0)
(0.0137864 0.00585069 0)
(0.01164 0.00758246 0)
(0.00912274 0.00940032 0)
(0.00612102 0.00913255 0)
(0.00222279 0.00582872 0)
(-0.00123005 0.00242621 0)
(-0.00229316 0.00175693 0)
(-0.00316566 0.00153331 0)
(-0.00397048 0.00138831 0)
(-0.00471737 0.00125471 0)
(-0.00539771 0.00109442 0)
(-0.00599091 0.00088101 0)
(-0.00646715 0.000594815 0)
(-0.00678877 0.000221541 0)
(-0.00691584 -0.000247614 0)
(-0.00680751 -0.000828295 0)
(-0.00643059 -0.00153426 0)
(-0.00574107 -0.00235574 0)
(-0.00470423 -0.00327486 0)
(-0.00331272 -0.00426268 0)
(-0.0016283 -0.00526554 0)
(0.000309143 -0.00617599 0)
(0.00252484 -0.00658264 0)
(0.00447844 -0.00577525 0)
(0.00606313 -0.00389595 0)
(0.00702177 -0.00155052 0)
(0.00700522 0.000492793 0)
(0.00609668 0.00232962 0)
(0.00438855 0.00443619 0)
(0.00244628 0.00766731 0)
(-0.00168726 0.0100919 0)
(-0.00312542 0.00625134 0)
(-0.00367647 0.00298147 0)
(-0.00431973 0.00127292 0)
(-0.00466999 0.000218045 0)
(-0.00471226 -0.000585307 0)
(-0.00442599 -0.00135332 0)
(-0.00383023 -0.00214956 0)
(-0.00290544 -0.00304611 0)
(-0.00165866 -0.00408739 0)
(-0.00045281 -0.0051247 0)
(0.00103383 -0.00275727 0)
(0.000827122 -0.000819147 0)
(0.00183182 0.00552686 0)
(0.000965637 -0.00814439 0)
(0.00239144 -0.00679854 0)
(0.00357127 -0.00535709 0)
(0.00445394 -0.00429913 0)
(0.005212 -0.00361165 0)
(0.00595628 -0.00320149 0)
(0.00672851 -0.00297586 0)
(0.00753795 -0.00286347 0)
(0.0083818 -0.00281581 0)
(0.00925261 -0.00280191 0)
(0.0101415 -0.0028028 0)
(0.0110401 -0.00280733 0)
(0.0119412 -0.00280926 0)
(0.0128394 -0.00280501 0)
(0.0137303 -0.00279214 0)
(0.0146106 -0.00276813 0)
(0.0154771 -0.00272972 0)
(0.0163257 -0.00267276 0)
(0.0171512 -0.00259262 0)
(0.017947 -0.0024851 0)
(0.0187047 -0.00234767 0)
(0.0194155 -0.00218046 0)
(0.0200705 -0.00198687 0)
(0.0206626 -0.00177335 0)
(0.0211869 -0.00154874 0)
(0.0216419 -0.00132312 0)
(0.022029 -0.00110665 0)
(0.0223528 -0.000908554 0)
(0.0226199 -0.00073637 0)
(0.0228387 -0.000595453 0)
(0.0230188 -0.000488679 0)
(0.0231701 -0.000416283 0)
(0.0233024 -0.000375795 0)
(0.0234248 -0.000362079 0)
(0.0235454 -0.000367513 0)
(0.0236704 -0.000382355 0)
(0.0238041 -0.000395326 0)
(0.0239477 -0.000394357 0)
(0.0240998 -0.000367412 0)
(0.0242553 -0.000303212 0)
(0.0244059 -0.000191761 0)
(0.0245422 -2.40604e-05 0)
(0.0246491 0.000203607 0)
(0.0247055 0.000490179 0)
(0.0246941 0.000832693 0)
(0.024598 0.00122638 0)
(0.0243993 0.00166433 0)
(0.0240818 0.00213756 0)
(0.0236314 0.00263582 0)
(0.0230365 0.00314886 0)
(0.0222885 0.00366814 0)
(0.0213816 0.00418934 0)
(0.0203124 0.00471597 0)
(0.0190791 0.00526532 0)
(0.0176821 0.00588032 0)
(0.0161276 0.00665942 0)
(0.014442 0.00782445 0)
(0.01269 0.00967855 0)
(0.0108032 0.0117491 0)
(0.00854194 0.0121208 0)
(0.00556588 0.00972219 0)
(0.00174946 0.00553019 0)
(-0.000936323 0.00287835 0)
(-0.00191898 0.00245286 0)
(-0.00287469 0.00225085 0)
(-0.00376977 0.00205673 0)
(-0.00458879 0.00181906 0)
(-0.00530935 0.00150291 0)
(-0.00590237 0.00108147 0)
(-0.00633236 0.000533589 0)
(-0.00656393 -0.000154709 0)
(-0.00655901 -0.000987374 0)
(-0.0062945 -0.00198158 0)
(-0.00573225 -0.00312722 0)
(-0.00484408 -0.00439294 0)
(-0.00362716 -0.00572171 0)
(-0.00212843 -0.00701378 0)
(-0.00047541 -0.00808236 0)
(0.00137159 -0.00853607 0)
(0.00306037 -0.00755678 0)
(0.00435347 -0.0051042 0)
(0.00522821 -0.00175278 0)
(0.00504347 0.00115705 0)
(0.00398014 0.00364397 0)
(0.00211086 0.00646455 0)
(-0.000121012 0.0108044 0)
(-0.00306045 0.0119468 0)
(-0.0032524 0.00706989 0)
(-0.00367067 0.00362979 0)
(-0.00415339 0.00179021 0)
(-0.00443799 0.000480378 0)
(-0.00445781 -0.000654153 0)
(-0.00420036 -0.00173258 0)
(-0.00365681 -0.00284368 0)
(-0.00279761 -0.00406173 0)
(-0.00162785 -0.00535955 0)
(-0.000647884 -0.00637578 0)
(0.000870037 -0.0034442 0)
(0.000627072 -0.00090973 0)
(0.00152093 0.00663626 0)
(0.000608035 -0.00951506 0)
(0.00162952 -0.00790258 0)
(0.0024665 -0.00614073 0)
(0.00311023 -0.0049705 0)
(0.0037461 -0.00429344 0)
(0.00446006 -0.00394077 0)
(0.00526271 -0.00378115 0)
(0.0061362 -0.00372601 0)
(0.0070578 -0.00372067 0)
(0.00800751 -0.00373374 0)
(0.00896936 -0.00374834 0)
(0.00993127 -0.00375616 0)
(0.0108845 -0.00375362 0)
(0.0118232 -0.00373934 0)
(0.0127432 -0.00371243 0)
(0.0136419 -0.00367114 0)
(0.0145171 -0.00361215 0)
(0.0153659 -0.0035304 0)
(0.0161844 -0.00341974 0)
(0.0169667 -0.00327432 0)
(0.017705 -0.00309032 0)
(0.0183903 -0.00286758 0)
(0.0190136 -0.00261041 0)
(0.0195674 -0.00232744 0)
(0.0200468 -0.00203052 0)
(0.0204504 -0.00173308 0)
(0.0207805 -0.00144852 0)
(0.0210425 -0.00118876 0)
(0.0212446 -0.000963373 0)
(0.0213965 -0.000779 0)
(0.0215091 -0.000639123 0)
(0.0215936 -0.000543996 0)
(0.0216611 -0.000490652 0)
(0.0217221 -0.000472988 0)
(0.0217863 -0.00048197 0)
(0.0218619 -0.000506005 0)
(0.0219558 -0.00053151 0)
(0.022072 -0.000543674 0)
(0.022211 -0.000527354 0)
(0.0223691 -0.000468036 0)
(0.0225382 -0.000352732 0)
(0.0227052 -0.000170028 0)
(0.0228646 8.95423e-05 0)
(0.0229864 0.000427267 0)
(0.0230548 0.000839831 0)
(0.0230521 0.00132177 0)
(0.0229595 0.00186548 0)
(0.0227588 0.00246035 0)
(0.0224341 0.00309384 0)
(0.0219722 0.00375265 0)
(0.0213636 0.00442502 0)
(0.0206028 0.00510351 0)
(0.0196888 0.00578885 0)
(0.0186251 0.00649532 0)
(0.0174214 0.00726087 0)
(0.0160953 0.00817136 0)
(0.0146829 0.00941929 0)
(0.0132539 0.0112896 0)
(0.0118063 0.0134883 0)
(0.0101051 0.0144142 0)
(0.00774357 0.0128163 0)
(0.00455614 0.00913701 0)
(0.00109947 0.0051723 0)
(-0.000844288 0.00355291 0)
(-0.00187687 0.00323373 0)
(-0.00288426 0.0029687 0)
(-0.00381249 0.00264008 0)
(-0.00464031 0.0022082 0)
(-0.00534269 0.00164211 0)
(-0.00588754 0.000917573 0)
(-0.00624048 1.98773e-05 0)
(-0.00637163 -0.00105065 0)
(-0.00625327 -0.00231139 0)
(-0.00586057 -0.00375648 0)
(-0.00516958 -0.00533854 0)
(-0.00418259 -0.00697052 0)
(-0.00294304 -0.00850549 0)
(-0.00155754 -0.00969928 0)
(-0.000166373 -0.0101343 0)
(0.00123165 -0.00905666 0)
(0.0022045 -0.00616318 0)
(0.00303304 -0.00177904 0)
(0.00283909 0.00188524 0)
(0.00169727 0.00489384 0)
(-0.000506234 0.00891549 0)
(-0.00246001 0.0131375 0)
(-0.00408218 0.0126076 0)
(-0.00360957 0.00725478 0)
(-0.00388673 0.00402629 0)
(-0.00419637 0.00213559 0)
(-0.00438094 0.000605827 0)
(-0.00435293 -0.000783525 0)
(-0.00409637 -0.00212285 0)
(-0.00358756 -0.0035213 0)
(-0.00278801 -0.00503188 0)
(-0.00171215 -0.00654412 0)
(-0.000883938 -0.00747523 0)
(0.000639968 -0.00428788 0)
(0.000524424 -0.000945412 0)
(0.00127954 0.00745121 0)
(0.000369517 -0.0104193 0)
(0.00104232 -0.00865225 0)
(0.00161146 -0.00667593 0)
(0.0021201 -0.0055174 0)
(0.00274519 -0.00495669 0)
(0.00351652 -0.00472837 0)
(0.00440104 -0.00466476 0)
(0.00535818 -0.00467225 0)
(0.00635448 -0.00470147 0)
(0.0073655 -0.00472793 0)
(0.00837405 -0.00474073 0)
(0.00936818 -0.00473622 0)
(0.0103398 -0.00471435 0)
(0.0112839 -0.00467635 0)
(0.0121971 -0.00462309 0)
(0.0130782 -0.00455379 0)
(0.0139261 -0.00446516 0)
(0.0147398 -0.00435121 0)
(0.0155169 -0.00420408 0)
(0.016253 -0.00401578 0)
(0.0169414 -0.00378068 0)
(0.0175736 -0.00349773 0)
(0.0181404 -0.00317183 0)
(0.0186337 -0.0028137 0)
(0.0190481 -0.00243839 0)
(0.019382 -0.00206305 0)
(0.0196374 -0.00170469 0)
(0.0198202 -0.00137831 0)
(0.0199388 -0.00109577 0)
(0.0200039 -0.000865182 0)
(0.0200271 -0.000690781 0)
(0.0200208 -0.000573002 0)
(0.0199976 -0.000508659 0)
(0.0199709 -0.000491163 0)
(0.0199545 -0.000510756 0)
(0.0199626 -0.000554692 0)
(0.0200083 -0.000607389 0)
(0.0201007 -0.00065073 0)
(0.0202419 -0.000664907 0)
(0.0204256 -0.000630029 0)
(0.020638 -0.000528251 0)
(0.0208602 -0.000345555 0)
(0.0210743 -7.02513e-05 0)
(0.0212682 0.000302758 0)
(0.0214136 0.000770433 0)
(0.021493 0.00132704 0)
(0.0214904 0.00196406 0)
(0.0213878 0.00266977 0)
(0.0211695 0.00342938 0)
(0.0208221 0.00422632 0)
(0.0203358 0.00504463 0)
(0.019706 0.00587203 0)
(0.0189333 0.00670388 0)
(0.0180245 0.00754839 0)
(0.0169941 0.00843547 0)
(0.0158652 0.00943772 0)
(0.0146771 0.0107237 0)
(0.0134999 0.0125644 0)
(0.0123645 0.0148103 0)
(0.0110739 0.0161668 0)
(0.00922028 0.0153351 0)
(0.0065698 0.0123082 0)
(0.00335368 0.00825973 0)
(0.000544758 0.0052431 0)
(-0.000925717 0.0043448 0)
(-0.00199948 0.00398388 0)
(-0.00302139 0.0035663 0)
(-0.00394941 0.00302603 0)
(-0.00476416 0.0023272 0)
(-0.00543722 0.00144041 0)
(-0.00593325 0.0003467 0)
(-0.00622174 -0.00095457 0)
(-0.00627795 -0.0024628 0)
(-0.00609139 -0.00418176 0)
(-0.00564246 -0.00604787 0)
(-0.00493787 -0.00794608 0)
(-0.00401885 -0.00968734 0)
(-0.00297335 -0.0109711 0)
(-0.00192978 -0.0113371 0)
(-0.000994992 -0.0101895 0)
(-0.000321301 -0.00701038 0)
(0.0003417 -0.00172915 0)
(0.000498372 0.00251871 0)
(-0.00105696 0.00667506 0)
(-0.00301928 0.011267 0)
(-0.00426584 0.0143518 0)
(-0.00479702 0.0124313 0)
(-0.00396746 0.00710658 0)
(-0.00408041 0.00423458 0)
(-0.00422548 0.00233547 0)
(-0.0043071 0.000651467 0)
(-0.00421736 -0.000936547 0)
(-0.00394322 -0.00249778 0)
(-0.00347279 -0.00414817 0)
(-0.00276607 -0.00591385 0)
(-0.00184162 -0.00761298 0)
(-0.00111298 -0.0084346 0)
(0.000287191 -0.00533147 0)
(0.000401713 -0.000972483 0)
(0.00106749 0.00807926 0)
(0.000209276 -0.0109792 0)
(0.000622371 -0.00914199 0)
(0.00102879 -0.00708723 0)
(0.00151486 -0.00607331 0)
(0.00220052 -0.00569875 0)
(0.00305114 -0.00561163 0)
(0.00400469 -0.00563536 0)
(0.0050146 -0.00568849 0)
(0.00604774 -0.00573439 0)
(0.00708123 -0.00575779 0)
(0.00809927 -0.00575404 0)
(0.00909096 -0.00572384 0)
(0.0100489 -0.00567032 0)
(0.0109684 -0.00559713 0)
(0.0118469 -0.00550696 0)
(0.0126833 -0.0054002 0)
(0.013478 -0.00527391 0)
(0.0142311 -0.00512147 0)
(0.0149421 -0.00493333 0)
(0.0156083 -0.00469916 0)
(0.0162247 -0.00441091 0)
(0.0167835 -0.00406603 0)
(0.0172758 -0.00366944 0)
(0.0176929 -0.00323365 0)
(0.0180289 -0.00277689 0)
(0.0182814 -0.00232019 0)
(0.018452 -0.00188439 0)
(0.0185461 -0.00148775 0)
(0.0185722 -0.00114455 0)
(0.018541 -0.000864524 0)
(0.0184645 -0.000652952 0)
(0.0183568 -0.000511154 0)
(0.0182343 -0.00043706 0)
(0.018117 -0.000425711 0)
(0.0180296 -0.000469126 0)
(0.0179986 -0.000555066 0)
(0.0180462 -0.000664946 0)
(0.0181822 -0.000772877 0)
(0.0183997 -0.000847967 0)
(0.018678 -0.000859595 0)
(0.0189886 -0.000782871 0)
(0.0193021 -0.000601777 0)
(0.0195906 -0.000308375 0)
(0.0198466 0.000101957 0)
(0.0200452 0.000624775 0)
(0.0201747 0.00125396 0)
(0.0202226 0.00197992 0)
(0.020176 0.00279024 0)
(0.0200222 0.00366825 0)
(0.0197498 0.00459465 0)
(0.019351 0.00554935 0)
(0.0188216 0.00651483 0)
(0.0181631 0.00748014 0)
(0.0173837 0.00844634 0)
(0.016499 0.00943492 0)
(0.0155337 0.0105066 0)
(0.0145263 0.01181 0)
(0.0135436 0.0136025 0)
(0.012634 0.0158464 0)
(0.0116438 0.0175221 0)
(0.0101976 0.0173573 0)
(0.00802062 0.0150368 0)
(0.00519151 0.0112928 0)
(0.00226008 0.00766177 0)
(0.000135497 0.00572282 0)
(-0.00111421 0.00509469 0)
(-0.00220279 0.00458541 0)
(-0.00322249 0.00394857 0)
(-0.00414714 0.00313367 0)
(-0.0049525 0.00210372 0)
(-0.00560409 0.000832749 0)
(-0.00607002 -0.000683206 0)
(-0.0063213 -0.00241148 0)
(-0.0063677 -0.0043673 0)
(-0.00619692 -0.00647437 0)
(-0.00581929 -0.00859356 0)
(-0.00527216 -0.0105033 0)
(-0.00462183 -0.0118627 0)
(-0.00395807 -0.0121746 0)
(-0.00338683 -0.0108236 0)
(-0.00299347 -0.00736108 0)
(-0.00258535 -0.00211269 0)
(-0.00212587 0.00358974 0)
(-0.00362001 0.0083452 0)
(-0.00493048 0.0127174 0)
(-0.00549456 0.0146878 0)
(-0.00519296 0.0117134 0)
(-0.00418384 0.00676905 0)
(-0.00411036 0.00426535 0)
(-0.00408861 0.00239421 0)
(-0.00405783 0.000609682 0)
(-0.00389145 -0.00113021 0)
(-0.0035994 -0.00285708 0)
(-0.00319593 -0.00469305 0)
(-0.0026455 -0.00665013 0)
(-0.00194498 -0.00850914 0)
(-0.00134707 -0.00927946 0)
(-0.000195067 -0.00639674 0)
(0.000103612 -0.00110934 0)
(0.000846159 0.00850791 0)
(0.000106437 -0.0113019 0)
(0.000350307 -0.00947122 0)
(0.00068925 -0.0074765 0)
(0.00122355 -0.00669538 0)
(0.0019776 -0.00651786 0)
(0.00288097 -0.00655349 0)
(0.00386651 -0.00664367 0)
(0.00489205 -0.00672548 0)
(0.00592833 -0.00677465 0)
(0.00695474 -0.00678378 0)
(0.00795666 -0.00675342 0)
(0.00892365 -0.00668794 0)
(0.0098484 -0.00659331 0)
(0.010726 -0.00647549 0)
(0.0115537 -0.00633911 0)
(0.0123307 -0.00618607 0)
(0.0130575 -0.00601427 0)
(0.0137355 -0.00581693 0)
(0.0143656 -0.0055832 0)
(0.0149473 -0.00530036 0)
(0.0154771 -0.00495756 0)
(0.0159489 -0.00455001 0)
(0.0163541 -0.00408194 0)
(0.016684 -0.00356714 0)
(0.016932 -0.00302685 0)
(0.0170949 -0.00248603 0)
(0.0171738 -0.00196949 0)
(0.0171739 -0.00149886 0)
(0.0171033 -0.00109104 0)
(0.0169733 -0.000757839 0)
(0.0167979 -0.000506736 0)
(0.0165956 -0.000342457 0)
(0.0163931 -0.000268259 0)
(0.0162271 -0.000286174 0)
(0.0161408 -0.000393218 0)
(0.0161716 -0.000573925 0)
(0.0163353 -0.000794831 0)
(0.0166195 -0.00100821 0)
(0.016991 -0.00116385 0)
(0.017408 -0.00122087 0)
(0.0178309 -0.00115346 0)
(0.0182276 -0.000950761 0)
(0.0185735 -0.000613402 0)
(0.0188554 -0.000145813 0)
(0.01907 0.000445951 0)
(0.0192054 0.00115377 0)
(0.0192552 0.00196814 0)
(0.0192144 0.00287664 0)
(0.0190754 0.00386225 0)
(0.0188314 0.00490426 0)
(0.0184772 0.00597982 0)
(0.0180105 0.00706705 0)
(0.017433 0.00814911 0)
(0.0167527 0.00921999 0)
(0.0159845 0.010293 0)
(0.0151516 0.0114183 0)
(0.0142893 0.0127274 0)
(0.0134578 0.0144632 0)
(0.0127139 0.0166719 0)
(0.0119479 0.0185736 0)
(0.0108268 0.0189723 0)
(0.00906136 0.0173362 0)
(0.00663114 0.014065 0)
(0.00385868 0.0103042 0)
(0.00145163 0.00757556 0)
(-0.000198003 0.00632986 0)
(-0.0013604 0.00568397 0)
(-0.00244929 0.004965 0)
(-0.0034705 0.00405649 0)
(-0.00440035 0.00290842 0)
(-0.00521016 0.00148365 0)
(-0.00586832 -0.000225371 0)
(-0.00632294 -0.00214241 0)
(-0.00661183 -0.00428814 0)
(-0.00673821 -0.00658458 0)
(-0.00671272 -0.00887247 0)
(-0.00656725 -0.0109094 0)
(-0.00634477 -0.012336 0)
(-0.00609089 -0.0126485 0)
(-0.00584295 -0.0112388 0)
(-0.00557113 -0.00760627 0)
(-0.00512616 -0.00192558 0)
(-0.00467394 0.00419576 0)
(-0.0054594 0.0093312 0)
(-0.00613106 0.0133878 0)
(-0.00611624 0.0143732 0)
(-0.00525757 0.0106629 0)
(-0.00416372 0.00626868 0)
(-0.00387681 0.00409283 0)
(-0.00367016 0.00228666 0)
(-0.00351102 0.000452664 0)
(-0.00325033 -0.00138622 0)
(-0.00295149 -0.00319119 0)
(-0.00265742 -0.00510643 0)
(-0.00234107 -0.00715841 0)
(-0.00194898 -0.00914128 0)
(-0.00158308 -0.00994476 0)
(-0.000805062 -0.00723882 0)
(-0.000541331 -0.00159791 0)
(0.000563724 0.00871491 0)
(4.54031e-05 -0.0114764 0)
(0.000195745 -0.00972136 0)
(0.000531218 -0.00790257 0)
(0.00113197 -0.00738275 0)
(0.0019306 -0.00738052 0)
(0.00285543 -0.00751586 0)
(0.00384469 -0.00765645 0)
(0.00486196 -0.00775585 0)
(0.00588121 -0.00779982 0)
(0.00688348 -0.00778733 0)
(0.00785476 -0.0077233 0)
(0.00878465 -0.00761536 0)
(0.00966559 -0.00747206 0)
(0.0104922 -0.00730166 0)
(0.0112615 -0.00711083 0)
(0.0119721 -0.00690325 0)
(0.0126247 -0.00667816 0)
(0.0132213 -0.00642929 0)
(0.0137639 -0.00614503 0)
(0.014254 -0.00581056 0)
(0.0146903 -0.00541204 0)
(0.0150683 -0.00494181 0)
(0.0153807 -0.00440259 0)
(0.0156188 -0.00380883 0)
(0.0157754 -0.00318446 0)
(0.0158469 -0.00255843 0)
(0.0158339 -0.00195972 0)
(0.0157417 -0.00141366 0)
(0.0155798 -0.000940412 0)
(0.0153623 -0.000555407 0)
(0.0151097 -0.000271681 0)
(0.0148547 -0.000103707 0)
(0.0146449 -6.79693e-05 0)
(0.0145387 -0.000176308 0)
(0.0145847 -0.000419633 0)
(0.0147995 -0.000756405 0)
(0.0151613 -0.0011186 0)
(0.0156235 -0.00143273 0)
(0.0161332 -0.00163951 0)
(0.0166445 -0.0017022 0)
(0.0171229 -0.00160517 0)
(0.0175453 -0.00134834 0)
(0.017897 -0.000941228 0)
(0.0181695 -0.000396942 0)
(0.0183645 0.000274968 0)
(0.0184757 0.00106685 0)
(0.0185016 0.00196997 0)
(0.0184402 0.00297111 0)
(0.0182886 0.0040534 0)
(0.0180444 0.0051957 0)
(0.0177061 0.00637383 0)
(0.0172738 0.00756307 0)
(0.0167503 0.00874213 0)
(0.0161435 0.00989899 0)
(0.0154668 0.0110395 0)
(0.0147407 0.0122046 0)
(0.0139961 0.0135107 0)
(0.013286 0.0151858 0)
(0.0126689 0.0173372 0)
(0.0120729 0.0193872 0)
(0.0112144 0.0202482 0)
(0.00980214 0.0192444 0)
(0.00775239 0.016514 0)
(0.00524619 0.0128977 0)
(0.00278384 0.00970514 0)
(0.000902057 0.00784 0)
(-0.000498395 0.00685058 0)
(-0.00162569 0.00605414 0)
(-0.00271655 0.00507873 0)
(-0.00374855 0.00384615 0)
(-0.0046974 0.0023106 0)
(-0.00552987 0.000463148 0)
(-0.00620707 -0.00164858 0)
(-0.0067311 -0.00393752 0)
(-0.0071504 -0.00636873 0)
(-0.00747242 -0.00877084 0)
(-0.00772229 -0.0108944 0)
(-0.00791846 -0.0123855 0)
(-0.00805705 -0.0127629 0)
(-0.00808976 -0.0114492 0)
(-0.0078696 -0.00793137 0)
(-0.00722964 -0.00225968 0)
(-0.00642035 0.00421884 0)
(-0.00643392 0.00963881 0)
(-0.0065538 0.0134266 0)
(-0.00612863 0.0136457 0)
(-0.00495344 0.00943276 0)
(-0.00381524 0.00558934 0)
(-0.00328003 0.00368709 0)
(-0.00284074 0.00199142 0)
(-0.00252194 0.000151997 0)
(-0.00218258 -0.00171193 0)
(-0.00189331 -0.00345603 0)
(-0.00175729 -0.00531436 0)
(-0.00175049 -0.00733863 0)
(-0.00176753 -0.00939625 0)
(-0.00178569 -0.0103255 0)
(-0.00147094 -0.0077898 0)
(-0.00119429 -0.00161695 0)
(0.000236664 0.00831246 0)
(1.33267e-05 -0.0115704 0)
(0.000125041 -0.00994733 0)
(0.000488374 -0.00838298 0)
(0.00114378 -0.00811356 0)
(0.00196351 -0.00825992 0)
(0.0028896 -0.00847686 0)
(0.00386636 -0.0086562 0)
(0.00486188 -0.00876507 0)
(0.00585258 -0.00879743 0)
(0.00682068 -0.0087576 0)
(0.00775261 -0.00865431 0)
(0.008638 -0.00849809 0)
(0.00946905 -0.00829994 0)
(0.0102401 -0.00807027 0)
(0.0109475 -0.00781782 0)
(0.0115897 -0.00754825 0)
(0.0121672 -0.00726253 0)
(0.012682 -0.00695551 0)
(0.0131372 -0.00661554 0)
(0.0135358 -0.00622629 0)
(0.0138789 -0.00577099 0)
(0.0141643 -0.00523863 0)
(0.0143861 -0.00462958 0)
(0.0145366 -0.00395807 0)
(0.0146083 -0.00325035 0)
(0.0145972 -0.00253945 0)
(0.0145042 -0.00185917 0)
(0.0143363 -0.00123975 0)
(0.0141075 -0.000707014 0)
(0.013841 -0.00028437 0)
(0.0135715 2.03281e-06 0)
(0.0133596 0.000119151 0)
(0.0132664 3.97668e-05 0)
(0.0133434 -0.000236136 0)
(0.0136061 -0.00066333 0)
(0.014025 -0.00115772 0)
(0.0145455 -0.00162439 0)
(0.0151095 -0.00198493 0)
(0.0156694 -0.00218941 0)
(0.0161914 -0.0022149 0)
(0.0166543 -0.00205831 0)
(0.0170458 -0.00172877 0)
(0.0173597 -0.00124192 0)
(0.0175931 -0.000615457 0)
(0.0177494 0.000138265 0)
(0.017825 0.00101278 0)
(0.0178207 0.00200057 0)
(0.0177351 0.00308793 0)
(0.0175671 0.00425735 0)
(0.0173166 0.00548689 0)
(0.0169852 0.00675131 0)
(0.0165754 0.00802401 0)
(0.0160922 0.0092807 0)
(0.0155436 0.0105049 0)
(0.0149419 0.0116966 0)
(0.0143053 0.0128886 0)
(0.0136601 0.0141847 0)
(0.0130518 0.0157974 0)
(0.0125375 0.0178763 0)
(0.0120754 0.0200119 0)
(0.0114308 0.0212404 0)
(0.0103234 0.0208026 0)
(0.00862438 0.0186273 0)
(0.00642253 0.0153108 0)
(0.00405883 0.0119344 0)
(0.00203991 0.00953973 0)
(0.000509841 0.00817861 0)
(-0.000755426 0.00718969 0)
(-0.00187593 0.00617035 0)
(-0.00297733 0.00488753 0)
(-0.00403504 0.0032775 0)
(-0.00501988 0.0013213 0)
(-0.00590527 -0.000941081 0)
(-0.00663697 -0.0033349 0)
(-0.0073143 -0.00584773 0)
(-0.00794562 -0.00831314 0)
(-0.00854568 -0.0104887 0)
(-0.00911033 -0.0120485 0)
(-0.0095902 -0.0125629 0)
(-0.00986053 -0.0115126 0)
(-0.00967389 -0.00839695 0)
(-0.00877421 -0.00309002 0)
(-0.00739113 0.00352285 0)
(-0.00656989 0.00930317 0)
(-0.00621403 0.0129994 0)
(-0.00553293 0.0127234 0)
(-0.00418807 0.00813019 0)
(-0.00302134 0.00472347 0)
(-0.00223635 0.00304159 0)
(-0.0015339 0.0015426 0)
(-0.000950794 -0.000105517 0)
(-0.000516569 -0.00184825 0)
(-0.000346925 -0.00352171 0)
(-0.000426521 -0.00522035 0)
(-0.000764303 -0.00708875 0)
(-0.00126982 -0.00915977 0)
(-0.00179994 -0.0103093 0)
(-0.00198327 -0.00809459 0)
(-0.00168668 -0.00195018 0)
(-8.21004e-05 0.00737672 0)
(6.73683e-08 -0.0116302 0)
(0.000108293 -0.0101807 0)
(0.000508454 -0.00891253 0)
(0.00119972 -0.0088684 0)
(0.00202524 -0.00914069 0)
(0.00294063 -0.00942461 0)
(0.00389517 -0.00963293 0)
(0.00486048 -0.00974426 0)
(0.00581498 -0.00975946 0)
(0.00674197 -0.00968744 0)
(0.00762836 -0.00954023 0)
(0.00846396 -0.00933104 0)
(0.00924099 -0.00907311 0)
(0.00995366 -0.00877893 0)
(0.0105982 -0.00845924 0)
(0.0111728 -0.00812173 0)
(0.0116776 -0.00776932 0)
(0.0121147 -0.00739847 0)
(0.0124878 -0.00699828 0)
(0.0128013 -0.00655162 0)
(0.0130585 -0.0060393 0)
(0.0132599 -0.00544678 0)
(0.0134023 -0.0047713 0)
(0.0134794 -0.00402597 0)
(0.0134846 -0.00323884 0)
(0.0134143 -0.00244744 0)
(0.0132714 -0.001692 0)
(0.0130674 -0.00101088 0)
(0.0128264 -0.000440689 0)
(0.0125842 -1.99806e-05 0)
(0.0124027 0.000204801 0)
(0.0123407 0.000195828 0)
(0.0124469 -5.94817e-05 0)
(0.0127349 -0.000522948 0)
(0.0131749 -0.00110626 0)
(0.013712 -0.00170011 0)
(0.0142884 -0.00220715 0)
(0.0148573 -0.00256026 0)
(0.0153866 -0.00272439 0)
(0.015857 -0.00268941 0)
(0.0162582 -0.0024613 0)
(0.0165856 -0.00205506 0)
(0.0168379 -0.00148989 0)
(0.0170159 -0.000785725 0)
(0.0171238 4.37449e-05 0)
(0.0171591 0.000993957 0)
(0.0171235 0.0020588 0)
(0.017016 0.00322419 0)
(0.0168355 0.00447159 0)
(0.0165826 0.00577756 0)
(0.0162601 0.00711525 0)
(0.0158725 0.00845627 0)
(0.0154263 0.00977407 0)
(0.0149303 0.0110491 0)
(0.0143961 0.012277 0)
(0.0138397 0.0134845 0)
(0.0132838 0.0147641 0)
(0.0127667 0.0163139 0)
(0.0123419 0.018311 0)
(0.0119906 0.0204824 0)
(0.0115239 0.0219941 0)
(0.01068 0.0220497 0)
(0.00930171 0.020415 0)
(0.00741097 0.0174813 0)
(0.00523632 0.0141247 0)
(0.00319115 0.0113582 0)
(0.00157136 0.00960552 0)
(0.000248449 0.00842122 0)
(-0.000948443 0.00729089 0)
(-0.00206981 0.00599476 0)
(-0.00318917 0.00435293 0)
(-0.00428813 0.00233145 0)
(-0.00534795 -3.52258e-05 0)
(-0.00625296 -0.00252391 0)
(-0.00712637 -0.00507055 0)
(-0.00800311 -0.00755699 0)
(-0.0088789 -0.00975661 0)
(-0.00973464 -0.0113867 0)
(-0.0104932 -0.0120902 0)
(-0.0109855 -0.0114329 0)
(-0.0109059 -0.00895943 0)
(-0.00987296 -0.00437292 0)
(-0.00790063 0.00198745 0)
(-0.00611994 0.0083068 0)
(-0.00524442 0.0121979 0)
(-0.00436365 0.0117546 0)
(-0.00278307 0.00683159 0)
(-0.00155125 0.00367446 0)
(-0.000519914 0.00207799 0)
(0.000396431 0.000721509 0)
(0.00116449 -0.000669273 0)
(0.00159328 -0.00202237 0)
(0.00161533 -0.00336669 0)
(0.00130549 -0.00477188 0)
(0.000675431 -0.00633636 0)
(-0.000319636 -0.00832899 0)
(-0.00143312 -0.00979627 0)
(-0.00216834 -0.0081555 0)
(-0.00190529 -0.00255137 0)
(-0.000374112 0.00609173 0)
(-1.89592e-06 -0.011685 0)
(0.000122716 -0.0104369 0)