/*--------------------------------*- C++ -*----------------------------------*\
| =========                 |                                                 |
| \\      /  F ield         | OpenFOAM: The Open Source CFD Toolbox           |
|  \\    /   O peration     | Version:  4.1                                   |
|   \\  /    A nd           | Web:      www.OpenFOAM.org                      |
|    \\/     M anipulation  |                                                 |
\*---------------------------------------------------------------------------*/
FoamFile
{
    version     2.0;
    format      ascii;
    class       volScalarField;
    location    "1880";
    object      mag(U);
}
// * * * * * * * * * * * * * * * * * * * * * * * * * * * * * * * * * * * * * //

dimensions      [0 1 -1 0 0 0 0];

internalField   nonuniform List<scalar> 
5000
(
0.00245443
0.00318274
0.00304022
0.00395318
0.00441996
0.00436143
0.00413083
0.0035693
0.0072352
0.00868049
0.00989727
0.0107211
0.0113632
0.0119092
0.0123893
0.0128092
0.0131641
0.0134435
0.0136346
0.0137245
0.0137023
0.0135606
0.0132979
0.0129189
0.0124317
0.0118462
0.0111733
0.0104248
0.00961291
0.00875116
0.00785412
0.00693739
0.00601716
0.00510932
0.00422631
0.00336727
0.00250863
0.00164426
0.000752754
0.000398937
0.000777373
0.00125104
0.00167581
0.00204415
0.00236359
0.00264195
0.00288648
0.00310432
0.00330251
0.0034878
0.00366648
0.00384423
0.00402603
0.00421607
0.00441783
0.00463399
0.00486661
0.00511707
0.00538616
0.00567406
0.00598036
0.00630406
0.00664374
0.00699807
0.00736667
0.00775089
0.00815392
0.00857878
0.00902511
0.00948822
0.00996698
0.0104822
0.0110879
0.0118322
0.0126457
0.0131944
0.0128605
0.0109337
0.00683267
0.00192348
0.000992708
0.001736
0.00210233
0.00237695
0.00260511
0.00277631
0.00285844
0.00281898
0.00262888
0.00226619
0.00173615
0.00108628
0.000554361
0.00101816
0.00192195
0.00294343
0.00400035
0.00492911
0.00506549
0.00493903
0.00339727
0.00490178
0.00296188
0.00269469
0.00276621
0.00254578
0.00466982
0.00794976
0.00864688
0.00913042
0.0101232
0.0109407
0.0116101
0.0121736
0.0126552
0.0130614
0.0133884
0.0136262
0.0137629
0.0137858
0.0136843
0.0134673
0.0131353
0.0126952
0.0121561
0.0115275
0.0108194
0.0100421
0.00920645
0.00832356
0.00740591
0.00646698
0.00552158
0.0045854
0.00367774
0.00282486
0.00209732
0.00163895
0.00116638
0.00107846
0.0013541
0.00176815
0.00218947
0.00257928
0.00292971
0.00324195
0.00352014
0.00376953
0.00399574
0.00420441
0.00440098
0.00459058
0.00477791
0.0049672
0.00516213
0.0053658
0.00558069
0.00580866
0.00605095
0.00630827
0.00658084
0.00686857
0.0071711
0.00748786
0.00781783
0.00815931
0.00850996
0.00886803
0.00923509
0.00961898
0.0100334
0.010492
0.0110008
0.0115547
0.0121289
0.0126424
0.0128684
0.0126142
0.011435
0.00902187
0.00503553
0.00120408
0.000908068
0.00144011
0.00189042
0.00227186
0.00254944
0.0026838
0.00266647
0.00250148
0.0022042
0.00182786
0.00149099
0.00145675
0.00185117
0.00248341
0.00312621
0.00353078
0.00358458
0.00643732
0.00420247
0.00652649
0.00395426
0.00247271
0.00217314
0.00242648
0.00875089
0.0107678
0.00952836
0.00873683
0.00910754
0.00968961
0.0102755
0.010814
0.011294
0.0117081
0.0120459
0.0122939
0.0124375
0.0124619
0.01236
0.0121395
0.0118078
0.0113765
0.0108574
0.0102603
0.00959434
0.00886915
0.00809427
0.00727936
0.0064367
0.00558082
0.00473279
0.0039152
0.0031725
0.00255836
0.00215842
0.00203195
0.00205226
0.00226097
0.00258752
0.0029547
0.00331352
0.00364192
0.00393294
0.00418691
0.00440752
0.00460001
0.00477017
0.00492388
0.00506679
0.00520415
0.00534077
0.0054809
0.00562823
0.00578588
0.00595632
0.00614142
0.00634245
0.00656015
0.00679471
0.00704592
0.00731314
0.00759529
0.00789073
0.00819713
0.00851159
0.00883146
0.00915576
0.00948639
0.0098267
0.0101758
0.0105205
0.010829
0.0110604
0.0112845
0.0118374
0.0128363
0.0134969
0.0128099
0.0103986
0.00680257
0.0032069
0.00124219
0.00109687
0.00147446
0.00185373
0.00213323
0.00229276
0.00237049
0.00237063
0.00231632
0.0022476
0.00223411
0.00236076
0.00260566
0.00281146
0.00257338
0.0027119
0.00855063
0.00469654
0.00754561
0.00489945
0.00257549
0.00192373
0.00543931
0.0115325
0.0124193
0.00995325
0.00830782
0.00817182
0.00850408
0.00896449
0.00943936
0.00988711
0.010284
0.0106098
0.0108446
0.0109697
0.0109676
0.0108379
0.0105985
0.0102635
0.00984963
0.00937053
0.00883588
0.00825315
0.00763154
0.00698055
0.00630952
0.00563316
0.00496739
0.00434505
0.00379252
0.00336204
0.00308815
0.00300674
0.00307666
0.0032558
0.00352775
0.00385511
0.00419785
0.00452586
0.00482151
0.00507699
0.00529119
0.00546711
0.00561019
0.00572705
0.00582467
0.00590985
0.00598886
0.00606735
0.00615023
0.00624166
0.00634508
0.0064632
0.00659804
0.00675097
0.00692274
0.00711354
0.00732304
0.00755044
0.00779441
0.00805308
0.00832394
0.00860396
0.00888989
0.00917873
0.00946775
0.00975281
0.0100244
0.0102624
0.0104336
0.0105037
0.0105383
0.0110118
0.0124461
0.0141405
0.0147311
0.0136503
0.0111884
0.00802844
0.00500078
0.00280242
0.00153564
0.00108205
0.00121509
0.0015452
0.00192156
0.00229822
0.00259976
0.00279325
0.00288821
0.00292634
0.00293782
0.00283105
0.00220655
0.00249514
0.0101899
0.00483405
0.00811704
0.00567619
0.00278006
0.00161197
0.00834073
0.0133756
0.0133151
0.0100366
0.00785809
0.0073646
0.00746648
0.00776576
0.00812259
0.00847878
0.0087997
0.00905808
0.00922892
0.00928953
0.00921971
0.00904087
0.00877699
0.00844872
0.00807567
0.00767242
0.00724749
0.00680605
0.00635801
0.00591374
0.00548323
0.00508278
0.00472181
0.00442765
0.00421301
0.00408603
0.00405813
0.00412213
0.00427061
0.00448577
0.00475378
0.00505593
0.00536948
0.00567311
0.00595044
0.00619093
0.00638952
0.0065457
0.00666268
0.00674618
0.00680347
0.0068424
0.00687066
0.00689537
0.0069228
0.00695825
0.00700606
0.00706963
0.00715147
0.00725327
0.00737598
0.00751984
0.0076845
0.00786902
0.00807187
0.00829095
0.00852353
0.00876629
0.00901529
0.00926604
0.00951305
0.0097485
0.00995968
0.0101261
0.0102193
0.0102127
0.0101542
0.0104509
0.0118268
0.0139699
0.0154862
0.0155474
0.014199
0.0118931
0.00917475
0.00658609
0.00443705
0.00268396
0.00116207
0.000269647
0.00113755
0.00196965
0.00264873
0.00311631
0.00335575
0.00339756
0.0032858
0.00297711
0.00210506
0.0023748
0.0113482
0.00439762
0.00822217
0.00612396
0.00253703
0.00362883
0.0101879
0.0145508
0.0138078
0.0099586
0.00740593
0.00663881
0.00652644
0.00663943
0.00683038
0.00703632
0.00722017
0.00735419
0.00741205
0.00736866
0.0072031
0.00698459
0.00672619
0.00645151
0.00617826
0.00591978
0.00568428
0.00547504
0.00529834
0.00516053
0.00506691
0.0050148
0.00500109
0.00501725
0.00505889
0.00512645
0.0052222
0.00535445
0.00552182
0.00572116
0.00594932
0.00619993
0.00646234
0.00672357
0.00697073
0.00719273
0.0073812
0.00753111
0.00764102
0.00771293
0.0077517
0.00776425
0.00775856
0.00774286
0.0077249
0.00771161
0.0077088
0.00772111
0.00775206
0.00780408
0.0078786
0.00797618
0.00809658
0.00823882
0.00840127
0.00858159
0.00877679
0.00898319
0.00919631
0.00941072
0.00961959
0.00981376
0.00998025
0.0101007
0.0101521
0.010116
0.0100239
0.0101637
0.0112547
0.0134139
0.0154846
0.016463
0.0161266
0.0147201
0.0126421
0.010304
0.00802746
0.00595091
0.0040276
0.00218264
0.00110799
0.00164572
0.00252218
0.00321626
0.00361071
0.00370911
0.00354667
0.00311378
0.00209682
0.00226353
0.0122176
0.00379727
0.00828903
0.00611434
0.00128939
0.00480202
0.0112469
0.0153009
0.0141349
0.00985807
0.00698637
0.00597918
0.00566551
0.00558126
0.00557398
0.00558134
0.00557161
0.00552774
0.005432
0.00526112
0.00500543
0.00482051
0.0046732
0.00457683
0.00453426
0.00454856
0.00462525
0.00476045
0.00493378
0.00514249
0.00538686
0.00561469
0.00583661
0.00603707
0.00621427
0.00637566
0.00652591
0.00667222
0.00682067
0.00697641
0.00714342
0.00732306
0.00751309
0.0077081
0.0079006
0.00808215
0.00824438
0.00837999
0.00848365
0.00855275
0.00858772
0.008592
0.00857143
0.00853344
0.00848617
0.00843763
0.00839513
0.00836488
0.0083518
0.00835953
0.00839041
0.00844565
0.00852538
0.00862882
0.00875434
0.00889949
0.00906108
0.00923509
0.00941669
0.00960003
0.00977778
0.00994061
0.0100765
0.0101702
0.0102041
0.0101658
0.0100771
0.0101189
0.0108721
0.0127532
0.0150289
0.0166556
0.0171739
0.0166197
0.0152506
0.0133859
0.0113168
0.00924576
0.00726021
0.00534867
0.00348357
0.00246223
0.00261924
0.00320625
0.00367691
0.00384032
0.00367078
0.00316526
0.00207342
0.00217407
0.0129006
0.00324755
0.00820602
0.00571728
0.000937756
0.00514354
0.0117381
0.0158075
0.0144808
0.00986709
0.00665831
0.00540784
0.00490753
0.00463555
0.00442473
0.00420755
0.0039538
0.00366383
0.00334891
0.00300261
0.00279533
0.00289765
0.00315557
0.00349045
0.00386009
0.00425462
0.00468968
0.0051326
0.00556362
0.00598965
0.00639311
0.00675828
0.00708358
0.00736181
0.00759182
0.00777864
0.00792918
0.00805217
0.00815686
0.00825214
0.00834581
0.0084436
0.00854852
0.00866068
0.00877767
0.00889508
0.00900704
0.00910697
0.0091884
0.00924597
0.00927625
0.00927844
0.00925453
0.00920907
0.00914855
0.00908054
0.00901281
0.00895269
0.00890647
0.00887916
0.00887433
0.00889418
0.00893954
0.00901008
0.00910439
0.0092201
0.00935394
0.00950174
0.00965845
0.00981808
0.00997347
0.0101158
0.0102345
0.0103171
0.0103502
0.0103257
0.0102596
0.0102594
0.0107272
0.012183
0.0143605
0.0163532
0.0175277
0.0177179
0.0170362
0.0157115
0.0139933
0.0120944
0.0101605
0.00826844
0.00643314
0.00463043
0.00359588
0.00345977
0.00369454
0.00382543
0.00364473
0.0030904
0.00196316
0.00213292
0.0134463
0.00283447
0.00799214
0.00537246
0.000869158
0.00490749
0.0118324
0.0162226
0.0150003
0.0100994
0.00651251
0.00498565
0.00430796
0.00388202
0.00351202
0.00311571
0.00264297
0.00207192
0.00141347
0.000617925
0.00136933
0.00236422
0.00323107
0.0039547
0.00460399
0.00521259
0.00579264
0.00634714
0.00687584
0.00737457
0.00783275
0.00823905
0.008588
0.00887558
0.0091014
0.00926945
0.00938688
0.00946295
0.00950807
0.00953276
0.00954673
0.00955812
0.00957293
0.00959476
0.00962491
0.00966255
0.00970496
0.00974787
0.00978597
0.00981361
0.00982568
0.00981846
0.00979039
0.00974244
0.00967804
0.00960265
0.00952301
0.00944634
0.00937955
0.00932867
0.00929844
0.00929215
0.00931157
0.00935704
0.00942762
0.00952119
0.00963462
0.00976379
0.00990364
0.0100482
0.0101906
0.0103228
0.0104357
0.0105192
0.0105633
0.0105623
0.0105275
0.0105239
0.0107975
0.0118189
0.0136803
0.0157629
0.0173705
0.0181586
0.0180912
0.0173008
0.0159857
0.0143465
0.0125496
0.0107124
0.00890413
0.00713837
0.00541847
0.0043486
0.00394692
0.00380063
0.00351726
0.00289339
0.00173808
0.00218909
0.013891
0.0025547
0.00767355
0.00527493
0.0012445
0.00453948
0.0115648
0.016246
0.0156099
0.0110739
0.00673491
0.00475536
0.0039167
0.00340642
0.00299174
0.00258976
0.00217538
0.00177408
0.00128497
0.00184298
0.00275781
0.00373234
0.00461821
0.00540353
0.00611467
0.00677363
0.00739307
0.00797661
0.00852342
0.00902866
0.00948384
0.00987988
0.0102102
0.0104709
0.0106618
0.0107864
0.0108517
0.0108672
0.0108437
0.0107927
0.0107248
0.0106494
0.0105744
0.0105052
0.0104455
0.010397
0.0103597
0.0103316
0.0103097
0.0102895
0.0102662
0.0102351
0.0101927
0.0101372
0.010069
0.00999069
0.00990694
0.0098236
0.00974711
0.00968368
0.00963869
0.00961629
0.00961914
0.0096484
0.00970372
0.00978342
0.00988462
0.0100034
0.0101349
0.0102733
0.0104122
0.0105442
0.0106611
0.0107546
0.0108168
0.0108435
0.010842
0.0108531
0.0110174
0.0116856
0.0131295
0.0150677
0.0168787
0.0180941
0.018535
0.0182311
0.0173211
0.0159809
0.0143782
0.0126481
0.0108849
0.00914493
0.00743784
0.00580022
0.00467672
0.00400331
0.00343685
0.00265921
0.00146373
0.00240424
0.0142694
0.00236487
0.00728648
0.00529613
0.00184657
0.00386644
0.0108779
0.0158719
0.0160471
0.0124149
0.00812614
0.00523565
0.00384136
0.00323029
0.00289247
0.00269819
0.00265768
0.00271598
0.00304553
0.00380099
0.00466421
0.00556375
0.00641945
0.00720039
0.0079133
0.00857233
0.00918723
0.00976127
0.0102926
0.0107755
0.0112019
0.0115634
0.0118534
0.0120682
0.0122076
0.0122752
0.0122781
0.012226
0.01213
0.0120019
0.0118531
0.0116938
0.0115325
0.011376
0.0112291
0.0110952
0.010976
0.0108715
0.0107806
0.0107007
0.0106282
0.0105591
0.0104893
0.0104158
0.0103369
0.0102529
0.010166
0.0100801
0.0100004
0.00993235
0.00988126
0.00985163
0.0098467
0.00986827
0.00991668
0.00999077
0.010088
0.0102048
0.0103364
0.0104773
0.0106213
0.0107616
0.0108907
0.0110008
0.0110849
0.011139
0.0111674
0.0111969
0.0113076
0.0117308
0.012767
0.0144068
0.0162113
0.0176743
0.0184971
0.0186054
0.0180714
0.0170374
0.0156611
0.0140825
0.0124083
0.0107116
0.00903849
0.0074049
0.00584053
0.00462248
0.003639
0.00260167
0.00142708
0.00284389
0.01462
0.00228417
0.00676
0.00530403
0.00286693
0.0028373
0.00978636
0.0150834
0.0161663
0.0137193
0.010135
0.00699105
0.00488205
0.0037954
0.00337997
0.00334999
0.00357483
0.00391483
0.00468778
0.00560503
0.00656505
0.00749096
0.00834443
0.00911619
0.00981501
0.0104542
0.0110436
0.0115868
0.0120822
0.0125241
0.0129045
0.0132157
0.0134514
0.013608
0.0136859
0.0136889
0.0136242
0.0135016
0.0133327
0.0131293
0.0129033
0.0126651
0.0124237
0.0121863
0.0119586
0.0117446
0.0115469
0.0113671
0.0112053
0.0110608
0.0109315
0.0108145
0.0107066
0.0106044
0.0105055
0.0104088
0.0103147
0.0102251
0.0101436
0.0100745
0.0100225
0.00999173
0.00998572
0.0100066
0.0100553
0.010131
0.0102317
0.0103541
0.0104935
0.0106447
0.0108016
0.0109572
0.0111043
0.0112347
0.0113411
0.0114185
0.011469
0.011511
0.011594
0.0118613
0.0125658
0.0138498
0.0154896
0.0170319
0.0181031
0.0185338
0.018327
0.0175852
0.0164482
0.0150521
0.013508
0.0118971
0.0102769
0.0086894
0.00715942
0.0056828
0.00433322
0.00304878
0.00202825
0.00356662
0.0149917
0.00231274
0.0059892
0.00525335
0.00409907
0.00162292
0.0083404
0.013851
0.0158225
0.0146487
0.012113
0.00946785
0.00731451
0.00586955
0.00511912
0.00493129
0.00511436
0.0057485
0.00665871
0.00765791
0.00864712
0.00956534
0.0103899
0.0111226
0.0117765
0.0123667
0.012904
0.0133928
0.0138313
0.0142139
0.0145329
0.0147806
0.0149509
0.0150408
0.0150508
0.0149851
0.0148509
0.0146584
0.0144189
0.0141446
0.0138472
0.0135373
0.0132239
0.0129143
0.0126144
0.0123283
0.0120593
0.0118096
0.0115803
0.0113719
0.0111838
0.0110144
0.0108617
0.010723
0.0105959
0.0104787
0.0103709
0.0102732
0.0101876
0.0101172
0.0100655
0.0100365
0.0100333
0.0100582
0.0101123
0.0101953
0.0103053
0.0104393
0.010593
0.0107608
0.0109365
0.0111125
0.0112806
0.0114315
0.011556
0.0116481
0.0117081
0.0117499
0.01181
0.011975
0.0124358
0.0133853
0.0147747
0.0162636
0.0174594
0.0181197
0.0181815
0.0177045
0.0168056
0.0156109
0.0142296
0.0127447
0.0112172
0.00969263
0.00820214
0.00674686
0.00531237
0.00395737
0.00313827
0.00459333
0.0154419
0.00247744
0.00498827
0.00512549
0.0048359
0.00284222
0.00626657
0.0120756
0.0149071
0.0149649
0.0135971
0.0118174
0.0101698
0.00890741
0.00812077
0.00780553
0.00787337
0.00847607
0.00928706
0.0101768
0.0110493
0.0118505
0.0125626
0.0131906
0.0137483
0.0142497
0.014704
0.0151138
0.015476
0.0157838
0.0160289
0.0162033
0.0163011
0.0163193
0.0162587
0.0161236
0.0159215
0.0156623
0.0153575
0.0150191
0.0146583
0.0142857
0.0139101
0.0135385
0.0131766
0.0128285
0.0124975
0.0121859
0.0118957
0.011628
0.0113834
0.0111615
0.0109615
0.0107818
0.0106207
0.0104769
0.0103494
0.0102378
0.0101435
0.0100687
0.010016
0.00998856
0.00998921
0.0100202
0.0100826
0.0101764
0.0102998
0.0104497
0.0106218
0.0108106
0.0110087
0.0112072
0.0113953
0.0115611
0.0116932
0.0117843
0.0118349
0.0118578
0.0118856
0.0119705
0.0122556
0.0129312
0.0140564
0.0154142
0.0166398
0.0174474
0.0177192
0.0174742
0.0168038
0.0158202
0.014626
0.0133025
0.0119106
0.0104948
0.00908266
0.00768309
0.00631534
0.00509974
0.00451384
0.00588526
0.0160217
0.00298593
0.00395934
0.00497828
0.005704
0.00589871
0.00443007
0.0100946
0.0135172
0.0146044
0.0143616
0.013549
0.012625
0.011845
0.0113377
0.0111421
0.0113166
0.0117362
0.0123132
0.0129572
0.0135947
0.0141838
0.0147116
0.015182
0.0156054
0.015991
0.016343
0.01666
0.0169358
0.0171616
0.0173278
0.0174259
0.0174497
0.0173965
0.0172671
0.017066
0.0168009
0.0164817
0.0161196
0.0157261
0.0153122
0.0148878
0.0144612
0.0140391
0.0136267
0.0132278
0.0128454
0.0124818
0.0121392
0.0118189
0.0115222
0.0112498
0.0110019
0.0107788
0.0105804
0.0104056
0.0102538
0.0101245
0.0100173
0.00993412
0.00987734
0.00984944
0.00985292
0.00988984
0.00996133
0.0100672
0.0102057
0.0103736
0.0105665
0.0107779
0.0109988
0.0112167
0.0114163
0.0115816
0.0116993
0.0117629
0.0117758
0.0117546
0.0117318
0.0117372
0.0118871
0.0123578
0.0132606
0.0144733
0.0156787
0.0165759
0.0170097
0.0169654
0.0165107
0.015742
0.0147527
0.01362
0.012403
0.0111443
0.00987046
0.00859945
0.00737973
0.00637564
0.00603138
0.00737666
0.0167631
0.00394687
0.00309952
0.00472605
0.00612477
0.00671043
0.00458898
0.00698012
0.0112829
0.0133904
0.0142382
0.0143923
0.014243
0.0140393
0.0139264
0.0139712
0.0142189
0.0145653
0.0149802
0.0154157
0.015833
0.0162151
0.0165606
0.0168761
0.017169
0.0174434
0.0176982
0.0179277
0.0181226
0.0182718
0.0183646
0.0183919
0.0183474
0.0182288
0.0180372
0.0177777
0.0174581
0.0170883
0.0166793
0.016242
0.0157869
0.0153232
0.0148584
0.0143986
0.0139482
0.0135107
0.0130884
0.0126835
0.0122971
0.0119308
0.0115861
0.0112655
0.0109721
0.0107069
0.0104704
0.0102623
0.0100821
0.00993064
0.00980718
0.00971204
0.00964767
0.00961638
0.00962037
0.00966155
0.00974099
0.00985845
0.0100121
0.0101984
0.0104121
0.0106448
0.0108827
0.011107
0.0112946
0.0114254
0.0114871
0.0114793
0.0114129
0.0113146
0.0112138
0.0111239
0.0111625
0.0115039
0.012273
0.013392
0.0145808
0.0155432
0.0161082
0.0162405
0.015989
0.0154359
0.0146644
0.0137457
0.0127348
0.01167
0.0105761
0.00948051
0.00846137
0.00771407
0.00762557
0.00900334
0.0176764
0.00516737
0.00253088
0.00428733
0.0061899
0.00731448
0.00719359
0.00388688
0.00855908
0.0115229
0.0132942
0.0143067
0.0148736
0.0152273
0.0155157
0.0158229
0.0161723
0.0165107
0.0168368
0.0171375
0.0174056
0.0176451
0.017865
0.0180739
0.018277
0.0184744
0.0186611
0.0188277
0.0189626
0.0190531
0.0190876
0.0190569
0.0189555
0.0187819
0.0185384
0.0182309
0.0178677
0.0174589
0.0170152
0.0165471
0.0160641
0.0155747
0.0150854
0.0146014
0.0141265
0.0136632
0.0132131
0.0127764
0.0123531
0.0119456
0.0115589
0.011197
0.0108627
0.0105579
0.0102839
0.0100413
0.0098307
0.00965175
0.00950861
0.00939705
0.00932065
0.00928206
0.00928342
0.00932644
0.00941208
0.00954003
0.00970794
0.00991158
0.0101437
0.0103899
0.0106265
0.010822
0.0109455
0.0109761
0.0109069
0.0107541
0.010548
0.0103282
0.0100851
0.00987731
0.00986127
0.0102054
0.0109948
0.0121315
0.0133519
0.0143835
0.0150648
0.0153569
0.0152984
0.0149598
0.014415
0.0137271
0.0129434
0.0120949
0.0112045
0.0103143
0.00953413
0.00907498
0.00925312
0.0107078
0.0187504
0.00640633
0.00214349
0.00358195
0.00605025
0.00747974
0.00743313
0.00439349
0.00498838
0.0089015
0.0115254
0.0132788
0.014462
0.0153041
0.0159568
0.0165144
0.0169704
0.0173425
0.0176489
0.0179017
0.0181149
0.0183037
0.0184816
0.0186572
0.0188335
0.0190077
0.0191715
0.0193132
0.019419
0.0194754
0.019471
0.019398
0.0192527
0.0190358
0.0187516
0.0184075
0.0180125
0.0175771
0.0171116
0.016626
0.016129
0.0156279
0.0151283
0.0146343
0.0141486
0.0136725
0.0132041
0.0127413
0.0122884
0.0118502
0.011431
0.0110345
0.0106641
0.0103229
0.0100131
0.00973638
0.00949389
0.00928642
0.00911481
0.00898418
0.00889172
0.00884179
0.00883709
0.00887949
0.00896981
0.0091073
0.0092879
0.00950529
0.00974641
0.00998201
0.0101702
0.0102613
0.0102145
0.0100251
0.00970534
0.00928583
0.00883916
0.00839701
0.00790202
0.00768554
0.00786582
0.00846678
0.00946939
0.0107392
0.0120403
0.0131486
0.0139356
0.0143738
0.0144991
0.0143733
0.0140599
0.0136108
0.0130614
0.0124338
0.011755
0.0110898
0.0105785
0.0104288
0.0108765
0.0124362
0.0199542
0.00738161
0.00180899
0.00300163
0.00616167
0.00764405
0.00756271
0.00543696
0.00327321
0.00565588
0.00887934
0.0112399
0.0129382
0.0141953
0.0151727
0.0159216
0.0165127
0.016978
0.0173501
0.0176576
0.0179223
0.0181629
0.0183926
0.0186187
0.0188412
0.0190539
0.0192452
0.0194007
0.0195061
0.0195487
0.0195201
0.019416
0.0192365
0.0189857
0.0186705
0.0182999
0.0178842
0.0174338
0.0169588
0.0164686
0.0159709
0.0154718
0.0149758
0.0144858
0.0140029
0.0135233
0.0130424
0.0125655
0.0120963
0.0116382
0.011195
0.0107707
0.0103698
0.0099961
0.00965303
0.00934322
0.00906873
0.00883146
0.00863229
0.00847942
0.00836673
0.00830113
0.0082869
0.00832605
0.00841888
0.00856381
0.00875175
0.0089717
0.00919463
0.00935943
0.00939072
0.00923427
0.00884094
0.00821787
0.0074452
0.00657773
0.00560194
0.00481348
0.00468316
0.00500736
0.00566916
0.00666487
0.00794235
0.00936431
0.0107419
0.0119115
0.0127867
0.0133563
0.0136557
0.0137375
0.013651
0.013432
0.0131021
0.0126812
0.0122122
0.0117901
0.0115757
0.0117475
0.0124567
0.0141351
0.0212408
0.00802127
0.00172516
0.00335409
0.00653564
0.00785618
0.00773218
0.00637028
0.00468853
0.00438988
0.00611018
0.00841348
0.0103871
0.0119419
0.0131294
0.0140842
0.0148678
0.0155131
0.0160588
0.0165339
0.0169617
0.0173591
0.017736
0.0180946
0.0184293
0.0187289
0.0189792
0.0191666
0.01928
0.0193122
0.0192609
0.0191276
0.0189175
0.0186384
0.0182996
0.0179115
0.0174846
0.0170294
0.0165555
0.0160716
0.0155847
0.0150997
0.0146198
0.0141469
0.0136775
0.0131997
0.0127222
0.0122459
0.0117727
0.0113052
0.0108471
0.0104028
0.00997738
0.00957583
0.00920252
0.00886115
0.0085548
0.00828623
0.00805806
0.00787263
0.0077417
0.00765959
0.00763364
0.00766722
0.00776009
0.00791011
0.00809236
0.00828925
0.00841995
0.00838913
0.00805782
0.00737822
0.00637573
0.00502451
0.00317778
0.00186107
0.00141771
0.00153815
0.00214409
0.00293732
0.00396726
0.00523244
0.00666816
0.00815499
0.00955212
0.0107476
0.0116877
0.012372
0.0128306
0.013101
0.0132139
0.0131884
0.0130411
0.0128047
0.0125506
0.0123998
0.012508
0.0130005
0.013951
0.0157513
0.0225537
0.00792272
0.00169947
0.00400775
0.00688512
0.00802886
0.00789963
0.00685808
0.00546688
0.00458164
0.00479417
0.00588074
0.00732421
0.00878105
0.0101382
0.0113513
0.0124166
0.0133532
0.0141868
0.0149411
0.0156324
0.0162695
0.0168532
0.0173783
0.0178351
0.0182132
0.0185032
0.0186992
0.0187989
0.018804
0.0187197
0.0185534
0.0183142
0.0180119
0.0176569
0.0172595
0.0168297
0.0163775
0.0159123
0.0154421
0.0149737
0.0145116
0.014058
0.0136141
0.0131566
0.0127001
0.0122422
0.0117811
0.011317
0.0108516
0.0103885
0.00993249
0.00948943
0.00906517
0.00866518
0.00829423
0.00795648
0.0076558
0.00739639
0.00718111
0.0070247
0.00692038
0.00687846
0.00690371
0.00699388
0.00714835
0.00728696
0.00741143
0.00726434
0.00677817
0.00577414
0.00406619
0.00103875
0.000690248
0.000995966
0.000946666
0.000847279
0.000830597
0.00113535
0.00191329
0.00299137
0.00429429
0.00572396
0.00717209
0.00852956
0.00971614
0.0106952
0.0114662
0.0120463
0.0124547
0.0127068
0.0128183
0.0128188
0.0127667
0.0127575
0.0129148
0.01336
0.0141542
0.0153148
0.0172349
0.0238354
0.00700529
0.00195428
0.00488807
0.00713698
0.00790306
0.00767843
0.00679903
0.00560509
0.0045964
0.00419245
0.00453859
0.00542614
0.00659777
0.0078852
0.00918503
0.0104387
0.0116185
0.0127131
0.0137177
0.0146286
0.0154412
0.0161504
0.0167511
0.0172397
0.0176143
0.0178764
0.0180302
0.0180823
0.0180414
0.0179172
0.0177197
0.0174583
0.0171425
0.016781
0.0163826
0.0159563
0.0155114
0.0150572
0.0146026
0.0141548
0.0137182
0.0132973
0.0128736
0.0124532
0.0120342
0.0116101
0.0111777
0.0107353
0.0102838
0.00982614
0.00936752
0.00891425
0.00847307
0.00805045
0.00765217
0.00728341
0.00694912
0.00665476
0.00640592
0.00621092
0.00608515
0.00602443
0.00603738
0.00611881
0.00627735
0.00625714
0.00620347
0.00540018
0.00397095
0.000733353
0.00184323
0.0022131
0.00205851
0.0017858
0.00162289
0.00162074
0.00164124
0.00125405
0.00154578
0.00251859
0.00373526
0.0050633
0.00640862
0.00768132
0.00881832
0.00978894
0.0105865
0.0112164
0.0116894
0.0120214
0.0122415
0.0123996
0.0125716
0.012854
0.0133452
0.0141167
0.0151745
0.0165079
0.0185453
0.0250355
0.00542092
0.00292898
0.00548348
0.00693216
0.00728026
0.00699026
0.00630859
0.0054099
0.00459485
0.00415086
0.00428568
0.00497318
0.00603089
0.00728552
0.00860821
0.00991397
0.0111517
0.0122926
0.0133207
0.014227
0.0150071
0.0156594
0.0161853
0.0165887
0.0168757
0.0170548
0.0171356
0.0171287
0.0170442
0.0168915
0.0166786
0.0164121
0.0160976
0.0157409
0.0153481
0.0149272
0.0144874
0.0140394
0.013594
0.013161
0.0127476
0.0123603
0.0119665
0.0115889
0.0112156
0.0108371
0.0104465
0.0100394
0.00961454
0.00917397
0.00872267
0.00826744
0.0078158
0.00737508
0.00695194
0.00655237
0.00618223
0.0058482
0.00555879
0.0053213
0.00516299
0.00507481
0.00506865
0.00512537
0.00524086
0.00471325
0.00438953
0.000995504
0.00284128
0.00327063
0.0032133
0.00292266
0.0026247
0.00247337
0.00238523
0.0022113
0.00185274
0.00124501
0.000495101
0.00180844
0.00310331
0.00438023
0.00563563
0.00680973
0.00786357
0.00877717
0.00954569
0.0101764
0.010686
0.0111021
0.0114661
0.0118362
0.0122846
0.012887
0.0137041
0.0147618
0.0160321
0.0175004
0.0196561
0.0261169
0.00360571
0.0035074
0.00532953
0.00611806
0.00623132
0.00607216
0.00574137
0.00528749
0.00489836
0.00478728
0.0051335
0.00588536
0.00688964
0.0080278
0.00920466
0.010351
0.0114218
0.0123908
0.0132442
0.0139761
0.014586
0.0150769
0.015455
0.0157284
0.0159071
0.0160018
0.0160231
0.0159803
0.0158806
0.0157288
0.0155272
0.0152769
0.0149783
0.0146333
0.0142461
0.0138243
0.0133787
0.0129227
0.0124712
0.0120376
0.0116372
0.0112528
0.0109024
0.0105777
0.010263
0.0099447
0.00961102
0.00925353
0.0088684
0.00845656
0.00802275
0.00757416
0.00711896
0.00666517
0.00621998
0.00578971
0.00538053
0.00499972
0.00465762
0.0043667
0.00415249
0.00403258
0.00398463
0.00397102
0.00387294
0.000748783
0.00346633
0.0040332
0.00444139
0.00430826
0.00397217
0.00370989
0.00359729
0.00355417
0.00346621
0.00325682
0.00286941
0.00224846
0.00136908
0.000289181
0.00184086
0.00328032
0.00453599
0.00565515
0.00664571
0.00751021
0.00825929
0.00891393
0.00950191
0.0100574
0.0106227
0.011249
0.0119913
0.0128978
0.0139952
0.015279
0.0167062
0.0182764
0.0205568
0.0270586
0.00174804
0.00350957
0.00453611
0.00494524
0.00515357
0.00533657
0.00542306
0.00543504
0.00550312
0.00580608
0.0064111
0.00721133
0.00811184
0.00905576
0.00999209
0.010879
0.0116875
0.0124006
0.013011
0.013518
0.0139254
0.0142408
0.0144735
0.0146346
0.0147347
0.0147836
0.0147885
0.0147535
0.0146786
0.0145607
0.0143945
0.0141741
0.0138953
0.0135573
0.0131638
0.0127241
0.0122522
0.0117666
0.0112875
0.0108353
0.0104328
0.0100553
0.00973902
0.00946581
0.00921618
0.00896973
0.00870695
0.00841325
0.00808109
0.00770976
0.00730376
0.00687074
0.00641953
0.00595864
0.00549532
0.00503547
0.00458423
0.00414769
0.00373572
0.00336669
0.00307074
0.00291189
0.00269614
0.0022253
0.00276089
0.00424444
0.0054024
0.00560899
0.00552476
0.00522096
0.00500222
0.00496162
0.00500741
0.00503924
0.00498553
0.00479628
0.00442928
0.00385152
0.00306439
0.00215398
0.00138743
0.00205226
0.00329537
0.00440435
0.00535069
0.00618499
0.00694193
0.00765547
0.0083596
0.00908638
0.00986909
0.0107445
0.0117473
0.0129012
0.0142108
0.0156537
0.017187
0.0188347
0.0212526
0.027855
0.00171581
0.00280056
0.00348661
0.00397909
0.00450236
0.00501103
0.00543479
0.00581186
0.00627279
0.00689599
0.00764144
0.00842436
0.00919598
0.00992962
0.0106045
0.0112058
0.0117251
0.0121608
0.0125161
0.0127984
0.0130177
0.0131854
0.0133133
0.0134119
0.0134889
0.0135482
0.0135888
0.0136049
0.0135865
0.0135212
0.013396
0.0131999
0.012926
0.0125736
0.0121486
0.0116643
0.0111398
0.0105995
0.0100705
0.00958406
0.00915792
0.00878882
0.00850791
0.00829459
0.00812357
0.00796438
0.00778765
0.00757148
0.00730429
0.00698397
0.0066152
0.00620649
0.0057676
0.0053075
0.0048332
0.0043492
0.00385794
0.00336113
0.00286206
0.00236975
0.00190047
0.00145508
0.000444854
0.00371855
0.00546717
0.00645316
0.00689635
0.00681121
0.00658471
0.00640263
0.00640294
0.00651558
0.00664178
0.00671842
0.00670208
0.00655444
0.00623927
0.00572923
0.00502429
0.00417849
0.00332161
0.00272496
0.00297308
0.00364858
0.00440991
0.00516449
0.00590954
0.00666439
0.00746502
0.00833747
0.00929788
0.0103674
0.011562
0.0128876
0.0143356
0.015876
0.0174753
0.0191871
0.0217608
0.028513
0.0020752
0.00260805
0.00300255
0.00358494
0.00428154
0.00499327
0.00566009
0.00634183
0.00709492
0.00790964
0.00871397
0.00944483
0.0100694
0.0105785
0.0109781
0.0112818
0.0115062
0.0116688
0.0117868
0.0118772
0.0119555
0.0120348
0.0121243
0.0122285
0.0123456
0.0124677
0.0125814
0.0126692
0.0127114
0.012688
0.0125817
0.0123796
0.012076
0.0116732
0.0111822
0.0106221
0.0100185
0.00940239
0.008808
0.0082802
0.00780051
0.00745341
0.00722993
0.00710569
0.00704301
0.00699622
0.00692415
0.00679844
0.00660534
0.00634323
0.00601859
0.00564196
0.00522479
0.00477709
0.00430593
0.00381469
0.00330303
0.00276818
0.00220393
0.00159997
0.00100482
0.00206711
0.00448796
0.00645673
0.00759967
0.00810617
0.00816287
0.00797458
0.00782478
0.00782975
0.0079645
0.00814822
0.00831582
0.00843013
0.00845672
0.00835907
0.0081007
0.00765193
0.00700229
0.00618095
0.00527072
0.00440547
0.0039311
0.00396217
0.0042788
0.00475692
0.00534908
0.00605327
0.00687929
0.00783484
0.00890983
0.0101004
0.0114115
0.0128331
0.0143555
0.0159428
0.0175819
0.0193556
0.0221074
0.0290479
0.00213669
0.00247563
0.00283821
0.00349462
0.0043049
0.00515863
0.00602564
0.00694144
0.00788746
0.0088082
0.00962182
0.0102665
0.0107156
0.0109789
0.011092
0.0111002
0.0110478
0.0109733
0.0109078
0.0108754
0.0108917
0.0109641
0.0110911
0.0112631
0.0114631
0.0116693
0.0118564
0.0119982
0.0120692
0.0120468
0.0119131
0.0116569
0.0112764
0.0107799
0.0101853
0.00951895
0.00881427
0.00811042
0.00745361
0.00689702
0.00640541
0.00610317
0.0059776
0.00598927
0.00607494
0.00616689
0.00621261
0.00618148
0.00606235
0.00585792
0.00557898
0.00523977
0.00485459
0.00443577
0.00399239
0.00352998
0.00305125
0.00256174
0.00209268
0.00191165
0.00316444
0.00536596
0.00732779
0.00866163
0.00931828
0.00947483
0.00935408
0.00919797
0.00917892
0.00930574
0.00949935
0.00971419
0.00991127
0.0100612
0.0101318
0.0100858
0.00988403
0.00949039
0.00888156
0.00806179
0.0070837
0.00606508
0.00518315
0.00477708
0.00471203
0.00488717
0.0052648