/*--------------------------------*- C++ -*----------------------------------*\
| =========                 |                                                 |
| \\      /  F ield         | OpenFOAM: The Open Source CFD Toolbox           |
|  \\    /   O peration     | Version:  4.1                                   |
|   \\  /    A nd           | Web:      www.OpenFOAM.org                      |
|    \\/     M anipulation  |                                                 |
\*---------------------------------------------------------------------------*/
FoamFile
{
    version     2.0;
    format      ascii;
    class       volScalarField;
    location    "1880";
    object      p;
}
// * * * * * * * * * * * * * * * * * * * * * * * * * * * * * * * * * * * * * //

dimensions      [0 2 -2 0 0 0 0];

internalField   nonuniform List<scalar> 
5000
(
0
1.13122e-05
4.3828e-06
-3.78806e-06
-9.64713e-06
-1.25401e-05
-1.2736e-05
-1.53101e-05
-2.50654e-05
-3.72332e-05
-4.61028e-05
-5.33638e-05
-5.97661e-05
-6.55659e-05
-7.07633e-05
-7.52136e-05
-7.86943e-05
-8.09544e-05
-8.17414e-05
-8.08236e-05
-7.80286e-05
-7.32866e-05
-6.66765e-05
-5.8387e-05
-4.86706e-05
-3.78162e-05
-2.61342e-05
-1.39456e-05
-1.57153e-06
1.06746e-05
2.25003e-05
3.36531e-05
4.39336e-05
5.32085e-05
6.14294e-05
6.86478e-05
7.49093e-05
7.98976e-05
8.29112e-05
8.50295e-05
8.6643e-05
8.76648e-05
8.82324e-05
8.84755e-05
8.84879e-05
8.83462e-05
8.81159e-05
8.78505e-05
8.75921e-05
8.73715e-05
8.72094e-05
8.71172e-05
8.70981e-05
8.71482e-05
8.72569e-05
8.74085e-05
8.75823e-05
8.77539e-05
8.78956e-05
8.79774e-05
8.7968e-05
8.78366e-05
8.75542e-05
8.70961e-05
8.64408e-05
8.55656e-05
8.44373e-05
8.3002e-05
8.11894e-05
7.89382e-05
7.62191e-05
7.29782e-05
6.89201e-05
6.32141e-05
5.46614e-05
4.33617e-05
3.26627e-05
2.79669e-05
2.73173e-05
2.18178e-05
1.30033e-05
8.71388e-06
6.41207e-06
4.31666e-06
2.35707e-06
7.23553e-07
-1.91601e-07
-1.01178e-07
1.27983e-06
3.91151e-06
7.4195e-06
1.12041e-05
1.48682e-05
1.81704e-05
2.03637e-05
2.07971e-05
1.88703e-05
1.42469e-05
8.75653e-06
1.03191e-05
-0.0984039
-0.0983986
-0.0983997
-0.098404
-0.098406
-0.0984054
-0.0984022
-0.0983939
-0.0984007
-0.0984134
-0.0984242
-0.0984338
-0.0984424
-0.0984503
-0.0984575
-0.0984638
-0.098469
-0.0984729
-0.0984751
-0.0984754
-0.0984737
-0.0984697
-0.0984637
-0.0984559
-0.0984466
-0.098436
-0.0984245
-0.0984124
-0.0984
-0.0983876
-0.0983755
-0.098364
-0.0983533
-0.0983436
-0.098335
-0.0983276
-0.0983213
-0.098316
-0.0983111
-0.0983071
-0.098304
-0.0983017
-0.0983
-0.0982988
-0.098298
-0.0982974
-0.098297
-0.0982967
-0.0982965
-0.0982963
-0.0982962
-0.098296
-0.0982959
-0.0982956
-0.0982954
-0.0982951
-0.0982948
-0.0982944
-0.0982941
-0.0982938
-0.0982936
-0.0982934
-0.0982933
-0.0982933
-0.0982935
-0.0982938
-0.0982944
-0.0982952
-0.0982962
-0.0982975
-0.0982991
-0.0983013
-0.0983043
-0.0983083
-0.0983134
-0.0983192
-0.0983247
-0.0983285
-0.0983367
-0.0983538
-0.098368
-0.098376
-0.0983812
-0.098385
-0.0983887
-0.0983921
-0.0983946
-0.0983958
-0.0983955
-0.0983934
-0.0983901
-0.098386
-0.0983818
-0.0983778
-0.0983747
-0.098373
-0.098373
-0.0983745
-0.098376
-0.0983697
-0.196813
-0.19681
-0.196808
-0.196812
-0.196813
-0.196813
-0.196806
-0.196801
-0.196809
-0.196821
-0.196832
-0.196843
-0.196853
-0.196862
-0.19687
-0.196877
-0.196883
-0.196888
-0.196891
-0.196891
-0.19689
-0.196886
-0.19688
-0.196872
-0.196863
-0.196852
-0.19684
-0.196828
-0.196816
-0.196803
-0.196791
-0.19678
-0.196769
-0.196759
-0.19675
-0.196743
-0.196736
-0.196731
-0.196726
-0.196721
-0.196718
-0.196716
-0.196714
-0.196713
-0.196712
-0.196711
-0.196711
-0.196711
-0.19671
-0.19671
-0.19671
-0.19671
-0.19671
-0.19671
-0.196709
-0.196709
-0.196709
-0.196709
-0.196708
-0.196708
-0.196708
-0.196708
-0.196707
-0.196708
-0.196708
-0.196708
-0.196709
-0.196709
-0.19671
-0.196711
-0.196713
-0.196715
-0.196717
-0.19672
-0.196722
-0.196725
-0.196725
-0.196726
-0.196732
-0.196748
-0.196766
-0.19678
-0.196787
-0.196793
-0.196798
-0.196802
-0.196806
-0.196808
-0.196808
-0.196806
-0.196803
-0.196798
-0.196794
-0.196789
-0.196786
-0.196783
-0.196783
-0.196783
-0.196783
-0.196776
-0.29522
-0.295219
-0.295216
-0.295219
-0.29522
-0.295221
-0.295215
-0.295217
-0.295226
-0.295238
-0.295248
-0.295258
-0.295267
-0.295276
-0.295285
-0.295292
-0.295299
-0.295304
-0.295307
-0.295308
-0.295306
-0.295302
-0.295296
-0.295288
-0.295278
-0.295268
-0.295257
-0.295245
-0.295232
-0.29522
-0.295208
-0.295196
-0.295185
-0.295175
-0.295166
-0.295158
-0.295151
-0.295145
-0.29514
-0.295136
-0.295133
-0.295131
-0.295129
-0.295127
-0.295126
-0.295126
-0.295125
-0.295125
-0.295125
-0.295125
-0.295125
-0.295125
-0.295124
-0.295124
-0.295124
-0.295124
-0.295124
-0.295123
-0.295123
-0.295123
-0.295123
-0.295122
-0.295122
-0.295122
-0.295123
-0.295123
-0.295123
-0.295124
-0.295125
-0.295126
-0.295128
-0.295129
-0.295131
-0.295132
-0.295134
-0.295134
-0.295134
-0.295133
-0.295137
-0.29515
-0.295167
-0.295183
-0.295194
-0.295201
-0.295207
-0.295212
-0.295217
-0.29522
-0.29522
-0.295219
-0.295215
-0.295211
-0.295205
-0.2952
-0.295196
-0.295193
-0.295191
-0.295191
-0.29519
-0.295185
-0.393622
-0.393625
-0.393622
-0.393625
-0.393627
-0.393627
-0.393626
-0.393634
-0.393645
-0.393655
-0.393665
-0.393674
-0.393683
-0.393691
-0.3937
-0.393707
-0.393714
-0.393719
-0.393722
-0.393723
-0.393721
-0.393717
-0.393711
-0.393703
-0.393693
-0.393683
-0.393672
-0.39366
-0.393648
-0.393636
-0.393624
-0.393612
-0.393601
-0.393591
-0.393582
-0.393574
-0.393567
-0.393561
-0.393555
-0.393551
-0.393548
-0.393545
-0.393544
-0.393542
-0.393541
-0.393541
-0.39354
-0.39354
-0.39354
-0.393539
-0.393539
-0.393539
-0.393539
-0.393539
-0.393539
-0.393538
-0.393538
-0.393538
-0.393538
-0.393537
-0.393537
-0.393537
-0.393537
-0.393537
-0.393537
-0.393538
-0.393538
-0.393539
-0.39354
-0.393541
-0.393542
-0.393544
-0.393545
-0.393546
-0.393546
-0.393546
-0.393545
-0.393544
-0.393546
-0.393555
-0.39357
-0.393586
-0.393599
-0.393609
-0.393617
-0.393623
-0.393628
-0.393631
-0.393632
-0.393631
-0.393627
-0.393622
-0.393616
-0.39361
-0.393605
-0.393601
-0.393599
-0.393597
-0.393597
-0.393593
-0.49202
-0.492025
-0.492025
-0.492029
-0.492031
-0.492031
-0.492036
-0.492049
-0.492062
-0.492072
-0.492081
-0.492089
-0.492097
-0.492106
-0.492114
-0.492121
-0.492128
-0.492134
-0.492137
-0.492137
-0.492135
-0.49213
-0.492124
-0.492116
-0.492107
-0.492097
-0.492086
-0.492075
-0.492063
-0.492051
-0.492039
-0.492027
-0.492017
-0.492006
-0.491997
-0.491989
-0.491982
-0.491976
-0.491971
-0.491967
-0.491963
-0.491961
-0.491959
-0.491957
-0.491956
-0.491956
-0.491955
-0.491955
-0.491955
-0.491954
-0.491954
-0.491954
-0.491954
-0.491954
-0.491953
-0.491953
-0.491953
-0.491953
-0.491952
-0.491952
-0.491952
-0.491952
-0.491952
-0.491952
-0.491952
-0.491953
-0.491953
-0.491954
-0.491955
-0.491956
-0.491957
-0.491958
-0.491959
-0.49196
-0.49196
-0.49196
-0.491958
-0.491956
-0.491957
-0.491964
-0.491976
-0.49199
-0.492004
-0.492015
-0.492025
-0.492032
-0.492038
-0.492042
-0.492043
-0.492042
-0.492038
-0.492033
-0.492026
-0.492019
-0.492013
-0.492008
-0.492004
-0.492002
-0.492001
-0.491998
-0.590418
-0.590422
-0.590424
-0.590428
-0.590429
-0.590432
-0.590444
-0.590462
-0.590477
-0.590487
-0.590495
-0.590503
-0.590511
-0.590519
-0.590527
-0.590534
-0.590541
-0.590547
-0.59055
-0.59055
-0.590547
-0.590542
-0.590536
-0.590528
-0.590519
-0.590509
-0.590499
-0.590488
-0.590476
-0.590465
-0.590453
-0.590442
-0.590432
-0.590422
-0.590412
-0.590404
-0.590397
-0.590391
-0.590386
-0.590382
-0.590379
-0.590376
-0.590374
-0.590373
-0.590372
-0.590371
-0.59037
-0.59037
-0.59037
-0.590369
-0.590369
-0.590369
-0.590368
-0.590368
-0.590368
-0.590368
-0.590367
-0.590367
-0.590367
-0.590367
-0.590367
-0.590367
-0.590367
-0.590367
-0.590367
-0.590368
-0.590368
-0.590369
-0.59037
-0.590371
-0.590372
-0.590373
-0.590374
-0.590375
-0.590375
-0.590374
-0.590373
-0.590371
-0.590371
-0.590376
-0.590385
-0.590397
-0.59041
-0.590421
-0.590432
-0.59044
-0.590446
-0.59045
-0.590451
-0.59045
-0.590446
-0.590441
-0.590434
-0.590426
-0.590419
-0.590413
-0.590409
-0.590405
-0.590404
-0.590402
-0.688815
-0.688818
-0.688821
-0.688823
-0.688824
-0.68883
-0.688848
-0.688873
-0.68889
-0.688901
-0.688909
-0.688916
-0.688923
-0.68893
-0.688938
-0.688945
-0.688952
-0.688958
-0.688961
-0.68896
-0.688957
-0.688952
-0.688946
-0.688938
-0.68893
-0.68892
-0.68891
-0.6889
-0.688889
-0.688878
-0.688867
-0.688856
-0.688846
-0.688836
-0.688827
-0.68882
-0.688813
-0.688807
-0.688802
-0.688798
-0.688795
-0.688792
-0.68879
-0.688789
-0.688788
-0.688787
-0.688786
-0.688785
-0.688785
-0.688785
-0.688784
-0.688784
-0.688783
-0.688783
-0.688783
-0.688782
-0.688782
-0.688782
-0.688781
-0.688781
-0.688781
-0.688781
-0.688781
-0.688782
-0.688782
-0.688783
-0.688783
-0.688784
-0.688785
-0.688787
-0.688788
-0.688789
-0.68879
-0.688791
-0.688791
-0.68879
-0.688789
-0.688788
-0.688787
-0.68879
-0.688797
-0.688807
-0.688817
-0.688828
-0.688838
-0.688846
-0.688852
-0.688856
-0.688857
-0.688856
-0.688852
-0.688846
-0.688839
-0.688831
-0.688823
-0.688817
-0.688811
-0.688807
-0.688806
-0.688803
-0.787212
-0.787214
-0.787217
-0.787218
-0.78722
-0.787227
-0.787248
-0.787279
-0.787302
-0.787313
-0.787321
-0.787327
-0.787334
-0.787341
-0.787348
-0.787354
-0.787361
-0.787367
-0.787369
-0.787369
-0.787366
-0.787361
-0.787354
-0.787347
-0.787339
-0.78733
-0.787321
-0.787311
-0.7873
-0.78729
-0.78728
-0.787269
-0.78726
-0.78725
-0.787242
-0.787235
-0.787228
-0.787222
-0.787218
-0.787214
-0.787211
-0.787208
-0.787206
-0.787205
-0.787204
-0.787203
-0.787202
-0.787201
-0.787201
-0.7872
-0.787199
-0.787199
-0.787198
-0.787198
-0.787197
-0.787197
-0.787196
-0.787196
-0.787196
-0.787195
-0.787195
-0.787195
-0.787196
-0.787196
-0.787197
-0.787197
-0.787198
-0.7872
-0.787201
-0.787202
-0.787204
-0.787205
-0.787206
-0.787207
-0.787207
-0.787207
-0.787207
-0.787206
-0.787206
-0.787207
-0.787212
-0.787219
-0.787228
-0.787236
-0.787245
-0.787252
-0.787257
-0.78726
-0.787261
-0.787259
-0.787255
-0.787249
-0.787242
-0.787234
-0.787226
-0.787219
-0.787213
-0.787208
-0.787206
-0.787204
-0.88561
-0.885612
-0.885614
-0.885615
-0.885617
-0.885625
-0.885646
-0.88568
-0.885709
-0.885724
-0.885732
-0.885738
-0.885744
-0.88575
-0.885756
-0.885762
-0.885768
-0.885773
-0.885776
-0.885776
-0.885773
-0.885768
-0.885762
-0.885755
-0.885747
-0.885739
-0.88573
-0.885721
-0.885711
-0.885701
-0.885692
-0.885682
-0.885673
-0.885665
-0.885657
-0.88565
-0.885644
-0.885638
-0.885634
-0.88563
-0.885627
-0.885625
-0.885623
-0.885622
-0.88562
-0.885619
-0.885618
-0.885617
-0.885617
-0.885616
-0.885615
-0.885614
-0.885613
-0.885613
-0.885612
-0.885611
-0.885611
-0.88561
-0.88561
-0.88561
-0.88561
-0.88561
-0.88561
-0.885611
-0.885611
-0.885612
-0.885613
-0.885615
-0.885616
-0.885618
-0.88562
-0.885621
-0.885623
-0.885624
-0.885625
-0.885626
-0.885626
-0.885626
-0.885625
-0.885627
-0.88563
-0.885635
-0.885641
-0.885647
-0.885653
-0.885658
-0.885661
-0.885663
-0.885663
-0.885661
-0.885657
-0.885651
-0.885644
-0.885636
-0.885628
-0.88562
-0.885613
-0.885608
-0.885605
-0.885603
-0.984007
-0.984009
-0.984012
-0.984012
-0.984015
-0.984021
-0.984041
-0.984076
-0.984111
-0.984131
-0.984141
-0.984147
-0.984153
-0.984158
-0.984163
-0.984169
-0.984174
-0.984178
-0.984181
-0.984181
-0.984179
-0.984175
-0.984169
-0.984162
-0.984155
-0.984147
-0.984138
-0.98413
-0.984121
-0.984112
-0.984103
-0.984094
-0.984086
-0.984079
-0.984072
-0.984065
-0.98406
-0.984055
-0.984051
-0.984047
-0.984045
-0.984042
-0.98404
-0.984039
-0.984037
-0.984036
-0.984035
-0.984034
-0.984033
-0.984032
-0.984031
-0.984029
-0.984028
-0.984027
-0.984026
-0.984026
-0.984025
-0.984024
-0.984024
-0.984024
-0.984024
-0.984024
-0.984024
-0.984025
-0.984026
-0.984027
-0.984028
-0.98403
-0.984032
-0.984034
-0.984036
-0.984038
-0.98404
-0.984042
-0.984044
-0.984045
-0.984046
-0.984046
-0.984047
-0.984048
-0.98405
-0.984054
-0.984057
-0.984061
-0.984064
-0.984066
-0.984067
-0.984068
-0.984066
-0.984063
-0.984059
-0.984053
-0.984046
-0.984037
-0.984029
-0.984021
-0.984014
-0.984008
-0.984005
-0.984002
-1.0824
-1.08241
-1.08241
-1.08241
-1.08241
-1.08242
-1.08244
-1.08247
-1.0825
-1.08253
-1.08255
-1.08255
-1.08256
-1.08257
-1.08257
-1.08258
-1.08258
-1.08258
-1.08259
-1.08259
-1.08258
-1.08258
-1.08257
-1.08257
-1.08256
-1.08255
-1.08255
-1.08254
-1.08253
-1.08252
-1.08251
-1.08251
-1.0825
-1.08249
-1.08249
-1.08248
-1.08248
-1.08247
-1.08247
-1.08247
-1.08246
-1.08246
-1.08246
-1.08246
-1.08245
-1.08245
-1.08245
-1.08245
-1.08245
-1.08245
-1.08245
-1.08245
-1.08244
-1.08244
-1.08244
-1.08244
-1.08244
-1.08244
-1.08244
-1.08244
-1.08244
-1.08244
-1.08244
-1.08244
-1.08244
-1.08244
-1.08244
-1.08245
-1.08245
-1.08245
-1.08245
-1.08246
-1.08246
-1.08246
-1.08246
-1.08247
-1.08247
-1.08247
-1.08247
-1.08247
-1.08247
-1.08247
-1.08248
-1.08248
-1.08248
-1.08248
-1.08248
-1.08247
-1.08247
-1.08247
-1.08246
-1.08246
-1.08245
-1.08244
-1.08243
-1.08242
-1.08241
-1.08241
-1.0824
-1.0824
-1.1808
-1.1808
-1.18081
-1.18081
-1.18081
-1.18081
-1.18083
-1.18086
-1.18089
-1.18092
-1.18094
-1.18096
-1.18097
-1.18097
-1.18098
-1.18098
-1.18099
-1.18099
-1.18099
-1.18099
-1.18099
-1.18098
-1.18098
-1.18097
-1.18097
-1.18096
-1.18095
-1.18095
-1.18094
-1.18093
-1.18093
-1.18092
-1.18091
-1.18091
-1.1809
-1.1809
-1.18089
-1.18089
-1.18089
-1.18088
-1.18088
-1.18088
-1.18088
-1.18088
-1.18087
-1.18087
-1.18087
-1.18087
-1.18087
-1.18086
-1.18086
-1.18086
-1.18086
-1.18086
-1.18086
-1.18085
-1.18085
-1.18085
-1.18085
-1.18085
-1.18085
-1.18085
-1.18085
-1.18085
-1.18085
-1.18086
-1.18086
-1.18086
-1.18086
-1.18087
-1.18087
-1.18087
-1.18088
-1.18088
-1.18088
-1.18089
-1.18089
-1.18089
-1.18089
-1.1809
-1.1809
-1.1809
-1.1809
-1.1809
-1.18089
-1.18089
-1.18089
-1.18088
-1.18088
-1.18087
-1.18087
-1.18086
-1.18085
-1.18084
-1.18083
-1.18082
-1.18082
-1.18081
-1.1808
-1.1808
-1.2792
-1.2792
-1.27921
-1.27921
-1.2792
-1.27921
-1.27922
-1.27924
-1.27927
-1.27931
-1.27933
-1.27935
-1.27936
-1.27937
-1.27938
-1.27939
-1.27939
-1.27939
-1.27939
-1.27939
-1.27939
-1.27939
-1.27938
-1.27938
-1.27937
-1.27936
-1.27936
-1.27935
-1.27935
-1.27934
-1.27934
-1.27933
-1.27933
-1.27932
-1.27932
-1.27932
-1.27931
-1.27931
-1.27931
-1.2793
-1.2793
-1.2793
-1.2793
-1.27929
-1.27929
-1.27929
-1.27929
-1.27929
-1.27928
-1.27928
-1.27928
-1.27928
-1.27927
-1.27927
-1.27927
-1.27927
-1.27927
-1.27927
-1.27927
-1.27926
-1.27926
-1.27926
-1.27927
-1.27927
-1.27927
-1.27927
-1.27927
-1.27928
-1.27928
-1.27928
-1.27929
-1.27929
-1.2793
-1.2793
-1.27931
-1.27931
-1.27931
-1.27932
-1.27932
-1.27932
-1.27932
-1.27932
-1.27932
-1.27932
-1.27931
-1.27931
-1.2793
-1.27929
-1.27929
-1.27928
-1.27927
-1.27927
-1.27926
-1.27925
-1.27924
-1.27923
-1.27922
-1.27921
-1.27921
-1.2792
-1.3776
-1.3776
-1.37761
-1.37761
-1.37761
-1.3776
-1.37761
-1.37763
-1.37765
-1.37768
-1.37771
-1.37773
-1.37775
-1.37776
-1.37777
-1.37778
-1.37779
-1.37779
-1.37779
-1.37779
-1.37779
-1.37778
-1.37778
-1.37778
-1.37777
-1.37777
-1.37776
-1.37776
-1.37776
-1.37775
-1.37775
-1.37775
-1.37774
-1.37774
-1.37774
-1.37773
-1.37773
-1.37773
-1.37773
-1.37772
-1.37772
-1.37772
-1.37772
-1.37771
-1.37771
-1.37771
-1.37771
-1.3777
-1.3777
-1.3777
-1.3777
-1.37769
-1.37769
-1.37769
-1.37769
-1.37768
-1.37768
-1.37768
-1.37768
-1.37768
-1.37768
-1.37768
-1.37768
-1.37768
-1.37768
-1.37768
-1.37769
-1.37769
-1.3777
-1.3777
-1.3777
-1.37771
-1.37772
-1.37772
-1.37773
-1.37773
-1.37774
-1.37774
-1.37774
-1.37775
-1.37775
-1.37775
-1.37774
-1.37774
-1.37773
-1.37772
-1.37771
-1.37771
-1.3777
-1.37769
-1.37768
-1.37767
-1.37767
-1.37766
-1.37765
-1.37764
-1.37763
-1.37762
-1.37761
-1.37761
-1.47601
-1.47601
-1.47601
-1.47601
-1.47601
-1.476
-1.47601
-1.47601
-1.47603
-1.47606
-1.47609
-1.47611
-1.47613
-1.47615
-1.47616
-1.47617
-1.47617
-1.47618
-1.47618
-1.47618
-1.47618
-1.47618
-1.47618
-1.47618
-1.47617
-1.47617
-1.47617
-1.47617
-1.47617
-1.47617
-1.47616
-1.47616
-1.47616
-1.47616
-1.47616
-1.47615
-1.47615
-1.47615
-1.47615
-1.47615
-1.47614
-1.47614
-1.47614
-1.47613
-1.47613
-1.47613
-1.47613
-1.47612
-1.47612
-1.47612
-1.47611
-1.47611
-1.47611
-1.4761
-1.4761
-1.4761
-1.4761
-1.47609
-1.47609
-1.47609
-1.47609
-1.47609
-1.47609
-1.47609
-1.4761
-1.4761
-1.4761
-1.47611
-1.47611
-1.47612
-1.47612
-1.47613
-1.47614
-1.47614
-1.47615
-1.47616
-1.47616
-1.47617
-1.47617
-1.47617
-1.47617
-1.47617
-1.47617
-1.47616
-1.47615
-1.47614
-1.47613
-1.47612
-1.47611
-1.4761
-1.47609
-1.47609
-1.47608
-1.47607
-1.47606
-1.47605
-1.47604
-1.47603
-1.47602
-1.47602
-1.57442
-1.57443
-1.57443
-1.57442
-1.57442
-1.57441
-1.5744
-1.5744
-1.57442
-1.57444
-1.57446
-1.57449
-1.57451
-1.57452
-1.57454
-1.57455
-1.57456
-1.57456
-1.57457
-1.57457
-1.57457
-1.57457
-1.57457
-1.57457
-1.57458
-1.57458
-1.57458
-1.57458
-1.57458
-1.57458
-1.57458
-1.57458
-1.57458
-1.57458
-1.57458
-1.57458
-1.57457
-1.57457
-1.57457
-1.57457
-1.57457
-1.57456
-1.57456
-1.57456
-1.57455
-1.57455
-1.57454
-1.57454
-1.57454
-1.57453
-1.57453
-1.57453
-1.57452
-1.57452
-1.57452
-1.57451
-1.57451
-1.57451
-1.57451
-1.57451
-1.5745
-1.5745
-1.57451
-1.57451
-1.57451
-1.57451
-1.57452
-1.57452
-1.57453
-1.57453
-1.57454
-1.57455
-1.57456
-1.57456
-1.57457
-1.57458
-1.57459
-1.57459
-1.57459
-1.5746
-1.5746
-1.57459
-1.57459
-1.57458
-1.57457
-1.57456
-1.57454
-1.57453
-1.57453
-1.57452
-1.57451
-1.5745
-1.57449
-1.57448
-1.57447
-1.57446
-1.57445
-1.57444
-1.57444
-1.57443
-1.67284
-1.67284
-1.67284
-1.67284
-1.67283
-1.67282
-1.6728
-1.6728
-1.67281
-1.67282
-1.67284
-1.67286
-1.67288
-1.6729
-1.67291
-1.67293
-1.67294
-1.67294
-1.67295
-1.67296
-1.67296
-1.67297
-1.67297
-1.67298
-1.67298
-1.67298
-1.67299
-1.67299
-1.67299
-1.67299
-1.67299
-1.673
-1.673
-1.673
-1.673
-1.673
-1.673
-1.673
-1.67299
-1.67299
-1.67299
-1.67298
-1.67298
-1.67298
-1.67297
-1.67297
-1.67296
-1.67296
-1.67295
-1.67295
-1.67295
-1.67294
-1.67294
-1.67293
-1.67293
-1.67293
-1.67292
-1.67292
-1.67292
-1.67292
-1.67292
-1.67292
-1.67292
-1.67292
-1.67292
-1.67293
-1.67293
-1.67294
-1.67294
-1.67295
-1.67296
-1.67297
-1.67297
-1.67298
-1.67299
-1.673
-1.67301
-1.67301
-1.67302
-1.67302
-1.67302
-1.67301
-1.673
-1.67299
-1.67298
-1.67297
-1.67296
-1.67295
-1.67294
-1.67293
-1.67292
-1.67292
-1.67291
-1.6729
-1.67289
-1.67287
-1.67287
-1.67286
-1.67285
-1.67285
-1.77126
-1.77126
-1.77126
-1.77125
-1.77124
-1.77123
-1.77121
-1.77121
-1.77121
-1.77122
-1.77123
-1.77125
-1.77126
-1.77128
-1.77129
-1.77131
-1.77132
-1.77133
-1.77134
-1.77135
-1.77136
-1.77136
-1.77137
-1.77138
-1.77138
-1.77139
-1.7714
-1.7714
-1.77141
-1.77141
-1.77141
-1.77142
-1.77142
-1.77142
-1.77142
-1.77142
-1.77142
-1.77142
-1.77142
-1.77141
-1.77141
-1.77141
-1.7714
-1.7714
-1.77139
-1.77139
-1.77138
-1.77138
-1.77137
-1.77137
-1.77136
-1.77136
-1.77135
-1.77135
-1.77134
-1.77134
-1.77134
-1.77134
-1.77133
-1.77133
-1.77133
-1.77133
-1.77133
-1.77133
-1.77134
-1.77134
-1.77135
-1.77135
-1.77136
-1.77137
-1.77137
-1.77138
-1.77139
-1.7714
-1.77141
-1.77142
-1.77142
-1.77143
-1.77143
-1.77143
-1.77143
-1.77143
-1.77142
-1.77141
-1.7714
-1.77139
-1.77137
-1.77137
-1.77136
-1.77135
-1.77134
-1.77133
-1.77132
-1.77131
-1.7713
-1.77129
-1.77128
-1.77128
-1.77127
-1.77127
-1.86967
-1.86967
-1.86967
-1.86966
-1.86965
-1.86964
-1.86963
-1.86962
-1.86962
-1.86963
-1.86963
-1.86964
-1.86965
-1.86967
-1.86968
-1.86969
-1.86971
-1.86972
-1.86973
-1.86974
-1.86976
-1.86977
-1.86978
-1.86978
-1.86979
-1.8698
-1.86981
-1.86981
-1.86982
-1.86983
-1.86983
-1.86984
-1.86984
-1.86984
-1.86984
-1.86984
-1.86984
-1.86984
-1.86984
-1.86984
-1.86984
-1.86983
-1.86983
-1.86982
-1.86982
-1.86981
-1.8698
-1.8698
-1.86979
-1.86979
-1.86978
-1.86977
-1.86977
-1.86976
-1.86976
-1.86976
-1.86975
-1.86975
-1.86975
-1.86975
-1.86974
-1.86974
-1.86975
-1.86975
-1.86975
-1.86975
-1.86976
-1.86977
-1.86977
-1.86978
-1.86979
-1.8698
-1.86981
-1.86981
-1.86982
-1.86982
-1.86983
-1.86984
-1.86984
-1.86984
-1.86984
-1.86983
-1.86983
-1.86982
-1.86981
-1.8698
-1.86979
-1.86978
-1.86977
-1.86977
-1.86976
-1.86975
-1.86974
-1.86973
-1.86972
-1.86972
-1.86971
-1.8697
-1.86969
-1.86969
-1.96808
-1.96808
-1.96808
-1.96807
-1.96806
-1.96805
-1.96805
-1.96804
-1.96804
-1.96804
-1.96805
-1.96805
-1.96806
-1.96807
-1.96808
-1.96809
-1.96811
-1.96812
-1.96814
-1.96815
-1.96816
-1.96817
-1.96818
-1.96819
-1.9682
-1.96821
-1.96822
-1.96823
-1.96824
-1.96824
-1.96825
-1.96826
-1.96826
-1.96826
-1.96826
-1.96827
-1.96827
-1.96827
-1.96826
-1.96826
-1.96826
-1.96825
-1.96825
-1.96824
-1.96824
-1.96823
-1.96822
-1.96822
-1.96821
-1.9682
-1.9682
-1.96819
-1.96818
-1.96818
-1.96817
-1.96817
-1.96817
-1.96816
-1.96816
-1.96816
-1.96816
-1.96816
-1.96816
-1.96816
-1.96816
-1.96817
-1.96817
-1.96818
-1.96819
-1.9682
-1.9682
-1.96821
-1.96821
-1.96822
-1.96822
-1.96823
-1.96824
-1.96824
-1.96825
-1.96825
-1.96825
-1.96824
-1.96824
-1.96823
-1.96822
-1.96821
-1.9682
-1.9682
-1.96819
-1.96818
-1.96818
-1.96817
-1.96816
-1.96816
-1.96815
-1.96814
-1.96813
-1.96812
-1.96812
-1.96812
-2.06647
-2.06648
-2.06648
-2.06647
-2.06647
-2.06646
-2.06646
-2.06646
-2.06646
-2.06646
-2.06646
-2.06646
-2.06647
-2.06648
-2.06649
-2.0665
-2.06652
-2.06653
-2.06654
-2.06656
-2.06657
-2.06658
-2.0666
-2.06661
-2.06662
-2.06663
-2.06664
-2.06665
-2.06666
-2.06666
-2.06667
-2.06667
-2.06668
-2.06668
-2.06669
-2.06669
-2.06669
-2.06669
-2.06669
-2.06669
-2.06668
-2.06668
-2.06667
-2.06667
-2.06666
-2.06665
-2.06664
-2.06664
-2.06663
-2.06662
-2.06661
-2.06661
-2.0666
-2.06659
-2.06659
-2.06658
-2.06658
-2.06658
-2.06658
-2.06657
-2.06657
-2.06657
-2.06657
-2.06658
-2.06658
-2.06658
-2.06659
-2.0666
-2.0666
-2.0666
-2.06661
-2.06661
-2.06662
-2.06663
-2.06663
-2.06664
-2.06664
-2.06665
-2.06665
-2.06665
-2.06665
-2.06665
-2.06665
-2.06664
-2.06663
-2.06663
-2.06662
-2.06662
-2.06661
-2.0666
-2.0666
-2.06659
-2.06659
-2.06658
-2.06657
-2.06656
-2.06656
-2.06655
-2.06654
-2.06654
-2.16487
-2.16487
-2.16487
-2.16487
-2.16487
-2.16487
-2.16487
-2.16487
-2.16487
-2.16487
-2.16487
-2.16488
-2.16488
-2.16489
-2.1649
-2.16492
-2.16493
-2.16494
-2.16496
-2.16497
-2.16498
-2.165
-2.16501
-2.16502
-2.16503
-2.16504
-2.16505
-2.16506
-2.16507
-2.16508
-2.16509
-2.16509
-2.1651
-2.1651
-2.16511
-2.16511
-2.16511
-2.16511
-2.16511
-2.16511
-2.16511
-2.1651
-2.16509
-2.16509
-2.16508
-2.16507
-2.16506
-2.16506
-2.16505
-2.16504
-2.16503
-2.16502
-2.16502
-2.16501
-2.165
-2.165
-2.165
-2.16499
-2.16499
-2.16499
-2.16499
-2.16499
-2.16499
-2.16499
-2.16499
-2.165
-2.165
-2.165
-2.16501
-2.16501
-2.16502
-2.16502
-2.16503
-2.16503
-2.16504
-2.16505
-2.16505
-2.16506
-2.16506
-2.16507
-2.16507
-2.16506
-2.16506
-2.16505
-2.16505
-2.16504
-2.16504
-2.16503
-2.16503
-2.16502
-2.16502
-2.16501
-2.16501
-2.165
-2.16499
-2.16499
-2.16498
-2.16497
-2.16497
-2.16497
-2.26326
-2.26327
-2.26327
-2.26328
-2.26328
-2.26328
-2.26328
-2.26328
-2.26329
-2.26329
-2.26329
-2.26329
-2.2633
-2.26331
-2.26332
-2.26333
-2.26335
-2.26336
-2.26337
-2.26339
-2.2634
-2.26341
-2.26343
-2.26344
-2.26345
-2.26346
-2.26347
-2.26348
-2.26349
-2.2635
-2.26351
-2.26351
-2.26352
-2.26353
-2.26353
-2.26353
-2.26354
-2.26354
-2.26353
-2.26353
-2.26353
-2.26352
-2.26352
-2.26351
-2.2635
-2.26349
-2.26348
-2.26347
-2.26346
-2.26346
-2.26345
-2.26344
-2.26343
-2.26343
-2.26342
-2.26342
-2.26341
-2.26341
-2.2634
-2.2634
-2.2634
-2.2634
-2.2634
-2.2634
-2.26341
-2.26341
-2.26341
-2.26342
-2.26342
-2.26342
-2.26342
-2.26343
-2.26343
-2.26344
-2.26345
-2.26346
-2.26346
-2.26347
-2.26347
-2.26348
-2.26348
-2.26348
-2.26347
-2.26347
-2.26346
-2.26346
-2.26346
-2.26345
-2.26345
-2.26344
-2.26344
-2.26343
-2.26343
-2.26342
-2.26342
-2.26341
-2.2634
-2.2634
-2.26339
-2.26339
-2.36167
-2.36168
-2.36168
-2.36169
-2.36169
-2.36169
-2.3617
-2.3617
-2.3617
-2.3617
-2.36171
-2.36171
-2.36172
-2.36173
-2.36174
-2.36175
-2.36176
-2.36178
-2.36179
-2.3618
-2.36182
-2.36183
-2.36184
-2.36185
-2.36186
-2.36188
-2.36189
-2.3619
-2.36191
-2.36192
-2.36192
-2.36193
-2.36194
-2.36195
-2.36195
-2.36196
-2.36196
-2.36196
-2.36196
-2.36196
-2.36195
-2.36195
-2.36194
-2.36193
-2.36192
-2.36191
-2.3619
-2.36189
-2.36188
-2.36187
-2.36187
-2.36186
-2.36185
-2.36184
-2.36184
-2.36183
-2.36183
-2.36182
-2.36182
-2.36182
-2.36182
-2.36182
-2.36182
-2.36182
-2.36182
-2.36182
-2.36182
-2.36183
-2.36183
-2.36183
-2.36183
-2.36184
-2.36184
-2.36185
-2.36186
-2.36186
-2.36187
-2.36188
-2.36188
-2.36189
-2.36189
-2.36189
-2.36188
-2.36188
-2.36188
-2.36187
-2.36187
-2.36187
-2.36186
-2.36186
-2.36186
-2.36185
-2.36185
-2.36184
-2.36184
-2.36183
-2.36182
-2.36182
-2.36181
-2.36181
-2.46009
-2.46009
-2.4601
-2.4601
-2.46011
-2.46011
-2.46011
-2.46011
-2.46012
-2.46012
-2.46012
-2.46013
-2.46014
-2.46015
-2.46016
-2.46017
-2.46018
-2.4602
-2.46021
-2.46022
-2.46023
-2.46024
-2.46026
-2.46027
-2.46028
-2.46029
-2.4603
-2.46031
-2.46032
-2.46033
-2.46034
-2.46035
-2.46036
-2.46037
-2.46037
-2.46038
-2.46038
-2.46038
-2.46038
-2.46038
-2.46037
-2.46037
-2.46036
-2.46035
-2.46034
-2.46033
-2.46032
-2.46031
-2.4603
-2.46029
-2.46028
-2.46027
-2.46027
-2.46026
-2.46025
-2.46025
-2.46024
-2.46024
-2.46024
-2.46023
-2.46023
-2.46023
-2.46023
-2.46023
-2.46023
-2.46023
-2.46023
-2.46023
-2.46024
-2.46024
-2.46024
-2.46025
-2.46025
-2.46026
-2.46026
-2.46027
-2.46028
-2.46028
-2.46029
-2.46029
-2.4603
-2.4603
-2.46029
-2.46029
-2.46029
-2.46029
-2.46028
-2.46028
-2.46028
-2.46027
-2.46027
-2.46027
-2.46026
-2.46026
-2.46025
-2.46025
-2.46024
-2.46024
-2.46023
-2.46023
-2.55851
-2.55851
-2.55851
-2.55852
-2.55852
-2.55852
-2.55853
-2.55853
-2.55853
-2.55854
-2.55854
-2.55855
-2.55856
-2.55857
-2.55858
-2.55859
-2.5586
-2.55862
-2.55863
-2.55864
-2.55865
-2.55866
-2.55867
-2.55868
-2.55869
-2.55871
-2.55872
-2.55873
-2.55874
-2.55875
-2.55876
-2.55877
-2.55878
-2.55879
-2.5588
-2.5588
-2.5588
-2.5588
-2.5588
-2.5588
-2.5588
-2.55879
-2.55878
-2.55877
-2.55876
-2.55875
-2.55874
-2.55873
-2.55872
-2.55871
-2.5587
-2.55869
-2.55868
-2.55868
-2.55867
-2.55866
-2.55866
-2.55866
-2.55865
-2.55865
-2.55865
-2.55865
-2.55865
-2.55865
-2.55865
-2.55865
-2.55864
-2.55865
-2.55865
-2.55865
-2.55865
-2.55866
-2.55866
-2.55867
-2.55867
-2.55868
-2.55868
-2.55869
-2.5587
-2.5587
-2.5587
-2.5587
-2.5587
-2.5587
-2.5587
-2.55869
-2.55869
-2.55869
-2.55869
-2.55869
-2.55868
-2.55868
-2.55868
-2.55867
-2.55867
-2.55866
-2.55866
-2.55865
-2.55865
-2.55865
-2.65693
-2.65693
-2.65693
-2.65693
-2.65694
-2.65694
-2.65694
-2.65695
-2.65695
-2.65696
-2.65696
-2.65697
-2.65698
-2.65699
-2.657
-2.65701
-2.65702
-2.65703
-2.65704
-2.65705
-2.65706
-2.65707
-2.65709
-2.6571
-2.65711
-2.65712
-2.65713
-2.65715
-2.65716
-2.65717
-2.65718
-2.6572
-2.65721
-2.65721
-2.65722
-2.65723
-2.65723
-2.65723
-2.65723
-2.65722
-2.65722
-2.65721
-2.6572
-2.65719
-2.65718
-2.65717
-2.65716
-2.65715
-2.65714
-2.65713
-2.65712
-2.65711
-2.6571
-2.65709
-2.65709
-2.65708
-2.65708
-2.65707
-2.65707
-2.65707
-2.65707
-2.65706
-2.65706
-2.65706
-2.65706
-2.65706
-2.65706
-2.65706
-2.65706
-2.65706
-2.65706
-2.65707
-2.65707
-2.65708
-2.65708
-2.65709
-2.65709
-2.6571
-2.6571
-2.65711
-2.65711
-2.65711
-2.65711
-2.6571
-2.6571
-2.6571
-2.6571
-2.6571
-2.6571
-2.65709
-2.65709
-2.65709
-2.65709
-2.65708
-2.65708
-2.65707
-2.65707
-2.65707
-2.65706
-2.65706
-2.75535
-2.75535
-2.75535
-2.75535
-2.75535
-2.75536
-2.75536
-2.75536
-2.75537
-2.75537
-2.75538
-2.75539
-2.7554
-2.75541
-2.75542
-2.75543
-2.75544
-2.75545
-2.75546
-2.75547
-2.75548
-2.75549
-2.7555
-2.75551
-2.75552
-2.75554
-2.75555
-2.75556
-2.75558
-2.75559
-2.75561
-2.75562
-2.75563
-2.75564
-2.75564
-2.75565
-2.75565
-2.75565
-2.75565
-2.75565
-2.75564
-2.75563
-2.75562
-2.75561
-2.7556
-2.75559
-2.75558
-2.75557
-2.75556
-2.75555
-2.75554
-2.75553
-2.75552
-2.75551
-2.75551
-2.7555
-2.7555
-2.75549
-2.75549
-2.75549
-2.75548
-2.75548
-2.75548
-2.75548
-2.75547
-2.75547
-2.75547
-2.75547
-2.75547
-2.75547
-2.75548
-2.75548
-2.75548
-2.75549
-2.75549
-2.7555
-2.7555
-2.7555
-2.75551
-2.75551
-2.75551
-2.75551
-2.75551
-2.75551
-2.75551
-2.75551
-2.7555
-2.7555
-2.7555
-2.7555
-2.7555
-2.7555
-2.75549
-2.75549
-2.75549
-2.75548
-2.75548
-2.75548
-2.75548
-2.75548
-2.85376
-2.85376
-2.85376
-2.85377
-2.85377
-2.85377
-2.85378
-2.85378
-2.85378
-2.85379
-2.8538
-2.85381
-2.85382
-2.85383
-2.85384
-2.85385
-2.85386
-2.85386
-2.85387
-2.85388
-2.85389
-2.8539
-2.85391
-2.85393
-2.85394
-2.85395
-2.85397
-2.85398
-2.854
-2.85401
-2.85403
-2.85404
-2.85405
-2.85406
-2.85407
-2.85407
-2.85408
-2.85408
-2.85407
-2.85407
-2.85406
-2.85405
-2.85404
-2.85403
-2.85402
-2.85401
-2.854
-2.85398
-2.85397
-2.85396
-2.85395
-2.85395
-2.85394
-2.85393
-2.85393
-2.85392
-2.85392
-2.85391
-2.85391
-2.85391
-2.8539
-2.8539
-2.85389
-2.85389
-2.85389
-2.85389
-2.85389
-2.85389
-2.85389
-2.85389
-2.85389
-2.8539
-2.8539
-2.8539
-2.8539
-2.85391
-2.85391
-2.85391
-2.85391
-2.85392
-2.85392
-2.85392
-2.85391
-2.85391
-2.85391
-2.85391
-2.85391
-2.85391
-2.85391
-2.85391
-2.85391
-2.8539
-2.8539
-2.8539
-2.8539
-2.85389
-2.85389
-2.85389
-2.85389
-2.85389
-2.95218
-2.95218
-2.95218
-2.95218
-2.95219
-2.95219
-2.95219
-2.9522
-2.9522
-2.95221
-2.95222
-2.95223
-2.95224
-2.95224
-2.95225
-2.95226
-2.95227
-2.95228
-2.95229
-2.9523
-2.95231
-2.95232
-2.95233
-2.95234
-2.95236
-2.95237
-2.95239
-2.9524
-2.95242
-2.95244
-2.95245
-2.95246
-2.95248
-2.95249
-2.95249
-2.9525
-2.9525
-2.9525
-2.95249
-2.95249
-2.95248
-2.95247
-2.95246
-2.95245
-2.95244
-2.95242
-2.95241
-2.9524
-2.95239
-2.95238
-2.95237
-2.95237
-2.95236
-2.95235
-2.95235
-2.95234
-2.95234
-2.95233
-2.95233
-2.95232
-2.95232
-2.95232
-2.95231
-2.95231
-2.95231
-2.9523
-2.9523
-2.9523
-2.95231
-2.95231
-2.95231
-2.95231
-2.95231
-2.95232
-2.95232
-2.95232
-2.95232
-2.95232
-2.95232
-2.95232
-2.95232
-2.95232
-2.95232
-2.95232
-2.95231
-2.95231
-2.95231
-2.95231
-2.95231
-2.95231
-2.95231
-2.95231
-2.95231
-2.95231
-2.9523
-2.9523
-2.9523
-2.9523
-2.9523
-2.9523
-3.05059
-3.0506
-3.0506
-3.0506
-3.0506
-3.0506
-3.05061
-3.05061
-3.05062
-3.05062
-3.05063
-3.05064
-3.05065
-3.05066
-3.05067
-3.05068
-3.05068
-3.05069
-3.0507
-3.05071
-3.05072