/*--------------------------------*- C++ -*----------------------------------*\
| =========                 |                                                 |
| \\      /  F ield         | OpenFOAM: The Open Source CFD Toolbox           |
|  \\    /   O peration     | Version:  4.1                                   |
|   \\  /    A nd           | Web:      www.OpenFOAM.org                      |
|    \\/     M anipulation  |                                                 |
\*---------------------------------------------------------------------------*/
FoamFile
{
    version     2.0;
    format      ascii;
    class       surfaceScalarField;
    location    "1880";
    object      phi;
}
// * * * * * * * * * * * * * * * * * * * * * * * * * * * * * * * * * * * * * //

dimensions      [0 3 -1 0 0 0 0];

internalField   nonuniform List<scalar> 
9850
(
-2.16012e-06
2.16012e-06
1.45088e-06
-3.61101e-06
3.35019e-06
-1.89931e-06
4.1568e-06
-8.06614e-07
4.34638e-06
-1.89581e-07
4.04354e-06
3.02842e-07
1.19554e-06
2.848e-06
-3.9887e-06
5.18424e-06
-7.54938e-06
3.56068e-06
-9.29808e-06
1.7487e-06
-1.03172e-05
1.01912e-06
-1.10429e-05
7.25718e-07
-1.16329e-05
5.89973e-07
-1.21439e-05
5.10983e-07
-1.25932e-05
4.49282e-07
-1.29807e-05
3.87583e-07
-1.32984e-05
3.17672e-07
-1.35345e-05
2.36036e-07
-1.36766e-05
1.42188e-07
-1.3712e-05
3.5404e-08
-1.36328e-05
-7.92532e-08
-1.3432e-05
-2.00798e-07
-1.31116e-05
-3.20437e-07
-1.26782e-05
-4.33328e-07
-1.21412e-05
-5.36989e-07
-1.1511e-05
-6.30198e-07
-1.07989e-05
-7.12098e-07
-1.0017e-05
-7.81901e-07
-9.1781e-06
-8.38948e-07
-8.29588e-06
-8.82216e-07
-7.38555e-06
-9.10326e-07
-6.46279e-06
-9.22769e-07
-5.54302e-06
-9.19765e-07
-4.63961e-06
-9.03406e-07
-3.76028e-06
-8.7933e-07
-2.90143e-06
-8.58852e-07
-2.01859e-06
-8.82839e-07
-9.82632e-07
-1.03596e-06
-1.99257e-07
-7.83375e-07
4.47469e-07
-6.46726e-07
9.92107e-07
-5.44638e-07
1.457e-06
-4.64895e-07
1.8573e-06
-4.00302e-07
2.20311e-06
-3.45811e-07
2.50289e-06
-2.99775e-07
2.76451e-06
-2.6162e-07
2.99553e-06
-2.31018e-07
3.20323e-06
-2.07706e-07
3.39461e-06
-1.91378e-07
3.57623e-06
-1.81613e-07
3.75408e-06
-1.77855e-07
3.93351e-06
-1.7943e-07
4.11911e-06
-1.85601e-07
4.31471e-06
-1.95603e-07
4.5234e-06
-2.08688e-07
4.74755e-06
-2.24147e-07
4.98887e-06
-2.41321e-07
5.24846e-06
-2.59593e-07
5.52683e-06
-2.78367e-07
5.82387e-06
-2.97038e-07
6.13887e-06
-3.14999e-07
6.47059e-06
-3.3172e-07
6.81757e-06
-3.4698e-07
7.1788e-06
-3.61235e-07
7.55471e-06
-3.75905e-07
7.94773e-06
-3.93023e-07
8.36146e-06
-4.13729e-07
8.79761e-06
-4.36157e-07
9.25286e-06
-4.55244e-07
9.72171e-06
-4.68851e-07
1.02115e-05
-4.89761e-07
1.07622e-05
-5.50749e-07
1.14398e-05
-6.77628e-07
1.22552e-05
-8.15376e-07
1.29897e-05
-7.34477e-07
1.30618e-05
-7.21207e-08
1.1658e-05
1.4038e-06
8.30459e-06
3.35342e-06
3.80951e-06
4.49508e-06
2.22961e-07
3.58655e-06
-1.46887e-06
1.69184e-06
-1.92534e-06
4.56464e-07
-2.22443e-06
2.99087e-07
-2.47073e-06
2.46302e-07
-2.67463e-06
2.03901e-07
-2.81215e-06
1.37522e-07
-2.84569e-06
3.35446e-08
-2.74381e-06
-1.01883e-07
-2.46685e-06
-2.76965e-07
-1.99737e-06
-4.69475e-07
-1.34546e-06
-6.51912e-07
-5.44609e-07
-8.00851e-07
3.46079e-07
-8.90688e-07
1.30696e-06
-9.60883e-07
2.32687e-06
-1.0199e-06
3.40829e-06
-1.08143e-06
4.50315e-06
-1.09486e-06
5.24253e-06
-7.39376e-07
4.31605e-06
9.26481e-07
4.31605e-06
-1.284e-06
3.44412e-06
8.21419e-07
-5.71642e-06
2.16782e-06
-3.24571e-06
2.65689e-06
-1.29569e-06
2.53795e-06
-7.06307e-08
1.48958e-06
1.35121e-06
-2.33096e-06
6.66854e-06
-5.61662e-06
8.46991e-06
-7.87216e-06
5.81622e-06
-9.40895e-06
3.28549e-06
-1.04553e-05
2.06551e-06
-1.12349e-05
1.50531e-06
-1.1863e-05
1.21801e-06
-1.23912e-05
1.03922e-06
-1.28394e-05
8.9745e-07
-1.32101e-05
7.58349e-07
-1.34967e-05
6.0424e-07
-1.36875e-05
4.26865e-07
-1.37696e-05
2.24227e-07
-1.37337e-05
-4.93463e-10
-1.3576e-05
-2.36955e-07
-1.32985e-05
-4.78304e-07
-1.29065e-05
-7.12425e-07
-1.24084e-05
-9.31383e-07
-1.1814e-05
-1.1314e-06
-1.11332e-05
-1.31106e-06
-1.0376e-05
-1.46926e-06
-9.55325e-06
-1.60465e-06
-8.67579e-06
-1.7164e-06
-7.75501e-06
-1.803e-06
-6.80408e-06
-1.86126e-06
-5.83635e-06
-1.8905e-06
-4.86533e-06
-1.89078e-06
-3.90456e-06
-1.86417e-06
-2.96698e-06
-1.81692e-06
-2.06573e-06
-1.76009e-06
-1.22699e-06
-1.72159e-06
-5.74912e-07
-1.68804e-06
1.27035e-07
-1.48532e-06
7.74278e-07
-1.29397e-06
1.35383e-06
-1.12419e-06
1.86654e-06
-9.77606e-07
2.31679e-06
-8.50554e-07
2.71121e-06
-7.40233e-07
3.05683e-06
-6.45392e-07
3.3607e-06
-5.65491e-07
3.62978e-06
-5.00102e-07
3.87079e-06
-4.48717e-07
4.09011e-06
-4.10688e-07
4.29369e-06
-3.85202e-07
4.48711e-06
-3.71273e-07
4.67545e-06
-3.67765e-07
4.86328e-06
-3.73434e-07
5.05465e-06
-3.8697e-07
5.253e-06
-4.07042e-07
5.46119e-06
-4.32331e-07
5.68142e-06
-4.61556e-07
5.91531e-06
-4.93485e-07
6.16389e-06
-5.26941e-07
6.42766e-06
-5.60812e-07
6.70675e-06
-5.94088e-07
7.00097e-06
-6.25941e-07
7.30989e-06
-6.55896e-07
7.63268e-06
-6.84032e-07
7.96788e-06
-7.11106e-07
8.31322e-06
-7.38354e-07
8.66632e-06
-7.66828e-07
9.02692e-06
-7.96756e-07
9.39996e-06
-8.2829e-07
9.79651e-06
-8.65395e-07
1.02291e-05
-9.22397e-07
1.07047e-05
-1.02635e-06
1.12255e-05
-1.19836e-06
1.17967e-05
-1.38664e-06
1.23777e-05
-1.31548e-06
1.26923e-05
-3.86653e-07
1.22778e-05
1.81829e-06
1.09533e-05
4.67786e-06
8.71269e-06
6.73574e-06
5.44348e-06
6.85576e-06
2.06435e-06
5.07097e-06
-1.4319e-07
2.664e-06
-1.06857e-06
1.22447e-06
-1.57654e-06
7.54269e-07
-2.02745e-06
6.54818e-07
-2.39053e-06
5.00596e-07
-2.62238e-06
2.65394e-07
-2.68219e-06
-4.20672e-08
-2.55804e-06
-4.0112e-07
-2.23349e-06
-7.94021e-07
-1.71674e-06
-1.16867e-06
-1.03831e-06
-1.47927e-06
-2.31862e-07
-1.69714e-06
6.253e-07
-1.81804e-06
1.49175e-06
-1.88635e-06
2.33123e-06
-1.92091e-06
3.0947e-06
-1.85832e-06
3.64627e-06
-1.29095e-06
2.9436e-06
1.62915e-06
7.25965e-06
-7.7701e-07
4.22113e-06
4.88019e-07
-6.98145e-06
1.58039e-06
-4.33808e-06
2.01627e-06
-1.73156e-06
1.82478e-06
1.20857e-07
-6.94725e-07
3.87071e-06
-3.88598e-06
9.85979e-06
-5.89747e-06
1.04814e-05
-7.28394e-06
7.20269e-06
-8.30994e-06
4.31149e-06
-9.13705e-06
2.89262e-06
-9.83843e-06
2.2067e-06
-1.04485e-05
1.82809e-06
-1.09839e-05
1.5746e-06
-1.14493e-05
1.36291e-06
-1.18407e-05
1.14969e-06
-1.2147e-05
9.10555e-07
-1.23534e-05
6.33248e-07
-1.24448e-05
3.15602e-07
-1.24097e-05
-3.5569e-08
-1.22435e-05
-4.03137e-07
-1.19525e-05
-7.69327e-07
-1.15482e-05
-1.11674e-06
-1.10432e-05
-1.43637e-06
-1.04491e-05
-1.7255e-06
-9.77545e-06
-1.98469e-06
-9.03097e-06
-2.21373e-06
-8.22509e-06
-2.41054e-06
-7.36671e-06
-2.57477e-06
-6.46426e-06
-2.70545e-06
-5.52995e-06
-2.79557e-06
-4.57612e-06
-2.84434e-06
-3.61548e-06
-2.85142e-06
-2.66294e-06
-2.81671e-06
-1.73259e-06
-2.74727e-06
-8.38535e-07
-2.65415e-06
-2.74389e-08
-2.53268e-06
6.48904e-07
-2.36438e-06
1.29883e-06
-2.13525e-06
1.90152e-06
-1.89666e-06
2.44497e-06
-1.66763e-06
2.92312e-06
-1.45576e-06
3.33673e-06
-1.26416e-06
3.69067e-06
-1.09417e-06
3.9918e-06
-9.46526e-07
4.24782e-06
-8.21511e-07
4.46661e-06
-7.18892e-07
4.65584e-06
-6.3795e-07
4.82274e-06
-5.77584e-07
4.97394e-06
-5.36403e-07
5.11547e-06
-5.12801e-07
5.25272e-06
-5.05015e-07
5.39046e-06
-5.11176e-07
5.53284e-06
-5.29351e-07
5.68339e-06
-5.57587e-07
5.845e-06
-5.93947e-07
6.01998e-06
-6.36539e-07
6.21003e-06
-6.83533e-07
6.41628e-06
-7.33189e-07
6.63934e-06
-7.8387e-07
6.87934e-06
-8.34088e-07
7.13597e-06
-8.82571e-07
7.40845e-06
-9.28373e-07
7.69541e-06
-9.70998e-07
7.99479e-06
-1.01048e-06
8.30376e-06
-1.04733e-06
8.61933e-06
-1.0824e-06
8.93943e-06
-1.11686e-06
9.26421e-06
-1.15307e-06
9.59563e-06
-1.19682e-06
9.93338e-06
-1.26015e-06
1.02679e-05
-1.36084e-06
1.05782e-05
-1.50864e-06
1.08487e-05
-1.6572e-06
1.11144e-05
-1.58116e-06
1.14422e-05
-7.14436e-07
1.17161e-05
1.54436e-06
1.16024e-05
4.79157e-06
1.08179e-05
7.52029e-06
9.18523e-06
8.48838e-06
6.66834e-06
7.58786e-06
3.71134e-06
5.621e-06
1.36095e-06
3.57486e-06
-7.14036e-08
2.18662e-06
-9.24129e-07
1.50754e-06
-1.54045e-06
1.11692e-06
-1.98116e-06
7.06097e-07
-2.21221e-06
1.8899e-07
-2.246e-06
-3.67332e-07
-2.07368e-06
-9.66345e-07
-1.70436e-06
-1.53798e-06
-1.16625e-06
-2.01738e-06
-5.08328e-07
-2.35506e-06
2.11378e-07
-2.53775e-06
9.15522e-07
-2.59049e-06
1.54347e-06
-2.54886e-06
2.03519e-06
-2.35004e-06
2.28908e-06
-1.54484e-06
1.92105e-06
1.99718e-06
9.1807e-06
-3.19503e-07
4.54063e-06
4.34118e-07
-7.73507e-06
1.29746e-06
-5.20143e-06
1.67895e-06
-2.11304e-06
9.0263e-07
8.97175e-07
-2.0931e-06
6.86644e-06
-4.2637e-06
1.20304e-05
-5.63947e-06
1.18572e-05
-6.50443e-06
8.06765e-06
-7.1816e-06
4.98866e-06
-7.81263e-06
3.52364e-06
-8.4158e-06
2.80987e-06
-8.98222e-06
2.39452e-06
-9.50331e-06
2.09569e-06
-9.96957e-06
1.82917e-06
-1.03677e-05
1.54779e-06
-1.06796e-05
1.2225e-06
-1.08843e-05
8.3796e-07
-1.09619e-05
3.93212e-07
-1.08995e-05
-9.80453e-08
-1.0698e-05
-6.04557e-07
-1.03737e-05
-1.09367e-06
-9.94547e-06
-1.54496e-06
-9.43055e-06
-1.95129e-06
-8.84172e-06
-2.31433e-06
-8.18686e-06
-2.63955e-06
-7.4717e-06
-2.92889e-06
-6.70409e-06
-3.17815e-06
-5.89071e-06
-3.38815e-06
-5.03546e-06
-3.5607e-06
-4.14947e-06
-3.68156e-06
-3.24339e-06
-3.75042e-06
-2.32713e-06
-3.76769e-06
-1.41242e-06
-3.73142e-06
-5.1414e-07
-3.64555e-06
3.32208e-07
-3.5005e-06
1.09904e-06
-3.29951e-06
1.79711e-06
-3.06245e-06
2.45179e-06
-2.78993e-06
3.05473e-06
-2.4996e-06
3.59592e-06
-2.20882e-06
4.06929e-06
-1.92913e-06
4.47338e-06
-1.66825e-06
4.81074e-06
-1.43153e-06
5.08692e-06
-1.22271e-06
5.30949e-06
-1.04408e-06
5.48709e-06
-8.96493e-07
5.62875e-06
-7.7961e-07
5.74327e-06
-6.92107e-07
5.83886e-06
-6.31987e-07
5.92288e-06
-5.96828e-07
6.00184e-06
-5.83974e-07
6.08133e-06
-5.90661e-07
6.16608e-06
-6.14107e-07
6.26006e-06
-6.51562e-07
6.36646e-06
-7.0035e-07
6.48781e-06
-7.57889e-07
6.62599e-06
-8.2171e-07
6.78227e-06
-8.89475e-07
6.9574e-06
-9.58994e-07
7.15156e-06
-1.02825e-06
7.36445e-06
-1.09546e-06
7.5952e-06
-1.15913e-06
7.84234e-06
-1.21813e-06
8.10367e-06
-1.27181e-06
8.37631e-06
-1.31998e-06
8.65691e-06
-1.363e-06
8.94204e-06
-1.40198e-06
9.22832e-06
-1.43935e-06
9.51143e-06
-1.47992e-06
9.78303e-06
-1.53176e-06
1.00266e-05
-1.60446e-06
1.02173e-05
-1.6993e-06
1.03379e-05
-1.77782e-06
1.04353e-05
-1.67853e-06
1.06718e-05
-9.5095e-07
1.11706e-05
1.04556e-06
1.16964e-05
4.26579e-06
1.18347e-05
7.38197e-06
1.12439e-05
9.07914e-06
9.76941e-06
9.0624e-06
7.55496e-06
7.83545e-06
5.03966e-06
6.09015e-06
2.79491e-06
4.43138e-06
1.10617e-06
3.19628e-06
-7.75867e-08
2.30067e-06
-8.81932e-07
1.51044e-06
-1.37415e-06
6.81208e-07
-1.58706e-06
-1.54421e-07
-1.61078e-06
-9.42631e-07
-1.43299e-06
-1.71578e-06
-1.07599e-06
-2.37438e-06
-5.86391e-07
-2.84466e-06
-2.30616e-08
-3.10108e-06
5.35481e-07
-3.14904e-06
1.01805e-06
-3.03143e-06
1.37256e-06
-2.70455e-06
1.5649e-06
-1.73717e-06
1.40906e-06
2.15301e-06
1.05898e-05
6.77459e-08
4.47289e-06
5.01378e-07
-8.16871e-06
1.14387e-06
-5.84392e-06
1.33213e-06
-2.3013e-06
-2.83395e-07
2.5127e-06
-2.5995e-06
9.18255e-06
-4.12937e-06
1.35603e-05
-5.06345e-06
1.27913e-05
-5.62472e-06
8.62892e-06
-6.08754e-06
5.45147e-06
-6.56139e-06
3.9975e-06
-7.05082e-06
3.2993e-06
-7.53573e-06
2.87942e-06
-7.99765e-06
2.55762e-06
-8.41907e-06
2.25059e-06
-8.78016e-06
1.90888e-06
-9.05674e-06
1.49908e-06
-9.22071e-06
1.00193e-06
-9.2462e-06
4.18704e-07
-9.12085e-06
-2.23401e-07
-8.85562e-06
-8.69787e-07
-8.47888e-06
-1.47041e-06
-8.01774e-06
-2.00611e-06
-7.49255e-06
-2.47648e-06
-6.91548e-06
-2.89139e-06
-6.29057e-06
-3.26447e-06
-5.61922e-06
-3.60023e-06
-4.90793e-06
-3.88945e-06
-4.16134e-06
-4.13474e-06
-3.37837e-06
-4.34367e-06
-2.56913e-06
-4.49081e-06
-1.74203e-06
-4.57752e-06
-9.03141e-07
-4.60657e-06
-6.66792e-08
-4.56788e-06
7.33682e-07
-4.44591e-06
1.49206e-06
-4.25888e-06
2.21535e-06
-4.02279e-06
2.89651e-06
-3.74361e-06
3.53547e-06
-3.42889e-06
4.12722e-06
-3.09136e-06
4.6639e-06
-2.7455e-06
5.13874e-06
-2.40397e-06
5.54754e-06
-2.07705e-06
5.88914e-06
-1.77314e-06
6.16541e-06
-1.49898e-06
6.38094e-06
-1.2596e-06
6.5426e-06
-1.05815e-06
6.65889e-06
-8.95899e-07
6.73915e-06
-7.72371e-07
6.79286e-06
-6.85695e-07
6.82902e-06
-6.32986e-07
6.85577e-06
-6.10732e-07
6.88024e-06
-6.15122e-07
6.90841e-06
-6.42276e-07
6.94523e-06
-6.88386e-07
6.99468e-06
-7.49798e-07
7.05984e-06
-8.23053e-07
7.14303e-06
-9.04897e-07
7.24584e-06
-9.92285e-07
7.36923e-06
-1.08239e-06
7.51356e-06
-1.17258e-06
7.67861e-06
-1.26051e-06
7.86353e-06
-1.34405e-06
8.06683e-06
-1.42143e-06
8.28629e-06
-1.49127e-06
8.51893e-06
-1.55262e-06
8.76103e-06
-1.6051e-06
9.00813e-06
-1.64908e-06
9.25473e-06
-1.68595e-06
9.49336e-06
-1.71855e-06
9.71267e-06
-1.75106e-06
9.89537e-06
-1.78717e-06
1.00191e-05
-1.82304e-06
1.00689e-05
-1.8276e-06
1.00797e-05
-1.6893e-06
1.02258e-05
-1.09704e-06
1.0735e-05
5.36343e-07
1.15574e-05
3.44336e-06
1.22727e-05
6.6667e-06
1.24264e-05
8.92545e-06
1.17745e-05
9.7143e-06
1.03424e-05
9.26754e-06
8.35555e-06
8.07697e-06
6.18077e-06
6.60616e-06
4.18082e-06
5.19623e-06
2.50874e-06
3.97275e-06
1.16461e-06
2.85458e-06
1.51992e-07
1.69382e-06
-4.50666e-07
4.48237e-07
-7.36918e-07
-6.56379e-07
-8.10489e-07
-1.6422e-06
-6.90418e-07
-2.49445e-06
-4.12205e-07
-3.12287e-06
-4.35085e-08
-3.46978e-06
3.52735e-07
-3.54528e-06
7.00532e-07
-3.37923e-06
9.51085e-07
-2.95511e-06
1.10595e-06
-1.89203e-06
1.07312e-06
2.18584e-06
1.16629e-05
4.47184e-07
4.02571e-06
5.71423e-07
-8.29294e-06
8.80105e-07
-6.1526e-06
4.74987e-07
-1.89619e-06
-1.08791e-06
4.0756e-06
-2.50044e-06
1.05951e-05
-3.58716e-06
1.4647e-05
-4.27015e-06
1.34742e-05
-4.67151e-06
9.03029e-06
-4.99481e-06
5.77477e-06
-5.33149e-06
4.33417e-06
-5.69199e-06
3.6598e-06
-6.06055e-06
3.24798e-06
-6.41959e-06
2.91666e-06
-6.75063e-06
2.58163e-06
-7.03229e-06
2.19053e-06
-7.23775e-06
1.70454e-06
-7.33138e-06
1.09556e-06
-7.27647e-06
3.63795e-07
-7.0644e-06
-4.35477e-07
-6.72088e-06
-1.21331e-06
-6.28636e-06
-1.90493e-06
-5.79373e-06
-2.49873e-06
-5.26365e-06
-3.00656e-06
-4.70572e-06
-3.44932e-06
-4.11799e-06
-3.8522e-06
-3.49887e-06
-4.21935e-06
-2.85327e-06
-4.53506e-06
-2.18327e-06
-4.80474e-06
-1.48634e-06
-5.0406e-06
-7.69592e-07
-5.20755e-06
-3.46646e-08
-5.31244e-06
6.91257e-07
-5.33249e-06
1.39333e-06
-5.26995e-06
2.08368e-06
-5.13625e-06
2.75909e-06
-4.93429e-06
3.40978e-06
-4.67348e-06
4.02949e-06
-4.36332e-06
4.6146e-06
-4.014e-06
5.16092e-06
-3.63768e-06
5.66292e-06
-3.2475e-06
6.11494e-06
-2.85599e-06
6.51218e-06
-2.47429e-06
6.85128e-06
-2.11223e-06
7.13062e-06
-1.77833e-06
7.35076e-06
-1.47974e-06
7.51456e-06
-1.22195e-06
7.62722e-06
-1.00856e-06
7.69591e-06
-8.41065e-07
7.72921e-06
-7.18995e-07
7.73634e-06
-6.40114e-07
7.72647e-06
-6.00863e-07
7.70816e-06
-5.96814e-07
7.689e-06
-6.23109e-07
7.6754e-06
-6.74789e-07
7.67262e-06
-7.47023e-07
7.68481e-06
-8.35236e-07
7.71507e-06
-9.35164e-07
7.76565e-06
-1.04286e-06
7.83796e-06
-1.1547e-06
7.9327e-06
-1.26733e-06
8.04988e-06
-1.37768e-06
8.18881e-06
-1.48298e-06
8.3481e-06
-1.58072e-06
8.52556e-06
-1.66873e-06
8.7182e-06
-1.74525e-06
8.92206e-06
-1.80897e-06
9.13214e-06
-1.85916e-06
9.34202e-06
-1.89583e-06
9.54321e-06
-1.91973e-06
9.72403e-06
-1.93189e-06
9.8688e-06
-1.93193e-06
9.95903e-06
-1.91327e-06
9.98233e-06
-1.8509e-06
9.9626e-06
-1.66957e-06
1.00314e-05
-1.1658e-06
1.04551e-05
1.12597e-07
1.1341e-05
2.55747e-06
1.23631e-05
5.64459e-06
1.30348e-05
8.25374e-06
1.30329e-05
9.71622e-06
1.22878e-05
1.00127e-05
1.09238e-05
9.44098e-06
9.17601e-06
8.3539e-06
7.32147e-06
7.05077e-06
5.57625e-06
5.71797e-06
4.02065e-06
4.41018e-06
2.63818e-06
3.07629e-06
1.46992e-06
1.6165e-06
7.01688e-07
1.11854e-07
2.71185e-07
-1.2117e-06
7.01302e-08
-2.2934e-06
5.85474e-08
-3.11129e-06
1.89169e-07
-3.6004e-06
3.89155e-07
-3.74527e-06
5.81581e-07
-3.57165e-06
7.10256e-07
-3.08378e-06
7.91488e-07
-1.97326e-06
8.2144e-07
2.15589e-06
1.24843e-05
5.45356e-07
3.48035e-06
5.12117e-07
-8.25971e-06
3.39152e-07
-5.97964e-06
-2.87773e-07
-1.26926e-06
-1.07816e-06
4.86598e-06
-1.9038e-06
1.14207e-05
-2.68682e-06
1.543e-05
-3.28137e-06
1.40688e-05
-3.64376e-06
9.39268e-06
-3.88435e-06
6.01536e-06
-4.09848e-06
4.54831e-06
-4.31986e-06
3.88117e-06
-4.54554e-06
3.47366e-06
-4.76569e-06
3.13682e-06
-4.96765e-06
2.78359e-06
-5.13502e-06
2.3579e-06
-5.2464e-06
1.81592e-06
-5.26387e-06
1.11303e-06
-5.11844e-06
2.18364e-07
-4.81218e-06
-7.41735e-07
-4.39382e-06
-1.63166e-06
-3.91065e-06
-2.3881e-06
-3.39764e-06
-3.01174e-06
-2.87054e-06
-3.53366e-06
-2.33473e-06
-3.98513e-06
-1.7835e-06
-4.40343e-06
-1.2183e-06
-4.78455e-06
-6.38653e-07
-5.1147e-06
-3.69744e-08
-5.40642e-06
5.73132e-07
-5.65071e-06
1.18241e-06
-5.81683e-06
1.78545e-06
-5.91549e-06
2.38795e-06
-5.93499e-06
2.98926e-06
-5.87126e-06
3.5812e-06
-5.7282e-06
4.1584e-06
-5.51149e-06
4.71481e-06
-5.22989e-06
5.24552e-06
-4.89403e-06
5.74715e-06
-4.51563e-06
6.21676e-06
-4.1073e-06
6.6512e-06
-3.68194e-06
7.04711e-06
-3.25189e-06
7.4012e-06
-2.82838e-06
7.71046e-06
-2.42149e-06
7.97234e-06
-2.04021e-06
8.18509e-06
-1.69248e-06
8.34822e-06
-1.38509e-06
8.463e-06
-1.12334e-06
8.53271e-06
-9.10771e-07
8.56265e-06
-7.48942e-07
8.55986e-06
-6.37324e-07
8.53249e-06
-5.73485e-07
8.48911e-06
-5.5344e-07
8.43812e-06
-5.72117e-07
8.38718e-06
-6.23845e-07
8.34292e-06
-7.02769e-07
8.31084e-06
-8.03151e-07
8.29523e-06
-9.19556e-07
8.2993e-06
-1.04694e-06
8.32527e-06
-1.18066e-06
8.37442e-06
-1.31648e-06
8.44722e-06
-1.45048e-06
8.54332e-06
-1.57908e-06
8.66158e-06
-1.69898e-06
8.80001e-06
-1.80716e-06
8.95571e-06
-1.90095e-06
9.12478e-06
-1.97803e-06
9.30212e-06
-2.03649e-06
9.48117e-06
-2.07488e-06
9.6535e-06
-2.09206e-06
9.8083e-06
-2.08669e-06
9.93219e-06
-2.05583e-06
1.00106e-05
-1.99163e-06
1.00334e-05
-1.87374e-06
1.00147e-05
-1.65086e-06
1.0043e-05
-1.19409e-06
1.03514e-05
-1.95804e-07
1.11499e-05
1.75897e-06
1.22661e-05
4.52841e-06
1.32525e-05
7.26727e-06
1.37366e-05
9.23214e-06
1.35666e-05
1.01827e-05
1.27799e-05
1.02277e-05
1.15282e-05
9.60566e-06
1.00155e-05
8.56346e-06
8.43665e-06
7.29681e-06
6.92025e-06
5.92657e-06
5.49588e-06
4.50066e-06
4.10339e-06
3.00899e-06
2.83403e-06
1.38121e-06
1.89405e-06
-2.71719e-07
1.27343e-06
-1.67278e-06
8.98315e-07
-2.73617e-06
7.18964e-07
-3.42105e-06
6.67875e-07
-3.69418e-06
6.63574e-07
-3.56735e-06
6.38241e-07
-3.05845e-06
5.98451e-07
-1.93347e-06
6.38039e-07
2.1163e-06
1.31224e-05
4.72815e-07
3.00753e-06
3.13802e-07
-8.10069e-06
-7.64145e-08
-5.58942e-06
-4.20142e-07
-9.25534e-07
-5.74126e-07
5.01996e-06
-9.08948e-07
1.17555e-05
-1.44528e-06
1.59663e-05
-2.06836e-06
1.46919e-05
-2.51964e-06
9.84396e-06
-2.74955e-06
6.24527e-06
-2.86844e-06
4.6672e-06
-2.95367e-06
3.9664e-06
-3.0227e-06
3.54269e-06
-3.07796e-06
3.19207e-06
-3.11704e-06
2.82268e-06
-3.13321e-06
2.37407e-06
-3.11849e-06
1.8012e-06
-3.05979e-06
1.05433e-06
-2.84284e-06
1.41832e-09
-2.45696e-06
-1.12762e-06
-1.98807e-06
-2.10055e-06
-1.4836e-06
-2.89257e-06
-9.73192e-07
-3.52215e-06
-4.59681e-07
-4.04717e-06
6.14105e-08
-4.50623e-06
5.83626e-07
-4.92564e-06
1.10019e-06
-5.30112e-06
1.61846e-06
-5.63297e-06
2.13664e-06
-5.9246e-06
2.65022e-06
-6.16429e-06
3.16891e-06
-6.33552e-06
3.68521e-06
-6.43179e-06
4.19626e-06
-6.44604e-06
4.69954e-06
-6.37454e-06
5.19047e-06
-6.21913e-06
5.66462e-06
-5.98563e-06
6.11781e-06
-5.68309e-06
6.54666e-06
-5.32288e-06
6.94882e-06
-4.91779e-06
7.32273e-06
-4.48121e-06
7.6672e-06
-4.0264e-06
7.98117e-06
-3.56586e-06
8.2636e-06
-3.11082e-06
8.51333e-06
-2.67122e-06
8.72892e-06
-2.2558e-06
8.90875e-06
-1.87232e-06
9.05128e-06
-1.52761e-06
9.15549e-06
-1.22754e-06
9.22147e-06
-9.76754e-07
9.25089e-06
-7.7836e-07
9.24723e-06
-6.33664e-07
9.21574e-06
-5.41993e-07
9.16305e-06
-5.00755e-07
9.09664e-06
-5.05704e-07
9.02415e-06
-5.51361e-07
8.95289e-06
-6.31502e-07
8.88934e-06
-7.39603e-07
8.83898e-06
-8.69197e-07
8.80615e-06
-1.01411e-06
8.79408e-06
-1.16859e-06
8.80491e-06
-1.32731e-06
8.8398e-06
-1.48537e-06
8.89897e-06
-1.63826e-06
8.98175e-06
-1.78176e-06
9.08652e-06
-1.91193e-06
9.2107e-06
-2.02514e-06
9.35067e-06
-2.118e-06
9.50163e-06
-2.18745e-06
9.6574e-06
-2.23065e-06
9.81024e-06
-2.2449e-06
9.95063e-06
-2.22708e-06
1.00674e-05
-2.17256e-06
1.01488e-05
-2.07304e-06
1.01867e-05
-1.91165e-06
1.01882e-05
-1.65238e-06
1.0208e-05
-1.21387e-06
1.04158e-05
-4.03639e-07
1.10507e-05
1.12407e-06
1.21003e-05
3.47882e-06
1.32205e-05
6.14711e-06
1.40277e-05
8.42491e-06
1.43035e-05
9.90685e-06
1.40082e-05
1.0523e-05
1.32237e-05
1.03902e-05
1.20952e-05
9.69195e-06
1.07806e-05
8.61136e-06
9.40926e-06
7.29793e-06
8.05408e-06
5.85585e-06
6.71901e-06
4.34406e-06
5.3273e-06
2.77292e-06
3.97493e-06
1.08065e-06
2.89102e-06
-5.88873e-07
2.09874e-06
-1.94389e-06
1.55373e-06
-2.87604e-06
1.19655e-06
-3.337e-06
9.4738e-07
-3.31818e-06
7.26718e-07
-2.83779e-06
5.21755e-07
-1.72851e-06
5.08444e-07
2.12961e-06
1.36308e-05
3.43604e-07
2.66393e-06
5.92264e-08
-7.81632e-06
-2.11162e-07
-5.31903e-06
-1.10606e-07
-1.02609e-06
1.82009e-07
4.72735e-06
2.51652e-07
1.16859e-05
2.41224e-08
1.61939e-05
-5.29106e-07
1.52451e-05
-1.25014e-06
1.0565e-05
-1.58897e-06
6.5841e-06
-1.66463e-06
4.74286e-06
-1.6372e-06
3.93897e-06
-1.55606e-06
3.46155e-06
-1.44008e-06
3.0761e-06
-1.29791e-06
2.6805e-06
-1.13483e-06
2.21099e-06
-9.63182e-07
1.62956e-06
-7.94177e-07
8.85322e-07
-4.70046e-07
-3.22713e-07
-4.01089e-08
-1.55756e-06
4.24492e-07
-2.56515e-06
8.99545e-07
-3.36762e-06
1.382e-06
-4.0046e-06
1.87044e-06
-4.53561e-06
2.36058e-06
-4.99636e-06
2.84384e-06
-5.40891e-06
3.32261e-06
-5.77989e-06
3.79937e-06
-6.10972e-06
4.26945e-06
-6.39468e-06
4.73005e-06
-6.62489e-06
5.18217e-06
-6.78764e-06
5.62341e-06
-6.87302e-06
6.05132e-06
-6.87395e-06
6.46374e-06
-6.78696e-06
6.85793e-06
-6.61333e-06
7.23107e-06
-6.35878e-06
7.58062e-06
-6.03263e-06
7.90463e-06
-5.64689e-06
8.20198e-06
-5.21514e-06
8.47236e-06
-4.75158e-06
8.71609e-06
-4.27013e-06
8.93395e-06
-3.78371e-06
9.1269e-06
-3.30378e-06
9.29586e-06
-2.84017e-06
9.44132e-06
-2.40126e-06
9.56319e-06
-1.99418e-06
9.66071e-06
-1.62514e-06
9.73271e-06
-1.29954e-06
9.778e-06
-1.02204e-06
9.79595e-06
-7.96314e-07
9.78707e-06
-6.24783e-07
9.75336e-06
-5.08283e-07
9.69845e-06
-4.45849e-07
9.62744e-06
-4.34687e-07
9.54642e-06
-4.70349e-07
9.46201e-06
-5.47093e-07
9.38074e-06
-6.58326e-07
9.3086e-06
-7.97062e-07
9.25078e-06
-9.56291e-07
9.21143e-06
-1.12924e-06
9.19362e-06
-1.3095e-06
9.19937e-06
-1.49112e-06
9.22963e-06
-1.66852e-06
9.2844e-06
-1.83652e-06
9.36265e-06
-1.99018e-06
9.46236e-06
-2.12485e-06
9.58043e-06
-2.23607e-06
9.71259e-06
-2.3196e-06
9.8533e-06
-2.37136e-06
9.99569e-06
-2.3873e-06
1.01316e-05
-2.36298e-06
1.02517e-05
-2.29266e-06
1.03465e-05
-2.16781e-06
1.04088e-05
-1.97401e-06
1.04413e-05
-1.68484e-06
1.04752e-05
-1.24777e-06
1.06181e-05
-5.46565e-07
1.10777e-05
6.64431e-07
1.19574e-05
2.59919e-06
1.30556e-05
5.04888e-06
1.40268e-05
7.45371e-06
1.46096e-05
9.32409e-06
1.4698e-05
1.04346e-05
1.43115e-05
1.07767e-05
1.35432e-05
1.04602e-05
1.25141e-05
9.64049e-06
1.13375e-05
8.47454e-06
1.00964e-05
7.0969e-06
8.83293e-06
5.60756e-06
7.53983e-06
4.06602e-06
6.14061e-06
2.47987e-06
4.74131e-06
8.10431e-07
3.56261e-06
-7.65194e-07
2.64404e-06
-1.95746e-06
1.95278e-06
-2.64574e-06
1.42115e-06
-2.78655e-06
9.65832e-07
-2.38247e-06
5.54289e-07
-1.31697e-06
4.19962e-07
2.26394e-06
1.40508e-05
2.47785e-07
2.41614e-06
-1.03526e-07
-7.465e-06
-1.88025e-07
-5.23454e-06
2.85063e-07
-1.49918e-06
8.63332e-07
4.14908e-06
1.45896e-06
1.10903e-05
1.77086e-06
1.5882e-05
1.41334e-06
1.56026e-05
4.58369e-07
1.152e-05
-2.76268e-07
7.31873e-06
-4.99921e-07
4.96651e-06
-4.14551e-07
3.8536e-06
-2.14184e-07
3.26118e-06
5.27874e-08
2.80913e-06
3.68812e-07
2.36447e-06
7.12357e-07
1.86744e-06
1.02071e-06
1.32121e-06
1.41557e-06
4.90458e-07
1.88067e-06
-7.87814e-07
2.28749e-06
-1.96437e-06
2.69793e-06
-2.97559e-06
3.12943e-06
-3.79912e-06
3.58646e-06
-4.46164e-06
4.05802e-06
-5.00717e-06
4.5335e-06
-5.47184e-06
5.0041e-06
-5.8795e-06
5.46564e-06
-6.24144e-06
5.91551e-06
-6.55958e-06
6.35018e-06
-6.82935e-06
6.76684e-06
-7.04156e-06
7.16412e-06
-7.18492e-06
7.54044e-06
-7.24934e-06
7.89418e-06
-7.2277e-06
8.22396e-06
-7.11673e-06
8.5284e-06
-6.91776e-06
8.8062e-06
-6.63658e-06
9.05635e-06
-6.28278e-06
9.2783e-06
-5.86884e-06
9.47217e-06
-5.40901e-06
9.63877e-06
-4.91819e-06
9.77963e-06
-4.41099e-06
9.89683e-06
-3.90091e-06
9.99285e-06
-3.39981e-06
1.00703e-05
-2.91763e-06
1.01316e-05
-2.4625e-06
1.01783e-05
-2.04096e-06
1.02115e-05
-1.65832e-06
1.02311e-05
-1.31909e-06
1.02362e-05
-1.02714e-06
1.02256e-05
-7.85782e-07
1.01985e-05
-5.97619e-07
1.01544e-05
-4.64229e-07
1.00944e-05
-3.85844e-07
1.00208e-05
-3.61086e-07
9.93732e-06
-3.8687e-07
9.84875e-06
-4.58525e-07
9.76051e-06
-5.70087e-07
9.67816e-06
-7.14712e-07
9.60696e-06
-8.85089e-07
9.55153e-06
-1.0738e-06
9.51563e-06
-1.2736e-06
9.50204e-06
-1.47753e-06
9.51253e-06
-1.67901e-06
9.54783e-06
-1.87182e-06
9.60769e-06
-2.05004e-06
9.69078e-06
-2.20795e-06
9.79474e-06
-2.34003e-06
9.91605e-06
-2.44091e-06
1.005e-05
-2.50529e-06
1.01906e-05
-2.52788e-06
1.03307e-05
-2.50311e-06
1.04624e-05
-2.42436e-06
1.05774e-05
-2.28282e-06
1.0669e-05
-2.06561e-06
1.07364e-05
-1.75223e-06
1.07958e-05
-1.30715e-06
1.09089e-05
-6.59626e-07
1.1225e-05
3.48324e-07
1.18933e-05
1.93081e-06
1.28525e-05
4.0897e-06
1.38411e-05
6.46514e-06
1.45901e-05
8.5751e-06
1.49436e-05
1.00811e-05
1.48663e-05
1.0854e-05
1.44042e-05
1.09222e-05
1.36432e-05
1.04015e-05
1.26756e-05
9.4421e-06
1.15799e-05
8.19256e-06
1.04103e-05
6.77722e-06
9.19325e-06
5.28306e-06
7.91595e-06
3.75717e-06
6.51697e-06
2.20941e-06
5.1078e-06
6.43974e-07
3.88192e-06
-7.3158e-07
2.87611e-06
-1.63993e-06
2.0525e-06
-1.96294e-06
1.33624e-06
-1.66621e-06
6.87434e-07
-6.68164e-07
3.68872e-07
2.5825e-06
1.44196e-05
1.77099e-07
2.23905e-06
-2.75506e-07
-7.0124e-06
-2.6327e-07
-5.24677e-06
5.08662e-07
-2.27111e-06
1.47075e-06
3.18699e-06
2.53514e-06
1.00259e-05
3.36258e-06
1.50545e-05
3.45272e-06
1.55125e-05
2.64091e-06
1.23318e-05
1.53086e-06
8.42878e-06
9.01635e-07
5.59574e-06
8.10881e-07
3.94436e-06
1.02979e-06
3.04227e-06
1.39136e-06
2.44756e-06
1.82821e-06
1.92762e-06
2.30297e-06
1.39268e-06
2.80987e-06
8.14311e-07
3.39676e-06
-9.64362e-08
3.89297e-06
-1.28402e-06
4.35021e-06
-2.42161e-06
4.79125e-06
-3.41664e-06
5.23726e-06
-4.24513e-06
5.69547e-06
-4.91985e-06
6.1611e-06
-5.4728e-06
6.6262e-06
-5.93694e-06
7.08315e-06
-6.33645e-06
7.52605e-06
-6.68434e-06
7.95028e-06
-6.98381e-06
8.35179e-06
-7.23086e-06
8.72723e-06
-7.417e-06
9.07429e-06
-7.53197e-06
9.39129e-06
-7.56635e-06
9.67705e-06
-7.51345e-06
9.93083e-06
-7.37052e-06
1.01523e-05
-7.13922e-06
1.03414e-05
-6.82566e-06
1.04984e-05
-6.43978e-06
1.0624e-05
-5.99448e-06
1.07195e-05
-5.5045e-06
1.07867e-05
-4.98537e-06
1.0828e-05
-4.4523e-06
1.08465e-05
-3.9194e-06
1.08457e-05
-3.39901e-06
1.08294e-05
-2.90135e-06
1.08014e-05
-2.4345e-06
1.0765e-05
-2.00459e-06
1.07229e-05
-1.61616e-06
1.06764e-05
-1.27266e-06
1.06262e-05
-9.7686e-07
1.05715e-05
-7.31121e-07
1.05113e-05
-5.37458e-07
1.04445e-05
-3.97383e-07
1.03703e-05
-3.11609e-07
1.02889e-05
-2.7969e-07
1.02017e-05
-2.99718e-07
1.01114e-05
-3.68216e-07
1.00216e-05
-4.80233e-07
9.93644e-06
-6.29591e-07
9.86058e-06
-8.09238e-07
9.7984e-06
-1.01162e-06
9.75383e-06
-1.22902e-06
9.73012e-06
-1.45381e-06
9.72968e-06
-1.67857e-06
9.75401e-06
-1.89616e-06
9.80363e-06
-2.09966e-06
9.87803e-06
-2.28235e-06
9.97565e-06
-2.43766e-06
1.00938e-05
-2.55907e-06
1.02286e-05
-2.64011e-06
1.0375e-05
-2.67428e-06
1.05267e-05
-2.65476e-06
1.06762e-05
-2.57392e-06
1.08158e-05
-2.42241e-06
1.09382e-05
-2.18799e-06
1.10397e-05
-1.85374e-06
1.11268e-05
-1.39426e-06
1.12323e-05
-7.6508e-07
1.14498e-05
1.30775e-07
1.19179e-05
1.46277e-06
1.26718e-05
3.33573e-06
1.35581e-05
5.57887e-06
1.43407e-05
7.7925e-06
1.48386e-05
9.58311e-06
1.49732e-05
1.07195e-05
1.47495e-05
1.1146e-05
1.42201e-05
1.09309e-05
1.34551e-05
1.02071e-05
1.25215e-05
9.12611e-06
1.14738e-05
7.82496e-06
1.03492e-05
6.40766e-06
9.16559e-06
4.94079e-06
7.90955e-06
3.46545e-06
6.53606e-06
2.01746e-06
5.14316e-06
6.61324e-07
3.88528e-06
-3.82054e-07
2.79247e-06
-8.70131e-07
1.81429e-06
-6.88032e-07
9.26569e-07
2.19562e-07
3.63246e-07
3.14582e-06
1.47829e-05
8.34911e-08
2.15555e-06
-5.59822e-07
-6.36909e-06
-6.32985e-07
-5.17361e-06
3.47497e-07
-3.25159e-06
1.89954e-06
1.63495e-06
3.41104e-06
8.51438e-06
4.73984e-06
1.37257e-05
5.36002e-06
1.48923e-05
4.99252e-06
1.26993e-05
3.99583e-06
9.42546e-06
3.04753e-06
6.54404e-06
2.53014e-06
4.46175e-06
2.47103e-06
3.10138e-06
2.72508e-06
2.19351e-06
3.15437e-06
1.49834e-06
3.66364e-06
8.8341e-07
4.31705e-06
1.60904e-07
5.03856e-06
-8.17942e-07
5.67858e-06
-1.92404e-06
6.25159e-06
-2.99463e-06
6.77616e-06
-3.94121e-06
7.26993e-06
-4.7389e-06
7.74584e-06
-5.39575e-06
8.20907e-06
-5.93604e-06
8.65931e-06
-6.38718e-06
9.09354e-06
-6.77067e-06
9.50774e-06
-7.09854e-06
9.89766e-06
-7.37373e-06
1.02592e-05
-7.59238e-06
1.05887e-05
-7.74648e-06
1.08833e-05
-7.82659e-06
1.11411e-05
-7.82417e-06
1.1361e-05
-7.73338e-06
1.15427e-05
-7.5522e-06
1.16864e-05
-7.28295e-06
1.1793e-05
-6.93223e-06
1.18637e-05
-6.51045e-06
1.19001e-05
-6.03091e-06
1.19044e-05
-5.50882e-06
1.18792e-05
-4.96017e-06
1.18277e-05
-4.40075e-06
1.17535e-05
-3.8452e-06
1.16608e-05
-3.30637e-06
1.15543e-05
-2.79487e-06
1.14387e-05
-2.31891e-06
1.13186e-05
-1.88441e-06
1.11978e-05
-1.49535e-06
1.10794e-05
-1.15425e-06
1.09652e-05
-8.62718e-07
1.0856e-05
-6.21911e-07
1.07514e-05
-4.3281e-07
1.06502e-05
-2.96206e-07
1.05512e-05
-2.12654e-07
1.04536e-05
-1.82022e-07
1.03569e-05
-2.03095e-07
1.0262e-05
-2.73326e-07
1.01706e-05
-3.88774e-07
1.00852e-05
-5.442e-07
1.00092e-05
-7.33206e-07
9.94608e-06
-9.48549e-07
9.89956e-06
-1.18249e-06
9.87286e-06
-1.42711e-06
9.86876e-06
-1.67447e-06
9.88933e-06
-1.91673e-06
9.93582e-06
-2.14614e-06
1.00085e-05
-2.35506e-06
1.01067e-05
-2.53584e-06
1.02285e-05
-2.68088e-06
1.03709e-05
-2.78247e-06
1.05293e-05
-2.83275e-06
1.0698e-05
-2.82345e-06
1.08696e-05
-2.74547e-06
1.10355e-05
-2.58834e-06
1.11872e-05
-2.3397e-06
1.13182e-05
-1.98474e-06
1.14285e-05
-1.50451e-06
1.15338e-05
-8.70382e-07
1.16881e-05
-2.35392e-08
1.19934e-05
1.15746e-06
1.25262e-05
2.80289e-06
1.32307e-05
4.87445e-06
1.39352e-05
7.08791e-06
1.44649e-05
9.05343e-06
1.47152e-05