/*--------------------------------*- C++ -*----------------------------------*\
| =========                 |                                                 |
| \\      /  F ield         | OpenFOAM: The Open Source CFD Toolbox           |
|  \\    /   O peration     | Version:  4.1                                   |
|   \\  /    A nd           | Web:      www.OpenFOAM.org                      |
|    \\/     M anipulation  |                                                 |
\*---------------------------------------------------------------------------*/
FoamFile
{
    version     2.0;
    format      ascii;
    class       volVectorField;
    location    "1880";
    object      U;
}
// * * * * * * * * * * * * * * * * * * * * * * * * * * * * * * * * * * * * * //

dimensions      [0 1 -1 0 0 0 0];

internalField   nonuniform List<vector> 
5000
(
(-0.00239434 0.000539794 0)
(-0.000474532 -0.00314717 0)
(0.00252156 -0.00169842 0)
(0.00384587 -0.000914845 0)
(0.00439292 -0.000488151 0)
(0.00435645 -0.000208271 0)
(0.0040387 0.000867565 0)
(-0.00129232 0.00332713 0)
(-0.00687684 0.00224884 0)
(-0.00862501 0.000979859 0)
(-0.00988244 0.000541676 0)
(-0.0107142 0.000382175 0)
(-0.0113589 0.000312955 0)
(-0.0119061 0.000274315 0)
(-0.0123869 0.000244464 0)
(-0.0128074 0.00021412 0)
(-0.0131629 0.000179016 0)
(-0.0134428 0.000137483 0)
(-0.0136343 8.91071e-05 0)
(-0.0137244 3.38726e-05 0)
(-0.0137023 -2.82335e-05 0)
(-0.0135603 -9.4367e-05 0)
(-0.0132969 -0.000160193 0)
(-0.012917 -0.000223032 0)
(-0.0124285 -0.000281276 0)
(-0.0118415 -0.000333973 0)
(-0.0111669 -0.000380413 0)
(-0.0104163 -0.000419959 0)
(-0.00960228 -0.000452029 0)
(-0.00873821 -0.000475919 0)
(-0.00783877 -0.000490888 0)
(-0.00691957 -0.000496849 0)
(-0.00599679 -0.000494724 0)
(-0.00508599 -0.000487714 0)
(-0.00419861 -0.000483086 0)
(-0.00333069 -0.000494993 0)
(-0.00244701 -0.000552614 0)
(-0.00150345 -0.000665747 0)
(-0.000581147 -0.000478442 0)
(0.000154771 -0.000367691 0)
(0.000719764 -0.000293683 0)
(0.00122781 -0.000239987 0)
(0.00166384 -0.000199933 0)
(0.00203719 -0.00016844 0)
(0.00235925 -0.000143192 0)
(0.00263908 -0.000123121 0)
(0.00288447 -0.000107627 0)
(0.00310283 -9.63222e-05 0)
(0.00330132 -8.8896e-05 0)
(0.00348676 -8.50317e-05 0)
(0.00366551 -8.43693e-05 0)
(0.00384326 -8.65066e-05 0)
(0.004025 -9.10207e-05 0)
(0.00421495 -9.74913e-05 0)
(0.00441657 -0.000105518 0)
(0.00463257 -0.000114733 0)
(0.00486501 -0.000124799 0)
(0.00511528 -0.0001354 0)
(0.00538417 -0.000146223 0)
(0.00567189 -0.000156933 0)
(0.00597803 -0.000167172 0)
(0.00630158 -0.000176609 0)
(0.00664116 -0.000185103 0)
(0.00699541 -0.000192974 0)
(0.00736392 -0.00020124 0)
(0.00774801 -0.000211411 0)
(0.00815083 -0.00022439 0)
(0.00857546 -0.000238742 0)
(0.00902165 -0.000250068 0)
(0.0094848 -0.000254701 0)
(0.00996362 -0.000258625 0)
(0.0104784 -0.000283556 0)
(0.0110823 -0.000350997 0)
(0.0118244 -0.000428887 0)
(0.0126402 -0.000370631 0)
(0.0131943 4.09883e-05 0)
(0.0128221 0.000993474 0)
(0.0106753 0.00236277 0)
(0.00617042 0.00293451 0)
(0.00119149 0.00151001 0)
(-0.000950097 0.000287723 0)
(-0.00173501 5.87126e-05 0)
(-0.00210151 5.83989e-05 0)
(-0.00237667 3.62247e-05 0)
(-0.00260504 1.89264e-05 0)
(-0.0027763 -9.17473e-06 0)
(-0.00285788 -5.65476e-05 0)
(-0.00281588 -0.000132217 0)
(-0.00261905 -0.000227075 0)
(-0.00224193 -0.000330707 0)
(-0.00168267 -0.000427591 0)
(-0.000962028 -0.000504481 0)
(-8.25365e-05 -0.000548182 0)
(0.000835738 -0.000581535 0)
(0.00182072 -0.000615503 0)
(0.00286937 -0.000656111 0)
(0.0039437 -0.000670843 0)
(0.00490578 -0.000479094 0)
(0.00505208 0.000368349 0)
(0.0042248 0.00255833 0)
(-0.00201989 0.00273157 0)
(5.62022e-05 -0.00490146 0)
(0.00138468 -0.00261828 0)
(0.00250663 -0.000989012 0)
(0.00276617 -1.5019e-05 0)
(0.00242775 0.000766176 0)
(0.00027688 0.00466161 0)
(-0.00416581 0.00677088 0)
(-0.0073341 0.00458033 0)
(-0.00878745 0.002479 0)
(-0.0100087 0.00151823 0)
(-0.0108856 0.00109661 0)
(-0.011576 0.000889262 0)
(-0.0121496 0.00076386 0)
(-0.0126377 0.000665121 0)
(-0.0130491 0.000567583 0)
(-0.0133805 0.000458647 0)
(-0.0136221 0.000332638 0)
(-0.0137616 0.000188196 0)
(-0.0137858 2.68261e-05 0)
(-0.0136835 -0.000147647 0)
(-0.0134633 -0.000328073 0)
(-0.0131256 -0.000504413 0)
(-0.0126775 -0.000670261 0)
(-0.0121283 -0.000822257 0)
(-0.0114876 -0.000958836 0)
(-0.0107655 -0.0010789 0)
(-0.0099724 -0.00118131 0)
(-0.00911911 -0.00126513 0)
(-0.00821679 -0.00132894 0)
(-0.00727797 -0.0013706 0)
(-0.00631593 -0.00138952 0)
(-0.00534475 -0.0013862 0)
(-0.00437779 -0.00136413 0)
(-0.00342858 -0.00133066 0)
(-0.00250856 -0.00129882 0)
(-0.00164302 -0.00130354 0)
(-0.000888003 -0.00137753 0)
(-0.000216237 -0.00114616 0)
(0.000456285 -0.000977184 0)
(0.00106402 -0.000837528 0)
(0.00161359 -0.000722961 0)
(0.00209768 -0.000627322 0)
(0.00252085 -0.000545885 0)
(0.00289067 -0.000476629 0)
(0.00321479 -0.000418747 0)
(0.00350045 -0.000371787 0)
(0.00375458 -0.000335363 0)
(0.00398377 -0.000309025 0)
(0.00419424 -0.000292182 0)
(0.00439181 -0.000284075 0)
(0.0045818 -0.000283799 0)
(0.00476908 -0.000290356 0)
(0.00495797 -0.000302696 0)
(0.00515222 -0.000319769 0)
(0.00535499 -0.000340553 0)
(0.00556881 -0.000364073 0)
(0.00579559 -0.000389406 0)
(0.00603666 -0.000415667 0)
(0.00629276 -0.000442004 0)
(0.00656421 -0.000467614 0)
(0.00685094 -0.000491833 0)
(0.00715263 -0.000514352 0)
(0.00746868 -0.000535531 0)
(0.00779799 -0.000556646 0)
(0.00813869 -0.00057961 0)
(0.00848837 -0.000605784 0)
(0.00884531 -0.000634355 0)
(0.0092113 -0.000662409 0)
(0.00959419 -0.000690204 0)
(0.0100067 -0.000731862 0)
(0.0104598 -0.000820579 0)
(0.0109567 -0.000984645 0)
(0.0114953 -0.00116981 0)
(0.0120782 -0.0011078 0)
(0.0126392 -0.000285442 0)
(0.0127722 0.00157041 0)
(0.0119635 0.00399919 0)
(0.00992113 0.00568596 0)
(0.00714683 0.00550608 0)
(0.00375573 0.00335426 0)
(0.000533695 0.00107935 0)
(-0.000744303 0.000520192 0)
(-0.00136902 0.00044689 0)
(-0.00184846 0.000396083 0)
(-0.00225365 0.000287135 0)
(-0.00254657 0.00012084 0)
(-0.00268169 -0.000106473 0)
(-0.00263934 -0.000379386 0)
(-0.00240824 -0.000676593 0)
(-0.00198513 -0.000958006 0)
(-0.00138801 -0.00118933 0)
(-0.000645649 -0.00134395 0)
(0.000211567 -0.00144131 0)
(0.0010684 -0.00151174 0)
(0.00192161 -0.00157313 0)
(0.00270654 -0.00156456 0)
(0.00335167 -0.00111025 0)
(0.00339839 0.00114024 0)
(0.00326582 0.00554739 0)
(-0.00172011 0.00383432 0)
(0.000384968 -0.00651513 0)
(0.000788377 -0.00387487 0)
(0.00191447 -0.00156496 0)
(0.00217193 -7.25314e-05 0)
(0.0011479 0.00213778 0)
(-0.00223664 0.00846023 0)
(-0.0050985 0.00948418 0)
(-0.00693897 0.00652996 0)
(-0.00786031 0.00381415 0)
(-0.00876177 0.00248569 0)
(-0.00951043 0.00185482 0)
(-0.010163 0.0015166 0)
(-0.010736 0.00129683 0)
(-0.0112386 0.00111743 0)
(-0.0116704 0.000939545 0)
(-0.012023 0.000742362 0)
(-0.012283 0.000515696 0)
(-0.0124348 0.000257408 0)
(-0.0124618 -2.75637e-05 0)
(-0.0123557 -0.000328364 0)
(-0.0121231 -0.0006321 0)
(-0.0117715 -0.000924124 0)
(-0.0113136 -0.00119543 0)
(-0.0107612 -0.00144215 0)
(-0.0101245 -0.00166329 0)
(-0.00941271 -0.00185801 0)
(-0.00863497 -0.00202464 0)
(-0.00780011 -0.00216228 0)
(-0.00691655 -0.00226946 0)
(-0.00599565 -0.00234164 0)
(-0.00504868 -0.0023783 0)
(-0.0040908 -0.00238006 0)
(-0.00313238 -0.00234882 0)
(-0.00219417 -0.00229137 0)
(-0.00128166 -0.00221417 0)
(-0.000411812 -0.00211878 0)
(0.000332582 -0.00200455 0)
(0.000983647 -0.00180117 0)
(0.00160591 -0.00159155 0)
(0.00217964 -0.00139443 0)
(0.00269214 -0.00121762 0)
(0.00313903 -0.0010611 0)
(0.00352278 -0.000923913 0)
(0.00384957 -0.000805521 0)
(0.00412704 -0.000705551 0)
(0.0043632 -0.00062354 0)
(0.00456593 -0.000558846 0)
(0.00474276 -0.000510628 0)
(0.00490064 -0.00047785 0)
(0.00504593 -0.000459293 0)
(0.00518435 -0.000453583 0)
(0.00532099 -0.000459227 0)
(0.0054603 -0.000474656 0)
(0.00560613 -0.000498266 0)
(0.0057617 -0.000528456 0)
(0.00592959 -0.000563656 0)
(0.00611181 -0.000602347 0)
(0.00630977 -0.000643077 0)
(0.00652434 -0.000684484 0)
(0.00675588 -0.000725336 0)
(0.00700431 -0.000764616 0)
(0.00726906 -0.000801658 0)
(0.00754911 -0.000836291 0)
(0.00784275 -0.000868915 0)
(0.00814754 -0.000900365 0)
(0.00846046 -0.000931547 0)
(0.00877876 -0.000963321 0)
(0.00910125 -0.000997569 0)
(0.00942917 -0.00104037 0)
(0.00976423 -0.00110626 0)
(0.0101027 -0.00121804 0)
(0.0104283 -0.00138992 0)
(0.0107147 -0.00156927 0)
(0.0109589 -0.00149521 0)
(0.0112713 -0.000545525 0)
(0.0117065 0.00175581 0)
(0.0118737 0.00487695 0)
(0.011347 0.00730829 0)
(0.0101014 0.00787745 0)
(0.00806613 0.00656258 0)
(0.00528175 0.00428697 0)
(0.00236006 0.00217126 0)
(0.000395283 0.00117762 0)
(-0.000600473 0.000917904 0)
(-0.00128869 0.000716449 0)
(-0.00180601 0.000417929 0)
(-0.00213318 1.43451e-05 0)
(-0.00224666 -0.000457485 0)
(-0.00217123 -0.000951301 0)
(-0.00189814 -0.00142019 0)
(-0.00144502 -0.00181032 0)
(-0.00084538 -0.00208255 0)
(-0.000134503 -0.00223006 0)
(0.00057937 -0.00228856 0)
(0.0012482 -0.00228723 0)
(0.00180002 -0.00215968 0)
(0.00211607 -0.00146441 0)
(0.00201173 0.00181861 0)
(0.00249089 0.00817978 0)
(-0.0014184 0.00447723 0)
(0.000658071 -0.00751686 0)
(0.000537857 -0.00486984 0)
(0.00160859 -0.00201136 0)
(0.00189935 0.000305301 0)
(-0.000411008 0.00542376 0)
(-0.00328793 0.0110539 0)
(-0.00518605 0.0112847 0)
(-0.00627046 0.00772971 0)
(-0.00684796 0.00470376 0)
(-0.00750435 0.00323472 0)
(-0.0081219 0.00252072 0)
(-0.00871108 0.00211641 0)
(-0.00925901 0.00183634 0)
(-0.00975756 0.00159525 0)
(-0.0101953 0.00134738 0)
(-0.0105561 0.00106586 0)
(-0.0108196 0.000736661 0)
(-0.0109639 0.000357578 0)
(-0.0109674 -6.17125e-05 0)
(-0.0108263 -0.000500212 0)
(-0.0105576 -0.000930383 0)
(-0.0101765 -0.00133369 0)
(-0.00970157 -0.00170137 0)
(-0.00914752 -0.00203217 0)
(-0.00852357 -0.0023284 0)
(-0.007836 -0.00259068 0)
(-0.00709285 -0.00281636 0)
(-0.00630047 -0.00300534 0)
(-0.00546247 -0.00315776 0)
(-0.00459113 -0.00326405 0)
(-0.00369188 -0.00332339 0)
(-0.00278265 -0.00333712 0)
(-0.00186546 -0.00330201 0)
(-0.000965193 -0.00322052 0)
(-6.72663e-05 -0.00308742 0)
(0.000726661 -0.00291761 0)
(0.00145673 -0.00270994 0)
(0.00213436 -0.00245861 0)
(0.00276287 -0.00219352 0)
(0.00333561 -0.00193276 0)
(0.00384408 -0.0016867 0)
(0.00428353 -0.00146111 0)
(0.00465411 -0.00125944 0)
(0.00495998 -0.00108372 0)
(0.00520794 -0.000934891 0)
(0.00540634 -0.000812875 0)
(0.0055642 -0.000716827 0)
(0.00569057 -0.000645337 0)
(0.00579403 -0.000596631 0)
(0.00588242 -0.000568702 0)
(0.00596268 -0.000559397 0)
(0.00604085 -0.000566473 0)
(0.00612209 -0.000587647 0)
(0.00621072 -0.00062063 0)
(0.00631033 -0.000663165 0)
(0.00642375 -0.000713052 0)
(0.00655317 -0.000768169 0)
(0.00670019 -0.000826497 0)
(0.00686579 -0.000886142 0)
(0.00705044 -0.000945365 0)
(0.00725408 -0.00100265 0)
(0.00747611 -0.0010568 0)
(0.0077154 -0.00110701 0)
(0.00797012 -0.00115296 0)
(0.00823774 -0.00119482 0)
(0.00851512 -0.00123325 0)
(0.00879877 -0.00126955 0)
(0.00908528 -0.00130642 0)
(0.00937107 -0.00134953 0)
(0.00965049 -0.00140902 0)
(0.0099118 -0.00149811 0)
(0.0101334 -0.00162151 0)
(0.0102882 -0.00173601 0)
(0.0103737 -0.00164712 0)
(0.0105051 -0.000836246 0)
(0.0109273 0.00136141 0)
(0.0115341 0.00467658 0)
(0.0118955 0.00764529 0)
(0.0116758 0.00898229 0)
(0.0106631 0.00852232 0)
(0.00880486 0.00690318 0)
(0.00633976 0.00492577 0)
(0.00381062 0.00323836 0)
(0.00178489 0.00216048 0)
(0.000359049 0.00149308 0)
(-0.000563804 0.00092356 0)
(-0.00117439 0.000311847 0)
(-0.00150142 -0.000365176 0)
(-0.00160597 -0.00105511 0)
(-0.00152857 -0.00171619 0)
(-0.00126241 -0.00227267 0)
(-0.000838298 -0.00266449 0)
(-0.000299255 -0.00287266 0)
(0.000271712 -0.0029137 0)
(0.000797931 -0.00282739 0)
(0.00121241 -0.0025583 0)
(0.00146272 -0.00165206 0)
(0.00128789 0.00213707 0)
(0.00199051 0.00999356 0)
(-0.000922727 0.00474517 0)
(0.000873804 -0.00806987 0)
(0.000531087 -0.00565129 0)
(0.00138631 -0.00240974 0)
(0.00103605 0.00123492 0)
(-0.00142606 0.00821791 0)
(-0.00354295 0.0128978 0)
(-0.00480576 0.0124176 0)
(-0.00545631 0.0084239 0)
(-0.00582849 0.0052705 0)
(-0.00631306 0.00379244 0)
(-0.00680388 0.00307499 0)
(-0.00729951 0.00265032 0)
(-0.00777967 0.00233519 0)
(-0.00822852 0.00204477 0)
(-0.00862788 0.00173045 0)
(-0.0089552 0.00136128 0)
(-0.00918293 0.000920258 0)
(-0.00928059 0.000407307 0)
(-0.00921835 -0.000158059 0)
(-0.00901082 -0.000736543 0)
(-0.00868242 -0.00128497 0)
(-0.00825834 -0.00178346 0)
(-0.00776243 -0.00222736 0)
(-0.0072106 -0.0026217 0)
(-0.00660859 -0.00297536 0)
(-0.00595739 -0.00329119 0)
(-0.00526551 -0.00356352 0)
(-0.00453654 -0.0037937 0)
(-0.00376521 -0.00398611 0)
(-0.0029727 -0.00412282 0)
(-0.0021522 -0.0042028 0)
(-0.00131953 -0.00422645 0)
(-0.000483776 -0.00418514 0)
(0.000352846 -0.00407077 0)
(0.00111729 -0.00390129 0)
(0.00185912 -0.00367907 0)
(0.00256303 -0.00341599 0)
(0.00322431 -0.00311865 0)
(0.00384046 -0.00280166 0)
(0.00440581 -0.00248019 0)
(0.00491298 -0.00216656 0)
(0.00535597 -0.00187023 0)
(0.0057317 -0.00159852 0)
(0.00604041 -0.00135687 0)
(0.00628537 -0.00114891 0)
(0.00647247 -0.000976441 0)
(0.00660957 -0.000839545 0)
(0.00670581 -0.000736935 0)
(0.00677076 -0.000666331 0)
(0.00681381 -0.000624842 0)
(0.00684359 -0.000609262 0)
(0.00686778 -0.000616281 0)
(0.00689291 -0.000642603 0)
(0.00692445 -0.000685016 0)
(0.00696682 -0.000740425 0)
(0.00702355 -0.000805876 0)
(0.0070973 -0.000878562 0)
(0.00719002 -0.000955836 0)
(0.00730297 -0.00103522 0)
(0.0074368 -0.00111443 0)
(0.00759158 -0.0011914 0)
(0.00776678 -0.00126436 0)
(0.00796123 -0.00133187 0)
(0.0081731 -0.00139293 0)
(0.00839981 -0.001447 0)
(0.00863802 -0.00149414 0)
(0.00888362 -0.00153514 0)
(0.00913171 -0.00157205 0)
(0.00937603 -0.00160879 0)
(0.0096076 -0.00165146 0)
(0.00981242 -0.00170632 0)
(0.00996998 -0.00177153 0)
(0.0100573 -0.00181217 0)
(0.0100714 -0.00169286 0)
(0.010101 -0.00103815 0)
(0.0104198 0.000805908 0)
(0.0111565 0.0039248 0)
(0.0120024 0.00714857 0)
(0.0124879 0.00915843 0)
(0.0122654 0.00955414 0)
(0.0112132 0.00871055 0)
(0.0094523 0.00721808 0)
(0.00727949 0.00558436 0)
(0.00510094 0.00416618 0)
(0.00323274 0.00303921 0)
(0.00174251 0.00204139 0)
(0.000565873 0.00101499 0)
(-0.00026021 -7.07116e-05 0)
(-0.000603988 -0.000963958 0)
(-0.000779916 -0.00180866 0)
(-0.000760478 -0.00253721 0)
(-0.000565242 -0.00306461 0)
(-0.000233028 -0.00334765 0)
(0.000163349 -0.00339363 0)
(0.000545393 -0.00324022 0)
(0.000842916 -0.00285529 0)
(0.00104954 -0.00182476 0)
(0.000840253 0.00222118 0)
(0.00163601 0.0112297 0)
(-0.000340206 0.00438444 0)
(0.000888763 -0.00817399 0)
(0.000572339 -0.00609716 0)
(0.000910547 -0.002368 0)
(-5.74178e-05 0.00362838 0)
(-0.00174193 0.0100379 0)
(-0.00324288 0.0141849 0)
(-0.00410932 0.0131821 0)
(-0.00452998 0.00886866 0)
(-0.0047894 0.00564884 0)
(-0.00514337 0.00419756 0)
(-0.00550455 0.00350632 0)
(-0.00587875 0.00308584 0)
(-0.00625022 0.00275479 0)
(-0.00660378 0.00242895 0)
(-0.0069209 0.00205718 0)
(-0.0071771 0.00160417 0)
(-0.00733749 0.00104863 0)
(-0.00735818 0.000392923 0)
(-0.00719567 -0.000327031 0)
(-0.00690638 -0.0010423 0)
(-0.00650971 -0.00169275 0)
(-0.00604171 -0.00226267 0)
(-0.00552906 -0.00275689 0)
(-0.00498652 -0.00319037 0)
(-0.00441384 -0.00358175 0)
(-0.00380529 -0.00393647 0)
(-0.00317443 -0.0042421 0)
(-0.00252078 -0.00450297 0)
(-0.00182303 -0.0047276 0)
(-0.00112642 -0.00488665 0)
(-0.000407272 -0.00498448 0)
(0.000347552 -0.00500519 0)
(0.00104574 -0.00494963 0)
(0.00174202 -0.0048214 0)
(0.00242533 -0.00462484 0)
(0.00308909 -0.00437351 0)
(0.0037252 -0.00407595 0)
(0.00432843 -0.00374117 0)
(0.00489494 -0.00338141 0)
(0.00542013 -0.0030102 0)
(0.00589845 -0.0026401 0)
(0.00632443 -0.00228209 0)
(0.0066937 -0.00194563 0)
(0.00700356 -0.00163876 0)
(0.00725334 -0.00136789 0)
(0.0074447 -0.00113756 0)
(0.00758171 -0.000950177 0)
(0.00767069 -0.000806105 0)
(0.00771968 -0.000703847 0)
(0.00773778 -0.000640487 0)
(0.00773437 -0.000612161 0)
(0.00771843 -0.000614514 0)
(0.00769809 -0.000643042 0)
(0.00768038 -0.000693316 0)
(0.00767114 -0.00076111 0)
(0.00767502 -0.000842453 0)
(0.00769563 -0.000933646 0)
(0.00773564 -0.00103125 0)
(0.00779684 -0.00113209 0)
(0.00788027 -0.00123322 0)
(0.00798627 -0.00133197 0)
(0.0081145 -0.0014259 0)
(0.00826392 -0.00151289 0)
(0.00843278 -0.00159118 0)
(0.0086185 -0.00165942 0)
(0.00881761 -0.0017168 0)
(0.0090257 -0.0017632 0)
(0.00923711 -0.00179933 0)
(0.00944451 -0.00182696 0)
(0.00963807 -0.00184862 0)
(0.00980431 -0.00186568 0)
(0.00992559 -0.00187253 0)
(0.00998371 -0.00184116 0)
(0.00997558 -0.00167994 0)
(0.00995927 -0.00113625 0)
(0.0101588 0.000316289 0)
(0.0108433 0.00301521 0)
(0.0118856 0.00621807 0)
(0.0128119 0.00869644 0)
(0.0131904 0.00985103 0)
(0.012818 0.009786 0)
(0.0117283 0.00889539 0)
(0.010111 0.00758877 0)
(0.00824009 0.00618647 0)
(0.00639149 0.00485685 0)
(0.00473497 0.00360464 0)
(0.00329434 0.00231709 0)
(0.00198993 0.000896709 0)
(0.0010096 -0.000456437 0)
(0.000476296 -0.00157529 0)
(0.000158345 -0.0025172 0)
(4.98788e-05 -0.00321587 0)
(0.000114583 -0.00360889 0)
(0.000289069 -0.00369783 0)
(0.00049746 -0.00351161 0)
(0.000659741 -0.00304308 0)
(0.000785082 -0.0019443 0)
(0.000523751 0.00220211 0)
(0.00136349 0.0121412 0)
(0.000106588 0.00379577 0)
(0.000719531 -0.00825775 0)
(0.000427829 -0.00609935 0)
(0.000100665 -0.00128546 0)
(-0.000446913 0.00478117 0)
(-0.00143907 0.0111545 0)
(-0.00248585 0.0150976 0)
(-0.00314 0.0137817 0)
(-0.00348956 0.00921979 0)
(-0.0037148 0.00591689 0)
(-0.00397035 0.00447068 0)
(-0.00420112 0.00380112 0)
(-0.00443383 0.00338991 0)
(-0.00466384 0.00305252 0)
(-0.00488306 0.00270315 0)
(-0.00508065 0.00228688 0)
(-0.00523941 0.00176195 0)
(-0.00532009 0.00109692 0)
(-0.00525314 0.000289814 0)
(-0.00497012 -0.000593485 0)
(-0.00460399 -0.00142846 0)
(-0.00414758 -0.00215322 0)
(-0.00364758 -0.00276452 0)
(-0.00312875 -0.00328183 0)
(-0.00260129 -0.0037313 0)
(-0.00205691 -0.00414271 0)
(-0.00149147 -0.00452078 0)
(-0.000923116 -0.00484665 0)
(-0.00034428 -0.00513095 0)
(0.000285089 -0.00537931 0)
(0.00088518 -0.00554447 0)
(0.0014887 -0.00564356 0)
(0.00209144 -0.00566322 0)
(0.00269272 -0.00560057 0)
(0.00328915 -0.00546173 0)
(0.00387393 -0.00525168 0)
(0.00444105 -0.00497952 0)
(0.004985 -0.00465525 0)
(0.00550154 -0.0042899 0)
(0.00598757 -0.00389582 0)
(0.00644016 -0.00348589 0)
(0.00685614 -0.00307242 0)
(0.00723214 -0.00266663 0)
(0.00756488 -0.00227862 0)
(0.00785142 -0.00191739 0)
(0.00808945 -0.00159082 0)
(0.0082777 -0.00130539 0)
(0.00841643 -0.00106585 0)
(0.00850788 -0.000874887 0)
(0.00855638 -0.000733054 0)
(0.00856822 -0.000638816 0)
(0.00855117 -0.000588906 0)
(0.00851379 -0.000578807 0)
(0.0084647 -0.000603269 0)
(0.00841203 -0.000656768 0)
(0.008363 -0.000733838 0)
(0.00832367 -0.000829271 0)
(0.00829894 -0.000938223 0)
(0.00829253 -0.00105623 0)
(0.00830713 -0.00117921 0)
(0.00834446 -0.00130341 0)
(0.00840537 -0.00142539 0)
(0.00848992 -0.001542 0)
(0.00859737 -0.00165036 0)
(0.00872616 -0.00174791 0)
(0.00887386 -0.00183241 0)
(0.0090371 -0.00190206 0)
(0.0092114 -0.00195557 0)
(0.00939104 -0.00199225 0)
(0.00956858 -0.0020118 0)
(0.00973446 -0.00201394 0)
(0.0098767 -0.00199685 0)
(0.00998093 -0.00195314 0)
(0.0100331 -0.00186035 0)
(0.0100299 -0.00165687 0)
(0.0100076 -0.00118139 0)
(0.0101187 -5.7937e-05 0)
(0.0106594 0.00214028 0)
(0.0116882 0.00510197 0)
(0.0128322 0.00782317 0)
(0.0136278 0.00957563 0)
(0.013801 0.0102214 0)
(0.0133026 0.00996257 0)
(0.0122401 0.00909736 0)
(0.0108051 0.00790131 0)
(0.00921368 0.00657093 0)
(0.00764167 0.00520471 0)
(0.00617969 0.00381078 0)
(0.00481693 0.00232496 0)
(0.00341934 0.000665886 0)
(0.00230201 -0.000873709 0)
(0.00156286 -0.00210188 0)
(0.00106634 -0.00302373 0)
(0.000789758 -0.00359109 0)
(0.00068271 -0.00377915 0)
(0.000668157 -0.00360946 0)
(0.000657979 -0.00309611 0)
(0.000657271 -0.00196648 0)
(0.000308829 0.00215202 0)
(0.00114531 0.0128497 0)
(0.00035454 0.00322814 0)
(0.000436726 -0.00819439 0)
(0.000124386 -0.00571592 0)
(-0.000265201 -0.000899475 0)
(-0.000273253 0.00513628 0)
(-0.000667626 0.0117191 0)
(-0.00133927 0.0157507 0)
(-0.00189077 0.0143568 0)
(-0.00230237 0.00959471 0)
(-0.00258724 0.00613509 0)
(-0.00279187 0.00463143 0)
(-0.00290556 0.00395495 0)
(-0.00299064 0.0035418 0)
(-0.00305875 0.00319723 0)
(-0.00311232 0.00283141 0)
(-0.00315369 0.00238469 0)
(-0.00318577 0.00180958 0)
(-0.00317641 0.00106093 0)
(-0.00300092 0.000100597 0)
(-0.00262801 -0.000952601 0)
(-0.00220746 -0.00187709 0)
(-0.00171937 -0.00264601 0)
(-0.00121575 -0.00327188 0)
(-0.000708014 -0.00379461 0)
(-0.000199094 -0.00424996 0)
(0.000330758 -0.00467801 0)
(0.000853385 -0.00506116 0)
(0.00136586 -0.00539335 0)
(0.00188343 -0.00568583 0)
(0.00239982 -0.0059256 0)
(0.00291556 -0.00609704 0)
(0.00343251 -0.00619637 0)
(0.00394604 -0.0062149 0)
(0.00445295 -0.00614874 0)
(0.00494986 -0.00600051 0)
(0.00543234 -0.00577595 0)
(0.00589603 -0.005484 0)
(0.00633707 -0.00513574 0)
(0.00675258 -0.00474348 0)
(0.00714061 -0.00432021 0)
(0.00749987 -0.00387898 0)
(0.00782931 -0.00343208 0)
(0.00812793 -0.00299069 0)
(0.0083946 -0.0025648 0)
(0.00862799 -0.00216336 0)
(0.00882649 -0.00179438 0)
(0.00898838 -0.0014649 0)
(0.00911222 -0.0011808 0)
(0.0091974 -0.000946482 0)
(0.00924469 -0.000764519 0)
(0.00925665 -0.000635426 0)
(0.00923771 -0.000557631 0)
(0.00919394 -0.000527699 0)
(0.00913256 -0.000540736 0)
(0.00906129 -0.000590912 0)
(0.00898773 -0.000671958 0)
(0.00891886 -0.000777575 0)
(0.0088607 -0.000901711 0)
(0.00881819 -0.00103871 0)
(0.00879508 -0.00118338 0)
(0.00879403 -0.00133096 0)
(0.00881667 -0.00147706 0)
(0.00886367 -0.00161768 0)
(0.0089348 -0.00174908 0)
(0.00902892 -0.00186783 0)
(0.00914397 -0.00197076 0)
(0.00927685 -0.00205503 0)
(0.00942333 -0.00211813 0)
(0.00957801 -0.0021579 0)
(0.009734 -0.00217242 0)
(0.00988267 -0.00215934 0)
(0.0100137 -0.00211473 0)
(0.0101153 -0.00203044 0)
(0.0101765 -0.00188806 0)
(0.0101938 -0.00164533 0)
(0.0101891 -0.00120131 0)
(0.0102546 -0.000313936 0)
(0.0106343 0.00140856 0)
(0.0115133 0.00398352 0)
(0.0126868 0.00672812 0)
(0.0137241 0.00889243 0)
(0.0142978 0.0101388 0)
(0.0142834 0.0104838 0)
(0.0137147 0.0101063 0)
(0.0127184 0.00922455 0)
(0.0114585 0.00803221 0)
(0.0100885 0.00667056 0)
(0.00871538 0.00522275 0)
(0.00738491 0.0037189 0)
(0.00607123 0.0021273 0)
(0.00461571 0.000368924 0)
(0.00338482 -0.00121381 0)
(0.00246418 -0.00242854 0)
(0.00179863 -0.00322716 0)
(0.00135372 -0.0035779 0)
(0.00106342 -0.00348615 0)
(0.000835466 -0.00297532 0)
(0.000661684 -0.00184829 0)
(0.000183692 0.00212499 0)
(0.000963616 0.0134117 0)
(0.000440273 0.00280007 0)
(0.000166341 -0.00799041 0)
(-9.74717e-05 -0.00537158 0)
(-0.000186705 -0.000848868 0)
(0.000155992 0.00490501 0)
(0.000309191 0.0118284 0)
(9.20041e-05 0.0162224 0)
(-0.000306423 0.0149971 0)
(-0.00087938 0.010061 0)
(-0.0013821 0.00636417 0)
(-0.00161987 0.00471517 0)
(-0.00165104 0.00397902 0)
(-0.00160269 0.00353574 0)
(-0.00150969 0.00317098 0)
(-0.00138587 0.00279052 0)
(-0.0012435 0.00233216 0)
(-0.00111543 0.00174604 0)
(-0.00102387 0.00097447 0)
(-0.000603935 -0.000130741 0)
(-0.000221846 -0.00135124 0)
(0.000208973 -0.00235496 0)
(0.000682939 -0.00315807 0)
(0.00115368 -0.00378268 0)
(0.00163372 -0.00430438 0)
(0.00212112 -0.0047615 0)
(0.00260768 -0.0051725 0)
(0.00308918 -0.00554465 0)
(0.00356707 -0.0058782 0)
(0.0040407 -0.00616904 0)
(0.00450654 -0.00640649 0)
(0.00496305 -0.00657648 0)
(0.00540958 -0.0066701 0)
(0.005844 -0.00668009 0)
(0.00626393 -0.00660292 0)
(0.00666695 -0.00644008 0)
(0.00705035 -0.00619726 0)
(0.00741144 -0.00588371 0)
(0.00774795 -0.00551114 0)
(0.00805832 -0.00509282 0)
(0.00834185 -0.00464257 0)
(0.00859858 -0.00417398 0)
(0.00882911 -0.0036997 0)
(0.00903438 -0.00323101 0)
(0.00921537 -0.00277775 0)
(0.00937282 -0.00234844 0)
(0.00950692 -0.00195056 0)
(0.0096172 -0.0015907 0)
(0.0097026 -0.00127468 0)
(0.00976177 -0.00100739 0)
(0.00979367 -0.000792474 0)
(0.00979809 -0.000632052 0)
(0.00977623 -0.000526375 0)
(0.00973092 -0.000473728 0)
(0.0096666 -0.00047054 0)
(0.00958901 -0.000511704 0)
(0.00950465 -0.00059104 0)
(0.00942023 -0.000701788 0)
(0.00934213 -0.000837048 0)
(0.00927598 -0.000990104 0)
(0.00922648 -0.00115461 0)
(0.00919724 -0.00132468 0)
(0.00919079 -0.00149486 0)
(0.00920859 -0.00166012 0)
(0.00925111 -0.00181575 0)
(0.00931783 -0.00195735 0)
(0.00940724 -0.00208079 0)
(0.00951681 -0.00218218 0)
(0.00964283 -0.00225783 0)
(0.00978043 -0.00230426 0)
(0.00992345 -0.00231805 0)
(0.0100644 -0.00229542 0)
(0.0101944 -0.00223114 0)
(0.010304 -0.00211682 0)
(0.0103842 -0.00193699 0)
(0.0104308 -0.00166129 0)
(0.0104559 -0.0012257 0)
(0.0105128 -0.000483266 0)
(0.0107632 0.000860948 0)
(0.0114324 0.00299771 0)
(0.0124891 0.00558324 0)
(0.0136023 0.00796524 0)
(0.0144262 0.00967577 0)
(0.0147723 0.0105601 0)
(0.0146079 0.0106724 0)
(0.0140018 0.010162 0)
(0.0130721 0.00920126 0)
(0.0119441 0.00794744 0)
(0.0107203 0.00652449 0)
(0.00946504 0.00501677 0)
(0.00820295 0.0034634 0)
(0.00689723 0.00183969 0)
(0.00541765 9.38307e-05 0)
(0.00411428 -0.00140822 0)
(0.00307095 -0.0024794 0)
(0.00227041 -0.00304796 0)
(0.0016691 -0.003096 0)
(0.00118301 -0.00264049 0)
(0.000792783 -0.00154675 0)
(0.000139075 0.00218467 0)
(0.00080484 0.0138677 0)
(0.0004647 0.00251208 0)
(-3.47367e-05 -0.00767347 0)
(-0.000254296 -0.0052688 0)
(3.42834e-05 -0.00124403 0)
(0.000672937 0.00448932 0)
(0.00127877 0.0114939 0)
(0.00157017 0.0161699 0)
(0.00153348 0.0155344 0)
(0.000988867 0.0110296 0)
(9.52469e-05 0.00673424 0)
(-0.000432058 0.00473569 0)
(-0.000470556 0.00388833 0)
(-0.000325515 0.00339083 0)
(-9.78338e-05 0.00299014 0)
(0.000189703 0.00258281 0)
(0.000526521 0.0021107 0)
(0.000844841 0.00156 0)
(0.00101923 0.000782502 0)
(0.00176093 -0.000543776 0)
(0.00212944 -0.00175242 0)
(0.0025099 -0.00276239 0)
(0.00292418 -0.00357449 0)
(0.00336451 -0.00422826 0)
(0.00382653 -0.00476937 0)
(0.00429981 -0.00523389 0)
(0.00477363 -0.00564535 0)
(0.0052407 -0.00601343 0)
(0.00569723 -0.00633959 0)
(0.00614019 -0.00661927 0)
(0.00656648 -0.00684286 0)
(0.00697381 -0.00699843 0)
(0.00736066 -0.00707588 0)
(0.00772555 -0.00706792 0)
(0.00806702 -0.00697111 0)
(0.00838373 -0.00678667 0)
(0.00867439 -0.00652029 0)
(0.00893787 -0.00618142 0)
(0.0091734 -0.00578234 0)
(0.00938076 -0.00533699 0)
(0.0095604 -0.00485997 0)
(0.00971351 -0.00436558 0)
(0.00984192 -0.00386701 0)
(0.00994797 -0.0033759 0)
(0.0100343 -0.00290208 0)
(0.0101033 -0.00245374 0)
(0.0101573 -0.00203768 0)
(0.0101975 -0.00165965 0)
(0.0102243 -0.00132467 0)
(0.0102371 -0.0010371 0)
(0.0102349 -0.000800627 0)
(0.0102165 -0.000617985 0)
(0.0101809 -0.000490598 0)
(0.0101286 -0.000418276 0)
(0.0100611 -0.000399032 0)
(0.00998147 -0.00042911 0)
(0.00989415 -0.000503227 0)
(0.00980433 -0.000614975 0)
(0.00971765 -0.000757281 0)
(0.0096396 -0.00092283 0)
(0.00957521 -0.0011044 0)
(0.00952868 -0.00129507 0)
(0.0095033 -0.00148833 0)
(0.00950135 -0.00167808 0)
(0.00952407 -0.00185857 0)
(0.00957169 -0.00202437 0)
(0.00964343 -0.00217027 0)
(0.00973744 -0.00229132 0)
(0.00985081 -0.00238273 0)
(0.00997942 -0.00243982 0)
(0.010118 -0.00245788 0)
(0.0102599 -0.00243187 0)
(0.0103976 -0.00235562 0)
(0.0105229 -0.00222055 0)
(0.0106278 -0.00201329 0)
(0.0107076 -0.00171098 0)
(0.0107672 -0.00127134 0)
(0.0108361 -0.00060587 0)
(0.0110069 0.000480903 0)
(0.0114732 0.00221797 0)
(0.0123234 0.00452958 0)
(0.0133686 0.00695099 0)
(0.0142945 0.0089753 0)
(0.0148704 0.0103087 0)
(0.0150057 0.0108801 0)
(0.0147173 0.0107599 0)
(0.0140815 0.0100862 0)
(0.0131952 0.00901539 0)
(0.0121476 0.00769218 0)
(0.0110062 0.00623195 0)
(0.00981263 0.00471092 0)
(0.00858094 0.00316183 0)
(0.00727044 0.00156913 0)
(0.00579979 -7.11457e-05 0)
(0.00446738 -0.00138356 0)
(0.00335245 -0.00218807 0)
(0.00244292 -0.00241745 0)
(0.00167735 -0.00206347 0)
(0.00104176 -0.00102822 0)
(0.000171759 0.0023981 0)
(0.000661074 0.0142541 0)
(0.00049949 0.00231152 0)
(-0.000209161 -0.00728348 0)
(-0.000440392 -0.00527779 0)
(7.90592e-05 -0.00184488 0)
(0.00110339 0.00370566 0)
(0.00211982 0.0106694 0)
(0.00294549 0.0155962 0)
(0.00339309 0.0156842 0)
(0.00313404 0.0120129 0)
(0.00217945 0.00782842 0)
(0.00117035 0.00510316 0)
(0.000792351 0.00375875 0)
(0.000891187 0.00310493 0)
(0.0011883 0.0026371 0)
(0.00158393 0.00218436 0)
(0.00205303 0.00168769 0)
(0.0024644 0.00114161 0)
(0.00303278 0.00027837 0)
(0.00368539 -0.000930259 0)
(0.00415557 -0.00211805 0)
(0.00458653 -0.00314945 0)
(0.00502382 -0.00399632 0)
(0.00547312 -0.00467874 0)
(0.00593331 -0.00523603 0)
(0.00639837 -0.00570489 0)
(0.00686007 -0.00611104 0)
(0.00731104 -0.00646769 0)
(0.00774566 -0.00677807 0)
(0.00815945 -0.00703811 0)
(0.00854868 -0.00723902 0)
(0.00891041 -0.00737007 0)
(0.00924262 -0.00742144 0)
(0.0095439 -0.00738614 0)
(0.00981334 -0.00726105 0)
(0.0100505 -0.00704758 0)
(0.0102551 -0.00675161 0)
(0.0104275 -0.00638289 0)
(0.0105681 -0.00595409 0)
(0.0106779 -0.00547975 0)
(0.0107585 -0.00497509 0)
(0.0108119 -0.00445508 0)
(0.0108409 -0.00393353 0)
(0.0108489 -0.00342252 0)
(0.0108396 -0.00293212 0)
(0.0108167 -0.00247038 0)
(0.0107841 -0.00204357 0)
(0.0107445 -0.00165659 0)
(0.0107003 -0.00131338 0)
(0.0106522 -0.0010173 0)
(0.0106002 -0.000771262 0)
(0.0105433 -0.00057772 0)
(0.0104802 -0.000438395 0)
(0.0104098 -0.000353947 0)
(0.0103319 -0.000323626 0)
(0.0102471 -0.000345043 0)
(0.0101575 -0.000414156 0)
(0.0100664 -0.000525475 0)
(0.00997777 -0.000672411 0)
(0.00989611 -0.00084767 0)
(0.00982599 -0.00104364 0)
(0.00977166 -0.00125271 0)
(0.00973673 -0.0014675 0)
(0.00972406 -0.00168095 0)
(0.00973562 -0.00188632 0)
(0.00977245 -0.00207716 0)
(0.00983455 -0.00224722 0)
(0.00992086 -0.00239041 0)
(0.0100293 -0.0025008 0)
(0.0101566 -0.00257255 0)
(0.0102983 -0.00259979 0)
(0.0104487 -0.00257637 0)
(0.010601 -0.00249519 0)
(0.0107475 -0.00234726 0)
(0.0108803 -0.00212028 0)
(0.0109932 -0.00179603 0)
(0.0110861 -0.0013451 0)
(0.0111742 -0.000712778 0)
(0.0113054 0.000222407 0)
(0.0116135 0.00165485 0)
(0.0122308 0.00366129 0)