/*--------------------------------*- C++ -*----------------------------------*\
| =========                 |                                                 |
| \\      /  F ield         | OpenFOAM: The Open Source CFD Toolbox           |
|  \\    /   O peration     | Version:  4.1                                   |
|   \\  /    A nd           | Web:      www.OpenFOAM.org                      |
|    \\/     M anipulation  |                                                 |
\*---------------------------------------------------------------------------*/
FoamFile
{
    version     2.0;
    format      ascii;
    class       volScalarField;
    location    "1820";
    object      p;
}
// * * * * * * * * * * * * * * * * * * * * * * * * * * * * * * * * * * * * * //

dimensions      [0 2 -2 0 0 0 0];

internalField   nonuniform List<scalar> 
5000
(
0
1.34055e-05
1.5771e-05
1.81725e-05
2.64238e-05
2.8634e-05
2.61681e-05
3.77861e-05
5.4443e-05
6.5497e-05
6.95204e-05
7.0537e-05
7.27246e-05
7.85542e-05
8.50631e-05
8.14781e-05
8.15696e-05
8.15886e-05
8.19095e-05
8.26393e-05
8.38061e-05
8.5411e-05
8.74352e-05
8.98397e-05
9.25585e-05
9.54773e-05
9.83946e-05
0.000100846
0.000102437
0.000102989
0.00010247
0.000100935
9.84861e-05
9.52456e-05
9.13413e-05
8.68935e-05
8.2009e-05
7.67791e-05
7.12806e-05
6.55778e-05
5.97267e-05
5.378e-05
4.77931e-05
4.18299e-05
3.59648e-05
3.02734e-05
2.48085e-05
1.95569e-05
1.436e-05
8.81838e-06
2.24132e-06
-6.19374e-06
-1.66266e-05
-2.67467e-05
-3.12433e-05
-2.25831e-05
-1.14703e-05
-2.68124e-05
-5.2411e-05
-6.82113e-05
-7.40005e-05
-7.38864e-05
-7.12823e-05
-5.98766e-05
-4.30734e-05
-2.84993e-05
-1.72559e-05
-8.09803e-06
2.33069e-07
8.49944e-06
1.70913e-05
2.59728e-05
3.45345e-05
4.16146e-05
4.58192e-05
4.72016e-05
4.61223e-05
4.26074e-05
3.70527e-05
2.98305e-05
2.12632e-05
1.16773e-05
1.44062e-06
-9.03792e-06
-1.93263e-05
-2.89938e-05
-3.76479e-05
-4.4979e-05
-5.07946e-05
-5.50462e-05
-5.78403e-05
-5.93789e-05
-5.98938e-05
-5.96611e-05
-5.90218e-05
-5.82971e-05
-5.74207e-05
-5.51491e-05
-4.82185e-05
-3.11638e-05
-0.0983965
-0.098399
-0.0983969
-0.0983933
-0.0983769
-0.0983739
-0.0983802
-0.0983712
-0.0983536
-0.0983376
-0.0983264
-0.0983189
-0.0983157
-0.0983149
-0.0983145
-0.0983112
-0.0983102
-0.0983084
-0.0983065
-0.0983044
-0.0983021
-0.0982996
-0.0982969
-0.0982942
-0.0982915
-0.098289
-0.0982868
-0.0982854
-0.0982849
-0.0982851
-0.0982862
-0.098288
-0.0982904
-0.0982934
-0.0982968
-0.0983006
-0.0983047
-0.0983089
-0.0983132
-0.0983176
-0.0983219
-0.0983263
-0.0983305
-0.0983347
-0.0983389
-0.0983433
-0.0983479
-0.0983529
-0.0983587
-0.0983655
-0.0983736
-0.0983832
-0.0983935
-0.0984016
-0.0984026
-0.0983898
-0.0983784
-0.0984018
-0.0984294
-0.0984434
-0.0984444
-0.0984427
-0.0984433
-0.0984455
-0.0984381
-0.0984264
-0.0984154
-0.0984065
-0.0983992
-0.0983925
-0.0983858
-0.0983788
-0.0983717
-0.0983654
-0.098361
-0.0983591
-0.0983595
-0.0983618
-0.0983663
-0.0983727
-0.0983805
-0.0983893
-0.0983988
-0.0984085
-0.0984179
-0.0984265
-0.098434
-0.09844
-0.0984442
-0.0984465
-0.0984471
-0.0984462
-0.098444
-0.0984409
-0.0984371
-0.0984328
-0.0984281
-0.0984219
-0.0984115
-0.0983893
-0.196792
-0.196802
-0.196811
-0.196808
-0.196796
-0.196799
-0.196807
-0.196798
-0.196776
-0.196757
-0.196745
-0.196737
-0.196733
-0.196732
-0.196731
-0.196729
-0.196727
-0.196725
-0.196723
-0.196721
-0.196719
-0.196716
-0.196713
-0.19671
-0.196707
-0.196705
-0.196702
-0.196701
-0.1967
-0.196701
-0.196702
-0.196704
-0.196706
-0.196709
-0.196713
-0.196716
-0.19672
-0.196725
-0.196729
-0.196733
-0.196737
-0.196741
-0.196746
-0.19675
-0.196754
-0.196758
-0.196762
-0.196767
-0.196773
-0.196779
-0.196787
-0.196797
-0.196808
-0.196817
-0.196819
-0.19681
-0.196802
-0.196825
-0.196856
-0.196871
-0.196866
-0.196851
-0.196836
-0.196843
-0.196842
-0.196837
-0.196829
-0.196821
-0.196815
-0.196809
-0.196803
-0.196797
-0.196791
-0.196784
-0.19678
-0.196778
-0.196779
-0.196781
-0.196785
-0.196791
-0.196799
-0.196808
-0.196817
-0.196827
-0.196837
-0.196846
-0.196853
-0.196859
-0.196864
-0.196866
-0.196866
-0.196864
-0.196861
-0.196857
-0.196851
-0.196845
-0.196838
-0.196829
-0.196817
-0.196796
-0.295192
-0.295204
-0.295216
-0.295215
-0.29521
-0.295219
-0.295228
-0.295217
-0.295194
-0.295174
-0.295162
-0.295155
-0.295151
-0.295149
-0.295148
-0.295146
-0.295145
-0.295143
-0.295141
-0.295139
-0.295136
-0.295133
-0.29513
-0.295127
-0.295124
-0.295121
-0.295119
-0.295117
-0.295117
-0.295117
-0.295118
-0.29512
-0.295123
-0.295126
-0.295129
-0.295133
-0.295137
-0.295141
-0.295145
-0.295149
-0.295153
-0.295157
-0.295161
-0.295165
-0.295169
-0.295173
-0.295177
-0.295182
-0.295187
-0.295193
-0.295201
-0.295211
-0.295223
-0.295235
-0.295242
-0.295239
-0.295236
-0.295252
-0.295282
-0.295297
-0.295289
-0.295272
-0.29525
-0.295239
-0.29524
-0.295241
-0.295238
-0.295234
-0.295229
-0.295225
-0.29522
-0.295216
-0.29521
-0.295204
-0.2952
-0.295198
-0.295198
-0.2952
-0.295204
-0.29521
-0.295218
-0.295227
-0.295237
-0.295247
-0.295257
-0.295266
-0.295274
-0.29528
-0.295284
-0.295286
-0.295286
-0.295284
-0.29528
-0.295275
-0.295269
-0.295263
-0.295255
-0.295247
-0.295237
-0.29522
-0.393591
-0.393603
-0.39361
-0.393612
-0.393613
-0.393625
-0.393631
-0.393621
-0.393603
-0.393587
-0.393577
-0.393571
-0.393568
-0.393566
-0.393565
-0.393563
-0.393562
-0.39356
-0.393558
-0.393556
-0.393553
-0.39355
-0.393547
-0.393544
-0.393541
-0.393538
-0.393536
-0.393534
-0.393534
-0.393534
-0.393536
-0.393538
-0.39354
-0.393543
-0.393546
-0.39355
-0.393553
-0.393557
-0.393561
-0.393565
-0.393569
-0.393572
-0.393576
-0.39358
-0.393584
-0.393588
-0.393592
-0.393596
-0.3936
-0.393606
-0.393613
-0.393623
-0.393635
-0.393649
-0.39366
-0.393661
-0.393657
-0.393666
-0.393686
-0.3937
-0.393698
-0.393682
-0.39366
-0.393637
-0.393635
-0.393639
-0.393642
-0.393642
-0.393642
-0.39364
-0.393637
-0.393634
-0.39363
-0.393625
-0.39362
-0.393617
-0.393617
-0.393619
-0.393623
-0.393629
-0.393637
-0.393646
-0.393656
-0.393667
-0.393678
-0.393687
-0.393696
-0.393702
-0.393706
-0.393708
-0.393708
-0.393705
-0.393701
-0.393696
-0.39369
-0.393683
-0.393675
-0.393668
-0.393661
-0.393647
-0.491987
-0.491995
-0.491999
-0.492002
-0.492008
-0.492021
-0.492022
-0.492018
-0.492007
-0.491997
-0.49199
-0.491986
-0.491984
-0.491982
-0.491981
-0.49198
-0.491979
-0.491977
-0.491975
-0.491973
-0.49197
-0.491967
-0.491964
-0.491961
-0.491958
-0.491955
-0.491953
-0.491952
-0.491951
-0.491952
-0.491953
-0.491955
-0.491958
-0.491961
-0.491964
-0.491967
-0.491971
-0.491974
-0.491978
-0.491981
-0.491985
-0.491988
-0.491992
-0.491995
-0.491999
-0.492002
-0.492006
-0.492009
-0.492013
-0.492018
-0.492024
-0.492033
-0.492044
-0.492058
-0.49207
-0.492073
-0.492065
-0.492065
-0.492077
-0.492087
-0.492088
-0.492078
-0.492061
-0.492042
-0.492035
-0.492038
-0.492044
-0.492049
-0.492052
-0.492054
-0.492054
-0.492053
-0.49205
-0.492046
-0.492041
-0.492037
-0.492036
-0.492038
-0.492042
-0.492048
-0.492056
-0.492065
-0.492076
-0.492087
-0.492099
-0.492109
-0.492118
-0.492125
-0.492129
-0.492131
-0.49213
-0.492127
-0.492123
-0.492118
-0.492111
-0.492104
-0.492097
-0.49209
-0.492085
-0.492074
-0.590384
-0.590388
-0.59039
-0.590392
-0.590398
-0.590415
-0.590418
-0.590417
-0.590411
-0.590406
-0.590402
-0.5904
-0.590398
-0.590398
-0.590397
-0.590396
-0.590395
-0.590394
-0.590392
-0.59039
-0.590387
-0.590384
-0.590381
-0.590378
-0.590375
-0.590373
-0.590371
-0.59037
-0.59037
-0.59037
-0.590372
-0.590374
-0.590376
-0.590379
-0.590382
-0.590385
-0.590388
-0.590392
-0.590395
-0.590398
-0.590401
-0.590405
-0.590408
-0.590411
-0.590414
-0.590417
-0.59042
-0.590423
-0.590426
-0.590429
-0.590434
-0.59044
-0.590449
-0.590461
-0.590472
-0.590473
-0.590462
-0.590456
-0.590461
-0.590469
-0.590471
-0.590467
-0.590457
-0.590446
-0.590438
-0.59044
-0.590446
-0.590454
-0.590461
-0.590466
-0.59047
-0.590472
-0.590471
-0.590467
-0.590461
-0.590456
-0.590454
-0.590455
-0.590459
-0.590465
-0.590474
-0.590484
-0.590495
-0.590507
-0.590519
-0.590531
-0.59054
-0.590547
-0.590552
-0.590554
-0.590553
-0.59055
-0.590545
-0.59054
-0.590534
-0.590527
-0.590521
-0.590514
-0.590509
-0.590501
-0.688784
-0.688786
-0.688786
-0.688785
-0.68879
-0.688804
-0.688816
-0.688817
-0.688816
-0.688815
-0.688813
-0.688813
-0.688813
-0.688813
-0.688813
-0.688813
-0.688812
-0.688811
-0.688809
-0.688807
-0.688805
-0.688802
-0.688799
-0.688796
-0.688793
-0.688791
-0.68879
-0.688789
-0.688788
-0.688789
-0.68879
-0.688792
-0.688795
-0.688798
-0.6888
-0.688803
-0.688807
-0.68881
-0.688813
-0.688816
-0.688819
-0.688821
-0.688824
-0.688827
-0.688829
-0.688831
-0.688834
-0.688836
-0.688838
-0.68884
-0.688843
-0.688847
-0.688852
-0.688859
-0.688866
-0.688863
-0.688851
-0.688843
-0.688846
-0.688852
-0.688856
-0.688856
-0.688853
-0.688848
-0.688844
-0.688845
-0.68885
-0.688859
-0.688868
-0.688877
-0.688885
-0.68889
-0.688892
-0.688889
-0.688882
-0.688874
-0.68887
-0.688871
-0.688875
-0.688881
-0.68889
-0.688901
-0.688913
-0.688926
-0.688939
-0.688951
-0.688962
-0.68897
-0.688974
-0.688976
-0.688975
-0.688972
-0.688967
-0.688962
-0.688956
-0.68895
-0.688944
-0.688938
-0.688934
-0.688927
-0.787189
-0.78719
-0.787189
-0.787186
-0.787188
-0.787196
-0.78721
-0.787218
-0.787222
-0.787224
-0.787225
-0.787226
-0.787227
-0.787228
-0.787228
-0.787229
-0.787229
-0.787228
-0.787227
-0.787225
-0.787223
-0.78722
-0.787217
-0.787214
-0.787211
-0.787209
-0.787208
-0.787208
-0.787207
-0.787208
-0.78721
-0.787212
-0.787214
-0.787217
-0.787219
-0.787222
-0.787225
-0.787228
-0.787231
-0.787234
-0.787236
-0.787239
-0.787241
-0.787243
-0.787245
-0.787247
-0.787248
-0.787249
-0.787251
-0.787251
-0.787252
-0.787253
-0.787255
-0.787257
-0.787257
-0.78725
-0.787238
-0.787231
-0.787233
-0.787239
-0.787245
-0.787249
-0.787251
-0.787251
-0.787251
-0.787252
-0.787257
-0.787264
-0.787274
-0.787285
-0.787296
-0.787304
-0.787309
-0.787308
-0.7873
-0.787289
-0.787284
-0.787284
-0.787288
-0.787295
-0.787304
-0.787316
-0.787329
-0.787343
-0.787357
-0.78737
-0.787381
-0.78739
-0.787395
-0.787397
-0.787396
-0.787392
-0.787388
-0.787383
-0.787378
-0.787372
-0.787367
-0.787362
-0.787358
-0.787352
-0.885601
-0.885601
-0.8856
-0.885597
-0.885597
-0.885601
-0.885614
-0.885624
-0.885631
-0.885635
-0.885638
-0.88564
-0.885642
-0.885643
-0.885644
-0.885645
-0.885646
-0.885646
-0.885645
-0.885644
-0.885641
-0.885639
-0.885636
-0.885633
-0.88563
-0.885628
-0.885628
-0.885627
-0.885627
-0.885628
-0.885629
-0.885631
-0.885633
-0.885636
-0.885639
-0.885641
-0.885644
-0.885647
-0.885649
-0.885652
-0.885654
-0.885656
-0.885658
-0.88566
-0.885661
-0.885662
-0.885663
-0.885664
-0.885664
-0.885663
-0.885662
-0.885661
-0.885659
-0.885656
-0.885651
-0.885641
-0.88563
-0.885626
-0.885628
-0.885635
-0.885642
-0.885648
-0.885653
-0.885656
-0.885658
-0.885661
-0.885665
-0.885671
-0.885679
-0.885689
-0.8857
-0.885709
-0.885716
-0.885715
-0.88571
-0.885699
-0.885692
-0.885692
-0.885697
-0.885705
-0.885716
-0.885728
-0.885743
-0.885758
-0.885773
-0.885786
-0.885798
-0.885807
-0.885812
-0.885815
-0.885814
-0.885811
-0.885807
-0.885803
-0.885798
-0.885793
-0.885789
-0.885784
-0.885781
-0.885776
-0.984017
-0.984017
-0.984016
-0.984014
-0.984013
-0.984017
-0.984027
-0.984037
-0.984044
-0.984049
-0.984052
-0.984055
-0.984057
-0.984059
-0.984061
-0.984062
-0.984063
-0.984064
-0.984064
-0.984063
-0.984061
-0.984058
-0.984055
-0.984052
-0.984049
-0.984048
-0.984047
-0.984046
-0.984046
-0.984047
-0.984049
-0.984051
-0.984053
-0.984055
-0.984058
-0.984061
-0.984063
-0.984066
-0.984068
-0.98407
-0.984073
-0.984074
-0.984076
-0.984077
-0.984078
-0.984079
-0.984079
-0.984079
-0.984078
-0.984076
-0.984074
-0.984071
-0.984066
-0.98406
-0.984052
-0.984041
-0.984032
-0.984029
-0.984032
-0.984039
-0.984046
-0.984053
-0.984059
-0.984064
-0.984067
-0.98407
-0.984074
-0.984079
-0.984085
-0.984092
-0.9841
-0.984106
-0.98411
-0.984111
-0.984107
-0.984098
-0.984094
-0.984096
-0.984102
-0.984111
-0.984123
-0.984137
-0.984153
-0.984169
-0.984184
-0.984198
-0.98421
-0.984219
-0.984225
-0.984228
-0.984228
-0.984226
-0.984223
-0.98422
-0.984216
-0.984212
-0.984209
-0.984205
-0.984203
-0.984196
-1.08244
-1.08244
-1.08244
-1.08243
-1.08243
-1.08244
-1.08245
-1.08245
-1.08246
-1.08246
-1.08247
-1.08247
-1.08247
-1.08248
-1.08248
-1.08248
-1.08248
-1.08248
-1.08248
-1.08248
-1.08248
-1.08248
-1.08247
-1.08247
-1.08247
-1.08247
-1.08247
-1.08247
-1.08247
-1.08247
-1.08247
-1.08247
-1.08247
-1.08248
-1.08248
-1.08248
-1.08248
-1.08249
-1.08249
-1.08249
-1.08249
-1.08249
-1.08249
-1.0825
-1.0825
-1.0825
-1.0825
-1.08249
-1.08249
-1.08249
-1.08249
-1.08248
-1.08248
-1.08247
-1.08246
-1.08245
-1.08244
-1.08244
-1.08244
-1.08245
-1.08246
-1.08246
-1.08247
-1.08247
-1.08248
-1.08248
-1.08248
-1.08249
-1.08249
-1.0825
-1.0825
-1.0825
-1.0825
-1.0825
-1.08249
-1.08249
-1.08249
-1.08249
-1.0825
-1.08251
-1.08253
-1.08254
-1.08256
-1.08258
-1.08259
-1.08261
-1.08262
-1.08263
-1.08263
-1.08264
-1.08264
-1.08264
-1.08264
-1.08263
-1.08263
-1.08263
-1.08263
-1.08262
-1.08262
-1.08261
-1.18086
-1.18086
-1.18086
-1.18086
-1.18086
-1.18086
-1.18086
-1.18087
-1.18088
-1.18088
-1.18088
-1.18089
-1.18089
-1.18089
-1.1809
-1.1809
-1.1809
-1.1809
-1.1809
-1.1809
-1.1809
-1.1809
-1.1809
-1.18089
-1.18089
-1.18089
-1.18089
-1.18089
-1.18089
-1.18089
-1.18089
-1.18089
-1.18089
-1.1809
-1.1809
-1.1809
-1.1809
-1.1809
-1.18091
-1.18091
-1.18091
-1.18091
-1.18091
-1.18091
-1.18091
-1.18091
-1.18091
-1.18091
-1.18091
-1.18091
-1.1809
-1.1809
-1.18089
-1.18089
-1.18088
-1.18087
-1.18086
-1.18086
-1.18086
-1.18087
-1.18087
-1.18088
-1.18088
-1.18089
-1.18089
-1.18089
-1.18089
-1.1809
-1.1809
-1.1809
-1.1809
-1.1809
-1.18089
-1.18089
-1.18088
-1.18088
-1.18088
-1.18089
-1.1809
-1.18092
-1.18093
-1.18095
-1.18096
-1.18098
-1.181
-1.18101
-1.18102
-1.18103
-1.18104
-1.18104
-1.18105
-1.18105
-1.18105
-1.18104
-1.18104
-1.18104
-1.18104
-1.18103
-1.18103
-1.18101
-1.27927
-1.27928
-1.27928
-1.27928
-1.27928
-1.27928
-1.27928
-1.27929
-1.27929
-1.2793
-1.2793
-1.2793
-1.27931
-1.27931
-1.27931
-1.27932
-1.27932
-1.27932
-1.27932
-1.27932
-1.27932
-1.27932
-1.27932
-1.27931
-1.27931
-1.27931
-1.27931
-1.27931
-1.27931
-1.27931
-1.27931
-1.27931
-1.27931
-1.27932
-1.27932
-1.27932
-1.27932
-1.27932
-1.27933
-1.27933
-1.27933
-1.27933
-1.27933
-1.27933
-1.27933
-1.27933
-1.27933
-1.27933
-1.27933
-1.27933
-1.27932
-1.27932
-1.27931
-1.2793
-1.2793
-1.27929
-1.27929
-1.27928
-1.27929
-1.27929
-1.27929
-1.2793
-1.2793
-1.2793
-1.2793
-1.27931
-1.27931
-1.27931
-1.27931
-1.27931
-1.2793
-1.2793
-1.27929
-1.27928
-1.27928
-1.27927
-1.27928
-1.27929
-1.2793
-1.27932
-1.27933
-1.27935
-1.27936
-1.27938
-1.2794
-1.27941
-1.27942
-1.27943
-1.27944
-1.27944
-1.27945
-1.27945
-1.27945
-1.27945
-1.27944
-1.27944
-1.27944
-1.27943
-1.27942
-1.2794
-1.37769
-1.37769
-1.3777
-1.3777
-1.3777
-1.3777
-1.3777
-1.37771
-1.37771
-1.37771
-1.37772
-1.37772
-1.37772
-1.37773
-1.37773
-1.37774
-1.37774
-1.37774
-1.37774
-1.37775
-1.37774
-1.37774
-1.37774
-1.37774
-1.37773
-1.37773
-1.37773
-1.37773
-1.37773
-1.37773
-1.37773
-1.37773
-1.37773
-1.37774
-1.37774
-1.37774
-1.37774
-1.37775
-1.37775
-1.37775
-1.37775
-1.37775
-1.37775
-1.37775
-1.37775
-1.37775
-1.37775
-1.37775
-1.37775
-1.37774
-1.37774
-1.37774
-1.37773
-1.37773
-1.37772
-1.37771
-1.37771
-1.37771
-1.37771
-1.37771
-1.37771
-1.37771
-1.37772
-1.37772
-1.37772
-1.37772
-1.37772
-1.37772
-1.37772
-1.37772
-1.37771
-1.3777
-1.37769
-1.37768
-1.37767
-1.37767
-1.37768
-1.37769
-1.3777
-1.37772
-1.37773
-1.37775
-1.37777
-1.37778
-1.3778
-1.37781
-1.37782
-1.37783
-1.37783
-1.37784
-1.37784
-1.37784
-1.37784
-1.37784
-1.37783
-1.37783
-1.37782
-1.37781
-1.3778
-1.37778
-1.47611
-1.47611
-1.47611
-1.47612
-1.47612
-1.47612
-1.47612
-1.47613
-1.47613
-1.47613
-1.47613
-1.47614
-1.47614
-1.47615
-1.47615
-1.47616
-1.47616
-1.47616
-1.47617
-1.47617
-1.47617
-1.47617
-1.47616
-1.47616
-1.47616
-1.47616
-1.47615
-1.47615
-1.47615
-1.47615
-1.47615
-1.47615
-1.47616
-1.47616
-1.47616
-1.47616
-1.47616
-1.47617
-1.47617
-1.47617
-1.47617
-1.47617
-1.47617
-1.47617
-1.47617
-1.47617
-1.47617
-1.47617
-1.47617
-1.47617
-1.47616
-1.47616
-1.47615
-1.47615
-1.47614
-1.47614
-1.47614
-1.47613
-1.47613
-1.47613
-1.47613
-1.47613
-1.47613
-1.47613
-1.47613
-1.47613
-1.47613
-1.47613
-1.47613
-1.47613
-1.47612
-1.47611
-1.4761
-1.47609
-1.47608
-1.47608
-1.47608
-1.47609
-1.47611
-1.47612
-1.47614
-1.47615
-1.47617
-1.47618
-1.4762
-1.47621
-1.47622
-1.47622
-1.47623
-1.47623
-1.47623
-1.47623
-1.47623
-1.47622
-1.47621
-1.4762
-1.47619
-1.47618
-1.47616
-1.47614
-1.57453
-1.57453
-1.57453
-1.57453
-1.57454
-1.57454
-1.57454
-1.57454
-1.57455
-1.57455
-1.57455
-1.57456
-1.57456
-1.57457
-1.57457
-1.57458
-1.57458
-1.57459
-1.57459
-1.57459
-1.57459
-1.57459
-1.57459
-1.57459
-1.57458
-1.57458
-1.57458
-1.57457
-1.57457
-1.57457
-1.57457
-1.57457
-1.57458
-1.57458
-1.57458
-1.57458
-1.57459
-1.57459
-1.57459
-1.57459
-1.57459
-1.57459
-1.5746
-1.5746
-1.5746
-1.57459
-1.57459
-1.57459
-1.57459
-1.57459
-1.57458
-1.57458
-1.57458
-1.57457
-1.57457
-1.57456
-1.57456
-1.57456
-1.57456
-1.57455
-1.57455
-1.57455
-1.57455
-1.57455
-1.57455
-1.57455
-1.57455
-1.57455
-1.57455
-1.57454
-1.57454
-1.57452
-1.57451
-1.5745
-1.57449
-1.57449
-1.57449
-1.5745
-1.57452
-1.57453
-1.57455
-1.57456
-1.57458
-1.57459
-1.5746
-1.57461
-1.57462
-1.57462
-1.57462
-1.57462
-1.57462
-1.57462
-1.57461
-1.5746
-1.57459
-1.57457
-1.57456
-1.57454
-1.57451
-1.5745
-1.67295
-1.67295
-1.67295
-1.67295
-1.67295
-1.67296
-1.67296
-1.67296
-1.67296
-1.67297
-1.67297
-1.67297
-1.67298
-1.67298
-1.67299
-1.673
-1.673
-1.67301
-1.67301
-1.67301
-1.67302
-1.67302
-1.67301
-1.67301
-1.67301
-1.673
-1.673
-1.673
-1.673
-1.67299
-1.673
-1.673
-1.673
-1.673
-1.673
-1.673
-1.67301
-1.67301
-1.67301
-1.67301
-1.67301
-1.67302
-1.67302
-1.67302
-1.67302
-1.67302
-1.67302
-1.67301
-1.67301
-1.67301
-1.67301
-1.673
-1.673
-1.673
-1.67299
-1.67299
-1.67298
-1.67298
-1.67298
-1.67298
-1.67298
-1.67297
-1.67297
-1.67297
-1.67297
-1.67297
-1.67297
-1.67296
-1.67296
-1.67296
-1.67295
-1.67294
-1.67293
-1.67291
-1.6729
-1.6729
-1.67291
-1.67292
-1.67293
-1.67295
-1.67296
-1.67297
-1.67299
-1.673
-1.67301
-1.67302
-1.67302
-1.67302
-1.67302
-1.67302
-1.67302
-1.67301
-1.673
-1.67299
-1.67297
-1.67295
-1.67293
-1.67291
-1.67289
-1.67288
-1.77137
-1.77137
-1.77137
-1.77137
-1.77137
-1.77137
-1.77138
-1.77138
-1.77138
-1.77138
-1.77139
-1.77139
-1.7714
-1.7714
-1.77141
-1.77141
-1.77142
-1.77143
-1.77143
-1.77144
-1.77144
-1.77144
-1.77144
-1.77144
-1.77143
-1.77143
-1.77142
-1.77142
-1.77142
-1.77142
-1.77142
-1.77142
-1.77142
-1.77142
-1.77142
-1.77143
-1.77143
-1.77143
-1.77143
-1.77144
-1.77144
-1.77144
-1.77144
-1.77144
-1.77144
-1.77144
-1.77144
-1.77144
-1.77144
-1.77143
-1.77143
-1.77143
-1.77142
-1.77142
-1.77142
-1.77141
-1.77141
-1.77141
-1.7714
-1.7714
-1.7714
-1.7714
-1.77139
-1.77139
-1.77139
-1.77139
-1.77138
-1.77138
-1.77138
-1.77137
-1.77137
-1.77136
-1.77134
-1.77133
-1.77132
-1.77132
-1.77133
-1.77134
-1.77135
-1.77136
-1.77138
-1.77139
-1.7714
-1.77141
-1.77142
-1.77143
-1.77143
-1.77143
-1.77143
-1.77143
-1.77142
-1.77141
-1.7714
-1.77138
-1.77137
-1.77134
-1.77132
-1.7713
-1.77128
-1.77127
-1.86979
-1.86979
-1.86979
-1.86979
-1.86979
-1.86979
-1.86979
-1.8698
-1.8698
-1.8698
-1.8698
-1.86981
-1.86981
-1.86982
-1.86983
-1.86983
-1.86984
-1.86985
-1.86986
-1.86986
-1.86986
-1.86987
-1.86986
-1.86986
-1.86986
-1.86985
-1.86985
-1.86984
-1.86984
-1.86984
-1.86984
-1.86984
-1.86984
-1.86984
-1.86985
-1.86985
-1.86985
-1.86985
-1.86986
-1.86986
-1.86986
-1.86986
-1.86986
-1.86986
-1.86986
-1.86986
-1.86986
-1.86986
-1.86986
-1.86986
-1.86986
-1.86985
-1.86985
-1.86985
-1.86984
-1.86984
-1.86983
-1.86983
-1.86983
-1.86982
-1.86982
-1.86982
-1.86981
-1.86981
-1.86981
-1.86981
-1.8698
-1.8698
-1.8698
-1.86979
-1.86978
-1.86978
-1.86976
-1.86975
-1.86975
-1.86975
-1.86975
-1.86976
-1.86977
-1.86979
-1.8698
-1.86981
-1.86982
-1.86983
-1.86984
-1.86985
-1.86985
-1.86985
-1.86985
-1.86984
-1.86983
-1.86982
-1.86981
-1.86979
-1.86977
-1.86975
-1.86973
-1.86971
-1.86969
-1.86968
-1.9682
-1.9682
-1.9682
-1.96821
-1.96821
-1.96821
-1.96821
-1.96821
-1.96822
-1.96822
-1.96822
-1.96822
-1.96823
-1.96824
-1.96824
-1.96825
-1.96826
-1.96827
-1.96828
-1.96828
-1.96829
-1.96829
-1.96829
-1.96829
-1.96828
-1.96827
-1.96827
-1.96827
-1.96826
-1.96826
-1.96826
-1.96826
-1.96826
-1.96827
-1.96827
-1.96827
-1.96827
-1.96828
-1.96828
-1.96828
-1.96828
-1.96829
-1.96829
-1.96829
-1.96829
-1.96829
-1.96829
-1.96829
-1.96829
-1.96828
-1.96828
-1.96828
-1.96827
-1.96827
-1.96827
-1.96826
-1.96826
-1.96826
-1.96825
-1.96825
-1.96824
-1.96824
-1.96824
-1.96823
-1.96823
-1.96823
-1.96822
-1.96822
-1.96821
-1.96821
-1.9682
-1.9682
-1.96819
-1.96818
-1.96817
-1.96817
-1.96818
-1.96819
-1.9682
-1.96821
-1.96822
-1.96823
-1.96824
-1.96825
-1.96826
-1.96827
-1.96827
-1.96827
-1.96826
-1.96826
-1.96825
-1.96824
-1.96822
-1.96821
-1.96819
-1.96817
-1.96814
-1.96812
-1.9681
-1.9681
-2.06662
-2.06662
-2.06662
-2.06662
-2.06662
-2.06663
-2.06663
-2.06663
-2.06663
-2.06663
-2.06664
-2.06664
-2.06665
-2.06665
-2.06666
-2.06667
-2.06668
-2.06668
-2.06669
-2.0667
-2.06671
-2.06671
-2.06671
-2.06671
-2.0667
-2.0667
-2.06669
-2.06669
-2.06668
-2.06668
-2.06668
-2.06668
-2.06669
-2.06669
-2.06669
-2.06669
-2.0667
-2.0667
-2.0667
-2.06671
-2.06671
-2.06671
-2.06671
-2.06671
-2.06671
-2.06671
-2.06671
-2.06671
-2.06671
-2.06671
-2.06671
-2.0667
-2.0667
-2.0667
-2.06669
-2.06669
-2.06669
-2.06668
-2.06668
-2.06667
-2.06667
-2.06666
-2.06666
-2.06666
-2.06665
-2.06665
-2.06664
-2.06664
-2.06664
-2.06663
-2.06663
-2.06662
-2.06661
-2.0666
-2.0666
-2.0666
-2.06661
-2.06662
-2.06663
-2.06664
-2.06665
-2.06666
-2.06667
-2.06668
-2.06668
-2.06669
-2.06669
-2.06669
-2.06668
-2.06668
-2.06667
-2.06665
-2.06664
-2.06662
-2.06661
-2.06659
-2.06656
-2.06654
-2.06653
-2.06652
-2.16504
-2.16504
-2.16504
-2.16504
-2.16504
-2.16504
-2.16504
-2.16505
-2.16505
-2.16505
-2.16505
-2.16506
-2.16506
-2.16507
-2.16507
-2.16508
-2.16509
-2.1651
-2.16511
-2.16512
-2.16512
-2.16513
-2.16513
-2.16513
-2.16512
-2.16512
-2.16511
-2.16511
-2.16511
-2.1651
-2.1651
-2.16511
-2.16511
-2.16511
-2.16511
-2.16512
-2.16512
-2.16512
-2.16513
-2.16513
-2.16513
-2.16513
-2.16514
-2.16514
-2.16514
-2.16514
-2.16514
-2.16514
-2.16514
-2.16514
-2.16513
-2.16513
-2.16513
-2.16512
-2.16512
-2.16512
-2.16511
-2.16511
-2.1651
-2.1651
-2.16509
-2.16509
-2.16508
-2.16508
-2.16507
-2.16507
-2.16507
-2.16506
-2.16506
-2.16505
-2.16505
-2.16504
-2.16504
-2.16503
-2.16503
-2.16503
-2.16504
-2.16505
-2.16506
-2.16507
-2.16508
-2.16509
-2.16509
-2.1651
-2.16511
-2.16511
-2.16511
-2.16511
-2.1651
-2.1651
-2.16509
-2.16507
-2.16506
-2.16505
-2.16503
-2.16501
-2.16499
-2.16497
-2.16496
-2.16495
-2.26345
-2.26345
-2.26345
-2.26346
-2.26346
-2.26346
-2.26346
-2.26346
-2.26347
-2.26347
-2.26347
-2.26347
-2.26348
-2.26348
-2.26349
-2.26349
-2.2635
-2.26351
-2.26352
-2.26353
-2.26354
-2.26354
-2.26354
-2.26354
-2.26354
-2.26354
-2.26353
-2.26353
-2.26353
-2.26352
-2.26353
-2.26353
-2.26353
-2.26353
-2.26354
-2.26354
-2.26354
-2.26355
-2.26355
-2.26355
-2.26356
-2.26356
-2.26356
-2.26356
-2.26356
-2.26357
-2.26357
-2.26356
-2.26356
-2.26356
-2.26356
-2.26356
-2.26355
-2.26355
-2.26355
-2.26354
-2.26354
-2.26353
-2.26353
-2.26352
-2.26352
-2.26351
-2.26351
-2.2635
-2.2635
-2.26349
-2.26349
-2.26348
-2.26348
-2.26348
-2.26347
-2.26347
-2.26346
-2.26346
-2.26346
-2.26346
-2.26347
-2.26348
-2.26349
-2.2635
-2.2635
-2.26351
-2.26352
-2.26353
-2.26353
-2.26353
-2.26353
-2.26353
-2.26353
-2.26352
-2.26351
-2.2635
-2.26348
-2.26347
-2.26345
-2.26344
-2.26342
-2.2634
-2.26339
-2.26339
-2.36187
-2.36187
-2.36187
-2.36187
-2.36187
-2.36188
-2.36188
-2.36188
-2.36188
-2.36188
-2.36189
-2.36189
-2.36189
-2.36189
-2.3619
-2.36191
-2.36191
-2.36192
-2.36193
-2.36194
-2.36194
-2.36195
-2.36195
-2.36195
-2.36195
-2.36195
-2.36195
-2.36194
-2.36194
-2.36194
-2.36195
-2.36195
-2.36195
-2.36196
-2.36196
-2.36196
-2.36197
-2.36197
-2.36198
-2.36198
-2.36198
-2.36199
-2.36199
-2.36199
-2.36199
-2.36199
-2.36199
-2.36199
-2.36199
-2.36199
-2.36199
-2.36198
-2.36198
-2.36198
-2.36197
-2.36197
-2.36196
-2.36196
-2.36195
-2.36195
-2.36194
-2.36194
-2.36193
-2.36193
-2.36192
-2.36192
-2.36191
-2.36191
-2.3619
-2.3619
-2.3619
-2.36189
-2.36189
-2.36189
-2.36189
-2.36189
-2.3619
-2.36191
-2.36192
-2.36192
-2.36193
-2.36194
-2.36195
-2.36195
-2.36196
-2.36196
-2.36196
-2.36195
-2.36195
-2.36194
-2.36193
-2.36192
-2.36191
-2.36189
-2.36188
-2.36186
-2.36185
-2.36183
-2.36182
-2.36182
-2.46029
-2.46029
-2.46029
-2.46029
-2.46029
-2.46029
-2.46029
-2.4603
-2.4603
-2.4603
-2.4603
-2.4603
-2.4603
-2.46031
-2.46031
-2.46032
-2.46032
-2.46033
-2.46034
-2.46035
-2.46035
-2.46036
-2.46036
-2.46036
-2.46036
-2.46036
-2.46036
-2.46036
-2.46036
-2.46036
-2.46037
-2.46037
-2.46037
-2.46038
-2.46038
-2.46039
-2.46039
-2.4604
-2.4604
-2.4604
-2.46041
-2.46041
-2.46041
-2.46042
-2.46042
-2.46042
-2.46042
-2.46042
-2.46042
-2.46042
-2.46041
-2.46041
-2.46041
-2.4604
-2.4604
-2.46039
-2.46039
-2.46038
-2.46038
-2.46037
-2.46037
-2.46036
-2.46036
-2.46035
-2.46035
-2.46034
-2.46034
-2.46033
-2.46033
-2.46033
-2.46032
-2.46032
-2.46032
-2.46032
-2.46032
-2.46032
-2.46033
-2.46034
-2.46034
-2.46035
-2.46036
-2.46037
-2.46037
-2.46038
-2.46038
-2.46038
-2.46038
-2.46038
-2.46037
-2.46036
-2.46036
-2.46034
-2.46033
-2.46032
-2.46031
-2.46029
-2.46028
-2.46027
-2.46026
-2.46025
-2.5587
-2.5587
-2.5587
-2.5587
-2.55871
-2.55871
-2.55871
-2.55871
-2.55871
-2.55871
-2.55872
-2.55872
-2.55872
-2.55872
-2.55872
-2.55873
-2.55873
-2.55874
-2.55874
-2.55875
-2.55875
-2.55876
-2.55876
-2.55877
-2.55877
-2.55877
-2.55877
-2.55878
-2.55878
-2.55878
-2.55879
-2.55879
-2.5588
-2.5588
-2.55881
-2.55881
-2.55882
-2.55882
-2.55883
-2.55883
-2.55883
-2.55884
-2.55884
-2.55884
-2.55884
-2.55884
-2.55884
-2.55884
-2.55884
-2.55884
-2.55884
-2.55884
-2.55883
-2.55883
-2.55883
-2.55882
-2.55882
-2.55881
-2.5588
-2.5588
-2.55879
-2.55879
-2.55878
-2.55878
-2.55877
-2.55877
-2.55876
-2.55876
-2.55875
-2.55875
-2.55875
-2.55875
-2.55874
-2.55875
-2.55875
-2.55875
-2.55876
-2.55877
-2.55877
-2.55878
-2.55879
-2.55879
-2.5588
-2.5588
-2.55881
-2.55881
-2.5588
-2.5588
-2.5588
-2.55879
-2.55878
-2.55877
-2.55876
-2.55875
-2.55873
-2.55872
-2.55871
-2.5587
-2.55869
-2.55868
-2.65712
-2.65712
-2.65712
-2.65712
-2.65712
-2.65712
-2.65713
-2.65713
-2.65713
-2.65713
-2.65713
-2.65713
-2.65713
-2.65713
-2.65713
-2.65714
-2.65714
-2.65714
-2.65715
-2.65715
-2.65716
-2.65716
-2.65716
-2.65717
-2.65717
-2.65718
-2.65718
-2.65719
-2.65719
-2.6572
-2.65721
-2.65721
-2.65722
-2.65722
-2.65723
-2.65724
-2.65724
-2.65725
-2.65725
-2.65726
-2.65726
-2.65726
-2.65727
-2.65727
-2.65727
-2.65727
-2.65727
-2.65727
-2.65727
-2.65727
-2.65727
-2.65726
-2.65726
-2.65726
-2.65725
-2.65725
-2.65724
-2.65724
-2.65723
-2.65722
-2.65722
-2.65721
-2.65721
-2.6572
-2.6572
-2.65719
-2.65719
-2.65718
-2.65718
-2.65718
-2.65717
-2.65717
-2.65717
-2.65717
-2.65718
-2.65718
-2.65719
-2.65719
-2.6572
-2.65721
-2.65722
-2.65722
-2.65723
-2.65723
-2.65723
-2.65723
-2.65723
-2.65722
-2.65722
-2.65721
-2.6572
-2.65719
-2.65718
-2.65717
-2.65716
-2.65715
-2.65714
-2.65713
-2.65712
-2.65712
-2.75554
-2.75554
-2.75554
-2.75554
-2.75554
-2.75554
-2.75554
-2.75554
-2.75555
-2.75555
-2.75555
-2.75554
-2.75554
-2.75554
-2.75554
-2.75554
-2.75555
-2.75555
-2.75556
-2.75556
-2.75556
-2.75556
-2.75557
-2.75557
-2.75558
-2.75559
-2.75559
-2.7556
-2.75561
-2.75562
-2.75563
-2.75563
-2.75564
-2.75565
-2.75565
-2.75566
-2.75567
-2.75567
-2.75568
-2.75568
-2.75568
-2.75569
-2.75569
-2.75569
-2.7557
-2.7557
-2.7557
-2.7557
-2.7557
-2.7557
-2.75569
-2.75569
-2.75569
-2.75568
-2.75568
-2.75567
-2.75567
-2.75566
-2.75566
-2.75565
-2.75564
-2.75564
-2.75563
-2.75563
-2.75562
-2.75561
-2.75561
-2.75561
-2.7556
-2.7556
-2.7556
-2.7556
-2.7556
-2.7556
-2.7556
-2.75561
-2.75561
-2.75562
-2.75563
-2.75564
-2.75564
-2.75565
-2.75565
-2.75565
-2.75565
-2.75565
-2.75565
-2.75565
-2.75564
-2.75564
-2.75563
-2.75562
-2.75561
-2.7556
-2.75559
-2.75558
-2.75557
-2.75556
-2.75555
-2.75555
-2.85396
-2.85396
-2.85396
-2.85396
-2.85396
-2.85396
-2.85396
-2.85396
-2.85396
-2.85396
-2.85396
-2.85396
-2.85396
-2.85396
-2.85396
-2.85396
-2.85396
-2.85396
-2.85396
-2.85396
-2.85396
-2.85396
-2.85397
-2.85398
-2.85399
-2.854
-2.85401
-2.85402
-2.85403
-2.85404
-2.85404
-2.85405
-2.85406
-2.85407
-2.85408
-2.85408
-2.85409
-2.8541
-2.8541
-2.85411
-2.85411
-2.85411
-2.85412
-2.85412
-2.85412
-2.85412
-2.85412
-2.85412
-2.85412
-2.85412
-2.85412
-2.85412
-2.85411
-2.85411
-2.8541
-2.8541
-2.85409
-2.85409
-2.85408
-2.85407
-2.85407
-2.85406
-2.85406
-2.85405
-2.85404
-2.85404
-2.85403
-2.85403
-2.85403
-2.85403
-2.85402
-2.85402
-2.85402
-2.85403
-2.85403
-2.85403
-2.85404
-2.85405
-2.85405
-2.85406
-2.85407
-2.85407
-2.85408
-2.85408
-2.85408
-2.85408
-2.85408
-2.85407
-2.85407
-2.85406
-2.85405
-2.85404
-2.85403
-2.85402
-2.85401
-2.854
-2.85399
-2.85398
-2.85398
-2.85397
-2.95238
-2.95238
-2.95238
-2.95238
-2.95238
-2.95238
-2.95238
-2.95238
-2.95238
-2.95238
-2.95238
-2.95238
-2.95238
-2.95238
-2.95237
-2.95237
-2.95237
-2.95237
-2.95237
-2.95237
-2.95237
-2.95237
-2.95237
-2.95238
-2.95239
-2.95241
-2.95242
-2.95243
-2.95244
-2.95245
-2.95246
-2.95247
-2.95248
-2.95249
-2.9525
-2.95251
-2.95251
-2.95252
-2.95252
-2.95253
-2.95253
-2.95254
-2.95254
-2.95255
-2.95255
-2.95255
-2.95255
-2.95255
-2.95255
-2.95255
-2.95255
-2.95254
-2.95254
-2.95253
-2.95253
-2.95252
-2.95252
-2.95251
-2.9525
-2.9525
-2.95249
-2.95249
-2.95248
-2.95247
-2.95247
-2.95246
-2.95246
-2.95246
-2.95245
-2.95245
-2.95245
-2.95245
-2.95245
-2.95245
-2.95245
-2.95246
-2.95247
-2.95247
-2.95248
-2.95249
-2.95249
-2.9525
-2.9525
-2.9525
-2.9525
-2.9525
-2.9525
-2.9525
-2.95249
-2.95248
-2.95247
-2.95246
-2.95245
-2.95244
-2.95243
-2.95243
-2.95242
-2.95241
-2.9524
-2.9524
-3.0508
-3.0508
-3.0508
-3.0508
-3.0508
-3.0508
-3.0508
-3.0508
-3.0508
-3.0508
-3.0508
-3.0508
-3.0508
-3.0508
-3.05079
-3.05079
-3.05079
-3.05079
-3.05079
-3.05078