/*--------------------------------*- C++ -*----------------------------------*\
| =========                 |                                                 |
| \\      /  F ield         | OpenFOAM: The Open Source CFD Toolbox           |
|  \\    /   O peration     | Version:  4.1                                   |
|   \\  /    A nd           | Web:      www.OpenFOAM.org                      |
|    \\/     M anipulation  |                                                 |
\*---------------------------------------------------------------------------*/
FoamFile
{
    version     2.0;
    format      ascii;
    class       volScalarField;
    location    "1820";
    object      p_rgh;
}
// * * * * * * * * * * * * * * * * * * * * * * * * * * * * * * * * * * * * * //

dimensions      [0 2 -2 0 0 0 0];

internalField   nonuniform List<scalar> 
5000
(
0.0491916
0.0492138
0.0492142
0.0492143
0.0492189
0.0492143
0.0492153
0.04923
0.0492483
0.0492576
0.0492562
0.0492493
0.0492488
0.0492633
0.0492794
0.049265
0.0492643
0.0492629
0.0492618
0.0492613
0.0492613
0.0492621
0.0492635
0.0492657
0.0492686
0.0492721
0.0492761
0.0492797
0.0492822
0.0492834
0.0492833
0.0492819
0.0492794
0.0492759
0.0492715
0.0492665
0.0492608
0.0492547
0.0492481
0.0492412
0.0492339
0.0492264
0.0492187
0.049211
0.0492035
0.0491964
0.04919
0.0491848
0.0491804
0.0491764
0.0491715
0.0491641
0.0491529
0.04914
0.0491322
0.0491366
0.0491497
0.0491409
0.0491139
0.0490953
0.0490879
0.0490947
0.0491105
0.0491278
0.0491473
0.0491628
0.0491735
0.0491823
0.0491911
0.0492005
0.0492106
0.0492208
0.0492304
0.049238
0.0492423
0.049243
0.049241
0.0492367
0.0492305
0.0492226
0.0492133
0.049203
0.049192
0.0491807
0.0491695
0.0491588
0.0491489
0.0491403
0.0491329
0.0491269
0.0491223
0.049119
0.0491166
0.0491149
0.0491135
0.0491121
0.0491107
0.0491106
0.0491147
0.0491281
0.0491835
0.0492077
0.0492069
0.0492092
0.0492017
0.0492013
0.0492216
0.0492489
0.0492698
0.0492875
0.0492985
0.0493054
0.0493071
0.0493094
0.0493102
0.0493131
0.0493139
0.0493156
0.0493172
0.0493191
0.0493213
0.0493236
0.0493262
0.0493288
0.0493314
0.0493338
0.0493359
0.0493372
0.0493377
0.0493374
0.0493363
0.0493344
0.049332
0.0493289
0.0493254
0.0493215
0.0493174
0.0493131
0.0493087
0.0493042
0.0492997
0.0492953
0.0492909
0.0492866
0.0492822
0.0492777
0.049273
0.0492678
0.0492618
0.0492548
0.0492461
0.0492353
0.0492219
0.0492027
0.0491718
0.0491399
0.0491261
0.0491543
0.0491681
0.0491585
0.0491503
0.0491357
0.0491087
0.0491442
0.0491794
0.0491968
0.0492082
0.049217
0.0492242
0.0492307
0.0492372
0.0492441
0.0492511
0.0492574
0.0492618
0.0492639
0.0492638
0.0492616
0.0492572
0.049251
0.0492433
0.0492346
0.0492252
0.0492156
0.0492063
0.0491977
0.0491902
0.0491843
0.0491802
0.0491778
0.0491766
0.0491763
0.0491769
0.0491783
0.0491795
0.0491791
0.0491744
0.0491628
0.0491418
0.0491205
0.049198
0.0492076
0.0491854
0.0491718
0.049165
0.0491661
0.0491966
0.0492289
0.0492609
0.0492859
0.049299
0.0493064
0.0493101
0.0493114
0.0493122
0.049314
0.0493152
0.0493167
0.0493184
0.0493203
0.0493224
0.0493248
0.0493273
0.0493298
0.0493323
0.0493346
0.0493365
0.0493376
0.049338
0.0493375
0.0493363
0.0493343
0.0493318
0.0493288
0.0493253
0.0493216
0.0493176
0.0493134
0.0493091
0.0493048
0.0493006
0.0492963
0.0492922
0.0492881
0.049284
0.0492799
0.0492755
0.0492706
0.049265
0.0492581
0.0492494
0.0492377
0.0492219
0.0492002
0.049164
0.049108
0.0490609
0.0490809
0.0491162
0.0491388
0.0491507
0.0491675
0.0491612
0.0491247
0.0491574
0.0491931
0.0492091
0.0492171
0.0492232
0.0492285
0.0492339
0.0492397
0.049246
0.0492521
0.0492568
0.0492591
0.0492592
0.0492574
0.0492535
0.0492476
0.0492401
0.0492315
0.0492221
0.0492125
0.0492031
0.0491944
0.049187
0.0491812
0.0491773
0.0491754
0.0491753
0.049177
0.04918
0.049184
0.0491883
0.0491916
0.0491914
0.0491808
0.0491441
0.049081
0.0492245
0.0492142
0.0491453
0.0491331
0.0491251
0.0491242
0.0491553
0.0491949
0.0492546
0.0492863
0.0492999
0.0493067
0.0493102
0.0493118
0.0493127
0.0493138
0.0493149
0.0493161
0.0493175
0.0493192
0.0493212
0.0493234
0.0493257
0.049328
0.0493304
0.0493326
0.0493343
0.0493357
0.0493364
0.049336
0.0493348
0.049333
0.0493305
0.0493276
0.0493242
0.0493206
0.0493166
0.0493126
0.0493083
0.0493041
0.0492998
0.0492956
0.0492914
0.0492873
0.0492832
0.0492791
0.0492749
0.0492703
0.0492651
0.0492587
0.0492502
0.049238
0.049219
0.0491903
0.0491437
0.0490682
0.0489952
0.0489982
0.0490263
0.0490481
0.0491012
0.0491512
0.0491911
0.0491366
0.0491396
0.049162
0.0492013
0.0492176
0.0492221
0.0492257
0.0492294
0.0492337
0.0492391
0.0492449
0.0492501
0.0492533
0.0492536
0.0492519
0.0492484
0.0492428
0.0492354
0.0492268
0.0492173
0.0492075
0.049198
0.0491892
0.0491818
0.0491761
0.0491724
0.0491708
0.0491713
0.0491735
0.0491772
0.0491822
0.0491878
0.049193
0.0491953
0.0491863
0.0491374
0.0490317
0.0492428
0.0492107
0.0491363
0.0491054
0.0490926
0.0490902
0.0491241
0.0491874
0.0492591
0.0492912
0.0493033
0.0493086
0.0493112
0.0493123
0.0493128
0.0493133
0.0493139
0.0493147
0.0493157
0.049317
0.0493187
0.0493205
0.0493227
0.049325
0.0493274
0.0493297
0.0493316
0.0493333
0.0493343
0.0493341
0.0493331
0.0493315
0.0493292
0.0493265
0.0493234
0.04932
0.0493163
0.0493123
0.0493083
0.0493041
0.0492999
0.0492956
0.0492914
0.0492873
0.0492832
0.0492791
0.049275
0.0492706
0.0492658
0.0492601
0.0492524
0.0492405
0.0492191
0.0491819
0.0491224
0.0490323
0.0489447
0.0489325
0.0489557
0.0489849
0.0490326
0.0491064
0.049174
0.0491808
0.0491541
0.0491509
0.0491685
0.0492052
0.0492221
0.0492229
0.049224
0.0492263
0.0492302
0.0492358
0.049242
0.0492466
0.0492476
0.049246
0.0492425
0.0492371
0.0492297
0.0492209
0.0492111
0.0492009
0.049191
0.049182
0.0491745
0.049169
0.0491659
0.049165
0.0491662
0.049169
0.0491733
0.0491787
0.0491847
0.0491906
0.049194
0.0491866
0.0491297
0.0489854
0.0492612
0.0492294
0.0491521
0.0490957
0.0490725
0.0490716
0.0491515
0.0492389
0.0492786
0.0492999
0.0493088
0.0493117
0.0493127
0.0493127
0.0493124
0.0493121
0.049312
0.0493122
0.0493127
0.0493136
0.0493149
0.0493167
0.0493189
0.0493215
0.0493241
0.0493264
0.0493283
0.0493301
0.0493313
0.0493314
0.0493306
0.0493293
0.0493274
0.049325
0.0493223
0.0493193
0.049316
0.0493125
0.0493087
0.0493048
0.0493008
0.0492967
0.0492925
0.0492883
0.0492842
0.0492801
0.049276
0.0492719
0.0492676
0.0492626
0.0492561
0.0492458
0.0492248
0.0491801
0.049106
0.0490034
0.0489096
0.0488884
0.0489095
0.0489481
0.0490073
0.0490833
0.0491604
0.0492126
0.0491872
0.0491618
0.0491582
0.049174
0.0492043
0.0492204
0.0492181
0.0492174
0.0492194
0.0492246
0.0492322
0.0492394
0.0492417
0.0492402
0.0492365
0.0492309
0.0492232
0.0492138
0.0492033
0.0491923
0.0491816
0.049172
0.0491643
0.0491591
0.0491568
0.0491571
0.0491595
0.0491634
0.0491684
0.0491742
0.0491804
0.0491863
0.0491902
0.0491841
0.0491225
0.0489437
0.049284
0.0492641
0.0491908
0.0491143
0.0490736
0.0490641
0.049232
0.0492819
0.0493025
0.0493116
0.0493151
0.0493153
0.0493143
0.0493129
0.0493115
0.0493103
0.0493093
0.0493087
0.0493087
0.0493094
0.0493107
0.0493126
0.049315
0.0493176
0.0493201
0.0493222
0.049324
0.0493258
0.049327
0.0493274
0.049327
0.049326
0.0493246
0.0493228
0.0493206
0.0493182
0.0493155
0.0493125
0.0493093
0.0493059
0.0493022
0.0492984
0.0492945
0.0492904
0.0492863
0.0492823
0.0492783
0.0492743
0.0492704
0.0492663
0.0492613
0.0492536
0.0492365
0.0491901
0.0491015
0.048987
0.0488918
0.0488671
0.0488895
0.0489382
0.0490083
0.0490887
0.0491625
0.0492177
0.0492183
0.0491852
0.0491624
0.0491606
0.0491757
0.0492004
0.0492118
0.0492072
0.0492062
0.0492106
0.0492205
0.0492319
0.0492364
0.0492352
0.0492313
0.049225
0.0492165
0.049206
0.0491942
0.0491817
0.0491695
0.0491587
0.0491504
0.0491454
0.0491441
0.0491462
0.0491505
0.0491563
0.0491626
0.0491691
0.0491754
0.0491812
0.0491851
0.0491799
0.0491156
0.0489059
0.0493042
0.0493053
0.0492458
0.0491675
0.0491109
0.0491022
0.0492544
0.0493059
0.0493195
0.049322
0.0493212
0.0493185
0.0493154
0.0493125
0.0493098
0.0493074
0.0493056
0.0493046
0.0493044
0.0493049
0.0493062
0.049308
0.0493104
0.049313
0.0493154
0.0493173
0.0493189
0.0493206
0.0493219
0.0493224
0.0493223
0.0493218
0.0493208
0.0493196
0.0493181
0.0493164
0.0493144
0.0493121
0.0493096
0.0493068
0.0493038
0.0493006
0.0492971
0.0492933
0.0492895
0.0492856
0.0492817
0.049278
0.0492745
0.0492711
0.0492675
0.0492627
0.0492517
0.0492133
0.0491172
0.0489926
0.0488986
0.0488744
0.0489004
0.0489574
0.0490332
0.0491129
0.0491812
0.0492298
0.0492434
0.0492135
0.0491779
0.0491594
0.04916
0.0491734
0.0491902
0.0491962
0.0491908
0.0491933
0.0492062
0.0492245
0.0492327
0.0492319
0.0492277
0.0492204
0.0492105
0.0491982
0.0491842
0.0491694
0.0491549
0.0491422
0.0491326
0.0491273
0.049127
0.0491315
0.0491388
0.0491474
0.049156
0.0491637
0.0491704
0.0491759
0.0491795
0.0491747
0.0491089
0.0488715
0.0493154
0.0493363
0.0493007
0.0492429
0.0491874
0.0491927
0.0493045
0.0493314
0.0493339
0.0493307
0.0493259
0.0493206
0.0493157
0.0493112
0.0493071
0.0493039
0.0493016
0.0493002
0.0492995
0.0492997
0.0493007
0.0493025
0.0493049
0.0493076
0.0493101
0.049312
0.0493132
0.0493148
0.0493159
0.0493166
0.0493168
0.0493167
0.0493163
0.0493157
0.0493149
0.0493139
0.0493127
0.0493113
0.0493096
0.0493076
0.0493053
0.0493028
0.0492999
0.0492968
0.0492934
0.0492898
0.0492862
0.0492828
0.0492797
0.049277
0.0492747
0.0492723
0.0492672
0.049243
0.0491568
0.0490297
0.0489386
0.0489161
0.0489446
0.0490041
0.0490778
0.0491496
0.0492075
0.0492468
0.0492627
0.0492411
0.0492006
0.0491688
0.0491553
0.0491573
0.0491665
0.0491736
0.0491776
0.0491747
0.0491903
0.0492182
0.0492323
0.0492316
0.0492266
0.0492178
0.0492059
0.049191
0.0491742
0.0491562
0.0491385
0.0491231
0.0491116
0.0491055
0.0491057
0.0491126
0.0491239
0.0491368
0.0491488
0.0491584
0.0491657
0.0491711
0.0491741
0.0491691
0.0491023
0.0488402
0.0493177
0.0493535
0.049339
0.0493108
0.0492774
0.0492949
0.0493493
0.0493503
0.0493438
0.0493364
0.0493286
0.0493213
0.0493147
0.0493087
0.0493038
0.0493
0.0492971
0.049295
0.0492938
0.0492936
0.0492944
0.0492962
0.0492988
0.0493017
0.0493044
0.0493062
0.0493072
0.0493084
0.0493094
0.0493101
0.0493106
0.049311
0.0493112
0.0493113
0.0493112
0.0493111
0.0493107
0.0493101
0.0493092
0.0493081
0.0493067
0.0493049
0.0493028
0.0493004
0.0492976
0.0492946
0.0492915
0.0492884
0.0492857
0.0492835
0.0492821
0.0492815
0.0492806
0.0492697
0.0492103
0.0490978
0.0490129
0.0489907
0.0490166
0.0490701
0.0491331
0.0491911
0.0492355
0.0492645
0.0492779
0.0492649
0.0492265
0.0491869
0.0491615
0.0491527
0.0491551
0.0491599
0.0491608
0.0491654
0.0491771
0.0492154
0.049237
0.0492356
0.0492291
0.0492181
0.0492033
0.0491853
0.0491648
0.0491431
0.0491217
0.0491033
0.0490897
0.0490825
0.0490825
0.0490905
0.0491069
0.0491254
0.0491415
0.0491534
0.0491616
0.0491668
0.049169
0.049163
0.049095
0.0488112
0.0493135
0.0493606
0.0493579
0.0493504
0.049341
0.0493551
0.0493666
0.0493583
0.0493487
0.049339
0.0493292
0.0493204
0.0493122
0.0493055
0.0493
0.0492954
0.0492917
0.0492889
0.0492871
0.0492865
0.0492872
0.0492892
0.0492922
0.0492955
0.0492984
0.0493002
0.0493007
0.0493015
0.0493024
0.0493032
0.049304
0.0493048
0.0493056
0.0493064
0.0493072
0.0493078
0.0493083
0.0493086
0.0493086
0.0493084
0.0493078
0.0493069
0.0493057
0.0493041
0.0493021
0.0492997
0.0492971
0.0492945
0.0492921
0.0492902
0.0492893
0.0492896
0.0492909
0.0492885
0.0492574
0.0491779
0.0491068
0.0490837
0.0491013
0.0491416
0.0491882
0.0492297
0.0492605
0.04928
0.0492897
0.0492833
0.0492521
0.0492104
0.0491767
0.0491587
0.0491546
0.0491576
0.0491608
0.0491623
0.049171
0.0492184
0.0492487
0.0492448
0.0492357
0.0492218
0.0492036
0.0491817
0.0491571
0.0491313
0.0491066
0.0490856
0.0490706
0.049063
0.0490631
0.0490704
0.0490884
0.0491155
0.0491355
0.0491491
0.0491576
0.0491622
0.0491631
0.0491553
0.0490852
0.048783
0.0493057
0.0493622
0.0493643
0.0493657
0.0493672
0.0493725
0.0493697
0.0493607
0.0493503
0.0493391
0.0493282
0.0493179
0.049309
0.0493017
0.0492953
0.0492899
0.0492853
0.0492817
0.0492794
0.0492786
0.0492794
0.0492819
0.0492854
0.0492891
0.0492921
0.0492938
0.0492939
0.0492941
0.0492949
0.0492958
0.0492968
0.0492982
0.0492996
0.0493012
0.0493028
0.0493043
0.0493057
0.0493069
0.0493079
0.0493085
0.0493089
0.0493089
0.0493085
0.0493077
0.0493065
0.0493049
0.0493029
0.0493008
0.0492987
0.049297
0.0492961
0.0492964
0.0492982
0.0492994
0.0492872
0.0492434
0.049194
0.0491723
0.0491798
0.0492045
0.0492341
0.0492604
0.0492798
0.0492921
0.0492987
0.0492964
0.0492747
0.049236
0.0491979
0.0491726
0.0491623
0.0491629
0.0491672
0.0491696
0.0491748
0.0492245
0.0492664
0.0492588
0.0492463
0.0492289
0.0492071
0.0491814
0.0491527
0.0491231
0.0490952
0.0490722
0.0490569
0.0490505
0.0490532
0.0490642
0.0490833
0.0491064
0.0491264
0.0491406
0.0491492
0.0491532
0.0491524
0.0491415
0.0490659
0.0487571
0.0492962
0.0493615
0.0493656
0.0493696
0.0493733
0.0493744
0.0493694
0.0493606
0.0493497
0.0493377
0.0493257
0.0493145
0.0493051
0.0492969
0.0492897
0.0492834
0.0492779
0.0492736
0.0492709
0.04927
0.0492713
0.0492743
0.0492783
0.0492825
0.0492857
0.0492872
0.0492868
0.0492863
0.049287
0.0492879
0.0492894
0.0492912
0.0492934
0.0492957
0.0492982
0.0493007
0.049303
0.0493051
0.049307
0.0493086
0.0493098
0.0493107
0.0493111
0.0493112
0.0493108
0.04931
0.0493086
0.049307
0.0493052
0.0493035
0.0493024
0.0493023
0.0493034
0.0493051
0.0493018
0.0492825
0.0492546
0.049238
0.0492384
0.0492505
0.0492667
0.0492817
0.049293
0.0493006
0.0493052
0.0493054
0.0492925
0.0492607
0.049222
0.0491913
0.0491753
0.0491725
0.0491768
0.0491818
0.0491872
0.049237
0.0492862
0.0492752
0.0492594
0.0492389
0.0492139
0.0491849
0.0491529
0.04912
0.0490893
0.0490643
0.0490479
0.0490415
0.0490446
0.0490554
0.0490718
0.0490914
0.0491075
0.0491199
0.0491279
0.0491313
0.0491287
0.0491118
0.0490313
0.0487426
0.0492862
0.0493603
0.0493656
0.0493704
0.0493741
0.0493739
0.0493686
0.0493595
0.049348
0.0493353
0.0493223
0.0493106
0.0493004
0.0492914
0.0492833
0.049276
0.0492697
0.0492648
0.0492618
0.0492611
0.0492628
0.0492664
0.0492711
0.0492757
0.049279
0.0492802
0.0492793
0.0492782
0.0492788
0.0492798
0.0492816
0.049284
0.0492869
0.0492901
0.0492935
0.0492969
0.0493002
0.0493033
0.0493062
0.0493086
0.0493107
0.0493124
0.0493137
0.0493145
0.0493149
0.0493148
0.0493142
0.049313
0.0493115
0.0493099
0.0493085
0.0493077
0.0493077
0.0493084
0.0493077
0.0493004
0.0492872
0.0492768
0.0492744
0.049279
0.0492867
0.0492946
0.0493012
0.0493061
0.0493098
0.0493116
0.0493056
0.0492824
0.0492461
0.0492121
0.0491907
0.0491837
0.0491864
0.0491921
0.0491978
0.0492563
0.0493046
0.0492914
0.0492733
0.0492507
0.0492237
0.0491927
0.0491585
0.0491233
0.0490897
0.0490613
0.0490411
0.0490303
0.0490285
0.0490337
0.0490436
0.0490568
0.0490701
0.0490803
0.0490874
0.0490905
0.0490867
0.0490665
0.0489905
0.0487441
0.0492762
0.0493592
0.0493654
0.0493709
0.0493743
0.0493734
0.0493677
0.0493581
0.049346
0.0493324
0.0493186
0.0493061
0.0492951
0.0492851
0.0492761
0.0492678
0.0492608
0.0492553
0.0492522
0.0492517
0.0492539
0.0492581
0.0492634
0.0492686
0.0492721
0.049273
0.0492715
0.0492698
0.0492702
0.0492714
0.0492735
0.0492765
0.0492802
0.0492843
0.0492887
0.0492931
0.0492975
0.0493016
0.0493053
0.0493087
0.0493117
0.0493141
0.0493162
0.0493177
0.0493188
0.0493194
0.0493194
0.0493188
0.0493176
0.0493161
0.0493145
0.0493129
0.0493118
0.0493112
0.0493104
0.0493073
0.0493014
0.0492956
0.049293
0.0492941
0.0492975
0.0493017
0.0493058
0.0493096
0.0493131
0.049316
0.0493147
0.0492999
0.0492684
0.0492326
0.049206
0.049194
0.0491937
0.0491986
0.0492058
0.049279
0.0493194
0.0493052
0.0492863
0.0492632
0.0492359
0.0492048
0.0491705
0.0491344
0.0490987
0.0490662
0.0490398
0.0490214
0.0490109
0.0490072
0.0490082
0.0490126
0.0490201
0.0490275
0.0490333
0.0490362
0.0490335
0.049016
0.048954
0.048763
0.0492664
0.0493584
0.0493657
0.0493716
0.0493748
0.0493733
0.0493669
0.0493568
0.0493439
0.0493293
0.0493147
0.0493013
0.0492893
0.0492784
0.0492684
0.0492592
0.0492513
0.0492455
0.0492422
0.049242
0.0492446
0.0492493
0.0492552
0.0492611
0.049265
0.0492655
0.0492634
0.0492612
0.0492614
0.0492627
0.0492652
0.0492689
0.0492734
0.0492785
0.0492839
0.0492894
0.0492948
0.0492999
0.0493046
0.0493089
0.0493127
0.0493159
0.0493186
0.0493208
0.0493225
0.0493237
0.0493243
0.0493242
0.0493234
0.0493221
0.0493203
0.0493182
0.0493162
0.0493143
0.0493126
0.0493103
0.049307
0.0493035
0.0493014
0.0493013
0.0493028
0.0493053
0.0493084
0.0493118
0.0493156
0.0493195
0.0493212
0.0493132
0.0492876
0.0492515
0.04922
0.0492021
0.0491975
0.0492
0.0492099
0.0493029
0.0493288
0.049315
0.0492969
0.0492751
0.0492498
0.0492212
0.0491895
0.0491554
0.0491204
0.0490863
0.0490553
0.0490296
0.0490106
0.0489982
0.0489912
0.0489878
0.0489871
0.0489887
0.0489911
0.0489927
0.048991
0.0489792
0.048935
0.0487999
0.0492569
0.0493581
0.0493664
0.0493727
0.0493757
0.0493735
0.0493664
0.0493556
0.0493419
0.0493264
0.0493108
0.0492964
0.0492834
0.0492715
0.0492604
0.0492503
0.0492417
0.0492353
0.049232
0.0492319
0.0492346
0.0492396
0.0492462
0.049253
0.0492576
0.0492578
0.049255
0.0492524
0.0492525
0.0492538
0.0492568
0.0492611
0.0492665
0.0492726
0.0492791
0.0492857
0.0492922
0.0492984
0.0493041
0.0493093
0.0493138
0.0493177
0.0493211
0.0493238
0.049326
0.0493277
0.0493288
0.0493291
0.0493288
0.0493277
0.0493259
0.0493236
0.049321
0.0493182
0.0493155
0.0493128
0.04931
0.0493073
0.0493054
0.0493049
0.0493056
0.0493074
0.0493101
0.0493135
0.0493177
0.0493224
0.0493261
0.049323
0.0493032
0.0492678
0.0492316
0.0492071
0.0491969
0.0491961
0.0492164
0.0493393
0.0493319
0.0493199
0.0493042
0.0492854
0.0492639
0.0492399
0.0492138
0.0491859
0.0491565
0.0491267
0.0490974
0.0490704
0.0490473
0.0490296
0.0490181
0.0490119
0.0490093
0.0490082
0.0490072
0.0490062
0.0490034
0.048993
0.0489594
0.0488637
0.0492479
0.0493582
0.0493675
0.0493742
0.0493769
0.049374
0.0493663
0.0493547
0.0493402
0.0493238
0.0493071
0.0492916
0.0492775
0.0492645
0.0492524
0.0492413
0.049232
0.0492251
0.0492215
0.0492212
0.0492237
0.0492288
0.0492359
0.049244
0.0492499
0.04925
0.0492465
0.0492437
0.0492435
0.0492449
0.0492483
0.0492533
0.0492596
0.0492668
0.0492745
0.0492823
0.0492899
0.0492972
0.0493039
0.0493099
0.0493152
0.0493198
0.0493236
0.0493268
0.0493294
0.0493314
0.0493329
0.0493337
0.0493337
0.0493329
0.0493313
0.049329
0.0493261
0.0493228
0.0493194
0.0493161
0.0493129
0.0493102
0.0493083
0.0493074
0.0493077
0.0493092
0.0493117
0.0493152
0.0493197
0.0493249
0.0493299
0.0493302
0.0493154
0.0492811
0.0492402
0.0492085
0.0491919
0.0491869
0.0492345
0.0493387
0.0493326
0.0493214
0.0493076
0.0492922
0.0492752
0.0492569
0.0492379
0.0492184
0.0491989
0.0491794
0.0491604
0.049142
0.049125
0.0491102
0.0490991
0.049093
0.0490929
0.049098
0.0491058
0.0491115
0.0491124
0.0491055
0.0490732
0.0489822
0.0492394
0.0493588
0.049369
0.0493761
0.0493783
0.0493748
0.0493664
0.0493541
0.0493389
0.0493216
0.0493039
0.0492871
0.0492719
0.0492578
0.0492447
0.0492327
0.0492225
0.049215
0.0492108
0.04921
0.0492118
0.0492164
0.049224
0.049234
0.0492417
0.0492422
0.0492381
0.0492351
0.0492345
0.0492359
0.0492397
0.0492455
0.0492528
0.0492611
0.04927
0.0492791
0.0492879
0.0492963
0.049304
0.0493109
0.049317
0.0493221
0.0493264
0.04933
0.0493328
0.0493351
0.0493368
0.0493378
0.0493381
0.0493377
0.0493364
0.0493343
0.0493314
0.0493279
0.0493241
0.0493203
0.0493167
0.0493137
0.0493114
0.0493101
0.0493101
0.0493112
0.0493136
0.0493171
0.0493217
0.0493273
0.049333
0.0493355
0.0493245
0.0492914
0.0492457
0.0492061
0.0491823
0.0491782
0.0492535
0.0493341
0.0493296
0.04932
0.0493077
0.0492939
0.0492798
0.0492657
0.0492521
0.0492395
0.0492284
0.0492194
0.0492125
0.0492081
0.0492059
0.0492061
0.0492086
0.0492138
0.049222
0.0492338
0.0492493
0.0492671
0.0492816
0.0492804
0.0492505
0.0491457
0.0492313
0.0493598
0.049371
0.0493782
0.0493801
0.0493758
0.0493667
0.0493538
0.0493379
0.0493199
0.0493011
0.0492832
0.0492668
0.0492516
0.0492375
0.0492245
0.0492135
0.0492052
0.0492002
0.0491985
0.049199
0.0492025
0.0492102
0.0492226
0.0492332
0.0492345
0.04923
0.0492267
0.0492256
0.0492271
0.0492312
0.0492378
0.0492461
0.0492557
0.0492658
0.0492762
0.0492863
0.0492959
0.0493046
0.0493124
0.0493191
0.0493248
0.0493295
0.0493334
0.0493364
0.0493388
0.0493406
0.0493417
0.0493422
0.049342
0.049341
0.0493392
0.0493365
0.0493331
0.0493293
0.0493252
0.0493213
0.0493179
0.0493153
0.0493136
0.0493131
0.0493139
0.049316
0.0493193
0.0493238
0.0493294
0.0493355
0.0493393
0.049331
0.0492986
0.049248
0.0491997
0.0491677
0.0491715
0.0492665
0.049325
0.0493216
0.0493133
0.0493022
0.0492894
0.0492762
0.0492634
0.0492516
0.0492413
0.0492329
0.0492269
0.0492235
0.049223
0.0492253
0.0492303
0.0492379
0.0492482
0.049261
0.0492763
0.0492938
0.0493128
0.0493315
0.0493448
0.0493363
0.049275
0.0492236
0.0493611
0.0493733
0.0493807
0.049382
0.049377
0.0493672
0.0493537
0.0493373
0.0493186
0.049299
0.04928
0.0492624
0.0492463
0.0492313
0.0492174
0.0492054
0.0491961
0.04919
0.0491868
0.0491856
0.0491873
0.0491948
0.0492102
0.0492244
0.049227
0.0492225
0.0492188
0.0492171
0.0492185
0.049223
0.0492303
0.0492397
0.0492505
0.0492621
0.0492738
0.0492852
0.049296
0.0493058
0.0493144
0.0493218
0.049328
0.049333
0.049337
0.0493401
0.0493425
0.0493443
0.0493455
0.0493461
0.049346
0.0493453
0.0493437
0.0493414
0.0493383
0.0493346
0.0493305
0.0493265
0.0493229
0.0493199
0.0493178
0.0493169
0.0493172
0.0493188
0.0493217
0.049326
0.0493314
0.0493375
0.0493419
0.0493354
0.0493031
0.049247
0.0491895
0.0491498
0.0491676
0.0492717
0.0493131
0.0493101
0.0493027
0.0492926
0.0492808
0.0492685
0.0492565
0.0492455
0.0492362
0.0492289
0.0492239
0.0492216
0.0492219
0.049225
0.0492309
0.0492394
0.0492506
0.0492643
0.0492806
0.0492992
0.0493196
0.0493408
0.0493605
0.0493722
0.0493546
0.0492164
0.0493629
0.049376
0.0493834
0.0493841
0.0493783
0.0493677
0.0493537
0.0493369
0.0493179
0.0492977
0.0492777
0.0492591
0.0492421
0.0492262
0.0492116
0.0491987
0.0491883
0.0491809
0.0491761
0.0491726
0.0491719
0.0491785
0.0491972
0.0492156
0.0492202
0.049216
0.0492114
0.0492091
0.0492102
0.049215
0.0492231
0.0492337
0.0492458
0.0492589
0.049272
0.0492848
0.0492968
0.0493076
0.049317
0.049325
0.0493316
0.0493368
0.049341
0.0493441
0.0493465
0.0493482
0.0493492
0.0493498
0.0493498
0.0493492
0.0493479
0.0493459
0.0493431
0.0493397
0.0493359
0.049332
0.0493282
0.049325
0.0493225
0.0493211
0.0493209
0.049322
0.0493244
0.0493282
0.0493332
0.049339
0.0493435
0.0493379
0.0493051
0.0492431
0.0491746
0.0491317
0.0491654
0.0492705
0.0492997
0.0492967
0.0492898
0.0492805
0.0492697
0.0492584
0.0492474
0.0492374
0.049229
0.0492225
0.0492184
0.0492167
0.0492176
0.0492212
0.0492273
0.0492361
0.0492473
0.049261
0.0492771
0.0492953
0.0493154
0.0493367
0.0493578
0.0493755
0.0493846
0.0492097
0.049365
0.0493789
0.0493863
0.0493864
0.0493796
0.0493683
0.0493537
0.0493366
0.0493175
0.0492971
0.0492764
0.0492569
0.0492391
0.0492227
0.0492074
0.0491937
0.0491823
0.0491736
0.0491672
0.0491613
0.049158
0.0491636
0.049185
0.0492075
0.0492145
0.0492107
0.049205
0.0492018
0.0492025
0.0492075
0.0492164
0.0492282
0.0492418
0.0492563
0.049271
0.0492852
0.0492983
0.0493101
0.0493203
0.0493288
0.0493357
0.0493411
0.0493453
0.0493484
0.0493506
0.0493521
0.049353
0.0493533
0.0493533
0.0493528
0.0493517
0.04935
0.0493476
0.0493446
0.0493411
0.0493374
0.0493337
0.0493303
0.0493275
0.0493257
0.0493249
0.0493254
0.0493272
0.0493303
0.0493347
0.04934
0.0493443
0.0493389
0.0493049
0.0492365
0.0491555
0.0491149
0.0491638
0.0492649
0.0492855
0.0492824
0.0492759
0.0492672
0.0492573
0.049247
0.0492372
0.0492283
0.0492209
0.0492154
0.049212
0.0492109
0.0492123
0.0492161
0.0492222
0.0492308
0.0492416
0.0492547
0.0492698
0.0492868
0.0493053
0.0493246
0.0493435
0.0493591
0.0493674
0.0492034
0.0493673
0.0493821
0.0493894
0.0493886
0.0493809
0.0493688
0.0493537
0.0493364
0.0493174
0.0492971
0.0492763
0.0492559
0.0492375
0.0492207
0.049205
0.0491907
0.0491785
0.0491684
0.0491603
0.0491527
0.0491476
0.0491525
0.0491755
0.0492016
0.0492112
0.0492069
0.0491998
0.0491953
0.0491954
0.0492007
0.0492104
0.0492234
0.0492385
0.0492546
0.0492708
0.0492864
0.0493007
0.0493134
0.0493243
0.0493332
0.0493403
0.0493458
0.0493499
0.0493529
0.0493549
0.0493561
0.0493568
0.0493569
0.0493567
0.0493561
0.0493552
0.0493537
0.0493517
0.0493491
0.049346
0.0493426
0.049339
0.0493356
0.0493327
0.0493304
0.0493292
0.049329
0.0493301
0.0493325
0.0493361
0.0493407
0.0493444
0.0493385
0.0493026
0.0492273
0.0491333
0.0490997
0.049162
0.0492564
0.049271
0.0492679
0.0492617
0.0492537
0.0492446
0.0492354
0.0492267
0.049219
0.0492127
0.0492081
0.0492055
0.049205
0.0492067
0.0492106
0.0492166
0.0492248
0.0492349
0.049247
0.0492609
0.0492763
0.0492928
0.0493099
0.0493265
0.0493403
0.0493488
0.0491976
0.0493699
0.0493855
0.0493924
0.0493906
0.049382
0.0493693
0.0493538
0.0493364
0.0493176
0.0492978
0.0492773
0.0492562
0.0492373
0.0492202
0.0492044
0.0491898
0.0491769
0.0491658
0.0491562
0.0491475
0.0491418
0.0491467
0.0491714
0.0492002
0.0492106
0.0492049
0.0491957
0.0491897
0.0491891
0.0491946
0.0492052
0.0492195
0.0492362
0.0492539
0.0492716
0.0492886
0.049304
0.0493176
0.049329
0.0493382
0.0493455
0.0493509
0.0493549
0.0493577
0.0493594
0.0493604
0.0493608
0.0493606
0.0493602
0.0493594
0.0493584
0.0493571
0.0493554
0.0493532
0.0493505
0.0493474
0.0493441
0.0493408
0.0493377
0.0493352
0.0493334
0.0493326
0.049333
0.0493345
0.0493373
0.049341
0.0493438
0.0493372
0.0492987
0.0492145
0.0491102
0.0490863
0.0491596
0.0492461
0.0492566
0.0492535
0.0492478
0.0492404
0.0492323
0.0492241
0.0492166
0.04921
0.0492048
0.0492011
0.0491993
0.0491994
0.0492013
0.0492052
0.0492109
0.0492185
0.0492278
0.0492387
0.0492511
0.0492647
0.0492791
0.0492939
0.0493082
0.0493206
0.0493296
0.0491921
0.0493726
0.0493889
0.0493953
0.0493925
0.0493831
0.0493699
0.0493544
0.0493372
0.0493187
0.0492992
0.0492794
0.0492583
0.0492385
0.0492214
0.0492055
0.0491909
0.0491776
0.0491658
0.0491552
0.0491462
0.0491406
0.049147
0.0491744
0.0492044
0.0492132
0.0492047
0.0491928
0.049185
0.0491837
0.0491894
0.0492009
0.0492166
0.0492349
0.0492543
0.0492736
0.0492918
0.0493083
0.0493225
0.0493343
0.0493437
0.049351
0.0493564
0.0493602
0.0493627
0.0493642
0.0493648
0.0493649
0.0493645
0.0493637
0.0493627
0.0493616
0.0493603
0.0493588
0.0493569
0.0493546
0.0493518
0.0493488
0.0493456
0.0493426
0.0493398
0.0493376
0.0493363
0.0493358
0.0493365
0.0493383
0.049341
0.0493429
0.049335
0.0492935
0.0491976
0.0490875
0.0490744
0.0491565
0.0492351
0.0492428
0.0492398
0.0492345
0.0492278
0.0492206
0.0492136
0.0492072
0.0492018
0.0491977
0.049195
0.0491939
0.0491944
0.0491966
0.0492002
0.0492055
0.0492123
0.0492206
0.0492302
0.0492411
0.0492528
0.0492651
0.0492776
0.0492896
0.0493006
0.0493105
0.0491869
0.0493751
0.049392
0.0493979
0.0493942
0.0493842
0.0493711
0.0493563
0.0493398
0.0493219
0.0493026
0.0492831
0.0492631
0.0492413
0.0492241
0.0492084
0.0491938
0.0491804
0.0491684
0.0491575
0.0491488
0.0491443
0.049154
0.0491853
0.0492145
0.0492187
0.0492056
0.0491906
0.049181
0.0491791
0.0491851
0.0491978
0.049215
0.0492349
0.0492559
0.0492766
0.0492961
0.0493134
0.0493282
0.0493403
0.0493497
0.0493569
0.0493621
0.0493656
0.0493679
0.0493691
0.0493695
0.0493693
0.0493685
0.0493674
0.0493661
0.0493648
0.0493635
0.049362
0.0493603
0.0493583
0.0493559
0.0493532
0.0493502
0.0493472
0.0493443
0.0493418
0.0493398
0.0493387
0.0493385
0.0493394
0.049341
0.0493417
0.0493322
0.0492871
0.0491773
0.0490658
0.0490641
0.0491527
0.0492238
0.0492296
0.0492269
0.0492221
0.0492162
0.04921
0.0492041
0.0491988
0.0491946
0.0491916
0.0491899
0.0491896
0.0491905
0.0491927
0.0491961
0.0492007
0.0492066
0.0492137
0.049222
0.0492312
0.0492412
0.0492514
0.0492617
0.0492716
0.0492813
0.049292
0.0491819
0.0493774
0.0493947
0.0494
0.0493957
0.0493858
0.0493736
0.0493604
0.049346
0.04933
0.0493122
0.0492916
0.0492714
0.049248
0.0492287
0.0492129
0.0491985
0.0491853
0.0491733
0.0491628
0.0491551
0.049153
0.0491687
0.0492047
0.0492296
0.0492258
0.0492069
0.0491888
0.0491776
0.0491753
0.049182
0.0491958
0.0492146
0.0492361
0.0492587
0.0492808
0.0493013
0.0493194
0.0493345
0.0493467
0.049356
0.049363
0.0493679
0.0493713
0.0493734
0.0493743
0.0493744
0.0493739
0.0493727
0.0493712
0.0493696
0.049368
0.0493666
0.0493651
0.0493636
0.0493618
0.0493597
0.0493573
0.0493545
0.0493516
0.0493486
0.0493458
0.0493434
0.0493416
0.0493406
0.0493404
0.0493409
0.0493404
0.049329
0.0492797
0.0491543
0.0490453
0.0490552
0.0491487
0.0492129
0.0492175
0.0492151
0.0492108
0.0492058
0.0492006
0.0491958
0.0491918
0.0491888
0.0491869
0.0491862
0.0491865
0.0491878
0.0491899
0.0491928
0.0491967
0.0492016
0.0492075
0.0492143
0.0492219
0.0492301
0.0492386
0.0492468
0.0492548
0.0492632
0.0492746
0.0491768
0.049379
0.0493968
0.0494016
0.0493972
0.0493884
0.0493783
0.0493678
0.049357
0.0493453
0.0493322
0.049317
0.0492967
0.0492706
0.0492369
0.0492204
0.0492057
0.0491925
0.0491807
0.0491712
0.0491653
0.0491674
0.0491927
0.0492315
0.0492469
0.0492323
0.0492075
0.0491869
0.0491746
0.0491724
0.0491799
0.0491951
0.0492155
0.0492386
0.0492627
0.0492861
0.0493074
0.049326
0.0493413
0.0493534
0.0493625
0.0493692
0.0493739
0.0493771
0.049379
0.0493798
0.0493797
0.0493788
0.0493772
0.0493753
0.0493733
0.0493714
0.0493697
0.0493682
0.0493667
0.0493652
0.0493634
0.0493612
0.0493587
0.0493558
0.0493528
0.0493498
0.049347
0.0493446
0.0493428
0.0493417
0.049341
0.0493391
0.0493256
0.0492711
0.0491291
0.0490265
0.0490479
0.0491445
0.0492027
0.0492065
0.0492045
0.0492009
0.0491966
0.0491924
0.0491888
0.0491861
0.0491843
0.0491836
0.0491839
0.0491848
0.0491864
0.0491882
0.0491906
0.0491936
0.0491974
0.0492019
0.0492073
0.0492134
0.04922
0.0492268
0.0492333
0.0492395
0.0492466
0.0492589
0.0491715
0.04938
0.049398
0.0494025
0.0493987
0.0493921
0.0493851
0.0493781
0.0493716
0.0493652
0.0493585
0.0493513
0.0493429
0.0493315
0.0493092
0.0492476
0.0492239
0.0492072
0.049194
0.049185
0.0491809
0.0491901
0.0492274
0.0492624
0.0492622
0.0492359
0.0492066
0.0491845
0.0491719
0.0491701
0.0491789
0.0491957
0.0492177
0.0492424
0.0492678
0.0492922
0.0493143
0.0493331
0.0493484
0.0493603
0.0493691
0.0493754
0.0493799
0.0493829