/*--------------------------------*- C++ -*----------------------------------*\
| =========                 |                                                 |
| \\      /  F ield         | OpenFOAM: The Open Source CFD Toolbox           |
|  \\    /   O peration     | Version:  4.1                                   |
|   \\  /    A nd           | Web:      www.OpenFOAM.org                      |
|    \\/     M anipulation  |                                                 |
\*---------------------------------------------------------------------------*/
FoamFile
{
    version     2.0;
    format      ascii;
    class       volVectorField;
    location    "420";
    object      U;
}
// * * * * * * * * * * * * * * * * * * * * * * * * * * * * * * * * * * * * * //

dimensions      [0 1 -1 0 0 0 0];

internalField   nonuniform List<vector> 
5000
(
(-0.00344636 0.00228562 0)
(-0.00420737 0.000461542 0)
(-0.00468776 6.3814e-05 0)
(-0.00499176 0.000146473 0)
(-0.00544358 0.000252197 0)
(-0.00602601 0.000322986 0)
(-0.00669116 0.000367916 0)
(-0.00740323 0.000393674 0)
(-0.00813518 0.000404295 0)
(-0.00886632 0.000403354 0)
(-0.00958146 0.000394113 0)
(-0.0102699 0.000379225 0)
(-0.0109241 0.000360544 0)
(-0.0115384 0.000339112 0)
(-0.0121075 0.000315306 0)
(-0.0126265 0.000289031 0)
(-0.0130893 0.000259894 0)
(-0.013489 0.000227328 0)
(-0.0138179 0.000190681 0)
(-0.0140674 0.000149215 0)
(-0.0142279 0.000101976 0)
(-0.0142889 4.73952e-05 0)
(-0.0142388 -1.65348e-05 0)
(-0.0140619 -9.02186e-05 0)
(-0.013745 -0.000171546 0)
(-0.0132795 -0.000258177 0)
(-0.0126606 -0.000347739 0)
(-0.0118883 -0.000437493 0)
(-0.0109677 -0.000524175 0)
(-0.0099105 -0.000604023 0)
(-0.00873536 -0.000672985 0)
(-0.00746797 -0.000727143 0)
(-0.00614006 -0.000763317 0)
(-0.00478678 -0.00077977 0)
(-0.00344278 -0.000776856 0)
(-0.00214049 -0.000757191 0)
(-0.000919076 -0.000723797 0)
(0.000233313 -0.000668676 0)
(0.00134726 -0.000559773 0)
(0.00218421 -0.000422103 0)
(0.00284996 -0.00029432 0)
(0.00337355 -0.000206703 0)
(0.00379684 -0.000156277 0)
(0.00416922 -0.000144855 0)
(0.00453581 -0.000167116 0)
(0.00492644 -0.000205515 0)
(0.00535359 -0.000244109 0)
(0.00581585 -0.000274513 0)
(0.0063052 -0.000294665 0)
(0.00681318 -0.000305883 0)
(0.00733352 -0.000310683 0)
(0.00786234 -0.000311535 0)
(0.00839751 -0.000310309 0)
(0.00893787 -0.000308168 0)
(0.00948267 -0.000305668 0)
(0.0100311 -0.000302926 0)
(0.0105822 -0.000299776 0)
(0.0111341 -0.000295896 0)
(0.0116847 -0.000290889 0)
(0.0122311 -0.000284346 0)
(0.01277 -0.000275883 0)
(0.0132971 -0.000265158 0)
(0.0138083 -0.000251891 0)
(0.0142984 -0.000235869 0)
(0.0147624 -0.000216956 0)
(0.015195 -0.000195095 0)
(0.0155907 -0.000170313 0)
(0.0159441 -0.00014273 0)
(0.0162502 -0.000112566 0)
(0.016504 -8.01754e-05 0)
(0.0167016 -4.61191e-05 0)
(0.0168396 -1.1354e-05 0)
(0.0169163 2.24429e-05 0)
(0.0169341 5.34397e-05 0)
(0.0168953 8.13932e-05 0)
(0.0168006 0.000107272 0)
(0.0166508 0.0001319 0)
(0.0164475 0.000155494 0)
(0.0161921 0.000177986 0)
(0.0158867 0.00019918 0)
(0.0155341 0.000218824 0)
(0.0151378 0.000236651 0)
(0.0147016 0.000252395 0)
(0.01423 0.00026583 0)
(0.0137276 0.000276799 0)
(0.0131992 0.000285257 0)
(0.0126493 0.000291338 0)
(0.012082 0.00029545 0)
(0.0115003 0.000298441 0)
(0.0109053 0.000301826 0)
(0.0102947 0.000308086 0)
(0.0096612 0.000320744 0)
(0.00899127 0.000343318 0)
(0.00826711 0.00037488 0)
(0.00748063 0.000398967 0)
(0.00666918 0.000372227 0)
(0.00595093 0.000250888 0)
(0.00543509 0.000133635 0)
(0.00476504 0.000568044 0)
(0.00404447 0.00259258 0)
(-0.00342751 0.00531862 0)
(-0.00468901 0.00168098 0)
(-0.00583833 0.00061975 0)
(-0.00647764 0.000659627 0)
(-0.00706649 0.000820938 0)
(-0.00767588 0.000942113 0)
(-0.00831307 0.00101956 0)
(-0.00897059 0.00105995 0)
(-0.00963675 0.00106978 0)
(-0.0102998 0.00105565 0)
(-0.0109493 0.00102362 0)
(-0.0115766 0.000978433 0)
(-0.0121741 0.000923189 0)
(-0.0127347 0.000859401 0)
(-0.0132515 0.000787291 0)
(-0.013717 0.000706195 0)
(-0.0141232 0.000614964 0)
(-0.0144611 0.000512292 0)
(-0.0147211 0.00039693 0)
(-0.0148932 0.000267801 0)
(-0.0149674 0.00012385 0)
(-0.014933 -3.6142e-05 0)
(-0.0147796 -0.000213835 0)
(-0.0145036 -0.000409292 0)
(-0.0140965 -0.000619926 0)
(-0.0135504 -0.000840243 0)
(-0.0128612 -0.00106415 0)
(-0.0120291 -0.00128457 0)
(-0.0110596 -0.00149309 0)
(-0.00996459 -0.00168014 0)
(-0.00876292 -0.00183556 0)
(-0.00748047 -0.00194986 0)
(-0.00614899 -0.00201586 0)
(-0.00480338 -0.00203067 0)
(-0.00347746 -0.00199735 0)
(-0.00220149 -0.00192587 0)
(-0.00100999 -0.00183013 0)
(9.92663e-05 -0.00170386 0)
(0.00120997 -0.00147651 0)
(0.00207264 -0.00119113 0)
(0.00282782 -0.000943833 0)
(0.00350301 -0.000774097 0)
(0.00412278 -0.000672566 0)
(0.00470486 -0.000627938 0)
(0.00525846 -0.00062618 0)
(0.00578909 -0.000648299 0)
(0.00630353 -0.000678406 0)
(0.00680997 -0.000707393 0)
(0.00731555 -0.000731757 0)
(0.00782524 -0.000751211 0)
(0.00834197 -0.000766847 0)
(0.0088672 -0.000779984 0)
(0.00940127 -0.000791573 0)
(0.0099438 -0.00080202 0)
(0.0104939 -0.00081124 0)
(0.0110503 -0.000818795 0)
(0.0116114 -0.000824022 0)
(0.0121753 -0.000826141 0)
(0.0127398 -0.000824329 0)
(0.0133021 -0.00081777 0)
(0.0138593 -0.000805697 0)
(0.0144081 -0.000787416 0)
(0.0149446 -0.00076233 0)
(0.0154648 -0.000729964 0)
(0.0159645 -0.000689984 0)
(0.0164393 -0.000642211 0)
(0.0168846 -0.000586643 0)
(0.0172959 -0.000523463 0)
(0.0176691 -0.000453067 0)
(0.0180002 -0.000376107 0)
(0.0182854 -0.000293597 0)
(0.0185217 -0.000207094 0)
(0.0187061 -0.000118713 0)
(0.0188334 -2.97975e-05 0)
(0.0188977 5.83865e-05 0)
(0.0188974 0.000145358 0)
(0.0188327 0.000230938 0)
(0.0187043 0.000314589 0)
(0.0185133 0.000395453 0)
(0.0182618 0.000472569 0)
(0.0179524 0.000544992 0)
(0.0175885 0.000611877 0)
(0.017174 0.000672518 0)
(0.016713 0.000726405 0)
(0.01621 0.000773284 0)
(0.0156694 0.000813247 0)
(0.0150955 0.000846866 0)
(0.014492 0.00087539 0)
(0.0138614 0.000901049 0)
(0.0132048 0.000927468 0)
(0.0125209 0.000960088 0)
(0.011806 0.00100601 0)
(0.0110547 0.00107151 0)
(0.0102634 0.00115343 0)
(0.00943719 0.00122129 0)
(0.00859724 0.00120342 0)
(0.00776509 0.00103948 0)
(0.00687293 0.000955021 0)
(0.00536899 0.00209001 0)
(0.00399399 0.00599096 0)
(-0.00290831 0.00868403 0)
(-0.00387212 0.00338028 0)
(-0.00531065 0.00157554 0)
(-0.00622285 0.00136519 0)
(-0.00694793 0.00145418 0)
(-0.00759561 0.00156474 0)
(-0.00821584 0.00164759 0)
(-0.00882608 0.00169343 0)
(-0.00943105 0.00170334 0)
(-0.01003 0.00168239 0)
(-0.0106197 0.00163639 0)
(-0.0111953 0.00157017 0)
(-0.011751 0.00148677 0)
(-0.0122797 0.00138737 0)
(-0.0127739 0.00127157 0)
(-0.0132247 0.00113794 0)
(-0.0136226 0.000984504 0)
(-0.0139577 0.000809238 0)
(-0.0142191 0.000610393 0)
(-0.0143964 0.000386735 0)
(-0.0144786 0.00013768 0)
(-0.014455 -0.00013646 0)
(-0.0143158 -0.000435681 0)
(-0.0140524 -0.000760544 0)
(-0.0136574 -0.00110787 0)
(-0.0131261 -0.00147007 0)
(-0.0124562 -0.00183747 0)
(-0.0116491 -0.00219814 0)
(-0.0107115 -0.00253769 0)
(-0.00965659 -0.00283964 0)
(-0.00850464 -0.00308663 0)
(-0.00728296 -0.00326254 0)
(-0.00602451 -0.00335547 0)
(-0.00476483 -0.00336106 0)
(-0.00353745 -0.00328536 0)
(-0.00237003 -0.00314601 0)
(-0.00128745 -0.00296911 0)
(-0.000310123 -0.00276689 0)
(0.000702666 -0.00244821 0)
(0.00155171 -0.00204233 0)
(0.00231177 -0.00169717 0)
(0.00300901 -0.00145987 0)
(0.00366181 -0.00131491 0)
(0.00428113 -0.0012386 0)
(0.00487289 -0.00120964 0)
(0.00544073 -0.00120984 0)
(0.00598891 -0.00122513 0)
(0.00652306 -0.00124655 0)
(0.00704892 -0.0012694 0)
(0.00757115 -0.00129165 0)
(0.00809308 -0.0013126 0)
(0.00861686 -0.00133212 0)
(0.00914364 -0.0013501 0)
(0.00967387 -0.00136628 0)
(0.0102075 -0.00138015 0)
(0.0107439 -0.00139096 0)
(0.0112823 -0.00139781 0)
(0.0118216 -0.00139965 0)
(0.0123601 -0.00139537 0)
(0.0128959 -0.00138382 0)
(0.0134268 -0.00136389 0)
(0.01395 -0.00133452 0)
(0.0144623 -0.00129478 0)
(0.0149602 -0.00124391 0)
(0.0154399 -0.00118136 0)
(0.0158972 -0.00110684 0)
(0.0163282 -0.00102035 0)
(0.0167285 -0.000922191 0)
(0.0170943 -0.000812983 0)
(0.0174217 -0.000693685 0)
(0.0177073 -0.000565615 0)
(0.0179476 -0.00043042 0)
(0.0181393 -0.000289675 0)
(0.0182795 -0.00014391 0)
(0.0183664 5.79887e-06 0)
(0.0183947 0.000156935 0)
(0.0183639 0.000307339 0)
(0.0182737 0.000455285 0)
(0.0181239 0.000599125 0)
(0.0179153 0.00073713 0)
(0.0176491 0.000867714 0)
(0.0173274 0.000989478 0)
(0.0169526 0.00110127 0)
(0.0165276 0.00120225 0)
(0.0160557 0.00129197 0)
(0.0155406 0.00137055 0)
(0.0149858 0.00143881 0)
(0.0143948 0.0014986 0)
(0.013771 0.00155313 0)
(0.0131168 0.00160734 0)
(0.0124341 0.00166819 0)
(0.0117247 0.00174374 0)
(0.0109905 0.00183954 0)
(0.0102342 0.00194894 0)
(0.00945592 0.00203831 0)
(0.00863914 0.00204909 0)
(0.00771533 0.00198472 0)
(0.00653937 0.00221775 0)
(0.00465181 0.00419629 0)
(0.00345501 0.00986397 0)
(-0.00246538 0.0116114 0)
(-0.00318551 0.00502794 0)
(-0.00462281 0.00267574 0)
(-0.00556637 0.00220229 0)
(-0.00635496 0.00215795 0)
(-0.00704625 0.00220591 0)
(-0.00768639 0.00225953 0)
(-0.00829958 0.00229115 0)
(-0.00889861 0.00229285 0)
(-0.00948925 0.00226465 0)
(-0.0100725 0.00220921 0)
(-0.0106457 0.0021291 0)
(-0.0112036 0.00202562 0)
(-0.0117388 0.00189856 0)
(-0.0122424 0.00174643 0)
(-0.0127045 0.00156693 0)
(-0.0131144 0.00135753 0)
(-0.0134613 0.00111583 0)
(-0.0137342 0.00083984 0)
(-0.0139224 0.000528224 0)
(-0.0140155 0.000180509 0)
(-0.0140035 -0.000202755 0)
(-0.0138779 -0.000621136 0)
(-0.0136315 -0.00107271 0)
(-0.013258 -0.0015517 0)
(-0.0127536 -0.00204879 0)
(-0.0121174 -0.00255118 0)
(-0.0113524 -0.00304242 0)
(-0.010467 -0.00350232 0)
(-0.00947589 -0.00390764 0)
(-0.00840076 -0.0042339 0)
(-0.00727015 -0.00445853 0)
(-0.00611761 -0.00456536 0)
(-0.00497812 -0.00454952 0)
(-0.00388317 -0.00442111 0)
(-0.00285641 -0.00420575 0)
(-0.001914 -0.00393967 0)
(-0.00107081 -0.00365309 0)
(-0.000270548 -0.00330707 0)
(0.00055257 -0.00283154 0)
(0.00130283 -0.00241679 0)
(0.00200983 -0.00213614 0)
(0.00268634 -0.00196045 0)
(0.00333769 -0.00185835 0)
(0.00396552 -0.00180483 0)
(0.00457045 -0.00178243 0)
(0.00515441 -0.00177875 0)
(0.00572087 -0.00178559 0)
(0.00627391 -0.00179811 0)
(0.0068173 -0.00181362 0)
(0.00735413 -0.00183066 0)
(0.00788673 -0.00184828 0)
(0.00841678 -0.00186572 0)
(0.00894543 -0.00188218 0)
(0.00947336 -0.00189669 0)
(0.0100009 -0.00190811 0)
(0.0105281 -0.00191515 0)
(0.0110545 -0.00191636 0)
(0.0115794 -0.00191019 0)
(0.0121016 -0.00189506 0)
(0.0126193 -0.00186936 0)
(0.0131303 -0.00183156 0)
(0.0136319 -0.00178027 0)
(0.0141206 -0.00171433 0)
(0.0145928 -0.00163289 0)
(0.0150443 -0.00153545 0)
(0.015471 -0.00142193 0)
(0.0158686 -0.0012927 0)
(0.0162328 -0.00114856 0)
(0.0165599 -0.000990715 0)
(0.0168462 -0.000820714 0)
(0.0170887 -0.000640331 0)
(0.0172845 -0.000451336 0)
(0.0174312 -0.000255185 0)
(0.0175283 -5.31347e-05 0)
(0.0175718 0.000152409 0)
(0.0175604 0.000358591 0)
(0.0174931 0.000562949 0)
(0.0173694 0.000763409 0)
(0.0171888 0.000957777 0)
(0.0169516 0.00114396 0)
(0.0166585 0.00132001 0)
(0.0163106 0.00148424 0)
(0.0159097 0.00163527 0)
(0.015458 0.00177222 0)
(0.0149583 0.00189482 0)
(0.0144137 0.0020037 0)
(0.0138278 0.00210062 0)
(0.0132045 0.00218889 0)
(0.0125478 0.00227366 0)
(0.0118622 0.00236191 0)
(0.0111524 0.00246143 0)
(0.0104232 0.00257732 0)
(0.00967775 0.0027049 0)
(0.00891031 0.00282301 0)
(0.00808981 0.00291102 0)
(0.0071358 0.00304371 0)
(0.00594622 0.00366357 0)
(0.00402759 0.00632422 0)
(0.00299624 0.0133767 0)
(-0.00211799 0.0140122 0)
(-0.00267203 0.00646432 0)
(-0.00403131 0.0037402 0)
(-0.00492299 0.00307241 0)
(-0.00572409 0.00290765 0)
(-0.00644149 0.00288391 0)
(-0.00710711 0.00289595 0)
(-0.00774122 0.00290425 0)
(-0.00835701 0.00289294 0)
(-0.00896174 0.00285616 0)
(-0.0095576 0.00279199 0)
(-0.0101427 0.00269941 0)
(-0.0107117 0.00257702 0)
(-0.0112573 0.00242262 0)
(-0.0117702 0.00223341 0)
(-0.0122405 0.00200635 0)
(-0.0126577 0.00173852 0)
(-0.0130112 0.00142749 0)
(-0.0132904 0.00107152 0)
(-0.0134852 0.000669776 0)
(-0.013586 0.000222641 0)
(-0.0135839 -0.000268244 0)
(-0.0134719 -0.000801618 0)
(-0.0132446 -0.00137462 0)
(-0.0128973 -0.00197914 0)
(-0.0124279 -0.00260329 0)
(-0.0118374 -0.0032309 0)
(-0.0111304 -0.00384099 0)
(-0.0103165 -0.00440774 0)
(-0.00941125 -0.00490131 0)
(-0.00843716 -0.00529035 0)
(-0.00742274 -0.00554646 0)
(-0.00640043 -0.00565036 0)
(-0.00540243 -0.00559848 0)
(-0.00445545 -0.00540712 0)
(-0.00357664 -0.00511148 0)
(-0.00277341 -0.00475739 0)
(-0.00204698 -0.00438568 0)
(-0.00138638 -0.00400819 0)
(-0.00070451 -0.00357685 0)
(4.44321e-05 -0.00312967 0)
(0.000762757 -0.00282889 0)
(0.0014604 -0.00263507 0)
(0.00213486 -0.00251335 0)
(0.00278771 -0.00243839 0)
(0.0034178 -0.00239457 0)
(0.00402589 -0.00237125 0)
(0.00461446 -0.00236139 0)
(0.00518675 -0.00236054 0)
(0.00574604 -0.00236583 0)
(0.00629523 -0.00237529 0)
(0.00683678 -0.00238744 0)
(0.00737271 -0.00240101 0)
(0.00790464 -0.00241478 0)
(0.00843387 -0.00242742 0)
(0.00896142 -0.00243747 0)
(0.00948796 -0.00244331 0)
(0.0100138 -0.0024431 0)
(0.0105389 -0.00243485 0)
(0.0110625 -0.00241645 0)
(0.0115833 -0.0023857 0)
(0.0120993 -0.00234048 0)
(0.0126078 -0.00227878 0)
(0.0131054 -0.00219889 0)
(0.0135882 -0.0020995 0)
(0.0140516 -0.00197982 0)
(0.0144909 -0.00183961 0)
(0.0149013 -0.00167931 0)
(0.0152779 -0.00149991 0)
(0.0156165 -0.001303 0)
(0.0159132 -0.00109059 0)
(0.0161645 -0.000864986 0)
(0.0163679 -0.000628579 0)
(0.0165215 -0.000383551 0)
(0.0166248 -0.00013149 0)
(0.0166779 0.00012584 0)
(0.0166785 0.000385673 0)
(0.0166264 0.000645003 0)
(0.0165214 0.000901173 0)
(0.0163627 0.00115168 0)
(0.01615 0.00139406 0)
(0.015883 0.0016259 0)
(0.0155619 0.00184504 0)
(0.0151868 0.00204957 0)
(0.0147588 0.00223804 0)
(0.0142794 0.00240958 0)
(0.0137507 0.00256421 0)
(0.0131758 0.00270311 0)
(0.0125585 0.00282902 0)
(0.0119037 0.0029465 0)
(0.0112169 0.00306198 0)
(0.0105045 0.00318291 0)
(0.00977276 0.00331541 0)
(0.00902495 0.00346037 0)
(0.00825474 0.0036136 0)
(0.00743335 0.00378999 0)
(0.00649288 0.00411562 0)
(0.00538317 0.0050731 0)
(0.00354459 0.00826785 0)
(0.00263314 0.0163897 0)
(-0.00183843 0.0160189 0)
(-0.00227816 0.00770654 0)
(-0.00355468 0.00471716 0)
(-0.00438059 0.00392113 0)
(-0.0051716 0.00366856 0)
(-0.00589702 0.00358409 0)
(-0.00657881 0.00355579 0)
(-0.00723098 0.00353871 0)
(-0.00786394 0.00351166 0)
(-0.00848377 0.00346375 0)
(-0.00909229 0.00338861 0)
(-0.00968749 0.00328158 0)
(-0.0102643 0.00313851 0)
(-0.0108156 0.00295529 0)
(-0.0113325 0.00272793 0)
(-0.0118057 0.00245274 0)
(-0.0122249 0.00212654 0)
(-0.0125802 0.00174685 0)
(-0.0128616 0.0013121 0)
(-0.0130595 0.000821972 0)
(-0.0131651 0.00027774 0)
(-0.0131715 -0.00031749 0)
(-0.0130735 -0.000960857 0)
(-0.0128686 -0.00164793 0)
(-0.0125542 -0.00236858 0)
(-0.0121302 -0.00310851 0)
(-0.0115991 -0.00384849 0)
(-0.0109665 -0.00456342 0)
(-0.0102424 -0.00522222 0)
(-0.00944238 -0.00578886 0)
(-0.00858806 -0.00622574 0)
(-0.0077062 -0.00649962 0)
(-0.00682591 -0.00658975 0)
(-0.00597415 -0.00649602 0)
(-0.00517062 -0.00624314 0)
(-0.0044246 -0.00587731 0)
(-0.00373548 -0.00545437 0)
(-0.00309603 -0.00502299 0)
(-0.00249115 -0.00460956 0)
(-0.0018868 -0.00421657 0)
(-0.00123441 -0.00384483 0)
(-0.000526263 -0.00354567 0)
(0.000196903 -0.00333203 0)
(0.000884042 -0.00318762 0)
(0.0015486 -0.00308845 0)
(0.00218858 -0.00302121 0)
(0.00280576 -0.0029768 0)
(0.00340275 -0.00294855 0)
(0.00398259 -0.00293226 0)
(0.00454847 -0.00292492 0)
(0.00510329 -0.00292433 0)
(0.00564959 -0.00292871 0)
(0.00618962 -0.00293648 0)
(0.00672537 -0.00294615 0)
(0.00725856 -0.00295614 0)
(0.00779071 -0.00296473 0)
(0.00832304 -0.00296993 0)
(0.00885639 -0.00296952 0)
(0.00939109 -0.00296093 0)
(0.00992686 -0.00294141 0)
(0.0104626 -0.00290803 0)
(0.0109965 -0.00285784 0)
(0.0115255 -0.00278805 0)
(0.0120462 -0.0026962 0)
(0.0125539 -0.00258035 0)
(0.0130435 -0.00243925 0)
(0.0135096 -0.00227247 0)
(0.0139463 -0.0020804 0)
(0.0143482 -0.00186432 0)
(0.0147101 -0.00162623 0)
(0.0150272 -0.00136876 0)
(0.0152957 -0.001095 0)
(0.0155127 -0.000808209 0)
(0.0156762 -0.000511618 0)
(0.0157856 -0.000208009 0)
(0.0158428 0.000100318 0)
(0.015847 0.000411031 0)
(0.0157994 0.000721365 0)
(0.0157009 0.00102867 0)
(0.0155517 0.00133063 0)
(0.015352 0.00162492 0)
(0.0151014 0.00190921 0)
(0.0147997 0.00218119 0)
(0.0144463 0.00243867 0)
(0.014041 0.00267967 0)
(0.013584 0.00290264 0)
(0.0130761 0.00310668 0)
(0.0125192 0.00329195 0)
(0.0119163 0.00346003 0)
(0.0112718 0.00361433 0)
(0.0105916 0.00376027 0)
(0.00988256 0.00390487 0)
(0.00915157 0.00405566 0)
(0.00840309 0.00421939 0)
(0.00763337 0.0044065 0)
(0.00682142 0.00465878 0)
(0.00591251 0.0051409 0)
(0.00489869 0.00637565 0)
(0.00316075 0.0100196 0)
(0.00233759 0.0190181 0)
(-0.001611 0.0177515 0)
(-0.00197607 0.00880695 0)
(-0.00317738 0.00561281 0)
(-0.00394036 0.00473268 0)
(-0.00471118 0.00442068 0)
(-0.00543053 0.00429027 0)
(-0.00611595 0.00422801 0)
(-0.00677611 0.00418726 0)
(-0.00741824 0.0041437 0)
(-0.00804655 0.00408267 0)
(-0.00866181 0.00399408 0)
(-0.00926166 0.00387007 0)
(-0.00984106 0.00370399 0)
(-0.010393 0.00348998 0)
(-0.0109091 0.00322292 0)
(-0.0113803 0.00289846 0)
(-0.0117968 0.00251311 0)
(-0.0121491 0.00206444 0)
(-0.0124279 0.00155129 0)
(-0.0126248 0.000974268 0)
(-0.0127325 0.000336226 0)
(-0.0127465 -0.000357485 0)
(-0.0126644 -0.00110201 0)
(-0.0124867 -0.00189182 0)
(-0.0122132 -0.00271514 0)
(-0.0118455 -0.00355586 0)
(-0.0113868 -0.00439227 0)
(-0.010843 -0.00519588 0)
(-0.0102233 -0.00593097 0)
(-0.00954206 -0.0065561 0)
(-0.0088182 -0.00702839 0)
(-0.00807467 -0.0073112 0)
(-0.00733506 -0.00738419 0)
(-0.00661926 -0.00725258 0)
(-0.00593924 -0.00695059 0)
(-0.00529725 -0.00653528 0)
(-0.0046875 -0.0060712 0)
(-0.00409955 -0.00561231 0)
(-0.00351962 -0.00519012 0)
(-0.00292905 -0.00481537 0)
(-0.00230878 -0.00449348 0)
(-0.00165826 -0.00423776 0)
(-0.000989911 -0.00403651 0)
(-0.00029861 -0.00387246 0)
(0.000370914 -0.00374623 0)
(0.00101168 -0.00365227 0)
(0.0016279 -0.00358487 0)
(0.002224 -0.00353758 0)
(0.00280313 -0.00350599 0)
(0.0033686 -0.00348632 0)
(0.00392338 -0.00347608 0)
(0.00447019 -0.00347325 0)
(0.00501147 -0.00347603 0)
(0.00554945 -0.00348272 0)
(0.00608618 -0.00349157 0)
(0.00662355 -0.00350061 0)
(0.0071632 -0.00350754 0)
(0.00770642 -0.00350966 0)
(0.00825394 -0.00350381 0)
(0.0088058 -0.00348647 0)
(0.00936112 -0.00345381 0)
(0.00991805 -0.00340192 0)
(0.0104736 -0.00332703 0)
(0.0110238 -0.00322573 0)
(0.0115635 -0.0030953 0)
(0.0120871 -0.0029339 0)
(0.0125881 -0.00274076 0)
(0.0130599 -0.00251623 0)
(0.013496 -0.00226183 0)
(0.0138904 -0.00198004 0)
(0.0142374 -0.00167422 0)
(0.0145323 -0.00134834 0)
(0.0147714 -0.00100678 0)
(0.014952 -0.000654046 0)
(0.0150729 -0.000294496 0)
(0.0151358 6.83632e-05 0)
(0.0151412 0.000432002 0)
(0.0150916 0.000793959 0)
(0.0149896 0.00115171 0)
(0.014837 0.00150324 0)
(0.0146356 0.00184665 0)
(0.0143864 0.00218006 0)
(0.01409 0.00250158 0)
(0.0137461 0.0028092 0)
(0.0133541 0.00310088 0)
(0.0129133 0.00337463 0)
(0.0124235 0.00362878 0)
(0.0118851 0.00386231 0)
(0.0112998 0.0040754 0)
(0.0106712 0.00426989 0)
(0.0100041 0.00444974 0)
(0.00930539 0.0046212 0)
(0.00858225 0.00479266 0)
(0.00784042 0.0049754 0)
(0.00707963 0.00519082 0)
(0.00628711 0.00550088 0)
(0.00541684 0.00610373 0)
(0.00449527 0.00757094 0)
(0.00285728 0.0116198 0)
(0.00209496 0.0213745 0)
(-0.00142541 0.0192822 0)
(-0.00174706 0.00980374 0)
(-0.00288021 0.00644243 0)
(-0.00358522 0.00550495 0)
(-0.00432996 0.00515326 0)
(-0.0050327 0.00498955 0)
(-0.00571042 0.00490057 0)
(-0.00636791 0.00483959 0)
(-0.00700984 0.00478046 0)
(-0.00763858 0.0047057 0)
(-0.00825377 0.00460223 0)
(-0.00885238 0.00445951 0)
(-0.0094291 0.0042687 0)
(-0.00997684 0.00402238 0)
(-0.0104873 0.00371435 0)
(-0.0109516 0.00333968 0)
(-0.0113603 0.0028947 0)
(-0.0117044 0.00237728 0)
(-0.0119758 0.0017871 0)
(-0.0121677 0.00112624 0)
(-0.0122754 0.000399719 0)
(-0.0122971 -0.000384396 0)
(-0.0122335 -0.00121905 0)
(-0.0120884 -0.00209789 0)
(-0.0118633 -0.00300826 0)
(-0.0115611 -0.00393309 0)
(-0.0111853 -0.00484916 0)
(-0.0107407 -0.00572544 0)
(-0.0102349 -0.00652255 0)
(-0.00967904 -0.00719466 0)
(-0.00908812 -0.00769496 0)
(-0.00847931 -0.00798499 0)
(-0.00786916 -0.0080463 0)
(-0.00726997 -0.00789018 0)
(-0.00668701 -0.00755971 0)
(-0.0061183 -0.00712051 0)
(-0.00555694 -0.00664261 0)
(-0.0049944 -0.00618168 0)
(-0.00442235 -0.00576896 0)
(-0.00383332 -0.0054143 0)
(-0.00322368 -0.00511803 0)
(-0.00259855 -0.00487939 0)
(-0.00196903 -0.00468979 0)
(-0.00133995 -0.00453393 0)
(-0.000708007 -0.00439926 0)
(-6.62991e-05 -0.00428239 0)
(0.00054376 -0.00419124 0)
(0.0011354 -0.00412388 0)
(0.00170955 -0.00407671 0)
(0.0022709 -0.00404508 0)
(0.00282218 -0.00402604 0)
(0.00336625 -0.00401705 0)
(0.00390568 -0.00401602 0)
(0.00444285 -0.00402113 0)
(0.00498008 -0.00403053 0)
(0.00551959 -0.00404208 0)
(0.00606348 -0.00405321 0)
(0.0066135 -0.00406076 0)
(0.00717089 -0.00406092 0)
(0.00773611 -0.00404931 0)
(0.00830864 -0.00402109 0)
(0.00888675 -0.00397122 0)
(0.00946748 -0.00389474 0)
(0.0100466 -0.00378712 0)
(0.0106185 -0.00364465 0)
(0.0111769 -0.00346476 0)
(0.0117147 -0.00324623 0)
(0.0122245 -0.00298932 0)
(0.012699 -0.00269574 0)
(0.0131311 -0.00236847 0)
(0.0135146 -0.00201156 0)
(0.0138438 -0.00162987 0)
(0.0141141 -0.00122884 0)
(0.0143219 -0.000814272 0)
(0.0144647 -0.000392072 0)
(0.014543 3.23422e-05 0)
(0.0145563 0.000454965 0)
(0.0145078 0.000873007 0)
(0.0144013 0.00128375 0)
(0.0142405 0.00168536 0)
(0.014029 0.00207643 0)
(0.0137701 0.00245587 0)
(0.0134662 0.00282266 0)
(0.0131186 0.00317565 0)
(0.0127275 0.00351335 0)
(0.0122926 0.00383394 0)
(0.011813 0.00413538 0)
(0.0112883 0.00441575 0)
(0.0107188 0.00467376 0)
(0.0101067 0.00490951 0)
(0.00945581 0.00512512 0)
(0.00877217 0.00532549 0)
(0.00806299 0.00551899 0)
(0.0073351 0.00571974 0)
(0.0065914 0.00595686 0)
(0.00582621 0.00630817 0)
(0.00499806 0.00700367 0)
(0.00416204 0.00867231 0)
(0.00261999 0.0131001 0)
(0.00189556 0.0235266 0)
(-0.00127277 0.0206555 0)
(-0.00157342 0.0107205 0)
(-0.00264421 0.00721687 0)
(-0.00329638 0.00623802 0)
(-0.00401116 0.0058596 0)
(-0.00468962 0.00567221 0)
(-0.00535071 0.00556312 0)
(-0.0059965 0.005486 0)
(-0.00662988 0.00541335 0)
(-0.0072517 0.00532548 0)
(-0.00786043 0.00520676 0)
(-0.00845219 0.00504436 0)
(-0.00902111 0.00482753 0)
(-0.00955972 0.00454744 0)
(-0.0100596 0.004197 0)
(-0.0105116 0.00377085 0)
(-0.0109071 0.00326554 0)
(-0.0112378 0.00267971 0)
(-0.0114971 0.00201453 0)
(-0.0116807 0.00127425 0)
(-0.0117867 0.000466601 0)
(-0.0118167 -0.000397363 0)
(-0.0117744 -0.00130855 0)
(-0.0116663 -0.00226047 0)
(-0.0114957 -0.00324056 0)
(-0.0112658 -0.00423189 0)
(-0.0109795 -0.00521083 0)
(-0.0106399 -0.00614488 0)
(-0.0102517 -0.00699213 0)
(-0.00982199 -0.00770364 0)
(-0.00936014 -0.00823004 0)
(-0.00887656 -0.00853237 0)
(-0.00838034 -0.00859469 0)
(-0.00787701 -0.0084336 0)
(-0.00736742 -0.00809854 0)
(-0.00684873 -0.00766011 0)
(-0.00631668 -0.00719017 0)
(-0.00576788 -0.00674321 0)
(-0.00520087 -0.0063479 0)
(-0.00461644 -0.00601116 0)
(-0.00401838 -0.00572911 0)
(-0.00341395 -0.00549544 0)
(-0.00281151 -0.00530272 0)
(-0.00221627 -0.00514307 0)
(-0.00162893 -0.0050097 0)
(-0.00104461 -0.00489369 0)
(-0.00045374 -0.00479082 0)
(0.000135371 -0.00470622 0)
(0.000701932 -0.0046433 0)
(0.00125748 -0.00459942 0)
(0.0018031 -0.00457164 0)
(0.00234199 -0.00455707 0)
(0.00287661 -0.004553 0)
(0.00340935 -0.00455752 0)
(0.00394276 -0.00456872 0)
(0.00447949 -0.00458444 0)
(0.00502216 -0.00460192 0)
(0.00557318 -0.00461762 0)
(0.00613446 -0.00462707 0)
(0.00670709 -0.00462495 0)
(0.007291 -0.00460526 0)
(0.00788479 -0.00456163 0)
(0.00848556 -0.00448772 0)
(0.00908886 -0.00437766 0)
(0.00968887 -0.00422656 0)
(0.0102786 -0.00403095 0)
(0.0108503 -0.0037891 0)
(0.0113958 -0.00350115 0)
(0.0119072 -0.00316903 0)
(0.012377 -0.00279622 0)
(0.0127983 -0.00238747 0)
(0.0131651 -0.00194846 0)
(0.013472 -0.00148555 0)
(0.0137147 -0.00100559 0)
(0.0138894 -0.000515731 0)
(0.0139953 -2.29263e-05 0)
(0.0140288 0.000466529 0)
(0.0139928 0.000948394 0)
(0.0138911 0.00141885 0)
(0.0137282 0.00187564 0)
(0.0135092 0.00231731 0)
(0.0132394 0.00274336 0)
(0.0129236 0.00315377 0)
(0.0125653 0.00354863 0)
(0.0121668 0.00392768 0)
(0.011729 0.00429002 0)
(0.0112517 0.00463396 0)
(0.0107341 0.00495723 0)
(0.010176 0.00525747 0)
(0.00957834 0.00553303 0)
(0.0089438 0.00578402 0)
(0.00827743 0.00601345 0)
(0.00758613 0.00622878 0)
(0.00687751 0.00644534 0)
(0.00615687 0.00669757 0)
(0.00542438 0.00707627 0)
(0.0046398 0.00784289 0)
(0.00388234 0.00969035 0)
(0.00243204 0.0144799 0)
(0.00173027 0.0255157 0)
(-0.00114562 0.0219031 0)
(-0.00143981 0.0115736 0)
(-0.00245317 0.00794327 0)
(-0.00305748 0.00693205 0)
(-0.00373985 0.00653521 0)
(-0.00438874 0.00633121 0)
(-0.00502664 0.00620767 0)
(-0.00565369 0.00611854 0)
(-0.00627171 0.00603506 0)
(-0.00688032 0.00593545 0)
(-0.00747688 0.00580185 0)
(-0.00805657 0.00561931 0)
(-0.00861274 0.00537542 0)
(-0.00913732 0.00506012 0)
(-0.00962148 0.00466567 0)
(-0.0100563 0.00418671 0)
(-0.0104334 0.0036205 0)
(-0.0107458 0.00296717 0)
(-0.0109891 0.00223011 0)
(-0.0111615 0.00141642 0)
(-0.0112646 0.000536884 0)
(-0.0113035 -0.000394526 0)
(-0.0112845 -0.00136709 0)
(-0.0112166 -0.00237498 0)
(-0.0111041 -0.00340691 0)
(-0.01095 -0.00444728 0)
(-0.0107559 -0.00547321 0)
(-0.0105225 -0.00645192 0)
(-0.0102509 -0.00734018 0)
(-0.00994344 -0.00808724 0)
(-0.00960316 -0.00864248 0)
(-0.00923346 -0.0089671 0)
(-0.00883658 -0.00904723 0)
(-0.00841284 -0.00890269 0)
(-0.00796116 -0.00858585 0)
(-0.00748049 -0.00816844 0)
(-0.00697132 -0.00772129 0)
(-0.00643641 -0.00729647 0)
(-0.00588045 -0.00692011 0)
(-0.00530943 -0.00659716 0)
(-0.00473017 -0.00632208 0)
(-0.00414972 -0.00608759 0)
(-0.00357401 -0.00588795 0)
(-0.00300649 -0.00571907 0)
(-0.00244799 -0.00557767 0)
(-0.00189688 -0.00545969 0)
(-0.00134914 -0.00536047 0)
(-0.000799592 -0.00527522 0)
(-0.000240202 -0.00520315 0)
(0.000309503 -0.0051487 0)
(0.000849355 -0.00511198 0)
(0.00138203 -0.00509116 0)
(0.00191014 -0.00508359 0)
(0.00243608 -0.00508757 0)
(0.00296248 -0.00510104 0)
(0.00349246 -0.0051219 0)
(0.0040293 -0.00514738 0)
(0.00457629 -0.00517362 0)
(0.00513618 -0.00519549 0)
(0.0057108 -0.00520661 0)
(0.00630064 -0.00519965 0)
(0.00690461 -0.00516668 0)
(0.00751984 -0.00509973 0)
(0.00814173 -0.00499135 0)
(0.008764 -0.00483524 0)
(0.00937904 -0.00462691 0)
(0.00997842 -0.00436408 0)
(0.0105535 -0.00404684 0)
(0.0110957 -0.00367747 0)
(0.0115975 -0.00326007 0)
(0.0120517 -0.00280013 0)
(0.0124524 -0.00230413 0)
(0.0127942 -0.00177917 0)
(0.0130725 -0.00123285 0)
(0.0132827 -0.00067305 0)
(0.0134233 -0.000107516 0)
(0.013488 0.000455293 0)
(0.0134771 0.00100861 0)
(0.0133934 0.00154663 0)
(0.0132411 0.00206585 0)
(0.0130254 0.00256404 0)
(0.0127528 0.00304061 0)
(0.01243 0.0034962 0)
(0.0120628 0.00393211 0)
(0.0116559 0.00434965 0)
(0.0112121 0.00474941 0)
(0.0107328 0.00513082 0)
(0.010218 0.00549201 0)
(0.00966761 0.00583014 0)
(0.00908183 0.00614219 0)
(0.0084626 0.00642624 0)
(0.00781408 0.00668306 0)
(0.00714273 0.00691844 0)
(0.0064566 0.00714764 0)
(0.00576265 0.00740858 0)
(0.00506579 0.00780312 0)
(0.00432461 0.00862375 0)
(0.00363894 0.0106324 0)
(0.00227689 0.0157725 0)
(0.00159077 0.0273703 0)
(-0.0010382 0.023049 0)
(-0.00133471 0.0123753 0)
(-0.00229476 0.0086269 0)
(-0.00285567 0.00758748 0)
(-0.0035042 0.00717724 0)
(-0.00412007 0.00696167 0)
(-0.00473011 0.00682833 0)
(-0.00533311 0.00673106 0)
(-0.00593033 0.0066396 0)
(-0.00652047 0.00653003 0)
(-0.00709988 0.00638229 0)
(-0.0076628 0.00617945 0)
(-0.00820166 0.00590757 0)
(-0.00870772 0.0055556 0)
(-0.00917175 0.0051155 0)
(-0.00958482 0.00458244 0)
(-0.00993926 0.00395501 0)
(-0.0102296 0.00323566 0)
(-0.0104538 0.0024308 0)
(-0.010613 0.00155097 0)
(-0.0107122 0.00061024 0)
(-0.0107603 -0.000374898 0)
(-0.0107657 -0.00139277 0)
(-0.0107393 -0.00243918 0)
(-0.0106857 -0.0035053 0)
(-0.0106073 -0.00457807 0)
(-0.0105041 -0.00563648 0)
(-0.0103739 -0.00664861 0)
(-0.0102142 -0.00757108 0)
(-0.0100221 -0.0083526 0)
(-0.00979462 -0.00894216 0)
(-0.00952856 -0.00930127 0)
(-0.00922037 -0.00941682 0)
(-0.00886686 -0.00930909 0)
(-0.00846671 -0.00902976 0)
(-0.00802197 -0.00864849 0)
(-0.00753832 -0.00823336 0)
(-0.00702412 -0.00783405 0)
(-0.00648868 -0.00747544 0)
(-0.00594081 -0.00716238 0)
(-0.00538802 -0.00689002 0)
(-0.00483611 -0.0066524 0)
(-0.00428888 -0.00644583 0)
(-0.00374811 -0.00626854 0)
(-0.00321399 -0.00611905 0)
(-0.00268559 -0.00599512 0)
(-0.00216118 -0.00589376 0)
(-0.00163848 -0.00581151 0)
(-0.00111451 -0.00574403 0)
(-0.000585243 -0.00568891 0)
(-4.66532e-05 -0.00564695 0)
(0.000480702 -0.00561991 0)
(0.00100397 -0.00560762 0)
(0.0015234 -0.00560974 0)
(0.00204256 -0.00562487 0)
(0.00256492 -0.00565118 0)
(0.00309442 -0.00568586 0)
(0.00363532 -0.00572476 0)
(0.00419139 -0.00576199 0)
(0.00476521 -0.00578995 0)
(0.00535775 -0.0057997 0)
(0.00596805 -0.00578153 0)
(0.00659322 -0.00572556 0)
(0.00722833 -0.00562249 0)
(0.00786661 -0.00546445 0)
(0.00849978 -0.00524579 0)
(0.00911873 -0.00496373 0)
(0.00971424 -0.00461848 0)
(0.0102776 -0.0042129 0)
(0.0108011 -0.00375196 0)
(0.0112781 -0.00324209 0)
(0.0117029 -0.00269061 0)
(0.0120707 -0.0021053 0)
(0.0123772 -0.00149423 0)
(0.0126183 -0.000865656 0)
(0.0127917 -0.000227393 0)
(0.0128915 0.00041138 0)
(0.0129131 0.00104113 0)
(0.0128576 0.00165334 0)
(0.0127279 0.00224228 0)
(0.0125282 0.00280412 0)
(0.012265 0.00333738 0)
(0.0119458 0.0038426 0)
(0.0115778 0.00432185 0)
(0.0111679 0.00477782 0)
(0.010721 0.00521288 0)
(0.0102405 0.0056281 0)
(0.00972807 0.00602274 0)
(0.00918409 0.00639418 0)
(0.00860904 0.00673856 0)
(0.00800448 0.00705218 0)
(0.00737398 0.00733349 0)
(0.00672365 0.00758604 0)
(0.00606176 0.00782409 0)
(0.00539628 0.00808773 0)
(0.00473603 0.00848842 0)
(0.00403683 0.00934905 0)
(0.00341694 0.0115039 0)
(0.00214079 0.0169863 0)