# vtk DataFile Version 2.0
ceiling
ASCII
DATASET POLYDATA
POINTS 42 float
0 1 0 0 1 0.1 0.05 1 0.1 0.05 1
0 0.1 1 0.1 0.1 1 0 0.15 1 0.1
0.15 1 0 0.2 1 0.1 0.2 1 0 0.25
1 0.1 0.25 1 0 0.3 1 0.1 0.3 1
0 0.35 1 0.1 0.35 1 0 0.4 1 0.1
0.4 1 0 0.45 1 0.1 0.45 1 0 0.5
1 0.1 0.5 1 0 0.55 1 0.1 0.55 1
0 0.6 1 0.1 0.6 1 0 0.65 1 0.1
0.65 1 0 0.7 1 0.1 0.7 1 0 0.75
1 0.1 0.75 1 0 0.8 1 0.1 0.8 1
0 0.85 1 0.1 0.85 1 0 0.9 1 0.1
0.9 1 0 0.95 1 0.1 0.95 1 0 1
1 0.1 1 1 0 
POLYGONS 20 100
4 0 1 2 3 4 3 2 4 5 4
5 4 6 7 4 7 6 8 9 4
9 8 10 11 4 11 10 12 13 4
13 12 14 15 4 15 14 16 17 4
17 16 18 19 4 19 18 20 21 4
21 20 22 23 4 23 22 24 25 4
25 24 26 27 4 27 26 28 29 4
29 28 30 31 4 31 30 32 33 4
33 32 34 35 4 35 34 36 37 4
37 36 38 39 4 39 38 40 41 
CELL_DATA 20
FIELD attributes 6
patchID 1 20 float
1 1 1 1 1 1 1 1 1 1 1
1 1 1 1 1 1 1 1 1 
alphat 1 20 float
0 0 0 0 0 0 0 0 0 0 0
0 0 0 0 0 0 0 0 0 
p 1 20 float
-9.60568 -9.60568 -9.60568 -9.60568 -9.60568 -9.60568 -9.60568 -9.60568 -9.60568 -9.60568 -9.60568
-9.60568 -9.60568 -9.60568 -9.60568 -9.60568 -9.60568 -9.60568 -9.60568 -9.60568 
T 1 20 float
280 280 280 280 280 280 280 280 280 280 280
280 280 280 280 280 280 280 280 280 
p_rgh 1 20 float
0.246304 0.246304 0.246304 0.246304 0.246304 0.246304 0.246304 0.246304 0.246304 0.246304 0.246304
0.246304 0.246304 0.246304 0.246304 0.246304 0.246304 0.246304 0.246304 0.246304 
U 3 20 float
0 0 0 0 0 0 0 0 0 0 0
0 0 0 0 0 0 0 0 0 0
0 0 0 0 0 0 0 0 0 0
0 0 0 0 0 0 0 0 0 0
0 0 0 0 0 0 0 0 0 0
0 0 0 0 0 0 0 0 0 
POINT_DATA  42
FIELD attributes 5
alphat 1 42 float
0 0 0 0 0 0 0 0 0 0 0
0 0 0 0 0 0 0 0 0 0
0 0 0 0 0 0 0 0 0 0
0 0 0 0 0 0 0 0 0 0
0 
p 1 42 float
-9.60568 -9.60568 -9.60568 -9.60568 -9.60568 -9.60568 -9.60568 -9.60568 -9.60568 -9.60568 -9.60568
-9.60568 -9.60568 -9.60568 -9.60568 -9.60568 -9.60568 -9.60568 -9.60568 -9.60568 -9.60568
-9.60568 -9.60568 -9.60568 -9.60568 -9.60568 -9.60568 -9.60568 -9.60568 -9.60568 -9.60568
-9.60568 -9.60568 -9.60568 -9.60568 -9.60568 -9.60568 -9.60568 -9.60568 -9.60568 -9.60568
-9.60568 
T 1 42 float
280 280 280 280 280 280 280 280 280 280 280
280 280 280 280 280 280 280 280 280 280
280 280 280 280 280 280 280 280 280 280
280 280 280 280 280 280 280 280 280 280
280 
p_rgh 1 42 float
0.246304 0.246304 0.246304 0.246304 0.246304 0.246304 0.246304 0.246304 0.246304 0.246304 0.246304
0.246304 0.246304 0.246304 0.246304 0.246304 0.246304 0.246304 0.246304 0.246304 0.246304
0.246304 0.246304 0.246304 0.246304 0.246304 0.246304 0.246304 0.246304 0.246304 0.246304
0.246304 0.246304 0.246304 0.246304 0.246304 0.246304 0.246304 0.246304 0.246304 0.246304
0.246304 
U 3 42 float
0 0 0 0 0 0 0 0 0 0 0
0 0 0 0 0 0 0 0 0 0
0 0 0 0 0 0 0 0 0 0
0 0 0 0 0 0 0 0 0 0
0 0 0 0 0 0 0 0 0 0
0 0 0 0 0 0 0 0 0 0
0 0 0 0 0 0 0 0 0 0
0 0 0 0 0 0 0 0 0 0
0 0 0 0 0 0 0 0 0 0
0 0 0 0 0 0 0 0 0 0
0 0 0 0 0 0 0 0 0 0
0 0 0 0 0 0 0 0 0 0
0 0 0 0 0 
