/*--------------------------------*- C++ -*----------------------------------*\
| =========                 |                                                 |
| \\      /  F ield         | OpenFOAM: The Open Source CFD Toolbox           |
|  \\    /   O peration     | Version:  4.1                                   |
|   \\  /    A nd           | Web:      www.OpenFOAM.org                      |
|    \\/     M anipulation  |                                                 |
\*---------------------------------------------------------------------------*/
FoamFile
{
    version     2.0;
    format      ascii;
    class       volScalarField;
    location    "320";
    object      p;
}
// * * * * * * * * * * * * * * * * * * * * * * * * * * * * * * * * * * * * * //

dimensions      [0 2 -2 0 0 0 0];

internalField   nonuniform List<scalar> 
5000
(
0
4.86709e-06
6.87123e-06
4.68112e-06
2.81432e-06
2.55611e-06
3.41029e-06
5.07939e-06
9.57439e-06
1.01826e-05
7.05041e-06
9.54311e-06
1.24179e-05
1.42256e-05
1.54566e-05
1.64928e-05
1.74163e-05
1.81994e-05
1.88042e-05
1.92081e-05
1.94129e-05
1.94452e-05
1.93499e-05
1.91798e-05
1.89876e-05
1.88202e-05
1.87192e-05
1.87347e-05
1.89617e-05
1.95686e-05
2.08155e-05
2.30833e-05
2.6635e-05
3.12748e-05
3.6101e-05
3.96528e-05
4.13437e-05
4.27757e-05
4.57006e-05
4.98939e-05
5.49256e-05
6.04306e-05
6.62755e-05
7.23702e-05
7.86212e-05
8.49267e-05
9.11749e-05
9.72174e-05
0.000102894
0.000108142
0.000112962
0.000117185
0.000120624
0.000123147
0.000124615
0.000124873
0.000123747
0.000121073
0.000116731
0.000110673
0.000102922
9.35777e-05
8.28142e-05
7.08723e-05
5.80539e-05
4.47093e-05
3.12218e-05
1.79873e-05
5.39126e-06
-6.21523e-06
-1.65386e-05
-2.53617e-05
-3.25581e-05
-3.80947e-05
-4.20118e-05
-4.44164e-05
-4.54559e-05
-4.52755e-05
-4.40119e-05
-4.17891e-05
-3.87031e-05
-3.47987e-05
-3.00165e-05
-2.40213e-05
-1.59214e-05
-5.08067e-06
4.50395e-06
7.14986e-06
7.18893e-06
4.1948e-06
1.23509e-06
1.16653e-06
6.17765e-06
1.55009e-05
2.61998e-05
3.30856e-05
3.38805e-05
2.81044e-05
2.13735e-05
1.92862e-05
-0.0984961
-0.0984937
-0.0984909
-0.0984914
-0.0984898
-0.098487
-0.0984834
-0.0984789
-0.0984668
-0.0984567
-0.0984583
-0.0984586
-0.0984583
-0.098458
-0.0984578
-0.0984578
-0.0984578
-0.0984579
-0.098458
-0.0984582
-0.0984584
-0.0984586
-0.0984587
-0.0984588
-0.0984587
-0.0984585
-0.098458
-0.0984572
-0.0984561
-0.0984546
-0.0984529
-0.098451
-0.0984491
-0.098447
-0.0984449
-0.0984426
-0.0984393
-0.0984345
-0.0984296
-0.0984248
-0.0984199
-0.098415
-0.0984099
-0.0984047
-0.0983994
-0.0983941
-0.0983888
-0.0983837
-0.0983789
-0.0983745
-0.0983706
-0.0983672
-0.0983645
-0.0983626
-0.0983618
-0.0983621
-0.0983638
-0.098367
-0.0983717
-0.0983782
-0.0983862
-0.0983957
-0.0984066
-0.0984185
-0.0984312
-0.0984444
-0.0984575
-0.0984704
-0.0984824
-0.0984934
-0.0985029
-0.0985108
-0.0985168
-0.0985209
-0.0985232
-0.0985239
-0.098523
-0.0985207
-0.0985172
-0.0985125
-0.0985068
-0.0985
-0.098492
-0.0984826
-0.0984718
-0.0984618
-0.0984597
-0.0984662
-0.0984683
-0.098471
-0.0984841
-0.0984917
-0.0984917
-0.0984865
-0.0984787
-0.0984733
-0.0984728
-0.0984749
-0.0984789
-0.098477
-0.197
-0.196998
-0.196994
-0.196994
-0.196991
-0.196988
-0.196985
-0.196977
-0.196962
-0.196955
-0.196957
-0.196959
-0.19696
-0.196961
-0.196961
-0.196961
-0.196961
-0.196962
-0.196962
-0.196962
-0.196962
-0.196963
-0.196963
-0.196963
-0.196963
-0.196963
-0.196962
-0.196961
-0.19696
-0.196959
-0.196957
-0.196955
-0.196953
-0.196952
-0.196949
-0.196947
-0.196944
-0.196939
-0.196935
-0.19693
-0.196926
-0.196921
-0.196916
-0.196911
-0.196905
-0.1969
-0.196895
-0.19689
-0.196885
-0.196881
-0.196877
-0.196874
-0.196871
-0.196869
-0.196869
-0.196869
-0.196871
-0.196874
-0.196879
-0.196885
-0.196894
-0.196903
-0.196914
-0.196926
-0.196939
-0.196952
-0.196966
-0.196979
-0.196991
-0.197002
-0.197012
-0.197019
-0.197025
-0.197029
-0.197031
-0.197032
-0.19703
-0.197027
-0.197022
-0.197016
-0.197009
-0.197001
-0.196991
-0.19698
-0.196968
-0.196957
-0.196953
-0.196957
-0.196962
-0.196963
-0.196979
-0.196993
-0.196997
-0.196994
-0.196988
-0.196983
-0.196982
-0.196983
-0.196987
-0.196984
-0.295504
-0.295503
-0.295495
-0.295495
-0.295492
-0.295489
-0.295485
-0.295475
-0.295463
-0.295458
-0.29546
-0.295462
-0.295463
-0.295464
-0.295464
-0.295465
-0.295465
-0.295465
-0.295466
-0.295466
-0.295467
-0.295467
-0.295467
-0.295468
-0.295468
-0.295468
-0.295467
-0.295467
-0.295466
-0.295464
-0.295463
-0.295461
-0.295459
-0.295457
-0.295455
-0.295453
-0.295449
-0.295445
-0.295441
-0.295437
-0.295432
-0.295428
-0.295423
-0.295418
-0.295412
-0.295407
-0.295402
-0.295397
-0.295392
-0.295388
-0.295384
-0.29538
-0.295378
-0.295377
-0.295376
-0.295376
-0.295378
-0.295382
-0.295387
-0.295393
-0.295402
-0.295411
-0.295422
-0.295435
-0.295448
-0.295461
-0.295475
-0.295488
-0.2955
-0.295511
-0.295521
-0.295529
-0.295535
-0.295539
-0.295541
-0.295541
-0.295539
-0.295536
-0.295531
-0.295525
-0.295518
-0.29551
-0.2955
-0.29549
-0.295478
-0.295467
-0.29546
-0.295459
-0.295461
-0.295465
-0.295477
-0.295495
-0.2955
-0.295499
-0.295495
-0.295492
-0.29549
-0.295491
-0.295493
-0.29549
-0.394003
-0.394006
-0.393996
-0.393995
-0.393993
-0.39399
-0.393984
-0.393975
-0.393965
-0.393962
-0.393963
-0.393965
-0.393966
-0.393967
-0.393968
-0.393968
-0.393969
-0.393969
-0.39397
-0.39397
-0.393971
-0.393971
-0.393972
-0.393972
-0.393973
-0.393973
-0.393972
-0.393972
-0.393971
-0.39397
-0.393969
-0.393967
-0.393966
-0.393964
-0.393962
-0.393959
-0.393956
-0.393952
-0.393948
-0.393944
-0.39394
-0.393935
-0.39393
-0.393925
-0.39392
-0.393914
-0.393909
-0.393904
-0.393899
-0.393895
-0.393891
-0.393887
-0.393885
-0.393884
-0.393883
-0.393884
-0.393886
-0.393889
-0.393895
-0.393901
-0.39391
-0.39392
-0.393931
-0.393943
-0.393956
-0.39397
-0.393984
-0.393997
-0.39401
-0.394021
-0.394031
-0.394039
-0.394045
-0.394049
-0.394051
-0.394051
-0.394049
-0.394046
-0.394041
-0.394036
-0.394029
-0.394021
-0.394013
-0.394003
-0.393993
-0.393982
-0.393973
-0.393967
-0.393967
-0.39397
-0.393979
-0.393994
-0.394003
-0.394002
-0.394
-0.393998
-0.393996
-0.393996
-0.393996
-0.393995
-0.492496
-0.492503
-0.492496
-0.492495
-0.492495
-0.492491
-0.492484
-0.492475
-0.492467
-0.492465
-0.492467
-0.492469
-0.49247
-0.492471
-0.492471
-0.492472
-0.492473
-0.492473
-0.492474
-0.492475
-0.492475
-0.492476
-0.492477
-0.492477
-0.492478
-0.492478
-0.492478
-0.492478
-0.492477
-0.492476
-0.492475
-0.492474
-0.492472
-0.492471
-0.492469
-0.492466
-0.492463
-0.49246
-0.492456
-0.492452
-0.492448
-0.492443
-0.492438
-0.492433
-0.492427
-0.492422
-0.492417
-0.492411
-0.492406
-0.492402
-0.492398
-0.492395
-0.492392
-0.492391
-0.492391
-0.492392
-0.492395
-0.492398
-0.492403
-0.49241
-0.492419
-0.492429
-0.49244
-0.492453
-0.492466
-0.49248
-0.492494
-0.492507
-0.49252
-0.492531
-0.492541
-0.492549
-0.492555
-0.492559
-0.492561
-0.492561
-0.492559
-0.492556
-0.492552
-0.492546
-0.49254
-0.492533
-0.492525
-0.492517
-0.492508
-0.492498
-0.492487
-0.49248
-0.492476
-0.492477
-0.492482
-0.492493
-0.492503
-0.492503
-0.492503
-0.492502
-0.492501
-0.4925
-0.4925
-0.4925
-0.590985
-0.590992
-0.590991
-0.590994
-0.590993
-0.590989
-0.590983
-0.590975
-0.59097
-0.590969
-0.59097
-0.590972
-0.590973
-0.590974
-0.590975
-0.590976
-0.590976
-0.590977
-0.590978
-0.590979
-0.59098
-0.590981
-0.590982
-0.590982
-0.590983
-0.590984
-0.590984
-0.590984
-0.590983
-0.590983
-0.590982
-0.590981
-0.59098
-0.590978
-0.590976
-0.590974
-0.590971
-0.590968
-0.590964
-0.59096
-0.590956
-0.590951
-0.590946
-0.590941
-0.590935
-0.59093
-0.590924
-0.590919
-0.590914
-0.590909
-0.590906
-0.590903
-0.5909
-0.590899
-0.590899
-0.590901
-0.590904
-0.590908
-0.590913
-0.59092
-0.590928
-0.590939
-0.59095
-0.590962
-0.590976
-0.59099
-0.591004
-0.591018
-0.591031
-0.591042
-0.591052
-0.59106
-0.591066
-0.59107
-0.591071
-0.591071
-0.591069
-0.591066
-0.591062
-0.591057
-0.591051
-0.591044
-0.591038
-0.591031
-0.591023
-0.591013
-0.591002
-0.590992
-0.590987
-0.590985
-0.590987
-0.590993
-0.591002
-0.591005
-0.591006
-0.591007
-0.591006
-0.591004
-0.591003
-0.591004
-0.689473
-0.689479
-0.689483
-0.689487
-0.689488
-0.689485
-0.689481
-0.689475
-0.689472
-0.689472
-0.689474
-0.689475
-0.689476
-0.689477
-0.689478
-0.689479
-0.68948
-0.689481
-0.689482
-0.689483
-0.689484
-0.689486
-0.689487
-0.689488
-0.689489
-0.689489
-0.68949
-0.68949
-0.68949
-0.68949
-0.689489
-0.689488
-0.689487
-0.689486
-0.689484
-0.689482
-0.689479
-0.689476
-0.689473
-0.689469
-0.689464
-0.689459
-0.689454
-0.689449
-0.689443
-0.689438
-0.689432
-0.689427
-0.689422
-0.689418
-0.689414
-0.689411
-0.689409
-0.689408
-0.689409
-0.68941
-0.689414
-0.689418
-0.689423
-0.68943
-0.689439
-0.689449
-0.68946
-0.689473
-0.689486
-0.6895
-0.689515
-0.689529
-0.689542
-0.689554
-0.689564
-0.689572
-0.689578
-0.689581
-0.689582
-0.689582
-0.68958
-0.689576
-0.689572
-0.689567
-0.689561
-0.689555
-0.689549
-0.689543
-0.689536
-0.689527
-0.689516
-0.689505
-0.689497
-0.689494
-0.689494
-0.689497
-0.689502
-0.689508
-0.68951
-0.689512
-0.689512
-0.689509
-0.689508
-0.689509
-0.787963
-0.787967
-0.787974
-0.787977
-0.78798
-0.787979
-0.787977
-0.787975
-0.787974
-0.787975
-0.787977
-0.787978
-0.78798
-0.787981
-0.787982
-0.787983
-0.787984
-0.787985
-0.787986
-0.787987
-0.787989
-0.78799
-0.787992
-0.787993
-0.787994
-0.787995
-0.787996
-0.787997
-0.787997
-0.787997
-0.787997
-0.787996
-0.787995
-0.787994
-0.787992
-0.78799
-0.787988
-0.787985
-0.787981
-0.787977
-0.787973
-0.787968
-0.787963
-0.787957
-0.787952
-0.787946
-0.787941
-0.787936
-0.787931
-0.787927
-0.787923
-0.78792
-0.787919
-0.787918
-0.787919
-0.787921
-0.787924
-0.787929
-0.787934
-0.787941
-0.78795
-0.78796
-0.787971
-0.787984
-0.787997
-0.788011
-0.788026
-0.78804
-0.788053
-0.788065
-0.788075
-0.788083
-0.788089
-0.788092
-0.788093
-0.788092
-0.78809
-0.788086
-0.788081
-0.788076
-0.788071
-0.788066
-0.78806
-0.788055
-0.788048
-0.78804
-0.788028
-0.788016
-0.788007
-0.788003
-0.788002
-0.788002
-0.788006
-0.788011
-0.788015
-0.788018
-0.788018
-0.788014
-0.788013
-0.788014
-0.886455
-0.886457
-0.886463
-0.886467
-0.886471
-0.886473
-0.886475
-0.886475
-0.886476
-0.886478
-0.88648
-0.886482
-0.886483
-0.886484
-0.886485
-0.886486
-0.886487
-0.886489
-0.88649
-0.886492
-0.886493
-0.886495
-0.886497
-0.886498
-0.8865
-0.886501
-0.886502
-0.886503
-0.886504
-0.886504
-0.886504
-0.886504
-0.886503
-0.886502
-0.886501
-0.886499
-0.886496
-0.886494
-0.88649
-0.886486
-0.886482
-0.886477
-0.886472
-0.886467
-0.886461
-0.886456
-0.88645
-0.886445
-0.886441
-0.886437
-0.886433
-0.886431
-0.886429
-0.886429
-0.886429
-0.886431
-0.886435
-0.88644
-0.886446
-0.886453
-0.886461
-0.886471
-0.886482
-0.886494
-0.886508
-0.886522
-0.886536
-0.886551
-0.886564
-0.886576
-0.886586
-0.886595
-0.8866
-0.886603
-0.886604
-0.886603
-0.8866
-0.886596
-0.886591
-0.886586
-0.88658
-0.886575
-0.88657
-0.886565
-0.886559
-0.88655
-0.886538
-0.886525
-0.886516
-0.886512
-0.88651
-0.886508
-0.88651
-0.886516
-0.886521
-0.886524
-0.886524
-0.886519
-0.886518
-0.886519
-0.984948
-0.984949
-0.984953
-0.984958
-0.984963
-0.984968
-0.984973
-0.984976
-0.984979
-0.984982
-0.984983
-0.984985
-0.984986
-0.984987
-0.984988
-0.984989
-0.984991
-0.984992
-0.984994
-0.984996
-0.984998
-0.985
-0.985002
-0.985004
-0.985005
-0.985007
-0.985009
-0.98501
-0.985011
-0.985012
-0.985012
-0.985012
-0.985012
-0.985011
-0.98501
-0.985008
-0.985006
-0.985003
-0.985
-0.984996
-0.984992
-0.984987
-0.984982
-0.984977
-0.984971
-0.984966
-0.984961
-0.984956
-0.984951
-0.984947
-0.984944
-0.984942
-0.98494
-0.98494
-0.984941
-0.984943
-0.984946
-0.984951
-0.984957
-0.984964
-0.984972
-0.984982
-0.984993
-0.985005
-0.985018
-0.985032
-0.985047
-0.985061
-0.985074
-0.985087
-0.985097
-0.985105
-0.985111
-0.985114
-0.985114
-0.985112
-0.985109
-0.985104
-0.985099
-0.985094
-0.985089
-0.985084
-0.985079
-0.985073
-0.985067
-0.985058
-0.985046
-0.985033
-0.985024
-0.98502
-0.985017
-0.985014
-0.985015
-0.985021
-0.985026
-0.985029
-0.985029
-0.985024
-0.985022
-0.985022
-1.08344
-1.08344
-1.08344
-1.08345
-1.08346
-1.08346
-1.08347
-1.08348
-1.08348
-1.08348
-1.08349
-1.08349
-1.08349
-1.08349
-1.08349
-1.08349
-1.08349
-1.0835
-1.0835
-1.0835
-1.0835
-1.0835
-1.08351
-1.08351
-1.08351
-1.08351
-1.08352
-1.08352
-1.08352
-1.08352
-1.08352
-1.08352
-1.08352
-1.08352
-1.08352
-1.08352
-1.08352
-1.08351
-1.08351
-1.08351
-1.0835
-1.0835
-1.08349
-1.08349
-1.08348
-1.08348
-1.08347
-1.08347
-1.08346
-1.08346
-1.08346
-1.08345
-1.08345
-1.08345
-1.08345
-1.08345
-1.08346
-1.08346
-1.08347
-1.08348
-1.08348
-1.08349
-1.0835
-1.08352
-1.08353
-1.08354
-1.08356
-1.08357
-1.08358
-1.0836
-1.08361
-1.08361
-1.08362
-1.08362
-1.08362
-1.08362
-1.08362
-1.08361
-1.08361
-1.0836
-1.0836
-1.08359
-1.08359
-1.08358
-1.08357
-1.08356
-1.08355
-1.08354
-1.08353
-1.08353
-1.08352
-1.08352
-1.08352
-1.08352
-1.08353
-1.08353
-1.08353
-1.08353
-1.08353
-1.08352
-1.18193
-1.18193
-1.18194
-1.18194
-1.18195
-1.18196
-1.18197
-1.18198
-1.18198
-1.18199
-1.18199
-1.18199
-1.18199
-1.18199
-1.18199
-1.182
-1.182
-1.182
-1.182
-1.182
-1.18201
-1.18201
-1.18201
-1.18201
-1.18202
-1.18202
-1.18202
-1.18202
-1.18203
-1.18203
-1.18203
-1.18203
-1.18203
-1.18203
-1.18203
-1.18203
-1.18203
-1.18202
-1.18202
-1.18202
-1.18201
-1.18201
-1.182
-1.182
-1.18199
-1.18199
-1.18198
-1.18198
-1.18198
-1.18197
-1.18197
-1.18197
-1.18196
-1.18196
-1.18196
-1.18197
-1.18197
-1.18197
-1.18198
-1.18199
-1.18199
-1.182
-1.18201
-1.18203
-1.18204
-1.18205
-1.18206
-1.18208
-1.18209
-1.1821
-1.18211
-1.18212
-1.18213
-1.18213
-1.18213
-1.18213
-1.18212
-1.18212
-1.18211
-1.18211
-1.1821
-1.1821
-1.18209
-1.18209
-1.18208
-1.18207
-1.18205
-1.18204
-1.18204
-1.18203
-1.18203
-1.18202
-1.18202
-1.18203
-1.18203
-1.18203
-1.18203
-1.18203
-1.18203
-1.18202
-1.28042
-1.28043
-1.28043
-1.28044
-1.28045
-1.28046
-1.28047
-1.28048
-1.28049
-1.28049
-1.28049
-1.28049
-1.28049
-1.2805
-1.2805
-1.2805
-1.2805
-1.2805
-1.28051
-1.28051
-1.28051
-1.28051
-1.28052
-1.28052
-1.28052
-1.28053
-1.28053
-1.28053
-1.28053
-1.28053
-1.28054
-1.28054
-1.28054
-1.28054
-1.28054
-1.28054
-1.28054
-1.28054
-1.28053
-1.28053
-1.28053
-1.28052
-1.28052
-1.28051
-1.28051
-1.2805
-1.2805
-1.28049
-1.28049
-1.28048
-1.28048
-1.28048
-1.28048
-1.28048
-1.28048
-1.28048
-1.28048
-1.28049
-1.28049
-1.2805
-1.28051
-1.28051
-1.28052
-1.28053
-1.28055
-1.28056
-1.28057
-1.28059
-1.2806
-1.28061
-1.28062
-1.28063
-1.28063
-1.28064
-1.28064
-1.28063
-1.28063
-1.28063
-1.28062
-1.28061
-1.28061
-1.2806
-1.2806
-1.28059
-1.28058
-1.28057
-1.28056
-1.28055
-1.28054
-1.28053
-1.28053
-1.28052
-1.28052
-1.28053
-1.28053
-1.28053
-1.28053
-1.28053
-1.28053
-1.28052
-1.37892
-1.37892
-1.37893
-1.37894
-1.37895
-1.37896
-1.37897
-1.37898
-1.37899
-1.37899
-1.37899
-1.379
-1.379
-1.379
-1.379
-1.379
-1.379
-1.37901
-1.37901
-1.37901
-1.37902
-1.37902
-1.37902
-1.37903
-1.37903
-1.37903
-1.37903
-1.37904
-1.37904
-1.37904
-1.37905
-1.37905
-1.37905
-1.37905
-1.37905
-1.37905
-1.37905
-1.37905
-1.37905
-1.37904
-1.37904
-1.37904
-1.37903
-1.37903
-1.37902
-1.37902
-1.37901
-1.37901
-1.379
-1.379
-1.37899
-1.37899
-1.37899
-1.37899
-1.37899
-1.37899
-1.37899
-1.379
-1.379
-1.37901
-1.37902
-1.37902
-1.37903
-1.37904
-1.37905
-1.37907
-1.37908
-1.37909
-1.3791
-1.37911
-1.37912
-1.37913
-1.37914
-1.37914
-1.37914
-1.37914
-1.37914
-1.37913
-1.37912
-1.37912
-1.37911
-1.37911
-1.3791
-1.37909
-1.37908
-1.37907
-1.37906
-1.37905
-1.37904
-1.37903
-1.37903
-1.37902
-1.37902
-1.37902
-1.37903
-1.37903
-1.37903
-1.37903
-1.37903
-1.37903
-1.47742
-1.47742
-1.47742
-1.47743
-1.47745
-1.47746
-1.47748
-1.47749
-1.47749
-1.47749
-1.4775
-1.4775
-1.4775
-1.4775
-1.4775
-1.47751
-1.47751
-1.47751
-1.47751
-1.47752
-1.47752
-1.47752
-1.47753
-1.47753
-1.47753
-1.47754
-1.47754
-1.47755
-1.47755
-1.47755
-1.47755
-1.47756
-1.47756
-1.47756
-1.47756
-1.47756
-1.47756
-1.47756
-1.47756
-1.47756
-1.47755
-1.47755
-1.47755
-1.47754
-1.47754
-1.47753
-1.47753
-1.47752
-1.47752
-1.47751
-1.47751
-1.4775
-1.4775
-1.4775
-1.4775
-1.4775
-1.4775
-1.47751
-1.47751
-1.47752
-1.47753
-1.47753
-1.47754
-1.47755
-1.47756
-1.47757
-1.47758
-1.4776
-1.47761
-1.47762
-1.47763
-1.47763
-1.47764
-1.47764
-1.47764
-1.47764
-1.47764
-1.47763
-1.47763
-1.47762
-1.47762
-1.47761
-1.4776
-1.4776
-1.47759
-1.47757
-1.47756
-1.47755
-1.47754
-1.47754
-1.47753
-1.47752
-1.47752
-1.47752
-1.47752
-1.47752
-1.47752
-1.47753
-1.47753
-1.47753
-1.57592
-1.57592
-1.57592
-1.57593
-1.57595
-1.57596
-1.57598
-1.57599
-1.57599
-1.576
-1.576
-1.576
-1.576
-1.576
-1.57601
-1.57601
-1.57601
-1.57601
-1.57602
-1.57602
-1.57602
-1.57603
-1.57603
-1.57604
-1.57604
-1.57604
-1.57605
-1.57605
-1.57606
-1.57606
-1.57606
-1.57607
-1.57607
-1.57607
-1.57607
-1.57607
-1.57607
-1.57607
-1.57607
-1.57607
-1.57607
-1.57606
-1.57606
-1.57606
-1.57605
-1.57605
-1.57604
-1.57604
-1.57603
-1.57603
-1.57602
-1.57602
-1.57602
-1.57601
-1.57601
-1.57601
-1.57602
-1.57602
-1.57602
-1.57603
-1.57603
-1.57604
-1.57605
-1.57606
-1.57607
-1.57608
-1.57609
-1.5761
-1.57611
-1.57612
-1.57613
-1.57614
-1.57614
-1.57614
-1.57614
-1.57614
-1.57614
-1.57614
-1.57613
-1.57612
-1.57612
-1.57611
-1.57611
-1.5761
-1.57609
-1.57607
-1.57606
-1.57605
-1.57604
-1.57604
-1.57603
-1.57602
-1.57602
-1.57602
-1.57602
-1.57602
-1.57602
-1.57602
-1.57603
-1.57603
-1.67442
-1.67442
-1.67442
-1.67443
-1.67445
-1.67447
-1.67448
-1.67449
-1.6745
-1.6745
-1.6745
-1.6745
-1.6745
-1.67451
-1.67451
-1.67451
-1.67451
-1.67452
-1.67452
-1.67452
-1.67453
-1.67453
-1.67454
-1.67454
-1.67455
-1.67455
-1.67456
-1.67456
-1.67457
-1.67457
-1.67458
-1.67458
-1.67458
-1.67458
-1.67459
-1.67459
-1.67459
-1.67459
-1.67459
-1.67458
-1.67458
-1.67458
-1.67458
-1.67457
-1.67457
-1.67456
-1.67456
-1.67455
-1.67455
-1.67454
-1.67454
-1.67453
-1.67453
-1.67453
-1.67453
-1.67453
-1.67453
-1.67453
-1.67453
-1.67454
-1.67454
-1.67455
-1.67456
-1.67456
-1.67457
-1.67458
-1.67459
-1.6746
-1.67461
-1.67462
-1.67463
-1.67464
-1.67464
-1.67464
-1.67464
-1.67464
-1.67464
-1.67464
-1.67463
-1.67463
-1.67462
-1.67462
-1.67461
-1.6746
-1.67459
-1.67458
-1.67456
-1.67455
-1.67455
-1.67454
-1.67453
-1.67453
-1.67452
-1.67452
-1.67452
-1.67452
-1.67452
-1.67452
-1.67453
-1.67453
-1.77292
-1.77292
-1.77292
-1.77293
-1.77295
-1.77297
-1.77298
-1.77299
-1.773
-1.773
-1.773
-1.773
-1.77301
-1.77301
-1.77301
-1.77301
-1.77302
-1.77302
-1.77302
-1.77303
-1.77303
-1.77304
-1.77304
-1.77305
-1.77305
-1.77306
-1.77307
-1.77307
-1.77308
-1.77308
-1.77309
-1.77309
-1.77309
-1.7731
-1.7731
-1.7731
-1.7731
-1.7731
-1.7731
-1.7731
-1.7731
-1.77309
-1.77309
-1.77309
-1.77308
-1.77308
-1.77307
-1.77307
-1.77306
-1.77306
-1.77305
-1.77305
-1.77304
-1.77304
-1.77304
-1.77304
-1.77304
-1.77304
-1.77304
-1.77305
-1.77305
-1.77306
-1.77306
-1.77307
-1.77308
-1.77309
-1.7731
-1.7731
-1.77311
-1.77312
-1.77313
-1.77314
-1.77314
-1.77314
-1.77314
-1.77314
-1.77314
-1.77314
-1.77313
-1.77313
-1.77312
-1.77312
-1.77311
-1.7731
-1.77309
-1.77308
-1.77307
-1.77306
-1.77305
-1.77304
-1.77303
-1.77303
-1.77302
-1.77302
-1.77302
-1.77302
-1.77302
-1.77303
-1.77303
-1.77303
-1.87142
-1.87142
-1.87142
-1.87143
-1.87145
-1.87147
-1.87148
-1.87149
-1.8715
-1.8715
-1.8715
-1.87151
-1.87151
-1.87151
-1.87151
-1.87152
-1.87152
-1.87153
-1.87153
-1.87153
-1.87154
-1.87154
-1.87155
-1.87156
-1.87156
-1.87157
-1.87157
-1.87158
-1.87159
-1.87159
-1.8716
-1.8716
-1.87161
-1.87161
-1.87161
-1.87162
-1.87162
-1.87162
-1.87162
-1.87161
-1.87161
-1.87161
-1.87161
-1.8716
-1.8716
-1.87159
-1.87159
-1.87158
-1.87158
-1.87157
-1.87156
-1.87156
-1.87156
-1.87155
-1.87155
-1.87155
-1.87155
-1.87155
-1.87155
-1.87155
-1.87156
-1.87156
-1.87157
-1.87157
-1.87158
-1.87159
-1.8716
-1.87161
-1.87161
-1.87162
-1.87163
-1.87163
-1.87164
-1.87164
-1.87164
-1.87164
-1.87164
-1.87164
-1.87163
-1.87163
-1.87163
-1.87162
-1.87161
-1.8716
-1.87159
-1.87158
-1.87157
-1.87156
-1.87155
-1.87154
-1.87154
-1.87153
-1.87153
-1.87152
-1.87152
-1.87152
-1.87152
-1.87153
-1.87153
-1.87153
-1.96992
-1.96992
-1.96992
-1.96993
-1.96995
-1.96996
-1.96998
-1.96999
-1.97
-1.97
-1.97001
-1.97001
-1.97001
-1.97002
-1.97002
-1.97002
-1.97003
-1.97003
-1.97003
-1.97004
-1.97004
-1.97005
-1.97006
-1.97006
-1.97007
-1.97008
-1.97008
-1.97009
-1.9701
-1.9701
-1.97011
-1.97011
-1.97012
-1.97012
-1.97013
-1.97013
-1.97013
-1.97013
-1.97013
-1.97013
-1.97013
-1.97012
-1.97012
-1.97012
-1.97011
-1.97011
-1.9701
-1.9701
-1.97009
-1.97008
-1.97008
-1.97007
-1.97007
-1.97006
-1.97006
-1.97006
-1.97006
-1.97006
-1.97006
-1.97006
-1.97006
-1.97007
-1.97007
-1.97008
-1.97009
-1.97009
-1.9701
-1.97011
-1.97012
-1.97012
-1.97013
-1.97013
-1.97014
-1.97014
-1.97014
-1.97014
-1.97014
-1.97014
-1.97014
-1.97013
-1.97013
-1.97012
-1.97011
-1.97011
-1.97009
-1.97008
-1.97007
-1.97007
-1.97006
-1.97005
-1.97004
-1.97003
-1.97003
-1.97003
-1.97003
-1.97002
-1.97002
-1.97003
-1.97003
-1.97003
-2.06842
-2.06842
-2.06842
-2.06843
-2.06844
-2.06846
-2.06848
-2.0685
-2.0685
-2.06851
-2.06851
-2.06851
-2.06852
-2.06852
-2.06852
-2.06853
-2.06853
-2.06853
-2.06854
-2.06854
-2.06855
-2.06856
-2.06856
-2.06857
-2.06858
-2.06858
-2.06859
-2.0686
-2.06861
-2.06861
-2.06862
-2.06863
-2.06863
-2.06864
-2.06864
-2.06864
-2.06864
-2.06864
-2.06864
-2.06864
-2.06864
-2.06864
-2.06863
-2.06863
-2.06863
-2.06862
-2.06861
-2.06861
-2.0686
-2.0686
-2.06859
-2.06859
-2.06858
-2.06857
-2.06857
-2.06857
-2.06856
-2.06856
-2.06856
-2.06857
-2.06857
-2.06857
-2.06858
-2.06858
-2.06859
-2.06859
-2.0686
-2.06861
-2.06862
-2.06862
-2.06863
-2.06863
-2.06864
-2.06864
-2.06864
-2.06864
-2.06864
-2.06864
-2.06864
-2.06864
-2.06863
-2.06862
-2.06862
-2.06861
-2.0686
-2.06859
-2.06858
-2.06857
-2.06856
-2.06855
-2.06854
-2.06854
-2.06853
-2.06853
-2.06853
-2.06853
-2.06853
-2.06853
-2.06853
-2.06853
-2.16692
-2.16692
-2.16692
-2.16693
-2.16694
-2.16696
-2.16698
-2.167
-2.167
-2.16701
-2.16701
-2.16702
-2.16702
-2.16702
-2.16703
-2.16703
-2.16703
-2.16704
-2.16704
-2.16705
-2.16706
-2.16706
-2.16707
-2.16708
-2.16708
-2.16709
-2.1671
-2.16711
-2.16712
-2.16712
-2.16713
-2.16714
-2.16714
-2.16715
-2.16715
-2.16715
-2.16716
-2.16716
-2.16716
-2.16716
-2.16715
-2.16715
-2.16715
-2.16714
-2.16714
-2.16713
-2.16713
-2.16712
-2.16712
-2.16711
-2.1671
-2.1671
-2.16709
-2.16709
-2.16708
-2.16708
-2.16707
-2.16707
-2.16707
-2.16707
-2.16707
-2.16708
-2.16708
-2.16708
-2.16709
-2.1671
-2.1671
-2.16711
-2.16712
-2.16712
-2.16713
-2.16714
-2.16714
-2.16714
-2.16715
-2.16715
-2.16715
-2.16714
-2.16714
-2.16714
-2.16713
-2.16713
-2.16712
-2.16711
-2.1671
-2.16709
-2.16708
-2.16707
-2.16706
-2.16706
-2.16705
-2.16704
-2.16704
-2.16703
-2.16703
-2.16703
-2.16703
-2.16703
-2.16703
-2.16703
-2.26542
-2.26542
-2.26542
-2.26543
-2.26544
-2.26546
-2.26548
-2.26549
-2.26551
-2.26551
-2.26551
-2.26552
-2.26552
-2.26553
-2.26553
-2.26554
-2.26554
-2.26555
-2.26555
-2.26556
-2.26556
-2.26557
-2.26558
-2.26558
-2.26559
-2.2656
-2.26561
-2.26562
-2.26563
-2.26563
-2.26564
-2.26565
-2.26565
-2.26566
-2.26566
-2.26567
-2.26567
-2.26567
-2.26567
-2.26567
-2.26566
-2.26566
-2.26566
-2.26565
-2.26565
-2.26564
-2.26564
-2.26563
-2.26563
-2.26562
-2.26561
-2.26561
-2.2656
-2.26559
-2.26559
-2.26558
-2.26558
-2.26558
-2.26557
-2.26557
-2.26558
-2.26558
-2.26558
-2.26559
-2.26559
-2.2656
-2.2656
-2.26561
-2.26562
-2.26562
-2.26563
-2.26564
-2.26564
-2.26565
-2.26565
-2.26565
-2.26565
-2.26565
-2.26565
-2.26564
-2.26564
-2.26563
-2.26563
-2.26562
-2.26561
-2.2656
-2.26559
-2.26558
-2.26557
-2.26556
-2.26555
-2.26554
-2.26554
-2.26553
-2.26553
-2.26553
-2.26553
-2.26553
-2.26552
-2.26552
-2.36392
-2.36392
-2.36392
-2.36393
-2.36394
-2.36396
-2.36398
-2.36399
-2.36401
-2.36401
-2.36402
-2.36402
-2.36403
-2.36403
-2.36404
-2.36404
-2.36405
-2.36405
-2.36406
-2.36406
-2.36407
-2.36408
-2.36408
-2.36409
-2.3641
-2.36411
-2.36412
-2.36413
-2.36414
-2.36414
-2.36415
-2.36416
-2.36416
-2.36417
-2.36417
-2.36418
-2.36418
-2.36418
-2.36418
-2.36418
-2.36417
-2.36417
-2.36417
-2.36416
-2.36416
-2.36415
-2.36415
-2.36414
-2.36413
-2.36413
-2.36412
-2.36411
-2.36411
-2.3641
-2.3641
-2.36409
-2.36409
-2.36408
-2.36408
-2.36408
-2.36408
-2.36408
-2.36408
-2.36409
-2.36409
-2.3641
-2.3641
-2.36411
-2.36412
-2.36412
-2.36413
-2.36414
-2.36414
-2.36415
-2.36415
-2.36416
-2.36416
-2.36416
-2.36415
-2.36415
-2.36415
-2.36414
-2.36413
-2.36412
-2.36411
-2.3641
-2.36409
-2.36408
-2.36407
-2.36406
-2.36405
-2.36405
-2.36404
-2.36404
-2.36403
-2.36403
-2.36403
-2.36402
-2.36402
-2.36402
-2.46242
-2.46242
-2.46242
-2.46242
-2.46244
-2.46246
-2.46247
-2.46249
-2.46251
-2.46252
-2.46252
-2.46253
-2.46253
-2.46254
-2.46254
-2.46255
-2.46255
-2.46256
-2.46256
-2.46257
-2.46258
-2.46258
-2.46259
-2.4626
-2.46261
-2.46262
-2.46263
-2.46264
-2.46264
-2.46265
-2.46266
-2.46267
-2.46267
-2.46268
-2.46268
-2.46269
-2.46269
-2.46269
-2.46269
-2.46269
-2.46268
-2.46268
-2.46268
-2.46267
-2.46266
-2.46266
-2.46265
-2.46265
-2.46264
-2.46263
-2.46263
-2.46262
-2.46261
-2.46261
-2.4626
-2.4626
-2.46259
-2.46259
-2.46258
-2.46258
-2.46258
-2.46258
-2.46258
-2.46259
-2.46259
-2.4626
-2.4626
-2.46261
-2.46262
-2.46262
-2.46263
-2.46264
-2.46265
-2.46265
-2.46266
-2.46266
-2.46266
-2.46266
-2.46266
-2.46266
-2.46265
-2.46265
-2.46264
-2.46263
-2.46262
-2.46261
-2.46259
-2.46258
-2.46257
-2.46256
-2.46255
-2.46255
-2.46254
-2.46253
-2.46253
-2.46253
-2.46252
-2.46252
-2.46252
-2.46252
-2.56093
-2.56093
-2.56092
-2.56093
-2.56094
-2.56096
-2.56097
-2.56099
-2.56101
-2.56102
-2.56102
-2.56103
-2.56104
-2.56104
-2.56105
-2.56105
-2.56106
-2.56106
-2.56107
-2.56108
-2.56108
-2.56109
-2.5611
-2.56111
-2.56112
-2.56113
-2.56113
-2.56114
-2.56115
-2.56116
-2.56117
-2.56118
-2.56118
-2.56119
-2.56119
-2.5612
-2.5612
-2.5612
-2.5612
-2.56119
-2.56119
-2.56119
-2.56118
-2.56118
-2.56117
-2.56116
-2.56116
-2.56115
-2.56114
-2.56114
-2.56113
-2.56112
-2.56112
-2.56111
-2.56111
-2.5611
-2.56109
-2.56109
-2.56108
-2.56108
-2.56108
-2.56108
-2.56108
-2.56109
-2.56109
-2.5611
-2.5611
-2.56111
-2.56112
-2.56112
-2.56113
-2.56114
-2.56115
-2.56116
-2.56116
-2.56117
-2.56117
-2.56117
-2.56117
-2.56117
-2.56116
-2.56116
-2.56115
-2.56114
-2.56113
-2.56111
-2.56109
-2.56108
-2.56107
-2.56106
-2.56105
-2.56104
-2.56104
-2.56103
-2.56103
-2.56102
-2.56102
-2.56102
-2.56102
-2.56102
-2.65943
-2.65943
-2.65943
-2.65944
-2.65945
-2.65946
-2.65947
-2.65949
-2.6595
-2.65952
-2.65953
-2.65953
-2.65954
-2.65955
-2.65955
-2.65956
-2.65956
-2.65957
-2.65958
-2.65958
-2.65959
-2.6596
-2.65961
-2.65962
-2.65962
-2.65963
-2.65964
-2.65965
-2.65966
-2.65967
-2.65968
-2.65968
-2.65969
-2.6597
-2.6597
-2.6597
-2.65971
-2.65971
-2.6597
-2.6597
-2.6597
-2.65969
-2.65969
-2.65968
-2.65967
-2.65967
-2.65966
-2.65965
-2.65965
-2.65964
-2.65963
-2.65963
-2.65962
-2.65961
-2.65961
-2.6596
-2.65959
-2.65959
-2.65958
-2.65958
-2.65958
-2.65958
-2.65958
-2.65958
-2.65959
-2.65959
-2.6596
-2.65961
-2.65961
-2.65962
-2.65963
-2.65964
-2.65965
-2.65966
-2.65967
-2.65967
-2.65968
-2.65968
-2.65968
-2.65967
-2.65967
-2.65967
-2.65966
-2.65965
-2.65963
-2.65961
-2.65959
-2.65958
-2.65956
-2.65956
-2.65955
-2.65954
-2.65953
-2.65953
-2.65952
-2.65952
-2.65952
-2.65952
-2.65951
-2.65951
-2.75794
-2.75794
-2.75794
-2.75795
-2.75795
-2.75796
-2.75797
-2.75799
-2.758
-2.75802
-2.75803
-2.75804
-2.75804
-2.75805
-2.75806
-2.75806
-2.75807
-2.75808
-2.75808
-2.75809
-2.7581
-2.75811
-2.75811
-2.75812
-2.75813
-2.75814
-2.75815
-2.75816
-2.75817
-2.75818
-2.75818
-2.75819
-2.7582
-2.7582
-2.75821
-2.75821
-2.75821
-2.75821
-2.75821
-2.75821
-2.7582
-2.75819
-2.75819
-2.75818
-2.75817
-2.75817
-2.75816
-2.75815
-2.75814
-2.75814
-2.75813
-2.75812
-2.75812
-2.75811
-2.75811
-2.7581
-2.75809
-2.75809
-2.75808
-2.75808
-2.75808
-2.75808
-2.75808
-2.75808
-2.75809
-2.75809
-2.7581
-2.7581
-2.75811
-2.75812
-2.75813
-2.75814
-2.75815
-2.75816
-2.75817
-2.75818
-2.75818
-2.75819
-2.75819
-2.75818
-2.75818
-2.75818
-2.75817
-2.75815
-2.75813
-2.75811
-2.75809
-2.75807
-2.75806
-2.75805
-2.75804
-2.75804
-2.75803
-2.75802
-2.75802
-2.75802
-2.75801
-2.75801
-2.75801
-2.75801
-2.85644
-2.85644
-2.85645
-2.85644
-2.85645
-2.85646
-2.85647
-2.85649
-2.8565
-2.85652
-2.85653
-2.85654
-2.85655
-2.85656
-2.85656
-2.85657
-2.85658
-2.85658
-2.85659
-2.8566
-2.85661
-2.85661
-2.85662
-2.85663
-2.85664
-2.85665
-2.85666
-2.85667
-2.85667
-2.85668
-2.85669
-2.8567
-2.8567
-2.85671
-2.85671
-2.85672
-2.85672
-2.85672
-2.85671
-2.85671
-2.8567
-2.8567
-2.85669
-2.85668
-2.85668
-2.85667
-2.85666
-2.85665
-2.85664
-2.85664
-2.85663
-2.85662
-2.85661
-2.85661
-2.8566
-2.8566
-2.85659
-2.85659
-2.85658
-2.85658
-2.85657
-2.85657
-2.85658
-2.85658
-2.85658
-2.85659
-2.85659
-2.8566
-2.85661
-2.85662
-2.85663
-2.85664
-2.85665
-2.85666
-2.85668
-2.85668
-2.85669
-2.85669
-2.85669
-2.85669
-2.85669
-2.85668
-2.85667
-2.85666
-2.85663
-2.85661
-2.85658
-2.85656
-2.85655
-2.85654
-2.85653
-2.85653
-2.85652
-2.85652
-2.85651
-2.85651
-2.85651
-2.8565
-2.8565
-2.8565
-2.95495
-2.95495
-2.95495
-2.95495
-2.95495
-2.95496
-2.95497
-2.95498
-2.955
-2.95502
-2.95503
-2.95504
-2.95505
-2.95506
-2.95507
-2.95508
-2.95508
-2.95509
-2.9551
-2.9551
-2.95511
-2.95512
-2.95513
-2.95514
-2.95514
-2.95515
-2.95516
-2.95517
-2.95518
-2.95519
-2.9552
-2.9552
-2.95521
-2.95522
-2.95522
-2.95522
-2.95522
-2.95522
-2.95522
-2.95521
-2.95521
-2.9552
-2.95519
-2.95518
-2.95517
-2.95517
-2.95516
-2.95515
-2.95514
-2.95513
-2.95512
-2.95512
-2.95511
-2.9551
-2.9551
-2.95509
-2.95509
-2.95508
-2.95508
-2.95507
-2.95507
-2.95507
-2.95507
-2.95507
-2.95508
-2.95508
-2.95509
-2.9551
-2.9551
-2.95511
-2.95513
-2.95514
-2.95515
-2.95516
-2.95518
-2.95519
-2.95519
-2.9552
-2.9552
-2.9552
-2.9552
-2.95519
-2.95518
-2.95516
-2.95513
-2.9551
-2.95507
-2.95506
-2.95504
-2.95503
-2.95503
-2.95502
-2.95501
-2.95501
-2.95501
-2.955
-2.955
-2.955
-2.95499
-2.95499
-3.05346
-3.05346
-3.05346
-3.05346
-3.05346
-3.05346
-3.05347
-3.05348
-3.0535
-3.05351
-3.05353
-3.05354
-3.05355
-3.05356
-3.05357
-3.05358
-3.05359
-3.0536
-3.0536
-3.05361
-3.05362
-3.05363