/*--------------------------------*- C++ -*----------------------------------*\
| =========                 |                                                 |
| \\      /  F ield         | OpenFOAM: The Open Source CFD Toolbox           |
|  \\    /   O peration     | Version:  4.1                                   |
|   \\  /    A nd           | Web:      www.OpenFOAM.org                      |
|    \\/     M anipulation  |                                                 |
\*---------------------------------------------------------------------------*/
FoamFile
{
    version     2.0;
    format      ascii;
    class       volScalarField;
    location    "320";
    object      T;
}
// * * * * * * * * * * * * * * * * * * * * * * * * * * * * * * * * * * * * * //

dimensions      [0 0 0 1 0 0 0];

internalField   nonuniform List<scalar> 
5000
(
281.988
281.515
281.542
281.687
281.87
282.097
282.333
282.572
282.997
284.17
284.166
283.961
283.768
283.685
283.631
283.555
283.468
283.387
283.319
283.268
283.234
283.216
283.212
283.223
283.247
283.285
283.341
283.417
283.515
283.615
283.663
283.629
283.484
283.214
282.89
282.715
282.861
283.419
283.6
283.636
283.611
283.544
283.466
283.383
283.298
283.213
283.127
283.044
282.964
282.888
282.82
282.756
282.697
282.643
282.592
282.546
282.505
282.469
282.44
282.417
282.402
282.393
282.392
282.399
282.413
282.436
282.467
282.508
282.559
282.621
282.695
282.783
282.886
282.997
283.11
283.225
283.341
283.461
283.585
283.713
283.848
283.989
284.141
284.306
284.465
284.457
283.842
282.91
282.965
282.745
282.165
281.862
281.649
281.475
281.365
281.299
281.247
281.388
281.751
282.119
281.562
281.027
281.042
280.982
280.915
280.853
280.888
281.334
282.716
282.926
281.958
281.073
280.829
280.811
280.807
280.804
280.801
280.798
280.796
280.793
280.791
280.789
280.787
280.786
280.784
280.783
280.783
280.784
280.79
280.81
280.854
280.875
280.832
280.764
280.756
280.752
280.755
280.769
280.798
280.774
280.746
280.741
280.736
280.73
280.725
280.72
280.716
280.711
280.708
280.705
280.703
280.702
280.702
280.702
280.703
280.704
280.705
280.707
280.708
280.709
280.71
280.71
280.71
280.71
280.709
280.708
280.707
280.706
280.704
280.702
280.7
280.699
280.698
280.703
280.724
280.76
280.812
280.879
280.962
281.062
281.184
281.34
281.568
281.945
282.519
283.101
283.208
282.689
281.717
282.2
281.715
281.114
280.872
280.845
280.835
280.826
280.811
280.758
280.712
281.576
281.43
281.085
281.1
281.042
280.965
280.884
280.884
281.586
282.428
282.257
281.384
280.875
280.787
280.78
280.778
280.777
280.776
280.774
280.773
280.77
280.768
280.765
280.762
280.759
280.757
280.754
280.751
280.748
280.744
280.741
280.738
280.735
280.73
280.725
280.72
280.715
280.711
280.707
280.703
280.699
280.695
280.691
280.687
280.684
280.682
280.68
280.68
280.681
280.683
280.687
280.691
280.696
280.703
280.709
280.715
280.721
280.726
280.731
280.734
280.737
280.739
280.74
280.74
280.74
280.739
280.737
280.734
280.73
280.726
280.721
280.715
280.709
280.702
280.695
280.688
280.684
280.684
280.69
280.704
280.73
280.772
280.842
280.971
281.229
281.696
282.297
282.668
282.542
282.023
281.895
281.756
281.114
280.922
280.894
280.865
280.855
280.834
280.791
280.708
281.392
281.38
281.131
281.139
281.086
281.003
280.915
281.084
281.707
282.171
281.845
281.151
280.837
280.79
280.785
280.783
280.782
280.78
280.777
280.774
280.771
280.768
280.764
280.76
280.757
280.753
280.749
280.745
280.741
280.737
280.732
280.728
280.723
280.718
280.713
280.707
280.702
280.697
280.692
280.688
280.684
280.681
280.679
280.679
280.679
280.682
280.686
280.692
280.7
280.708
280.718
280.727
280.737
280.747
280.756
280.765
280.772
280.777
280.781
280.784
280.786
280.788
280.788
280.788
280.787
280.785
280.783
280.78
280.776
280.772
280.766
280.759
280.75
280.741
280.731
280.72
280.709
280.699
280.691
280.686
280.686
280.696
280.723
280.791
280.954
281.295
281.807
282.246
282.34
282.084
281.83
281.786
281.273
280.99
280.95
280.889
280.882
280.858
280.818
280.709
281.296
281.36
281.172
281.169
281.119
281.029
280.985
281.271
281.741
281.95
281.572
281.033
280.824
280.793
280.789
280.787
280.784
280.781
280.778
280.774
280.77
280.766
280.762
280.757
280.752
280.748
280.743
280.738
280.733
280.728
280.723
280.717
280.712
280.706
280.7
280.695
280.69
280.686
280.682
280.68
280.68
280.681
280.684
280.69
280.697
280.706
280.717
280.728
280.74
280.752
280.764
280.775
280.785
280.794
280.802
280.809
280.815
280.818
280.821
280.822
280.822
280.822
280.822
280.821
280.82
280.818
280.817
280.815
280.812
280.808
280.803
280.797
280.789
280.779
280.768
280.756
280.742
280.728
280.714
280.701
280.691
280.687
280.694
280.729
280.836
281.086
281.506
281.936
282.138
282.042
281.819
281.774
281.428
281.086
281.01
280.911
280.909
280.885
280.839
280.733
281.237
281.341
281.206
281.195
281.141
281.049
281.112
281.402
281.722
281.76
281.38
280.963
280.817
280.795
280.791
280.789
280.786
280.782
280.778
280.773
280.768
280.763
280.758
280.753
280.748
280.742
280.737
280.731
280.725
280.719
280.713
280.707
280.702
280.696
280.691
280.687
280.685
280.683
280.684
280.687
280.692
280.699
280.709
280.72
280.733
280.746
280.76
280.773
280.785
280.797
280.807
280.816
280.823
280.83
280.835
280.839
280.842
280.844
280.844
280.843
280.842
280.841
280.84
280.839
280.838
280.838
280.837
280.836
280.835
280.832
280.829
280.825
280.818
280.81
280.8
280.787
280.773
280.757
280.739
280.722
280.706
280.694
280.69
280.708
280.782
280.974
281.32
281.717
281.962
281.96
281.795
281.75
281.51
281.202
281.023
280.934
280.938
280.914
280.867
280.783
281.198
281.32
281.218
281.217
281.151
281.118
281.24
281.482
281.672
281.597
281.239
280.917
280.813
280.797
280.793
280.79
280.786
280.782
280.777
280.772
280.766
280.761
280.755
280.749
280.743
280.737
280.731
280.724
280.718
280.712
280.706
280.701
280.696
280.692
280.69
280.689
280.691
280.694
280.7
280.709
280.72
280.732
280.746
280.76
280.774
280.787
280.8
280.811
280.821
280.83
280.837
280.843
280.848
280.852
280.855
280.857
280.858
280.858
280.856
280.854
280.852
280.851
280.849
280.849
280.848
280.849
280.85
280.85
280.851
280.85
280.849
280.846
280.841
280.834
280.825
280.813
280.799
280.782
280.763
280.742
280.722
280.705
280.694
280.702
280.757
280.913
281.208
281.568
281.822
281.868
281.753
281.721
281.552
281.279
280.904
280.96
280.97
280.947
280.896
280.832
281.17
281.295
281.223
281.237
281.192
281.219
281.344
281.52
281.602
281.458
281.134
280.886
280.81
280.798
280.794
280.79
280.786
280.781
280.775
280.77
280.764
280.758
280.752
280.746
280.739
280.733
280.726
280.72
280.714
280.708
280.704
280.7
280.698
280.698
280.699
280.703
280.709
280.718
280.729
280.741
280.755
280.769
280.783
280.797
280.809
280.82
280.83
280.838
280.845
280.851
280.856
280.86
280.863
280.865
280.867
280.867
280.867
280.866
280.864
280.861
280.858
280.856
280.855
280.855
280.855
280.857
280.859
280.862
280.864
280.866
280.866
280.865
280.861
280.855
280.846
280.835
280.821
280.803
280.783
280.761
280.738
280.716
280.7
280.702
280.747
280.883
281.145
281.473
281.715
281.78
281.702
281.693
281.571
281.32
280.971
280.989
281.006
280.981
280.922
280.861
281.149
281.27
281.231
281.272
281.276
281.31
281.415
281.524
281.524
281.342
281.055
280.864
280.808
280.798
280.794
280.79
280.785
280.78
280.774
280.768
280.762
280.756
280.75
280.743
280.737
280.73
280.724
280.718
280.714
280.71
280.708
280.707
280.709
280.712
280.718
280.726
280.736
280.748
280.761
280.775
280.789
280.802
280.814
280.825
280.834
280.842
280.848
280.854
280.859
280.862
280.866
280.869
280.871
280.873
280.874
280.874
280.873
280.872
280.869
280.866
280.863
280.86
280.859
280.859
280.861
280.864
280.868
280.873
280.878
280.882
280.884
280.884
280.882
280.876
280.867
280.856
280.841
280.823
280.801
280.777
280.751
280.726
280.707
280.705
280.745
280.872
281.115
281.416
281.636
281.702
281.65
281.668
281.579
281.33
281.014
281.022
281.045
281.017
280.944
280.879
281.134
281.264
281.256
281.335
281.342
281.38
281.456
281.505
281.446
281.245
280.996
280.848
280.807
280.799
280.794
280.789
280.784
280.778
280.773
280.767
280.761
280.755
280.748
280.742
280.736
280.73
280.725
280.721
280.719
280.717
280.718
280.721
280.726
280.733
280.742
280.753
280.765
280.778
280.791
280.804
280.815
280.826
280.835
280.842
280.849
280.854
280.858
280.862
280.865
280.868
280.87
280.873
280.875
280.877
280.878
280.878
280.877
280.876
280.873
280.87
280.867
280.864
280.863
280.864
280.866
280.871
280.877
280.885
280.892
280.899
280.904
280.906
280.904
280.898
280.889
280.876
280.86
280.841
280.817
280.791
280.762
280.734
280.712
280.708
280.748
280.874
281.109
281.386
281.576
281.636
281.605
281.65
281.578
281.312
281.041
281.058
281.086
281.054
280.963
280.891
281.122
281.273
281.296
281.378
281.394
281.427
281.472
281.473
281.371
281.166
280.952
280.836
280.806
280.799
280.794
280.789
280.783
280.777
280.771
280.766
280.76
280.754
280.748
280.743
280.738
280.733
280.73
280.728
280.728
280.73
280.733
280.739
280.747
280.756
280.767
280.778
280.791
280.803
280.814
280.824
280.833
280.841
280.847
280.851
280.855
280.858
280.86
280.863
280.865
280.868
280.87
280.873
280.876
280.878
280.88
280.881
280.881
280.88
280.877
280.874
280.871
280.868
280.867
280.868
280.871
280.877
280.885
280.895
280.906
280.916
280.924
280.928
280.928
280.923
280.913
280.898
280.88
280.858
280.832
280.803
280.772
280.741
280.717
280.712
280.754
280.885
281.118
281.372
281.529
281.579
281.566
281.638
281.567
281.278
281.063
281.097
281.128
281.092
280.981
280.9
281.113
281.278
281.333
281.41
281.432
281.456
281.472
281.434
281.305
281.103
280.918
280.828
280.805
280.798
280.793
280.788
280.782
280.776
280.771
280.765
280.76
280.755
280.75
280.745
280.742
280.74
280.738
280.739
280.741
280.745
280.751
280.758
280.767
280.778
280.789
280.8
280.811
280.821
280.83
280.837
280.843
280.847
280.85
280.852
280.854
280.855
280.857
280.858
280.861
280.864
280.867
280.871
280.874
280.878
280.881
280.883
280.884
280.883
280.881
280.879
280.876
280.873
280.872
280.872
280.876
280.883
280.892
280.904
280.918
280.931
280.942
280.95
280.952
280.948
280.937
280.921
280.9
280.875
280.846
280.814
280.78
280.746
280.72
280.715
280.763
280.903
281.139
281.367
281.486
281.53
281.536
281.628
281.542
281.237
281.084
281.132
281.165
281.13
280.997
280.907
281.106
281.28
281.35
281.432
281.458
281.472
281.463
281.394
281.247
281.053
280.893
280.822
280.804
280.798
280.792
280.787
280.781
280.775
280.77
280.765
280.761
280.756
280.753
280.75
280.748
280.748
280.748
280.751
280.755
280.76
280.768
280.776
280.786
280.796
280.806
280.816
280.824
280.832
280.838
280.842
280.845
280.846
280.847
280.847
280.847
280.847
280.848
280.85
280.853
280.856
280.861
280.865
280.871
280.876
280.88
280.884
280.886
280.886
280.886
280.884
280.881
280.878
280.876
280.877
280.88
280.887
280.898
280.911
280.927
280.943
280.958
280.969
280.974
280.972
280.961
280.943
280.919
280.891
280.858
280.823
280.786
280.749
280.722
280.718
280.773
280.925
281.166
281.362
281.444
281.488
281.511
281.612
281.499
281.201
281.107
281.161
281.193
281.163
281.012
280.913
281.101
281.276
281.352
281.446
281.474
281.478
281.448
281.357
281.199
281.014
280.875
280.818
280.803
280.797
280.791
280.785
280.78
280.775
280.77
280.766
280.762
280.759
280.757
280.756
280.755
280.756
280.759
280.763
280.768
280.775
280.783
280.791
280.801
280.81
280.818
280.826
280.832
280.837
280.84
280.841
280.84
280.839
280.838
280.836
280.835
280.835
280.836
280.838
280.842
280.846
280.852
280.858
280.865
280.871
280.878
280.883
280.887
280.889
280.89
280.889
280.886
280.884
280.882
280.882
280.884
280.891
280.902
280.916
280.933
280.952
280.969
280.983
280.992
280.993
280.983
280.964
280.937
280.905
280.869
280.83
280.789
280.751
280.723
280.722
280.784
280.95
281.196
281.353
281.4
281.452
281.486
281.585
281.441
281.175
281.129
281.183
281.21
281.185
281.026
280.918
281.098
281.267
281.345
281.452
281.483
281.479
281.432
281.325
281.16
280.983
280.861
280.815
280.802
280.796
280.79
280.784
280.779
280.775
280.771
280.767
280.765
280.763
280.762
280.762
280.763
280.765
280.769
280.774
280.78
280.787
280.795
280.803
280.811
280.818
280.825
280.83
280.833
280.835
280.835
280.833
280.83
280.827
280.824
280.822
280.821
280.821
280.822
280.825
280.829
280.834
280.841
280.849
280.857
280.865
280.874
280.881
280.887
280.891
280.894
280.894
280.893
280.89
280.888
280.887
280.889
280.894
280.904
280.918
280.936
280.956
280.975
280.991
281.003
281.008
281.001
280.981
280.951
280.916
280.876
280.834
280.791
280.752
280.723
280.725
280.796
280.975
281.224
281.336
281.355
281.418
281.458
281.539
281.371
281.159
281.149
281.195
281.218
281.195
281.034
280.922
281.097
281.254
281.326
281.452
281.487
281.477
281.418
281.298
281.129
280.959
280.851
280.813
280.802
280.795
280.789
280.784
280.779
280.775
280.772
280.769
280.767
280.766
280.767
280.768
280.77
280.773
280.778
280.783
280.79
280.797
280.804
280.811
280.817
280.823
280.827
280.829
280.83
280.828
280.825
280.821
280.817
280.812
280.809
280.806
280.805
280.805
280.807
280.81
280.815
280.822
280.829
280.838
280.848
280.858
280.868
280.877
280.885
280.892
280.897
280.899
280.899
280.897
280.895
280.893
280.893
280.897
280.905
280.919
280.936
280.957
280.977
280.994
281.007
281.016
281.013
280.994
280.962
280.923
280.881
280.836
280.792
280.751
280.723
280.728
280.807
280.999
281.248
281.313
281.312
281.381
281.42
281.477
281.3
281.15
281.163
281.201
281.222
281.2
281.036
280.924
281.1
281.238
281.296
281.445
281.487
281.474
281.406
281.277
281.104
280.941
280.844
280.811
280.801
280.794
280.788
280.783
280.778
280.775
280.772
280.771
280.77
280.77
280.771
280.773
280.776
280.78
280.785
280.791
280.797
280.803
280.81
280.815
280.82
280.823
280.824
280.824
280.822
280.818
280.813
280.807
280.801
280.797
280.793
280.79
280.789
280.79
280.792
280.796
280.802
280.809
280.817
280.827
280.837
280.848
280.86
280.871
280.882
280.891
280.899
280.904
280.906
280.905
280.902
280.899
280.898
280.9
280.907
280.918
280.934
280.954
280.975
280.991
281.003
281.013
281.016
281
280.968
280.927
280.882
280.836
280.79
280.749
280.722
280.731
280.818
281.021
281.266
281.286
281.271
281.34
281.373
281.404
281.237
281.145
281.17
281.202
281.225
281.203
281.035
280.924
281.108
281.22
281.252
281.431
281.483
281.471
281.398
281.262
281.086
280.928
280.839
280.81
280.8
280.793
280.787
280.782
280.778
280.775
280.773
280.772
280.772
280.773
280.775
280.777
280.781
280.785
280.791
280.796
280.802
280.807
280.812
280.816
280.818
280.819
280.818
280.815
280.811
280.805
280.799
280.792
280.786
280.782
280.778
280.776
280.776
280.777
280.78
280.784
280.79
280.797
280.806
280.816
280.826
280.838
280.85
280.863
280.876
280.888
280.899
280.907
280.912
280.913
280.911
280.907
280.904
280.904
280.908
280.918
280.932
280.95
280.97
280.987
280.996
281.003
281.009
280.999
280.968
280.927
280.882
280.834
280.788
280.748
280.722
280.734
280.827
281.038
281.277
281.26
281.231
281.294
281.318
281.326
281.186
281.142
281.171
281.202
281.229
281.205
281.033
280.924
281.12
281.2
281.189
281.41
281.475
281.469
281.394
281.253
281.074
280.918
280.835
280.809
280.799
280.792
280.786
280.781
280.778
280.775
280.774
280.774
280.774
280.775
280.778
280.781
280.785
280.789
280.794
280.799
280.804
280.808
280.812
280.814
280.814
280.813
280.81
280.805
280.799
280.792
280.785
280.779
280.773
280.769
280.766
280.765
280.765
280.767
280.77
280.775
280.781
280.788
280.796
280.805
280.815
280.827
280.839
280.853
280.868
280.882
280.896
280.908
280.917
280.921
280.92
280.916
280.912
280.909
280.911
280.917
280.929
280.946
280.966
280.982
280.99
280.989
280.993
280.99
280.964
280.924
280.879
280.832
280.786
280.746
280.722
280.736
280.834
281.05
281.281
281.239
281.194
281.245
281.26
281.252
281.149
281.139
281.17
281.204
281.234
281.206
281.031
280.924
281.133
281.179
281.109
281.378
281.462
281.467
281.395
281.251
281.068
280.912
280.833
280.808
280.798
280.791
280.785
280.78
280.777
280.775
280.774
280.774
280.775
280.777
280.78
280.783
280.787
280.792
280.796
280.8
280.804
280.807
280.809
280.81
280.808
280.805
280.801
280.795
280.788
280.781
280.774
280.768
280.763
280.76
280.758
280.757
280.758
280.76
280.764
280.768
280.774
280.781
280.788
280.797
280.806
280.817
280.829
280.842
280.857
280.874
280.891
280.907
280.92
280.928
280.93
280.927
280.92
280.915
280.914
280.918
280.927
280.943
280.962
280.978
280.987
280.981
280.972
280.973
280.955
280.919
280.875
280.829
280.784
280.746
280.722
280.738
280.839
281.056
281.279
281.223
281.161
281.197
281.203
281.188
281.124
281.135
281.168
281.207
281.24
281.207
281.031
280.922
281.148
281.157
281.018
281.333
281.441
281.461
281.399
281.258
281.067
280.909
280.832
280.808
280.798
280.79
280.784
280.78
280.777
280.775
280.775
280.775
280.776
280.778
280.781
280.784
280.788
280.792
280.796
280.8
280.803
280.805
280.805
280.804
280.802
280.798
280.792
280.786
280.779
280.772
280.766
280.761
280.757
280.755
280.753
280.753
280.755
280.757
280.761
280.765
280.771
280.777
280.783
280.791
280.799
280.808
280.818
280.831
280.845
280.863
280.882
280.902
280.92
280.934
280.94
280.938
280.931
280.923
280.919
280.919
280.926
280.939
280.958
280.976
280.986
280.98
280.958
280.951
280.941
280.911
280.871
280.827
280.784
280.746
280.724
280.74
280.841
281.058
281.272
281.214
281.135
281.153
281.152
281.137
281.106
281.13
281.167
281.213
281.246
281.206
281.033
280.919
281.165
281.134
280.916
281.276
281.41
281.448
281.402
281.272
281.083
280.909
280.833
280.808
280.797
280.789
280.783
280.779
280.776
280.775
280.775
280.775
280.776
280.778
280.781
280.785
280.788
280.792
280.795
280.798
280.8
280.801
280.801
280.799
280.795
280.79
280.785
280.778
280.772
280.766
280.761
280.757
280.755
280.753
280.753
280.754
280.756
280.758
280.762
280.766
280.771
280.776
280.782
280.788
280.794
280.801
280.81
280.82
280.833
280.85
280.87
280.893
280.917
280.937
280.949
280.951
280.944
280.933
280.926
280.922
280.925
280.936
280.954
280.974
280.988
280.986
280.959
280.931
280.923
280.901
280.867
280.825
280.784
280.747
280.725
280.742
280.842
281.055
281.261
281.21
281.118
281.116
281.109
281.099
281.094
281.127
281.169
281.219
281.251
281.206
281.036
280.914
281.183
281.111
280.814
281.211
281.369
281.427
281.4
281.288
281.11
280.927
280.834
280.809
280.797
280.788
280.782
280.778
280.776
280.774
280.774
280.775
280.776
280.778
280.781
280.784
280.787
280.79
280.793
280.796
280.797
280.797
280.796
280.793
280.789
280.785
280.779
280.773
280.768
280.763
280.759
280.757
280.755
280.755
280.756
280.758
280.76
280.763
280.766
280.77
280.774
280.779
280.783
280.788
280.793
280.798
280.804
280.812
280.822
280.837
280.856
280.881
280.91
280.937
280.957
280.964
280.958
280.945
280.934
280.927
280.926
280.934
280.951
280.973
280.99
280.994
280.971
280.924
280.905
280.889
280.861
280.824
280.784
280.749
280.728
280.744
280.841
281.049
281.248
281.209
281.11
281.089
281.076
281.073
281.087
281.125
281.172
281.225
281.256
281.208
281.038
280.908
281.204
281.087
280.726
281.14
281.316
281.396
281.392
281.302
281.141
280.961
280.845
280.811
280.798
280.788
280.781
280.777
280.775
280.774
280.774
280.774
280.776
280.778
280.78
280.783
280.786
280.788
280.791
280.792
280.793
280.793
280.791
280.788
280.785
280.78
280.775
280.77
280.765
280.762
280.76
280.759
280.759
280.76
280.762
280.764
280.767
280.77
280.773
280.777
280.78
280.784
280.787
280.791
280.794
280.798
280.802
280.806
280.814
280.825
280.842
280.866
280.898
280.932
280.962
280.976
280.973
280.959
280.945
280.934
280.928
280.933
280.948
280.971
280.992
281.002
280.986
280.939
280.895
280.876
280.853
280.821
280.785
280.751
280.73
280.746
280.84
281.04
281.233
281.208
281.109
281.071
281.054
281.058
281.083
281.126
281.178
281.231
281.26
281.211
281.041
280.9
281.226
281.061
280.667
281.049
281.244
281.353
281.375
281.311
281.172
281.002
280.872
280.816
280.799
280.788
280.78
280.776
280.773
280.773
280.773
280.774
280.775
280.777
280.779
280.781
280.783
280.786
280.788
280.789
280.789
280.789
280.787
280.784
280.781
280.776
280.772
280.768
280.765
280.763
280.763
280.763
280.765
280.767
280.77
280.773
280.776
280.779
280.781
280.785
280.788
280.791
280.794
280.796
280.799
280.801
280.802
280.805
280.808
280.815
280.828
280.85
280.883
280.923
280.963
280.987
280.988
280.974
280.958
280.943
280.932
280.932
280.946
280.969
280.994
281.009
281.002
280.961
280.894
280.864
280.842
280.816
280.784
280.753
280.733
280.748
280.839
281.032
281.219
281.208
281.114
281.064
281.043
281.05
281.083
281.13
281.185
281.239
281.265
281.213
281.042
280.892
281.251
281.039
280.637
280.9
281.145
281.292
281.347
281.312
281.2
281.046
280.91
280.832
280.802
280.789
280.78
280.775
280.772
280.771
280.772
280.773
280.774
280.775
280.777
280.779
280.781
280.783
280.785
280.786
280.786
280.785
280.783
280.781
280.778
280.774
280.77
280.767
280.766
280.765
280.767
280.77
280.773
280.776
280.779
280.782
280.785
280.787
280.79
280.793
280.795
280.798
280.801
280.803
280.805
280.806
280.806
280.806
280.806
280.809
280.817
280.835
280.866
280.91
280.96
280.996
281.004
280.99
280.972
280.953
280.938
280.933
280.943
280.967
280.995
281.016
281.015
280.982
280.918
280.859
280.832
280.808
280.781
280.754
280.736
280.75
280.838
281.025
281.207
281.208
281.121
281.064
281.04
281.051
281.087
281.138
281.195
281.247
281.269
281.213
281.043
280.883
281.277
281.025
280.613
280.697
281.022
281.217
281.306
281.302
281.22
281.088
280.955
280.861
280.813
280.791
280.78
280.773
280.77
280.77
280.77
280.771
280.773
280.774
280.776
280.778
280.779
280.781
280.782
280.783
280.783
280.782
280.78
280.778
280.775
280.772
280.769
280.767
280.767
280.769
280.773
280.777
280.781
280.784
280.787
280.79
280.792
280.795
280.797
280.8
280.803
280.805
280.808
280.81
280.811
280.812
280.812
280.81
280.808
280.806
280.809
280.821
280.848
280.894
280.952
281.003
281.019
281.006
280.986
280.965
280.945
280.935
280.942
280.965
280.996
281.022
281.027
281.002
280.943
280.86
280.824
280.8
280.776
280.753
280.738
280.753
280.839
281.021
281.198
281.208
281.129
281.07
281.045
281.058
281.097
281.149
281.206
281.255
281.273
281.211
281.041
280.874
281.304
281.019
280.599
280.582
280.932
281.144
281.257
281.282
281.23
281.124
281.001
280.9
280.836
280.801
280.781
280.773
280.769
280.768
280.768
280.769
280.771
280.772
280.774
280.776
280.777
280.779
280.78
280.78
280.78
280.779
280.777
280.775
280.772
280.769
280.767
280.767
280.77
280.775
280.781
280.786
280.789
280.792
280.794
280.796
280.798
280.8
280.802
280.805
280.808
280.81
280.813
280.816
280.818
280.819
280.818
280.816
280.813
280.808
280.805
280.81
280.832
280.877
280.941
281.006
281.033
281.021
281.001
280.978
280.953
280.939
280.941
280.963
280.997
281.027
281.037
281.017
280.965
280.884
280.819
280.792
280.771
280.751
280.74
280.758
280.844
281.022
281.193
281.209
281.137
281.079
281.056
281.07
281.11
281.163
281.218
281.264
281.276
281.207
281.038
280.866
281.332
281.015
280.591
280.575
280.886
281.077
281.203
281.253
281.23
281.151
281.045
280.945
280.87
280.821
280.791
280.774
280.768
280.765
280.766
280.767
280.769
280.77
280.772
280.773
280.775
280.776
280.777
280.777
280.777
280.776
280.774
280.771
280.769
280.767
280.766
280.769
280.776
280.784
280.791
280.795
280.797
280.797
280.798
280.799
280.8
280.802
280.804
280.807
280.81
280.813
280.817
280.82
280.822
280.824
280.824
280.823
280.819
280.812
280.805
280.803
280.818
280.86
280.928
281.007
281.046
281.036
281.015
280.991
280.963
280.943
280.941
280.962
280.997
281.032
281.047
281.03
280.982
280.91
280.819
280.787
280.766
280.75
280.743
280.765
280.857
281.031
281.192
281.211
281.146
281.091
281.071
281.087
281.128
281.18
281.232
281.273
281.277
281.201
281.032
280.858
281.358
281.006
280.584
280.573
280.786
280.994
281.139
281.213
281.218
281.167
281.082
280.99
280.91
280.851
280.81
280.784
280.769
280.763
280.762
280.764
280.765
280.767
280.769
280.771
280.772
280.773
280.774
280.774
280.773
280.772
280.77
280.768
280.766
280.766
280.768
280.775
280.788
280.797
280.801
280.802
280.801
280.799
280.798
280.798
280.798
280.8
280.803
280.806
280.81
280.814
280.818
280.822
280.825
280.828
280.829
280.829
280.825
280.818
280.807
280.8
280.808
280.844
280.915
281.007
281.057
281.049
281.029
281.003
280.972
280.948
280.942
280.961
280.998
281.036
281.056
281.043
280.996
280.926
280.842
280.789
280.766
280.752
280.751
280.783
280.881
281.046
281.194
281.213
281.155
281.105
281.089
281.108
281.149
281.199
281.247
281.281
281.277
281.192
281.023
280.85
281.384
280.997
280.578
280.561
280.597
280.894
281.063
281.16
281.193
281.17
281.109
281.031
280.954
280.889
280.84
280.803
280.779
280.766
280.76
280.76
280.761
280.763
280.765
280.767
280.769
280.77
280.77
280.77
280.77
280.769
280.767
280.766
280.766
280.768
280.775
280.789
280.805
280.81
280.809
280.805
280.8
280.797
280.794
280.793
280.794
280.796
280.799
280.803
280.808
280.812
280.817
280.822
280.826
280.829
280.832
280.833
280.83
280.824
280.812
280.8
280.801
280.832
280.902
281.005
281.067
281.061
281.041
281.014
280.981
280.953
280.944
280.96
280.998
281.04
281.065
281.056
281.012
280.943
280.865
280.806
280.776
280.765
280.772
280.814
280.914
281.067
281.197
281.216
281.165
281.121
281.11
281.132
281.173
281.22
281.262
281.289
281.274
281.181
281.012
280.843
281.406
280.989
280.578
280.565
280.587
280.816
280.982
281.097
281.155
281.16
281.124
281.063
280.995
280.931
280.876
280.833
280.801
280.778
280.765
280.759
280.758
280.759
280.761
280.763
280.764
280.766
280.767
280.767
280.767
280.767
280.767
280.768
280.771
280.778
280.792
280.809
280.817
280.815
280.809
280.802
280.795
280.79
280.788
280.787
280.788
280.791
280.795
280.8
280.805
280.81
280.815
280.82
280.825
280.83
280.833
280.835
280.834
280.828
280.817
280.803
280.798
280.822
280.891
281.005
281.076
281.072
281.051
281.024
280.989
280.958
280.945
280.959
280.997
281.043
281.074
281.071
281.031
280.965
280.892
280.834
280.801
280.792
280.807
280.857
280.956
281.092
281.203
281.219
281.176
281.139
281.134
281.158
281.198
281.24
281.276
281.294
281.269
281.168
281
280.835
281.425
280.981
280.58
280.576
280.599
280.711
280.889
281.021
281.103
281.134
281.124
281.084
281.029
280.971
280.917
280.87
280.832
280.802
280.78
280.766
280.759
280.756
280.756
280.758
280.76
280.761
280.763
280.764
280.765
280.766
280.768
280.772
280.778
280.789
280.803
280.815
280.816
280.81
280.802
280.793
280.787
280.782
280.78
280.781
280.783
280.786
280.791
280.796
280.801
280.807
280.813
280.818
280.824
280.829
280.833
280.835
280.835
280.831
280.821
280.806
280.797
280.816
280.883
281.005
281.084
281.082
281.06
281.032
280.996
280.963
280.947
280.958
280.996
281.046
281.083
281.087
281.054
280.995
280.929
280.874
280.842
280.835
280.855
280.909
281.002
281.119
281.211
281.224
281.188
281.159
281.159
281.186
281.223
281.26
281.288
281.297
281.261
281.153
280.986
280.827
281.44
280.976
280.585
280.587
280.61
280.612
280.795
280.938
281.039
281.095
281.11
281.092
281.054
281.006
280.956
280.91
280.87
280.835
280.808
280.786
280.771
280.761
280.757
280.755
280.755
280.756
280.758
280.76
280.762
280.764
280.768
280.773
280.781
280.79
280.799
280.803
280.801
280.795
280.788
280.781
280.777
280.774
280.774
280.776
280.779
280.783
280.788
280.794
280.799
280.805
280.811
280.816
280.822
280.827
280.832
280.835
280.836
280.832
280.823
280.809
280.799
280.814
280.879
281.008
281.091
281.09
281.067
281.037
281
280.966
280.948
280.957
280.995
281.047
281.091
281.105
281.082
281.032
280.975
280.926
280.896
280.891
280.914
280.966
281.049
281.148
281.22
281.23
281.202
281.181
281.186
281.213
281.247
281.277
281.298
281.297
281.249
281.136
280.971
280.818
281.45
280.972
280.591
280.598
280.62
280.626
280.72
280.854
280.967
281.044
281.082
281.086
281.067
281.032
280.99
280.948
280.909
280.874
280.844
280.818
280.796
280.78
280.768
280.76
280.756
280.755
280.755
280.756
280.757
280.76
280.764
280.769
280.775
280.781
280.785
280.785
280.782
280.778
280.773
280.77
280.769
280.769
280.771
280.774
280.778
280.783
280.788
280.793
280.799
280.804
280.809
280.815
280.82
280.826
280.83
280.834
280.835
280.832
280.823
280.81
280.801
280.816
280.879
281.013
281.098
281.096
281.072
281.04
281.003
280.968
280.949
280.956
280.991
281.046
281.096
281.122
281.112
281.075
281.027
280.984
280.958
280.955
280.977
281.025
281.097
281.176
281.232
281.239
281.219
281.205
281.214
281.24
281.269
281.292
281.304
281.292
281.234
281.116
280.954
280.808
281.455
280.973
280.6
280.607
280.628
280.639
280.646
280.773
280.892
280.984
281.042
281.068
281.067
281.048
281.017
280.982
280.947
280.914
280.884
280.857
280.833
280.812
280.795
280.781
280.77
280.763
280.759
280.757
280.756
280.757
280.759
280.762
280.765
280.768
280.768
280.768
280.766
280.765
280.764
280.765
280.766
280.769
280.772
280.777
280.781
280.786
280.79
280.795
280.8
280.804
280.809
280.814
280.819
280.824
280.828
280.832
280.833
280.831
280.823
280.81
280.803
280.819
280.885
281.022
281.105
281.101
281.075
281.041
281.003
280.969
280.948
280.953
280.987
281.042
281.099
281.136
281.141
281.118
281.082
281.046
281.024
281.022
281.041
281.083
281.142
281.204
281.246
281.251
281.237
281.23
281.241
281.264
281.287
281.303
281.306
281.283
281.214
281.093
280.936
280.797
281.453
280.977
280.613
280.615
280.634
280.649
280.646
280.715
280.824
280.923
280.996
281.04
281.057
281.053
281.035
281.01
280.981
280.952
280.925
280.9
280.876
280.854
280.834
280.816
280.801
280.789
280.779
280.771
280.766
280.763
280.762
280.761
280.761
280.761
280.76
280.76
280.761
280.762
280.764
280.767
280.771
280.775
280.779
280.784
280.788
280.791
280.795
280.799
280.802
280.806
280.81
280.814
280.818
280.822
280.827
280.83
280.831
280.828
280.82
280.809
280.805
280.824
280.895
281.035
281.112
281.105
281.076
281.04
281.001
280.967
280.947
280.949
280.98
281.035
281.096
281.144
281.165
281.157
281.133
281.106
281.088
281.087
281.103
281.137
281.184
281.231
281.261
281.266
281.257
281.255
281.267
281.285
281.301
281.309
281.302
281.267
281.19
281.067