/*--------------------------------*- C++ -*----------------------------------*\
| =========                 |                                                 |
| \\      /  F ield         | OpenFOAM: The Open Source CFD Toolbox           |
|  \\    /   O peration     | Version:  4.1                                   |
|   \\  /    A nd           | Web:      www.OpenFOAM.org                      |
|    \\/     M anipulation  |                                                 |
\*---------------------------------------------------------------------------*/
FoamFile
{
    version     2.0;
    format      ascii;
    class       volVectorField;
    location    "320";
    object      U;
}
// * * * * * * * * * * * * * * * * * * * * * * * * * * * * * * * * * * * * * //

dimensions      [0 1 -1 0 0 0 0];

internalField   nonuniform List<vector> 
5000
(
(-0.00236819 0.000845922 0)
(-0.00162278 -0.00185074 0)
(0.000947235 -0.00187817 0)
(0.00238089 -0.00103322 0)
(0.00319016 -0.00061023 0)
(0.00353589 -0.000404991 0)
(0.00352631 -0.000238111 0)
(0.00304067 0.000178725 0)
(0.00155414 0.00187447 0)
(-0.00562413 0.00308865 0)
(-0.0081033 0.00107787 0)
(-0.00851921 2.75694e-05 0)
(-0.00830213 -0.000202279 0)
(-0.00796537 -0.000175388 0)
(-0.00767404 -0.000141446 0)
(-0.00740388 -0.000140329 0)
(-0.00711793 -0.000155564 0)
(-0.00680314 -0.000172863 0)
(-0.00646319 -0.00018605 0)
(-0.00610807 -0.000193369 0)
(-0.00574879 -0.000194772 0)
(-0.00539556 -0.000190814 0)
(-0.0050573 -0.00018226 0)
(-0.00474138 -0.000169808 0)
(-0.00445377 -0.000153672 0)
(-0.00419982 -0.000132843 0)
(-0.0039867 -0.000103956 0)
(-0.00382769 -6.01567e-05 0)
(-0.00374676 7.71452e-06 0)
(-0.00377862 0.000100083 0)
(-0.00395267 0.000184121 0)
(-0.00422745 0.000193181 0)
(-0.00445137 6.60178e-05 0)
(-0.00441822 -0.000182486 0)
(-0.00403251 -0.000439738 0)
(-0.00343628 -0.000588913 0)
(-0.00289282 -0.000465175 0)
(-0.00258356 5.59532e-05 0)
(-0.0027901 0.000172537 0)
(-0.00297474 0.000123257 0)
(-0.00305119 5.93024e-05 0)
(-0.00303729 1.28824e-06 0)
(-0.00294481 -4.69271e-05 0)
(-0.00277666 -8.97619e-05 0)
(-0.00253539 -0.00013198 0)
(-0.00221959 -0.000172714 0)
(-0.00183104 -0.000217522 0)
(-0.00136868 -0.00026137 0)
(-0.000834223 -0.000305264 0)
(-0.000213284 -0.000342304 0)
(0.000460005 -0.000376634 0)
(0.00119035 -0.000410378 0)
(0.00198219 -0.00044347 0)
(0.00283222 -0.000476016 0)
(0.0037391 -0.000507293 0)
(0.00470183 -0.000536662 0)
(0.00571758 -0.000562598 0)
(0.00677946 -0.000583 0)
(0.00787628 -0.00059609 0)
(0.00899398 -0.000600748 0)
(0.0101171 -0.000596429 0)
(0.0112295 -0.000582974 0)
(0.0123153 -0.000560487 0)
(0.0133586 -0.000529264 0)
(0.0143441 -0.000489772 0)
(0.0152577 -0.000442653 0)
(0.0160859 -0.000388744 0)
(0.0168173 -0.00032909 0)
(0.0174419 -0.00026494 0)
(0.0179525 -0.000197731 0)
(0.018344 -0.000129076 0)
(0.0186146 -6.08306e-05 0)
(0.0187655 4.59765e-06 0)
(0.0188028 6.39483e-05 0)
(0.0187367 0.000115627 0)
(0.0185759 0.000160341 0)
(0.0183286 0.000199437 0)
(0.0180018 0.000233885 0)
(0.0176016 0.000264558 0)
(0.0171325 0.000292839 0)
(0.016595 0.000322372 0)
(0.0159781 0.000366231 0)
(0.0152348 0.000470224 0)
(0.0142201 0.00075992 0)
(0.0125905 0.00145568 0)
(0.00967601 0.00255883 0)
(0.0047477 0.00278759 0)
(3.47509e-05 0.000803316 0)
(-0.000835508 0.000396476 0)
(-0.00315288 0.00166747 0)
(-0.00649243 0.000833313 0)
(-0.00746914 -0.000162553 0)
(-0.00733921 -0.000694834 0)
(-0.00635851 -0.00114084 0)
(-0.0047311 -0.00164316 0)
(-0.00266623 -0.00210643 0)
(-0.000135712 -0.0025713 0)
(0.00247792 -0.00158296 0)
(0.00353657 -0.000520199 0)
(0.00331861 0.00159 0)
(-0.00203821 0.00302997 0)
(-0.000790576 -0.00263282 0)
(-5.26865e-05 -0.00304353 0)
(0.00136673 -0.00139601 0)
(0.0018154 -0.000457204 0)
(0.00181939 2.49033e-05 0)
(0.00143658 0.000439365 0)
(-6.70709e-05 0.00230248 0)
(-0.00334528 0.00607443 0)
(-0.00688885 0.00536219 0)
(-0.00816644 0.00216721 0)
(-0.00836651 9.37583e-05 0)
(-0.00830039 -0.000454998 0)
(-0.00813812 -0.000442755 0)
(-0.00792585 -0.000406181 0)
(-0.00767736 -0.000416039 0)
(-0.00740606 -0.000449702 0)
(-0.00711772 -0.000485114 0)
(-0.00681698 -0.000510887 0)
(-0.00651015 -0.000522565 0)
(-0.0062051 -0.000519239 0)
(-0.00591044 -0.000501826 0)
(-0.00563459 -0.000472207 0)
(-0.00538489 -0.000432578 0)
(-0.005167 -0.000384715 0)
(-0.00498444 -0.000328916 0)
(-0.00483762 -0.000262596 0)
(-0.00472136 -0.000179106 0)
(-0.00462082 -6.94224e-05 0)
(-0.00451219 6.64307e-05 0)
(-0.00437782 0.000194066 0)
(-0.00422715 0.00023216 0)
(-0.00408191 9.91377e-05 0)
(-0.00398792 -0.000183387 0)
(-0.00403441 -0.000460015 0)
(-0.00425132 -0.000588744 0)
(-0.00447567 -0.000395305 0)
(-0.00446171 4.84084e-05 0)
(-0.00426274 0.000149334 0)
(-0.00408439 7.54669e-05 0)
(-0.00391918 -3.05257e-05 0)
(-0.00374333 -0.000133221 0)
(-0.00354333 -0.000233147 0)
(-0.00330798 -0.000331732 0)
(-0.00302799 -0.000432132 0)
(-0.00269619 -0.000533619 0)
(-0.00230682 -0.000640827 0)
(-0.00185684 -0.000749527 0)
(-0.00134054 -0.00085989 0)
(-0.000748474 -0.000961713 0)
(-7.11716e-05 -0.00105614 0)
(0.000657442 -0.00114162 0)
(0.00145277 -0.00122461 0)
(0.00231093 -0.00130866 0)
(0.00323168 -0.00139396 0)
(0.00421383 -0.00147852 0)
(0.0052551 -0.00155545 0)
(0.00634858 -0.00161802 0)
(0.00748235 -0.0016615 0)
(0.00864162 -0.00168315 0)
(0.00981053 -0.00168157 0)
(0.0109731 -0.00165631 0)
(0.0121136 -0.00160756 0)
(0.0132167 -0.00153598 0)
(0.0142678 -0.00144264 0)
(0.0152532 -0.00132905 0)
(0.0161604 -0.00119725 0)
(0.0169784 -0.00104984 0)
(0.0176984 -0.000889948 0)
(0.0183139 -0.000721163 0)
(0.018821 -0.000547437 0)
(0.0192182 -0.000373052 0)
(0.0195067 -0.000202729 0)
(0.0196888 -4.00605e-05 0)
(0.0197591 0.000112115 0)
(0.0197208 0.000253192 0)
(0.0195798 0.00038389 0)
(0.0193405 0.000505555 0)
(0.0190058 0.000620562 0)
(0.0185757 0.000733953 0)
(0.0180438 0.000857825 0)
(0.0173897 0.00102584 0)
(0.016564 0.00133125 0)
(0.0154711 0.00197987 0)
(0.013967 0.00323526 0)
(0.0118357 0.00499638 0)
(0.00885122 0.00613614 0)
(0.00556588 0.00536286 0)
(0.00162238 0.00255659 0)
(-0.000333542 0.00382149 0)
(-0.00351711 0.00324075 0)
(-0.00507915 0.00108715 0)
(-0.00559031 -0.000430076 0)
(-0.00505968 -0.0015955 0)
(-0.00390737 -0.0026759 0)
(-0.00246564 -0.00337889 0)
(-0.00101506 -0.003895 0)
(0.00109507 -0.00257874 0)
(0.00179751 0.000193507 0)
(0.00243215 0.00411608 0)
(-0.00187305 0.00438369 0)
(-0.00029566 -0.00343543 0)
(-0.000424749 -0.00416318 0)
(0.000914563 -0.00215253 0)
(0.00111903 -0.000699218 0)
(0.000911132 0.000186293 0)
(-8.41569e-05 0.00144557 0)
(-0.00313896 0.0058019 0)
(-0.00539237 0.00864069 0)
(-0.00714118 0.00694596 0)
(-0.00754622 0.00290368 0)
(-0.00751514 0.000277999 0)
(-0.00761865 -0.000465571 0)
(-0.00762895 -0.000562719 0)
(-0.00751904 -0.000597375 0)
(-0.00733841 -0.000648568 0)
(-0.00711445 -0.000708179 0)
(-0.0068633 -0.000761237 0)
(-0.0065969 -0.000797287 0)
(-0.00632575 -0.000810899 0)
(-0.00605966 -0.000800509 0)
(-0.0058077 -0.000767263 0)
(-0.00557787 -0.000714084 0)
(-0.00537657 -0.000644865 0)
(-0.00520823 -0.000563761 0)
(-0.00507489 -0.000474546 0)
(-0.00497563 -0.000380103 0)
(-0.00490537 -0.000282317 0)
(-0.00485345 -0.000183071 0)
(-0.00480202 -8.71984e-05 0)
(-0.00472772 -1.0213e-05 0)
(-0.00463089 6.27535e-06 0)
(-0.00456068 -7.03909e-05 0)
(-0.00458467 -0.000198192 0)
(-0.0047301 -0.00029967 0)
(-0.00494628 -0.000340142 0)
(-0.00511447 -0.000269586 0)
(-0.00514514 -0.000140473 0)
(-0.0050665 -9.15158e-05 0)
(-0.00495534 -0.000133526 0)
(-0.00484323 -0.000220821 0)
(-0.00471698 -0.000324721 0)
(-0.00456248 -0.000444934 0)
(-0.00437235 -0.000577392 0)
(-0.00413957 -0.000720236 0)
(-0.00385774 -0.000872553 0)
(-0.00352103 -0.00103438 0)
(-0.00312408 -0.00120447 0)
(-0.00266022 -0.00138107 0)
(-0.0021237 -0.00155926 0)
(-0.00150649 -0.00173364 0)
(-0.000791454 -0.00190225 0)
(2.86761e-05 -0.00206185 0)
(0.00090008 -0.00220619 0)
(0.00184104 -0.00235119 0)
(0.00284668 -0.00250093 0)
(0.00391606 -0.00264132 0)
(0.00503901 -0.002755 0)
(0.00620049 -0.00283358 0)
(0.00738396 -0.00287368 0)
(0.00857308 -0.00287396 0)
(0.00975203 -0.00283423 0)
(0.0109055 -0.00275516 0)
(0.0120187 -0.00263803 0)
(0.0130774 -0.00248469 0)
(0.014068 -0.00229773 0)
(0.0149779 -0.00208066 0)
(0.0157962 -0.001838 0)
(0.0165137 -0.00157524 0)
(0.0171242 -0.00129865 0)
(0.0176243 -0.00101496 0)
(0.0180133 -0.00073095 0)
(0.0182929 -0.000452838 0)
(0.0184675 -0.000183959 0)
(0.0185434 7.46529e-05 0)
(0.0185204 0.000321613 0)
(0.0184025 0.000556027 0)
(0.018192 0.000778827 0)
(0.017889 0.000993925 0)
(0.0174921 0.00121034 0)
(0.0169961 0.00144843 0)
(0.0163906 0.00175789 0)
(0.0156603 0.00226072 0)
(0.0147844 0.00320444 0)
(0.013716 0.00487776 0)
(0.0123232 0.0071162 0)
(0.0104157 0.00873209 0)
(0.00808925 0.00846457 0)
(0.00512682 0.00631519 0)
(0.00241162 0.00573603 0)
(-0.0002575 0.00594364 0)
(-0.00252239 0.00254474 0)
(-0.0036855 -0.000298322 0)
(-0.00377711 -0.00225895 0)
(-0.00313337 -0.00388766 0)
(-0.00231362 -0.00470833 0)
(-0.00133716 -0.00520765 0)
(5.19297e-06 -0.00431374 0)
(0.000895495 -0.000422572 0)
(0.0018332 0.00571877 0)
(-0.00175388 0.00528962 0)
(0.000351702 -0.00404715 0)
(-0.000331351 -0.00484034 0)
(0.000688738 -0.00260878 0)
(0.000733607 -0.000533061 0)
(0.000260926 0.00103093 0)
(-0.00215104 0.00413443 0)
(-0.00491003 0.00835474 0)
(-0.00640646 0.0100923 0)
(-0.00718799 0.00754398 0)
(-0.0071613 0.00307683 0)
(-0.00709365 0.000409836 0)
(-0.00720162 -0.000373247 0)
(-0.00723203 -0.000591012 0)
(-0.00716228 -0.0007173 0)
(-0.00702307 -0.00082874 0)
(-0.006838 -0.000926446 0)
(-0.00662497 -0.0010016 0)
(-0.00639855 -0.00104696 0)
(-0.00617103 -0.00105879 0)
(-0.00595301 -0.00103675 0)
(-0.00575344 -0.000983338 0)
(-0.00557959 -0.000903184 0)
(-0.00543662 -0.000802156 0)
(-0.00532747 -0.000686563 0)
(-0.00525261 -0.000562449 0)
(-0.00520998 -0.00043517 0)
(-0.00519472 -0.000309507 0)
(-0.00519908 -0.000190708 0)
(-0.00521287 -8.62683e-05 0)
(-0.00522752 -9.06309e-06 0)
(-0.00524794 2.0427e-05 0)
(-0.00529672 -6.31362e-06 0)
(-0.00539998 -7.00159e-05 0)
(-0.00556199 -0.000127595 0)
(-0.00574824 -0.000149281 0)
(-0.00589857 -0.000127299 0)
(-0.00597584 -0.000101068 0)
(-0.00598856 -0.000118131 0)
(-0.00596302 -0.000189766 0)
(-0.00591348 -0.00029916 0)
(-0.00583841 -0.000433427 0)
(-0.00573118 -0.000588383 0)
(-0.00558461 -0.000761568 0)
(-0.00539095 -0.000951665 0)
(-0.00514235 -0.00115811 0)
(-0.00483129 -0.00138047 0)
(-0.00445078 -0.0016177 0)
(-0.00399456 -0.00186782 0)
(-0.00345741 -0.00212769 0)
(-0.00283503 -0.00239287 0)
(-0.00212402 -0.00265677 0)
(-0.00132139 -0.00291026 0)
(-0.000394651 -0.00314852 0)
(0.000616622 -0.0033632 0)
(0.00167069 -0.00356748 0)
(0.00277873 -0.00376165 0)
(0.00393675 -0.00391862 0)
(0.00512575 -0.00402328 0)
(0.00632867 -0.00407247 0)
(0.00753091 -0.00406609 0)
(0.00871849 -0.00400478 0)
(0.00987758 -0.00388966 0)
(0.0109944 -0.00372233 0)
(0.0120552 -0.00350505 0)
(0.013046 -0.00324103 0)
(0.0139534 -0.00293494 0)
(0.0147653 -0.00259306 0)
(0.0154712 -0.00222333 0)
(0.0160636 -0.00183503 0)
(0.0165386 -0.00143811 0)
(0.0168957 -0.00104244 0)
(0.0171384 -0.000656668 0)
(0.0172735 -0.000286873 0)
(0.0173104 6.54248e-05 0)
(0.0172553 0.000401593 0)
(0.0171146 0.000722665 0)
(0.0168918 0.00103117 0)
(0.016588 0.00133292 0)
(0.0162026 0.00163922 0)
(0.0157335 0.0019733 0)
(0.0151788 0.00238824 0)
(0.0145402 0.00301069 0)
(0.0138273 0.00409998 0)
(0.0130375 0.00597016 0)
(0.0120914 0.00848129 0)
(0.0108178 0.0104933 0)
(0.00913316 0.0107275 0)
(0.00691054 0.00910144 0)
(0.00462738 0.00783465 0)
(0.0024438 0.00821651 0)
(9.07453e-06 0.00518978 0)
(-0.00205153 0.000821786 0)
(-0.00266566 -0.00222814 0)
(-0.00250267 -0.00443018 0)
(-0.00222399 -0.0054102 0)
(-0.00161467 -0.0060664 0)
(-0.000768789 -0.00557294 0)
(0.000453021 -0.000750039 0)
(0.00144271 0.00669955 0)
(-0.00141351 0.00583561 0)
(0.00119686 -0.00451071 0)
(0.000220929 -0.00522078 0)
(0.000626328 -0.0028754 0)
(0.000523023 -0.000131801 0)
(-0.00102492 0.00286474 0)
(-0.00396607 0.00687365 0)
(-0.00605528 0.0102036 0)
(-0.00698791 0.0108085 0)
(-0.00716221 0.00754923 0)
(-0.00690686 0.00298003 0)
(-0.00682128 0.000468677 0)
(-0.00689812 -0.000311672 0)
(-0.0069206 -0.00060933 0)
(-0.00686754 -0.00080984 0)
(-0.00675659 -0.000975256 0)
(-0.00660637 -0.00110778 0)
(-0.00643356 -0.00120163 0)
(-0.00625277 -0.00125205 0)
(-0.00607647 -0.00125726 0)
(-0.00591507 -0.00121873 0)
(-0.0057769 -0.00114097 0)
(-0.00566813 -0.00103076 0)
(-0.00559257 -0.000896346 0)
(-0.00555165 -0.000746433 0)
(-0.00554455 -0.000589485 0)
(-0.00556838 -0.000433219 0)
(-0.00561841 -0.000284589 0)
(-0.00568859 -0.000150173 0)
(-0.00577266 -3.67822e-05 0)
(-0.00586756 4.74985e-05 0)
(-0.00597625 9.40658e-05 0)
(-0.00610687 0.000101427 0)
(-0.00626687 7.96772e-05 0)
(-0.00645221 4.75689e-05 0)
(-0.0066414 2.08519e-05 0)
(-0.0068048 6.32216e-07 0)
(-0.00692505 -3.14387e-05 0)
(-0.00700174 -9.51178e-05 0)
(-0.00704184 -0.000197045 0)
(-0.00704942 -0.000333302 0)
(-0.00702202 -0.00049947 0)
(-0.00695288 -0.000693228 0)
(-0.00683309 -0.000913452 0)
(-0.006653 -0.00115957 0)
(-0.00640325 -0.001431 0)
(-0.00607581 -0.00172649 0)
(-0.00566464 -0.00204366 0)
(-0.00516601 -0.00237885 0)
(-0.00457857 -0.00272728 0)
(-0.00390304 -0.00308332 0)
(-0.00314178 -0.00344065 0)
(-0.00229932 -0.00379151 0)
(-0.00138369 -0.00412224 0)
(-0.000355237 -0.00442625 0)
(0.000769918 -0.00469527 0)
(0.00189505 -0.00492398 0)
(0.00305971 -0.00510917 0)
(0.00425181 -0.00523085 0)
(0.00545162 -0.00528301 0)
(0.00664711 -0.00526626 0)
(0.00782737 -0.00518189 0)
(0.00898074 -0.0050309 0)
(0.0100947 -0.00481439 0)
(0.0111558 -0.00453405 0)
(0.0121495 -0.00419289 0)
(0.0130609 -0.00379598 0)
(0.0138756 -0.00335098 0)
(0.0145806 -0.00286817 0)
(0.0151659 -0.00236014 0)
(0.015625 -0.00184085 0)
(0.0159562 -0.0013245 0)
(0.0161628 -0.000824005 0)
(0.0162538 -0.00034916 0)
(0.0162395 9.75102e-05 0)
(0.0161339 0.000519199 0)
(0.0159484 0.000919474 0)
(0.0156915 0.00130347 0)
(0.0153685 0.00167928 0)
(0.0149818 0.00205972 0)
(0.0145322 0.00246808 0)
(0.0140208 0.00295519 0)
(0.0134533 0.00364321 0)
(0.0128445 0.00479069 0)
(0.0122083 0.00673226 0)
(0.0115046 0.0093857 0)
(0.0106005 0.0116972 0)
(0.00937624 0.0123841 0)
(0.00772916 0.0112271 0)
(0.00593401 0.00977427 0)
(0.00415517 0.00999957 0)
(0.00205849 0.00794236 0)
(-0.000552056 0.00263288 0)
(-0.00165366 -0.00180501 0)
(-0.00195627 -0.00443454 0)
(-0.00212441 -0.00566471 0)
(-0.00185756 -0.00664016 0)
(-0.0012486 -0.00643205 0)
(-6.58674e-06 -0.00180447 0)
(0.00120796 0.0073127 0)
(-0.000732725 0.00535198 0)
(0.00181048 -0.004353 0)
(0.000978571 -0.00532944 0)
(0.000639171 -0.00277908 0)
(-0.000345122 0.000881613 0)
(-0.00303945 0.00554453 0)
(-0.00538408 0.00911348 0)
(-0.00688662 0.0114796 0)
(-0.00733583 0.0110316 0)
(-0.00710911 0.00725511 0)
(-0.00672022 0.00278911 0)
(-0.00661757 0.000489419 0)
(-0.0066624 -0.00027353 0)
(-0.00667251 -0.000625653 0)
(-0.00662774 -0.000883185 0)
(-0.00653973 -0.00109155 0)
(-0.00642331 -0.00125078 0)
(-0.00629311 -0.00135629 0)
(-0.00616257 -0.00140516 0)
(-0.0060433 -0.00139757 0)
(-0.00594474 -0.00133715 0)
(-0.00587402 -0.00123074 0)
(-0.00583583 -0.00108757 0)
(-0.00583239 -0.000918307 0)
(-0.00586357 -0.000733899 0)
(-0.00592727 -0.000544763 0)
(-0.00601985 -0.000360235 0)
(-0.00613669 -0.000188287 0)
(-0.00627316 -3.53934e-05 0)
(-0.00642679 9.29807e-05 0)
(-0.00659403 0.000190311 0)
(-0.00677263 0.000251225 0)
(-0.0069653 0.000276071 0)
(-0.00717348 0.000271584 0)
(-0.00739086 0.000247594 0)
(-0.00760362 0.000211377 0)
(-0.00779622 0.000162368 0)
(-0.00795744 9.20774e-05 0)
(-0.00808441 -8.79575e-06 0)
(-0.00817677 -0.000145387 0)
(-0.00822684 -0.000318856 0)
(-0.00822783 -0.000529051 0)
(-0.0081698 -0.000776472 0)
(-0.00804202 -0.00106106 0)
(-0.00783473 -0.00138182 0)
(-0.00754042 -0.0017364 0)
(-0.00715457 -0.00212088 0)
(-0.00667589 -0.00252984 0)
(-0.00610598 -0.00295671 0)
(-0.00544876 -0.00339426 0)
(-0.00470974 -0.00383512 0)
(-0.00389535 -0.00427223 0)
(-0.00301246 -0.00469897 0)
(-0.00207024 -0.00510772 0)
(-0.00108679 -0.00548403 0)
(1.76765e-05 -0.00582425 0)
(0.00115642 -0.00609198 0)
(0.00228817 -0.00628969 0)
(0.00345064 -0.00642082 0)
(0.00462178 -0.00647396 0)
(0.00578962 -0.00644787 0)
(0.00694612 -0.00634368 0)
(0.0080821 -0.00616175 0)
(0.00918643 -0.0059018 0)
(0.010246 -0.00556394 0)
(0.0112456 -0.00514989 0)
(0.0121687 -0.00466428 0)
(0.0129983 -0.00411544 0)
(0.0137185 -0.00351566 0)
(0.0143156 -0.00288079 0)
(0.0147797 -0.00222925 0)
(0.0151061 -0.00158061 0)
(0.0152961 -0.000953525 0)
(0.0153587 -0.000363218 0)
(0.0153033 0.000184773 0)
(0.0151495 0.00069264 0)
(0.0149146 0.00116566 0)
(0.0146142 0.00161225 0)
(0.0142603 0.00204421 0)
(0.0138608 0.0024773 0)
(0.0134198 0.00293574 0)
(0.0129399 0.00346874 0)
(0.0124245 0.00419529 0)
(0.0118821 0.0053731 0)
(0.0113243 0.00734904 0)
(0.0107325 0.0100852 0)
(0.010018 0.0125952 0)
(0.00908828 0.0135939 0)
(0.00787602 0.0127901 0)
(0.00647924 0.0113917 0)
(0.00503023 0.0115528 0)
(0.0032062 0.0101232 0)
(0.000709752 0.0052144 0)
(-0.000636247 -0.000853962 0)
(-0.00151154 -0.003903 0)
(-0.00201407 -0.00555502 0)
(-0.00202388 -0.00701028 0)
(-0.00144857 -0.00725772 0)
(-0.000260882 -0.00310087 0)
(0.00105578 0.00776573 0)
(0.000113469 0.00409969 0)
(0.00219397 -0.00446212 0)
(0.00138887 -0.0049972 0)
(1.09293e-05 -0.00161152 0)
(-0.00270243 0.00408905 0)
(-0.00471282 0.00776336 0)
(-0.00649998 0.0107865 0)
(-0.0074751 0.012232 0)
(-0.00752295 0.0108932 0)
(-0.00702783 0.00678431 0)
(-0.00656662 0.00254883 0)
(-0.00645033 0.000475748 0)
(-0.00646991 -0.000258304 0)
(-0.00647044 -0.000645246 0)
(-0.00643387 -0.000942417 0)
(-0.00636904 -0.00117997 0)
(-0.0062881 -0.00135496 0)
(-0.00620356 -0.00146303 0)
(-0.0061272 -0.00150257 0)
(-0.00606915 -0.00147565 0)
(-0.00603734 -0.0013882 0)
(-0.00603725 -0.00124957 0)
(-0.0060718 -0.00107159 0)
(-0.00614145 -0.000867333 0)
(-0.00624452 -0.000649795 0)
(-0.00637786 -0.000430977 0)
(-0.00653734 -0.000221018 0)
(-0.00671949 -2.74036e-05 0)
(-0.00692346 0.00014451 0)
(-0.00714284 0.000287414 0)
(-0.00737177 0.000395257 0)
(-0.00760998 0.000466099 0)
(-0.00785769 0.000501082 0)
(-0.00811336 0.000504155 0)
(-0.00837162 0.000480566 0)
(-0.00862243 0.000433603 0)
(-0.00885425 0.000362053 0)
(-0.00905675 0.000260785 0)
(-0.00921991 0.000123059 0)
(-0.00933629 -5.7045e-05 0)
(-0.00939762 -0.000283147 0)
(-0.00938867 -0.000557324 0)
(-0.00929947 -0.000880217 0)
(-0.0091212 -0.00125016 0)
(-0.00884839 -0.00166323 0)
(-0.00847924 -0.00211348 0)
(-0.00801537 -0.00259343 0)
(-0.00746114 -0.0030946 0)
(-0.00682286 -0.00360816 0)
(-0.00610796 -0.00412544 0)
(-0.00532433 -0.00463833 0)
(-0.00447983 -0.00513957 0)
(-0.00358209 -0.00562288 0)
(-0.00263892 -0.00608293 0)
(-0.00166141 -0.00651304 0)
(-0.000666719 -0.00689547 0)
(0.000452231 -0.00722012 0)
(0.00153438 -0.00743131 0)
(0.0026379 -0.00756766 0)
(0.00375841 -0.00762367 0)
(0.00488163 -0.0075938 0)
(0.00600051 -0.00747756 0)
(0.00710814 -0.00727403 0)
(0.00819496 -0.00698085 0)
(0.00924832 -0.0065956 0)
(0.0102526 -0.00611767 0)
(0.0111897 -0.0055503 0)
(0.0120406 -0.00490175 0)
(0.0127863 -0.00418577 0)
(0.01341 -0.00342115 0)
(0.0138981 -0.0026307 0)
(0.014242 -0.00183977 0)
(0.0144394 -0.00107386 0)
(0.0144977 -0.000355111 0)
(0.0144233 0.00030597 0)
(0.0142387 0.000907953 0)
(0.0139661 0.00145525 0)
(0.0136274 0.00195852 0)
(0.0132422 0.00243369 0)
(0.0128248 0.00290111 0)
(0.0123841 0.00338839 0)
(0.0119237 0.00394656 0)
(0.0114435 0.00469678 0)
(0.0109407 0.00590129 0)
(0.0104119 0.0079135 0)
(0.00984367 0.0107117 0)
(0.00919418 0.013335 0)
(0.00843528 0.0144999 0)
(0.00754659 0.0139195 0)
(0.00647256 0.0126943 0)
(0.00526314 0.0129744 0)
(0.00362004 0.0120156 0)
(0.00141182 0.00733523 0)
(0.000200376 8.09222e-05 0)
(-0.00126425 -0.00301948 0)
(-0.00189957 -0.00520813 0)
(-0.00206917 -0.00724875 0)
(-0.00147601 -0.00814385 0)
(-0.00034213 -0.00448675 0)
(0.000954992 0.00812582 0)
(0.000975059 0.00233962 0)
(0.00211897 -0.00439612 0)
(0.000922647 -0.00371669 0)
(-0.00226794 0.00195861 0)
(-0.00426633 0.00607698 0)
(-0.00596144 0.00947249 0)
(-0.0072786 0.0119307 0)
(-0.00781983 0.0125441 0)
(-0.0075593 0.0104829 0)
(-0.00689904 0.00620493 0)
(-0.00641255 0.00227976 0)
(-0.00629478 0.00043832 0)
(-0.00630233 -0.000256299 0)
(-0.00630126 -0.000662906 0)
(-0.00627778 -0.000984308 0)
(-0.00623996 -0.0012375 0)
(-0.00619802 -0.00141686 0)
(-0.0061626 -0.001518 0)
(-0.00614365 -0.00154043 0)
(-0.00614949 -0.0014881 0)
(-0.00618621 -0.0013693 0)
(-0.00625739 -0.00119603 0)
(-0.00636405 -0.000982667 0)
(-0.00650497 -0.000744491 0)
(-0.00667733 -0.000496175 0)
(-0.00687746 -0.00025034 0)
(-0.00710289 -1.61645e-05 0)
(-0.00735428 0.000200193 0)
(-0.00762219 0.000388498 0)
(-0.00790085 0.000542064 0)
(-0.00818895 0.000658541 0)
(-0.00848511 0.000737193 0)
(-0.00878792 0.000778726 0)
(-0.00909408 0.000784928 0)
(-0.00939684 0.000757485 0)
(-0.00968605 0.0006964 0)
(-0.00994912 0.000598841 0)
(-0.0101729 0.000459453 0)
(-0.0103433 0.000271992 0)
(-0.0104463 3.03701e-05 0)
(-0.0104755 -0.00026962 0)
(-0.0104142 -0.000629579 0)
(-0.0102572 -0.00104651 0)
(-0.0100014 -0.00151471 0)
(-0.00964792 -0.00202625 0)
(-0.00920102 -0.00257175 0)
(-0.00866715 -0.00314117 0)
(-0.00805408 -0.0037244 0)
(-0.00737019 -0.00431181 0)
(-0.00662388 -0.00489453 0)
(-0.00582328 -0.00546461 0)
(-0.00497603 -0.00601512 0)
(-0.00408926 -0.0065401 0)
(-0.00316981 -0.00703451 0)
(-0.00222574 -0.00749361 0)
(-0.00127213 -0.00790927 0)
(-0.000284048 -0.00826036 0)
(0.000760251 -0.00851084 0)
(0.00179209 -0.00865555 0)
(0.00284478 -0.00871683 0)
(0.00391077 -0.00869041 0)
(0.00498135 -0.00857199 0)
(0.00605092 -0.00835825 0)
(0.00711146 -0.00804406 0)
(0.00815099 -0.00762367 0)
(0.00915363 -0.00709324 0)
(0.0101004 -0.00645385 0)
(0.0109704 -0.00571308 0)
(0.0117429 -0.00488566 0)
(0.0123986 -0.0039927 0)
(0.0129207 -0.00306088 0)
(0.0132967 -0.00212122 0)
(0.0135203 -0.00120653 0)
(0.0135958 -0.000346734 0)
(0.0135255 0.000440317 0)
(0.0133326 0.00114727 0)
(0.0130422 0.00177497 0)
(0.0126811 0.00233466 0)
(0.0122745 0.00284592 0)
(0.0118434 0.00333467 0)
(0.0114011 0.00383446 0)
(0.0109528 0.00440249 0)
(0.010494 0.00516906 0)
(0.0100084 0.0064091 0)
(0.00947142 0.00848044 0)
(0.00886556 0.0113448 0)
(0.00819968 0.0140097 0)
(0.00753628 0.0151991 0)
(0.0068988 0.0147341 0)
(0.00607821 0.013741 0)
(0.00503358 0.0143053 0)
(0.00351765 0.0137007 0)
(0.00171882 0.00896686 0)
(0.000617915 0.00158444 0)
(-0.00108966 -0.00202512 0)
(-0.00172332 -0.00474259 0)
(-0.00199196 -0.00739762 0)
(-0.00138795 -0.00903581 0)
(-0.00038463 -0.00581235 0)
(0.000894384 0.00844752 0)
(0.00158099 0.000354138 0)
(0.00153147 -0.00394249 0)
(-0.000657899 -0.00108299 0)
(-0.0036631 0.00409075 0)
(-0.00530771 0.00774536 0)
(-0.00675789 0.0107948 0)
(-0.0077054 0.0126559 0)
(-0.00791815 0.0125219 0)
(-0.00744468 0.00989195 0)
(-0.00670473 0.00557784 0)
(-0.00623494 0.00200777 0)
(-0.00613498 0.000394386 0)
(-0.00614661 -0.000255533 0)
(-0.00615482 -0.000670539 0)
(-0.00615228 -0.00100307 0)
(-0.00614731 -0.00125961 0)
(-0.00614891 -0.00143266 0)
(-0.0061661 -0.001518 0)
(-0.00620706 -0.00151632 0)
(-0.00627818 -0.00143349 0)
(-0.0063836 -0.00128028 0)
(-0.00652493 -0.00107125 0)
(-0.00670149 -0.000823145 0)
(-0.00691094 -0.000552996 0)
(-0.00715017 -0.00027595 0)
(-0.00741784 -3.13035e-06 0)
(-0.00771554 0.000257721 0)
(-0.0080304 0.000492055 0)
(-0.00835767 0.000692402 0)
(-0.0086952 0.000855699 0)
(-0.0090413 0.000980368 0)
(-0.00939362 0.00106536 0)
(-0.0097482 0.00110984 0)
(-0.0100985 0.00111284 0)
(-0.0104346 0.00107264 0)
(-0.0107439 0.000986122 0)
(-0.0110115 0.00084854 0)
(-0.0112222 0.000654084 0)
(-0.0113617 0.000397336 0)
(-0.0114162 7.39139e-05 0)
(-0.0113776 -0.000318827 0)
(-0.0112392 -0.000777758 0)
(-0.0110011 -0.00129515 0)
(-0.0106667 -0.00186127 0)
(-0.010242 -0.00246524 0)
(-0.00973475 -0.00309577 0)
(-0.00915356 -0.00374181 0)
(-0.00850707 -0.00439294 0)
(-0.00780375 -0.00503969 0)
(-0.00705155 -0.00567362 0)
(-0.00625787 -0.00628731 0)
(-0.00542952 -0.00687437 0)
(-0.0045728 -0.0074292 0)
(-0.00369369 -0.00794693 0)
(-0.0027982 -0.00842303 0)
(-0.00189378 -0.00885177 0)
(-0.000993441 -0.00921836 0)
(-4.53817e-05 -0.00950341 0)
(0.000923582 -0.00967351 0)
(0.00190089 -0.00974531 0)
(0.00289942 -0.00972868 0)
(0.00391354 -0.00961787 0)
(0.00493659 -0.00940548 0)
(0.00596166 -0.00908267 0)
(0.00697748 -0.00863968 0)
(0.00796835 -0.00806878 0)
(0.00891485 -0.00736845 0)
(0.00979536 -0.00654509 0)
(0.0105881 -0.00561418 0)
(0.0112725 -0.0045985 0)
(0.0118297 -0.00352756 0)
(0.0122436 -0.00243739 0)
(0.0125039 -0.00136811 0)
(0.0126108 -0.000358278 0)
(0.0125628 0.000565408 0)
(0.0123821 0.00138777 0)
(0.0120952 0.00210387 0)
(0.0117313 0.00272371 0)
(0.0113197 0.00326945 0)
(0.010886 0.00377287 0)
(0.010447 0.0042755 0)
(0.0100088 0.00484502 0)
(0.00956169 0.00562861 0)
(0.00907472 0.0069236 0)
(0.00849987 0.0090914 0)
(0.00781333 0.0120394 0)
(0.00708423 0.0146734 0)
(0.00648458 0.0157469 0)
(0.00605414 0.0153155 0)
(0.00541553 0.014602 0)
(0.00448003 0.0155635 0)
(0.00308116 0.0151554 0)
(0.00178107 0.0101605 0)
(0.000904817 0.00314199 0)
(-0.000770446 -0.00102562 0)
(-0.00142803 -0.00421163 0)
(-0.00180424 -0.00745824 0)
(-0.00121709 -0.00986583 0)
(-0.000449057 -0.0070123 0)
(0.000859511 0.00873586 0)
(0.0015516 -0.00112426 0)
(0.000210039 -0.00262878 0)
(-0.00240773 0.00207515 0)
(-0.00446038 0.00591372 0)
(-0.00595832 0.00921719 0)
(-0.00715608 0.0118283 0)
(-0.00781326 0.0130766 0)
(-0.00778985 0.0122735 0)
(-0.00718993 0.00920692 0)
(-0.00644091 0.00495973 0)
(-0.00602604 0.00176272 0)
(-0.00596448 0.000364135 0)
(-0.00599526 -0.000242231 0)
(-0.00602433 -0.00065803 0)
(-0.00605153 -0.000991215 0)
(-0.00608592 -0.00124075 0)
(-0.00613576 -0.00139833 0)
(-0.00620876 -0.00146031 0)
(-0.00631137 -0.00142881 0)
(-0.00644814 -0.00131178 0)
(-0.00662132 -0.00112238 0)
(-0.00683088 -0.000877565 0)
(-0.00707516 -0.000595883 0)
(-0.00735185 -0.000294676 0)
(-0.00766066 1.284e-05 0)
(-0.0080026 0.000316107 0)
(-0.00836244 0.000596017 0)
(-0.00873559 0.000843539 0)
(-0.00911979 0.00105472 0)
(-0.00951273 0.00122689 0)
(-0.00991091 0.00135755 0)
(-0.0103092 0.00144393 0)
(-0.0107002 0.0014828 0)
(-0.0110739 0.00147028 0)
(-0.0114177 0.00140183 0)
(-0.0117169 0.00127221 0)
(-0.0119564 0.00107589 0)
(-0.0121217 0.000807878 0)
(-0.0122006 0.00046479 0)
(-0.0121839 4.53278e-05 0)
(-0.0120658 -0.000448574 0)
(-0.011849 -0.00100751 0)
(-0.0115386 -0.00162032 0)
(-0.0111418 -0.00227493 0)
(-0.0106671 -0.00295911 0)
(-0.0101232 -0.00366105 0)
(-0.00951894 -0.00436971 0)
(-0.00886251 -0.00507504 0)
(-0.00816158 -0.00576811 0)
(-0.00742315 -0.00644111 0)
(-0.00665364 -0.00708726 0)
(-0.00585888 -0.00770066 0)
(-0.00504428 -0.00827616 0)
(-0.0042149 -0.00880911 0)
(-0.00337551 -0.00929502 0)
(-0.00253069 -0.00972889 0)
(-0.00168496 -0.0101034 0)
(-0.000843227 -0.0104019 0)
(4.7615e-05 -0.0106083 0)
(0.000954663 -0.0107041 0)
(0.00188147 -0.0107039 0)
(0.00283145 -0.0106083 0)
(0.00380031 -0.0104071 0)
(0.0047804 -0.0100867 0)
(0.00576129 -0.00963251 0)
(0.00672784 -0.00903255 0)
(0.00766104 -0.00828244 0)
(0.0085392 -0.00738707 0)
(0.00934032 -0.00636291 0)
(0.0100443 -0.00523375 0)
(0.0106315 -0.00403039 0)
(0.0110829 -0.00279238 0)
(0.0113838 -0.001567 0)
(0.0115303 -0.000402295 0)
(0.0115173 0.000665176 0)
(0.0113642 0.00161083 0)
(0.0110986 0.00242227 0)
(0.010751 0.00310683 0)
(0.0103528 0.00368841 0)
(0.00993135 0.00420481 0)
(0.00950539 0.00470711 0)
(0.00907979 0.00527757 0)
(0.00863878 0.00608804 0)
(0.00813565 0.00746783 0)
(0.00749913 0.00977918 0)
(0.00670217 0.0128299 0)
(0.0058901 0.0153443 0)
(0.00535628 0.0161654 0)
(0.00510001 0.0157285 0)
(0.00456471 0.0153436 0)
(0.00370723 0.0167441 0)
(0.00247261 0.0163053 0)
(0.00174115 0.0109088 0)
(0.00114966 0.00441281 0)
(-0.000315752 1.69235e-05 0)
(-0.00100499 -0.00363932 0)
(-0.00151328 -0.00740994 0)
(-0.000979821 -0.0105796 0)
(-0.000526327 -0.00806216 0)
(0.00083351 0.00898041 0)
(0.0011567 -0.00125967 0)
(-0.00128617 -0.000512235 0)
(-0.00319693 0.00409337 0)
(-0.0048743 0.00750377 0)
(-0.00622212 0.0104844 0)
(-0.00720707 0.0126286 0)
(-0.00764746 0.0132806 0)
(-0.00746979 0.0118901 0)
(-0.00681761 0.00850173 0)
(-0.006117 0.00439825 0)
(-0.0057889 0.00157181 0)
(-0.00578217 0.000365469 0)
(-0.00584443 -0.000203344 0)
(-0.00590523 -0.000615176 0)
(-0.0059706 -0.000941034 0)
(-0.00605057 -0.00117537 0)
(-0.00615295 -0.00131012 0)
(-0.00628431 -0.00134281 0)
(-0.0064496 -0.00127729 0)
(-0.00665169 -0.00112363 0)
(-0.00689137 -0.00089725 0)
(-0.00716781 -0.000616883 0)
(-0.00747976 -0.000301288 0)
(-0.00782772 3.43043e-05 0)
(-0.00821106 0.000375658 0)
(-0.00861252 0.000698568 0)
(-0.00902692 0.000991939 0)
(-0.00945217 0.00125055 0)
(-0.00988524 0.00147018 0)
(-0.010322 0.00164694 0)
(-0.0107565 0.00177651 0)
(-0.0111805 0.00185386 0)
(-0.0115836 0.00187334 0)
(-0.0119534 0.00182881 0)
(-0.012276 0.0017141 0)
(-0.0125373 0.00152339 0)
(-0.0127238 0.00125192 0)
(-0.0128239 0.000896825 0)
(-0.0128298 0.000457796 0)
(-0.0127376 -6.22325e-05 0)
(-0.0125455 -0.000654623 0)
(-0.012264 -0.0013059 0)
(-0.0119 -0.00200314 0)
(-0.0114623 -0.00273345 0)
(-0.0109599 -0.00348439 0)
(-0.0104014 -0.00424441 0)
(-0.0097947 -0.00500297 0)
(-0.00914708 -0.00575071 0)
(-0.00846505 -0.00647938 0)
(-0.00775446 -0.00718181 0)
(-0.00702062 -0.00785176 0)
(-0.00626846 -0.0084838 0)
(-0.00550257 -0.0090732 0)
(-0.00472717 -0.00961567 0)
(-0.00394606 -0.0101071 0)
(-0.00316228 -0.0105433 0)
(-0.00237772 -0.0109188 0)
(-0.0015927 -0.0112265 0)
(-0.000805529 -0.0114526 0)
(2.90946e-05 -0.0115851 0)
(0.000886117 -0.0116123 0)
(0.00176806 -0.0115381 0)
(0.00267436 -0.0113548 0)
(0.00359998 -0.0110453 0)
(0.00453429 -0.0105895 0)
(0.00546329 -0.00997074 0)
(0.00636912 -0.00918162 0)
(0.00723068 -0.00822494 0)
(0.00802629 -0.00711922 0)
(0.00873752 -0.00588891 0)
(0.00934588 -0.00456405 0)
(0.00983035 -0.0031852 0)
(0.0101713 -0.00180623 0)
(0.0103609 -0.000485807 0)