/*--------------------------------*- C++ -*----------------------------------*\
| =========                 |                                                 |
| \\      /  F ield         | OpenFOAM: The Open Source CFD Toolbox           |
|  \\    /   O peration     | Version:  4.1                                   |
|   \\  /    A nd           | Web:      www.OpenFOAM.org                      |
|    \\/     M anipulation  |                                                 |
\*---------------------------------------------------------------------------*/
FoamFile
{
    version     2.0;
    format      ascii;
    class       volScalarField;
    location    "1200";
    object      p_rgh;
}
// * * * * * * * * * * * * * * * * * * * * * * * * * * * * * * * * * * * * * //

dimensions      [0 2 -2 0 0 0 0];

internalField   nonuniform List<scalar> 
1600
(
0.0491713
0.0491856
0.0491846
0.0491847
0.0491852
0.0491858
0.0491874
0.0491915
0.0491999
0.0492146
0.0492366
0.0492649
0.0492933
0.0493093
0.049309
0.0492858
0.0492495
0.0492166
0.0491917
0.0491735
0.0491601
0.0491502
0.0491427
0.0491368
0.0491316
0.0491265
0.049121
0.0491143
0.0491052
0.0490951
0.0490817
0.0490995
0.0491493
0.0491787
0.0491961
0.0491705
0.0491532
0.0491361
0.0491215
0.0491097
0.049199
0.0492623
0.0492565
0.0492484
0.0492446
0.0492406
0.0492377
0.0492371
0.0492401
0.049248
0.0492634
0.0492856
0.0493088
0.049321
0.0493204
0.0493012
0.0492704
0.0492433
0.0492245
0.0492127
0.0492056
0.0492011
0.0491987
0.0491975
0.049197
0.0491967
0.0491962
0.0491948
0.0491877
0.0491833
0.0491273
0.0490971
0.0491774
0.049199
0.0492096
0.0491964
0.0491855
0.0491751
0.0491682
0.0491262
0.0492017
0.0492812
0.0492762
0.0492677
0.0492598
0.0492516
0.0492442
0.0492393
0.0492389
0.0492453
0.0492597
0.0492806
0.0493023
0.0493143
0.0493124
0.0492937
0.0492646
0.0492393
0.0492217
0.0492108
0.0492051
0.0492033
0.0492041
0.0492066
0.0492099
0.0492132
0.049216
0.0492177
0.0492163
0.0492153
0.0491561
0.0490848
0.0491518
0.0491947
0.0492038
0.0491924
0.0491815
0.0491723
0.0491668
0.049124
0.0491943
0.0492872
0.0492823
0.0492729
0.0492628
0.0492525
0.0492431
0.0492366
0.0492351
0.0492405
0.0492537
0.0492734
0.0492939
0.0493058
0.0493027
0.0492846
0.0492566
0.0492333
0.0492171
0.0492071
0.0492021
0.0492009
0.0492027
0.0492064
0.0492112
0.0492161
0.0492207
0.0492244
0.0492267
0.0492281
0.0491769
0.0490737
0.0491212
0.0491881
0.049199
0.0491881
0.0491759
0.0491673
0.0491633
0.0491164
0.0491839
0.0492901
0.0492847
0.049274
0.0492625
0.0492509
0.0492403
0.0492325
0.0492298
0.049234
0.049246
0.0492644
0.0492838
0.0492958
0.0492921
0.0492749
0.0492472
0.0492262
0.0492117
0.0492027
0.0491985
0.049198
0.0492004
0.0492048
0.0492102
0.049216
0.0492216
0.0492265
0.0492306
0.0492335
0.049194
0.0490684
0.0490945
0.0491733
0.0491975
0.0491847
0.0491702
0.0491611
0.049162
0.0491089
0.0491724
0.0492915
0.0492856
0.0492737
0.0492611
0.0492483
0.0492364
0.0492274
0.0492232
0.049226
0.0492365
0.0492537
0.0492724
0.0492846
0.0492814
0.0492651
0.0492373
0.0492185
0.0492056
0.0491978
0.0491945
0.0491947
0.0491978
0.0492027
0.0492088
0.0492152
0.0492215
0.0492272
0.0492322
0.049236
0.0492085
0.0490691
0.0490755
0.0491276
0.0492026
0.0491837
0.0491658
0.0491541
0.0491621
0.049104
0.04916
0.0492918
0.0492857
0.0492726
0.0492589
0.0492449
0.0492317
0.049221
0.0492153
0.0492163
0.0492254
0.0492414
0.0492598
0.0492725
0.0492708
0.0492555
0.0492274
0.0492105
0.0491992
0.0491925
0.0491901
0.0491912
0.049195
0.0492006
0.0492072
0.0492142
0.0492211
0.0492274
0.0492332
0.0492377
0.0492204
0.0490739
0.0490643
0.0491229
0.0492111
0.0491862
0.0491633
0.0491395
0.0491099
0.0491072
0.0491472
0.0492915
0.049285
0.0492709
0.0492561
0.0492408
0.0492261
0.0492137
0.049206
0.0492052
0.0492128
0.0492279
0.0492463
0.0492601
0.0492605
0.0492458
0.0492183
0.049203
0.0491929
0.0491871
0.0491854
0.0491873
0.049192
0.0491983
0.0492056
0.0492132
0.0492207
0.0492277
0.049234
0.0492393
0.0492296
0.0490811
0.0490567
0.0491214
0.0492212
0.0491931
0.0491682
0.0491411
0.0491097
0.0491165
0.0491342
0.0492905
0.0492838
0.0492687
0.0492529
0.0492361
0.0492197
0.0492052
0.0491955
0.0491928
0.0491989
0.0492134
0.0492321
0.0492475
0.0492505
0.0492367
0.0492106
0.0491963
0.0491871
0.0491818
0.0491806
0.0491832
0.0491887
0.049196
0.0492041
0.0492124
0.0492204
0.049228
0.049235
0.0492411
0.0492365
0.0490891
0.0490495
0.0491192
0.0492314
0.0492049
0.0491828
0.049159
0.0491326
0.0491299
0.0491211
0.0492891
0.0492821
0.0492661
0.0492491
0.0492309
0.0492126
0.049196
0.049184
0.0491793
0.0491841
0.0491983
0.0492177
0.0492349
0.0492408
0.0492284
0.0492042
0.0491905
0.0491822
0.0491769
0.0491757
0.0491789
0.0491852
0.0491935
0.0492025
0.0492116
0.0492203
0.0492286
0.0492364
0.0492432
0.0492417
0.0490972
0.0490417
0.0491153
0.0492406
0.0492204
0.0492049
0.0491906
0.0491757
0.0491482
0.0491082
0.0492873
0.0492801
0.0492632
0.0492451
0.0492253
0.049205
0.049186
0.0491717
0.049165
0.0491688
0.0491829
0.0492034
0.0492227
0.0492317
0.0492212
0.0491982
0.0491857
0.0491785
0.049173
0.0491712
0.0491744
0.0491815
0.0491907
0.0492008
0.0492108
0.0492204
0.0492295
0.0492381
0.0492458
0.0492461
0.049105
0.049033
0.0491085
0.0492504
0.0492363
0.0492286
0.0492299
0.0492467
0.0492562
0.0490954
0.0492855
0.0492779
0.0492601
0.0492409
0.0492195
0.0491971
0.0491757
0.0491589
0.0491504
0.0491535
0.0491679
0.0491895
0.049211
0.0492231
0.0492152
0.0491923
0.0491816
0.049176
0.0491703
0.0491674
0.04917
0.0491775
0.0491878
0.049199
0.0492101
0.0492207
0.0492307
0.0492402
0.0492489
0.0492504
0.0491124
0.0490236
0.0490977
0.049255
0.0492434
0.0492364
0.0492449
0.0492777
0.0493137
0.049083
0.0492837
0.0492758
0.0492572
0.0492368
0.0492138
0.0491893
0.0491654
0.0491461
0.0491359
0.0491388
0.0491537
0.0491764
0.0492
0.0492154
0.04921
0.0491866
0.0491781
0.0491745
0.0491692
0.0491648
0.049166
0.0491734
0.0491845
0.049197
0.0492094
0.0492211
0.0492321
0.0492427
0.0492525
0.049255
0.0491196
0.049014
0.0490847
0.0492501
0.0492359
0.0492287
0.0492375
0.0492688
0.0493006
0.0490709
0.049282
0.0492738
0.0492545
0.0492331
0.0492084
0.0491819
0.0491556
0.0491338
0.0491221
0.0491253
0.049141
0.0491644
0.0491898
0.0492084
0.0492055
0.0491813
0.0491748
0.0491737
0.0491696
0.0491638
0.0491628
0.0491694
0.0491811
0.0491948
0.0492086
0.0492216
0.0492339
0.0492456
0.0492566
0.04926
0.0491265
0.0490046
0.049071
0.0492427
0.049227
0.0492191
0.0492277
0.049257
0.0492857
0.0490592
0.0492805
0.0492721
0.0492522
0.0492298
0.0492037
0.0491754
0.0491466
0.0491224
0.0491097
0.0491139
0.0491302
0.049154
0.0491805
0.0492021
0.0492017
0.0491764
0.0491713
0.0491731
0.0491713
0.0491648
0.049161
0.049166
0.0491777
0.0491925
0.0492077
0.0492222
0.0492359
0.049249
0.0492612
0.0492656
0.0491334
0.0489957
0.049057
0.0492343
0.0492172
0.0492084
0.0492164
0.0492437
0.0492701
0.0490479
0.0492795
0.0492709
0.0492505
0.0492274
0.0492001
0.04917
0.049139
0.0491124
0.0490992
0.0491052
0.0491218
0.0491453
0.0491724
0.0491966
0.0491986
0.0491718
0.0491676
0.0491723
0.0491737
0.0491677
0.0491611
0.0491635
0.0491745
0.0491901
0.0492068
0.0492229
0.0492382
0.0492528
0.0492662
0.0492715
0.0491405
0.0489875
0.0490432
0.0492256
0.0492068
0.0491966
0.0492042
0.04923
0.0492547
0.0490372
0.0492788
0.0492702
0.0492496
0.0492259
0.0491977
0.0491664
0.0491334
0.0491044
0.0490916
0.0490998
0.0491162
0.0491386
0.0491653
0.0491917
0.0491961
0.0491674
0.0491638
0.0491712
0.0491763
0.0491724
0.0491634
0.0491623
0.0491719
0.0491879
0.0492059
0.0492237
0.0492407
0.0492569
0.0492716
0.0492779
0.0491478
0.0489801
0.0490295
0.0492173
0.0491964
0.0491842
0.0491918
0.0492162
0.0492397
0.049027
0.0492787
0.0492702
0.0492496
0.0492256
0.0491969
0.0491648
0.0491302
0.0490981
0.0490878
0.0490981
0.0491136
0.0491339
0.0491594
0.0491876
0.0491943
0.0491632
0.04916
0.0491696
0.0491787
0.0491784
0.0491681
0.049163
0.0491703
0.0491861
0.0492051
0.0492246
0.0492434
0.0492613
0.0492774
0.0492846
0.0491555
0.0489735
0.0490163
0.0492096
0.0491867
0.0491725
0.0491797
0.0492028
0.0492255
0.0490174
0.049279
0.0492708
0.0492504
0.0492266
0.0491977
0.0491655
0.0491299
0.0490924
0.0490888
0.0490999
0.0491139
0.0491313
0.0491546
0.0491841
0.0491932
0.0491594
0.0491562
0.0491676
0.0491806
0.049185
0.0491752
0.0491657
0.04917
0.0491849
0.0492048
0.0492258
0.0492464
0.049266
0.0492835
0.0492915
0.0491636
0.0489679
0.0490037
0.0492028
0.0491776
0.0491612
0.0491683
0.04919
0.0492123
0.0490082
0.0492799
0.0492721
0.0492521
0.0492288
0.0492004
0.0491679
0.0491303
0.0490938
0.0490942
0.049105
0.0491169
0.0491308
0.0491508
0.0491811
0.0491928
0.049156
0.0491526
0.0491652
0.0491818
0.0491916
0.0491846
0.0491707
0.0491714
0.049185
0.0492051
0.0492274
0.0492497
0.049271
0.0492899
0.0492987
0.0491721
0.0489631
0.0489918
0.0491971
0.0491694
0.0491504
0.0491582
0.049178
0.0492002
0.0489995
0.0492812
0.0492741
0.0492548
0.0492323
0.0492041
0.0491713
0.049134
0.0491041
0.0491031
0.0491124
0.0491224
0.0491325
0.0491482
0.0491786
0.0491932
0.049153
0.0491491
0.0491628
0.0491823
0.0491976
0.0491959
0.0491783
0.049175
0.0491866
0.0492067
0.04923
0.0492537
0.0492766
0.0492967
0.049306
0.049181
0.0489592
0.0489808
0.0491925
0.0491623
0.0491401
0.0491496
0.0491671
0.0491894
0.0489913
0.0492829
0.0492766
0.0492582
0.0492366
0.0492084
0.0491764
0.0491403
0.0491159
0.049114
0.0491215
0.0491291
0.0491359
0.0491465
0.0491765
0.0491944
0.0491507
0.0491459
0.0491603
0.0491821
0.0492026
0.0492082
0.0491888
0.0491812
0.0491904
0.0492101
0.049234
0.049259
0.0492831
0.049304
0.0493136
0.0491903
0.0489561
0.0489709
0.049189
0.0491563
0.0491308
0.0491426
0.0491574
0.0491798
0.0489834
0.0492849
0.0492797
0.0492623
0.0492413
0.0492139
0.0491833
0.049149
0.0491283
0.0491263
0.0491317
0.0491366
0.0491403
0.049146
0.0491748
0.0491964
0.0491491
0.0491429
0.049158
0.0491813
0.0492064
0.0492202
0.0492044
0.049191
0.0491973
0.0492162
0.0492404
0.0492662
0.049291
0.0493121
0.0493215
0.0491996
0.0489535
0.0489622
0.0491864
0.0491514
0.0491231
0.0491374
0.049149
0.0491714
0.048976
0.0492873
0.0492833
0.0492669
0.0492465
0.0492206
0.0491916
0.0491597
0.0491419
0.0491395
0.0491428
0.0491447
0.049145
0.0491466
0.0491733
0.0491993
0.0491485
0.0491403
0.0491558
0.0491805
0.0492086
0.0492304
0.0492246
0.0492045
0.049208
0.049226
0.0492503
0.0492762
0.049301
0.0493216
0.0493297
0.0492088
0.0489512
0.0489549
0.0491848
0.0491477
0.0491176
0.0491335
0.0491418
0.0491642
0.0489688
0.0492899
0.0492873
0.0492717
0.0492524
0.0492283
0.0492009
0.0491718
0.0491563
0.0491534
0.0491542
0.0491531
0.0491498
0.049148
0.0491721
0.0492032
0.0491489
0.0491383
0.0491535
0.0491795
0.0492103
0.0492375
0.0492459
0.0492216
0.0492233
0.049241
0.0492651
0.0492903
0.0493138
0.0493325
0.0493384
0.0492176
0.0489489
0.0489488
0.0491844
0.0491448
0.049114
0.0491306
0.0491357
0.0491583
0.048962
0.0492926
0.0492916
0.0492767
0.0492589
0.0492367
0.049211
0.0491848
0.0491712
0.0491675
0.0491657
0.0491614
0.0491546
0.0491498
0.0491712
0.0492082
0.0491506
0.0491368
0.0491513
0.0491779
0.0492111
0.049243
0.0492631
0.0492431
0.0492444
0.0492625
0.0492859
0.0493093
0.0493299
0.0493452
0.0493474
0.0492255
0.0489465
0.0489441
0.0491843
0.0491426
0.0491125
0.0491282
0.0491309
0.0491534
0.0489555
0.0492953
0.0492963
0.0492818
0.049266
0.0492458
0.0492217
0.0491985
0.0491864
0.0491817
0.0491771
0.0491694
0.0491591
0.0491517
0.0491707
0.0492144
0.0491538
0.0491361
0.0491492
0.0491756
0.0492105
0.0492467
0.049274
0.0492706
0.0492713
0.0492908
0.0493128
0.0493328
0.0493488
0.0493592
0.0493565
0.049232
0.0489437
0.048941
0.0491844
0.0491408
0.0491129
0.0491268
0.0491268
0.0491497
0.0489495
0.049298
0.0493011
0.0492874
0.0492734
0.0492552
0.0492331
0.0492128
0.049202
0.0491957
0.0491881
0.0491769
0.0491631
0.0491535
0.0491707
0.0492218
0.0491587
0.0491363
0.0491471
0.0491725
0.0492082
0.0492478
0.0492828
0.0492981
0.0493013
0.0493235
0.0493429
0.0493581
0.0493686
0.0493735
0.0493651
0.0492364
0.0489407
0.0489395
0.0491847
0.0491395
0.0491146
0.0491261
0.0491232
0.0491471
0.0489443
0.0493006
0.0493061
0.0492931
0.0492811
0.0492649
0.0492451
0.0492277
0.0492175
0.0492092
0.0491984
0.0491834
0.0491663
0.0491551
0.0491714
0.0492306
0.0491656
0.0491374
0.0491451
0.0491683
0.0492036
0.0492454
0.0492873
0.0493194
0.0493295
0.0493542
0.0493708
0.0493816
0.049387
0.0493865
0.0493723
0.049232
0.0489397
0.0489399
0.0491851
0.0491386
0.0491173
0.0491257
0.0491201
0.0491457
0.0489403
0.0493029
0.0493111
0.0492991
0.0492888
0.0492746
0.0492575
0.0492428
0.0492325
0.0492218
0.0492073
0.0491884
0.0491683
0.0491563
0.0491728
0.0492407
0.0491748
0.0491397
0.0491431
0.0491629
0.0491962
0.0492385
0.0492844
0.0493268
0.0493528
0.0493754
0.0493905
0.0493992
0.0494013
0.0493966
0.049369
0.0492194
0.0489416
0.0489425
0.049186
0.049138
0.0491217
0.0491255
0.0491174
0.0491454
0.0489389
0.0493
0.049316
0.0493051
0.0492963
0.049284
0.0492698
0.0492573
0.0492462
0.0492324
0.0492137
0.0491908
0.0491685
0.0491569
0.049175
0.049252
0.0491865
0.0491432
0.049141
0.0491559
0.0491855
0.049226
0.0492731
0.0493212
0.049361
0.0493844
0.0493988
0.0494065
0.0494069
0.0493958
0.049349
0.0492023
0.0489474
0.0489475
0.0491872
0.049138
0.049127
0.0491251
0.049115
0.0491464
0.0489421
0.0492872
0.0493192
0.0493107
0.0493031
0.0492927
0.049281
0.0492699
0.0492572
0.0492394
0.0492159
0.0491894
0.0491662
0.0491566
0.0491784
0.0492641
0.0492011
0.0491481
0.049139
0.0491473
0.049171
0.049207
0.0492518
0.0493008
0.0493473
0.0493761
0.0493908
0.0493973
0.0493943
0.0493742
0.049316
0.0491827
0.0489579
0.0489551
0.0491888
0.0491398
0.0491308
0.0491242
0.0491132
0.049149
0.0489515
0.0492646
0.0493159
0.0493132
0.0493073
0.0492988
0.0492892
0.0492783
0.049262
0.049239
0.0492109
0.0491823
0.0491604
0.049155
0.049182
0.0492772
0.0492189
0.0491546
0.0491371
0.049137
0.0491526
0.049181
0.0492195
0.0492641
0.0493085
0.0493434
0.0493587
0.0493632
0.049356
0.0493308
0.0492743
0.0491633
0.048974
0.0489658
0.0491905
0.0491441
0.0491336
0.0491227
0.0491118
0.0491536
0.0489689
0.049234
0.0492974
0.0493038
0.0493015
0.0492955
0.0492874
0.0492745
0.0492529
0.0492252
0.0491949
0.0491673
0.0491499
0.0491513
0.0491853
0.0492913
0.0492402
0.0491629
0.0491357
0.0491255
0.0491306
0.0491487
0.0491771
0.0492126
0.04925
0.049283
0.0492986
0.0493019
0.0492939
0.0492716
0.0492281
0.0491462
0.0489963
0.0489806
0.0491906
0.0491502
0.0491358
0.04912
0.049111
0.0491605
0.0489953
0.0491989
0.049257
0.0492688
0.0492706
0.0492674
0.04926
0.049243
0.0492191
0.0491914
0.049164
0.0491425
0.0491338
0.0491451
0.0491881
0.0493056
0.0492654
0.0491735
0.0491352
0.0491135
0.0491063
0.0491116
0.0491272
0.0491502
0.0491763
0.0492007
0.0492175
0.0492217
0.0492173
0.0492046
0.0491814
0.0491332
0.0490248
0.049002
0.0491787
0.0491535
0.0491342
0.049115
0.0491106
0.0491702
0.0490312
0.0491636
0.049197
0.0492034
0.0492048
0.0492022
0.0491936
0.0491765
0.0491563
0.0491353
0.0491174
0.0491078
0.0491122
0.0491366
0.0491905
0.0493197
0.0492952
0.0491871
0.049137
0.0491027
0.0490818
0.0490729
0.0490745
0.0490843
0.0490989
0.0491146
0.0491282
0.0491345
0.0491363
0.0491367
0.0491371
0.0491249
0.0490588
0.0490311
0.0491565
0.0491447
0.049123
0.0491057
0.0491106
0.0491831
0.0490755
0.0491317
0.0491259
0.0491168
0.0491124
0.0491072
0.0490965
0.0490845
0.0490726
0.0490632
0.0490597
0.0490664
0.0490876
0.0491274
0.0491938
0.0493334
0.0493314
0.0492055
0.0491431
0.0490957
0.0490603
0.0490364
0.0490236
0.0490204
0.0490241
0.049032
0.0490418
0.0490501
0.0490586
0.0490727
0.0490972
0.0491211
0.0490968
0.0490678
0.0491288
0.0491166
0.0490976
0.0490907
0.0491109
0.0491991
0.0491256
0.0491064
0.0490542
0.0490245
0.0490119
0.0490037
0.0489943
0.0489876
0.0489853
0.0489892
0.0490022
0.0490271
0.0490665
0.0491226
0.0492019
0.04935
0.0493792
0.0492322
0.0491578
0.0490976
0.0490476
0.0490086
0.0489812
0.0489651
0.0489585
0.0489592
0.0489654
0.0489754
0.0489898
0.0490161
0.0490629
0.049121
0.0491364
0.0491102
0.0491036
0.0490754
0.0490618
0.0490718
0.0491126
0.0492177
0.049176
0.0490901
0.0489909
0.04894
0.0489198
0.0489093
0.048905
0.0489068
0.0489161
0.0489347
0.0489645
0.0490071
0.0490635
0.0491342
0.0492255
0.049383
0.0494544
0.0492764
0.0491904
0.0491191
0.0490562
0.0490028
0.0489608
0.0489309
0.0489126
0.0489045
0.0489051
0.0489142
0.0489328
0.0489686
0.0490342
0.0491228
0.0491741
0.0491543
0.0490885
0.0490363
0.0490294
0.0490592
0.0491212
0.0492394
0.0492353
0.0491151
0.0489862
0.0489262
0.0489098
0.0489085
0.0489139
0.0489259
0.0489454
0.0489736
0.0490119
0.0490617
0.0491239
0.0492001
0.049301
0.0494827
0.0496242
0.0493724
0.049271
0.0491957
0.0491296
0.0490719
0.0490241
0.0489868
0.04896
0.0489426
0.0489338
0.0489338
0.0489454
0.0489793
0.049051
0.049156
0.0492274
0.0492139
0.0491243
0.0490648
0.0490646
0.0491028
0.0491674
0.0492786
)
;

boundaryField
{
    floor
    {
        type            fixedFluxPressure;
        gradient        uniform 0;
        value           nonuniform List<scalar> 
40
(
0.0491713
0.0491856
0.0491846
0.0491847
0.0491852
0.0491858
0.0491874
0.0491915
0.0491999
0.0492146
0.0492366
0.0492649
0.0492933
0.0493093
0.049309
0.0492858
0.0492495
0.0492166
0.0491917
0.0491735
0.0491601
0.0491502
0.0491427
0.0491368
0.0491316
0.0491265
0.049121
0.0491143
0.0491052
0.0490951
0.0490817
0.0490995
0.0491493
0.0491787
0.0491961
0.0491705
0.0491532
0.0491361
0.0491215
0.0491097
)
;
    }
    ceiling
    {
        type            fixedFluxPressure;
        gradient        nonuniform List<scalar> 
40
(
0.754366
0.750951
0.748773
0.746982
0.745341
0.74367
0.741847
0.739782
0.737366
0.734454
0.730835
0.726186
0.719956
0.71101
0.696017
0.662628
0.634686
0.68366
0.69915
0.707362
0.712877
0.717008
0.720346
0.723205
0.72577
0.728159
0.730454
0.732723
0.73502
0.737413
0.740072
0.743255
0.747449
0.753012
0.74828
0.744351
0.740353
0.735767
0.729463
0.716582
)
;
        value           nonuniform List<scalar> 
40
(
0.0530071
0.0528699
0.05273
0.0526611
0.0526365
0.0526269
0.0526231
0.0526248
0.0526322
0.0526458
0.0526661
0.0526926
0.0527237
0.0527552
0.0527811
0.0527958
0.0527977
0.0527907
0.0527667
0.0527325
0.052694
0.052657
0.0526258
0.0526029
0.0525888
0.0525834
0.052586
0.0525974
0.0526205
0.0526664
0.0527513
0.0528723
0.0529646
0.0529789
0.0528657
0.0527866
0.0527664
0.0527817
0.0528147
0.0528615
)
;
    }
    fixedWalls
    {
        type            fixedFluxPressure;
        gradient        uniform 0;
        value           nonuniform List<scalar> 
80
(
0.0491713
0.049199
0.0492017
0.0491943
0.0491839
0.0491724
0.04916
0.0491472
0.0491342
0.0491211
0.0491082
0.0490954
0.049083
0.0490709
0.0490592
0.0490479
0.0490372
0.049027
0.0490174
0.0490082
0.0489995
0.0489913
0.0489834
0.048976
0.0489688
0.048962
0.0489555
0.0489495
0.0489443
0.0489403
0.0489389
0.0489421
0.0489515
0.0489689
0.0489953
0.0490312
0.0490755
0.0491256
0.049176
0.0492353
0.0491097
0.0491262
0.049124
0.0491164
0.0491089
0.049104
0.0491072
0.0491165
0.0491299
0.0491482
0.0492562
0.0493137
0.0493006
0.0492857
0.0492701
0.0492547
0.0492397
0.0492255
0.0492123
0.0492002
0.0491894
0.0491798
0.0491714
0.0491642
0.0491583
0.0491534
0.0491497
0.0491471
0.0491457
0.0491454
0.0491464
0.049149
0.0491536
0.0491605
0.0491702
0.0491831
0.0491991
0.0492177
0.0492394
0.0492786
)
;
    }
    frontAndBack
    {
        type            empty;
    }
}


// ************************************************************************* //
