/*--------------------------------*- C++ -*----------------------------------*\
| =========                 |                                                 |
| \\      /  F ield         | OpenFOAM: The Open Source CFD Toolbox           |
|  \\    /   O peration     | Version:  4.1                                   |
|   \\  /    A nd           | Web:      www.OpenFOAM.org                      |
|    \\/     M anipulation  |                                                 |
\*---------------------------------------------------------------------------*/
FoamFile
{
    version     2.0;
    format      ascii;
    class       surfaceScalarField;
    location    "1200";
    object      phi;
}
// * * * * * * * * * * * * * * * * * * * * * * * * * * * * * * * * * * * * * //

dimensions      [0 3 -1 0 0 0 0];

internalField   nonuniform List<scalar> 
9850
(
-4.32221e-06
4.32221e-06
-6.86324e-06
2.54103e-06
-8.5075e-06
1.64425e-06
-9.75302e-06
1.24552e-06
-1.07766e-05
1.02356e-06
-1.16443e-05
8.67683e-07
-1.23839e-05
7.39632e-07
-1.30082e-05
6.24344e-07
-1.35232e-05
5.15009e-07
-1.39314e-05
4.08164e-07
-1.42332e-05
3.01804e-07
-1.44277e-05
1.94504e-07
-1.45123e-05
8.46231e-08
-1.44817e-05
-3.06703e-08
-1.43306e-05
-1.51114e-07
-1.40537e-05
-2.76823e-07
-1.36486e-05
-4.05098e-07
-1.31147e-05
-5.33937e-07
-1.24537e-05
-6.60987e-07
-1.16702e-05
-7.83541e-07
-1.07714e-05
-8.98752e-07
-9.76751e-06
-1.0039e-06
-8.6709e-06
-1.09661e-06
-7.49609e-06
-1.17482e-06
-6.25952e-06
-1.23657e-06
-4.97982e-06
-1.2797e-06
-3.67717e-06
-1.30265e-06
-2.36773e-06
-1.30943e-06
-1.04782e-06
-1.31992e-06
3.49013e-07
-1.39683e-06
1.80539e-06
-1.45638e-06
3.20429e-06
-1.3989e-06
4.50458e-06
-1.3003e-06
5.72047e-06
-1.21588e-06
6.87067e-06
-1.15021e-06
7.96736e-06
-1.09668e-06
9.01735e-06
-1.04999e-06
1.00247e-05
-1.00738e-06
1.09919e-05
-9.67164e-07
1.19199e-05
-9.28056e-07
1.2809e-05
-8.89016e-07
1.36582e-05
-8.49262e-07
1.44665e-05
-8.08239e-07
1.5232e-05
-7.65587e-07
1.59531e-05
-7.21098e-07
1.66278e-05
-6.74687e-07
1.72542e-05
-6.26363e-07
1.78304e-05
-5.76205e-07
1.83548e-05
-5.2435e-07
1.88257e-05
-4.70976e-07
1.9242e-05
-4.16292e-07
1.96026e-05
-3.60542e-07
1.99066e-05
-3.03999e-07
2.01535e-05
-2.46981e-07
2.03434e-05
-1.89878e-07
2.04766e-05
-1.33222e-07
2.05545e-05
-7.78787e-08
2.058e-05
-2.54938e-08
2.05568e-05
2.32543e-08
2.04877e-05
6.90546e-08
2.03752e-05
1.12502e-07
2.02216e-05
1.53579e-07
2.00294e-05
1.9218e-07
1.98012e-05
2.28263e-07
1.95394e-05
2.61758e-07
1.92469e-05
2.92575e-07
1.89262e-05
3.20622e-07
1.85804e-05
3.45812e-07
1.82123e-05
3.68077e-07
1.7825e-05
3.87362e-07
1.74213e-05
4.0364e-07
1.70044e-05
4.16907e-07
1.65772e-05
4.2719e-07
1.61427e-05
4.34553e-07
1.57036e-05
4.39094e-07
1.52626e-05
4.40949e-07
1.48224e-05
4.40289e-07
1.4385e-05
4.37312e-07
1.39528e-05
4.32237e-07
1.35275e-05
4.2529e-07
1.31108e-05
4.16698e-07
1.27041e-05
4.0667e-07
1.23087e-05
3.95399e-07
1.19257e-05
3.83048e-07
1.1556e-05
3.69744e-07
1.12004e-05
3.55529e-07
1.08603e-05
3.4017e-07
1.05377e-05
3.22527e-07
1.02383e-05
2.99434e-07
9.97091e-06
2.67387e-07
9.72819e-06
2.42723e-07
9.3958e-06
3.32386e-07
8.52968e-06
8.66118e-07
6.22972e-06
2.29996e-06
2.17508e-06
4.05464e-06
-1.11264e-06
3.28773e-06
-2.27433e-06
1.16168e-06
-7.62958e-07
-1.51137e-06
1.74033e-06
-2.50329e-06
1.74033e-06
-4.02712e-06
8.34933e-06
-6.78691e-06
5.30083e-06
-8.68135e-06
3.53869e-06
-1.00952e-05
2.65936e-06
-1.12153e-05
2.14369e-06
-1.21281e-05
1.7805e-06
-1.28755e-05
1.48697e-06
-1.3479e-05
1.2279e-06
-1.39509e-05
9.86873e-07
-1.42982e-05
7.55454e-07
-1.4525e-05
5.28596e-07
-1.46331e-05
3.0263e-07
-1.4623e-05
7.45701e-08
-1.44972e-05
-1.56531e-07
-1.42547e-05
-3.93637e-07
-1.38923e-05
-6.39157e-07
-1.34067e-05
-8.90729e-07
-1.27958e-05
-1.1448e-06
-1.20602e-05
-1.39659e-06
-1.12033e-05
-1.64042e-06
-1.02318e-05
-1.87027e-06
-9.15526e-06
-2.08047e-06
-7.98574e-06
-2.26613e-06
-6.73727e-06
-2.42328e-06
-5.42567e-06
-2.54818e-06
-4.06877e-06
-2.6366e-06
-2.68439e-06
-2.68703e-06
-1.27489e-06
-2.71894e-06
1.99772e-07
-2.79458e-06
1.64008e-06
-2.83713e-06
2.94581e-06
-2.76211e-06
4.18775e-06
-2.64084e-06
5.40017e-06
-2.51271e-06
6.57858e-06
-2.3943e-06
7.71952e-06
-2.29115e-06
8.82349e-06
-2.20066e-06
9.89197e-06
-2.11846e-06
1.09259e-05
-2.04127e-06
1.19254e-05
-1.96672e-06
1.28904e-05
-1.89299e-06
1.38199e-05
-1.8186e-06
1.47131e-05
-1.74242e-06
1.55685e-05
-1.66363e-06
1.63846e-05
-1.58172e-06
1.71599e-05
-1.49641e-06
1.78929e-05
-1.40764e-06
1.8582e-05
-1.31549e-06
1.9226e-05
-1.22016e-06
1.98236e-05
-1.12196e-06
2.03738e-05
-1.02123e-06
2.0876e-05
-9.18405e-07
2.13293e-05
-8.1392e-07
2.17336e-05
-7.08267e-07
2.20886e-05
-6.01977e-07
2.23944e-05
-4.95647e-07
2.26511e-05
-3.89959e-07
2.28589e-05
-2.85705e-07
2.30171e-05
-1.8362e-07
2.31243e-05
-8.40183e-08
2.31814e-05
1.19707e-08
2.31903e-05
1.03603e-07
2.31534e-05
1.90456e-07
2.30732e-05
2.72366e-07
2.29524e-05
3.49126e-07
2.27936e-05
4.20499e-07
2.26e-05
4.86251e-07
2.23744e-05
5.46174e-07
2.21201e-05
6.00119e-07
2.18402e-05
6.48001e-07
2.15377e-05
6.89806e-07
2.12158e-05
7.25596e-07
2.08772e-05
7.5551e-07
2.05246e-05
7.79766e-07
2.01605e-05
7.98654e-07
1.97871e-05
8.12537e-07
1.94062e-05
8.21838e-07
1.90194e-05
8.27027e-07
1.86281e-05
8.28602e-07
1.82333e-05
8.27071e-07
1.78357e-05
8.22926e-07
1.74357e-05
8.16625e-07
1.70338e-05
8.08578e-07
1.66301e-05
7.99137e-07
1.62245e-05
7.88605e-07
1.5817e-05
7.77248e-07
1.54073e-05
7.653e-07
1.49945e-05
7.52936e-07
1.45768e-05
7.40261e-07
1.4148e-05
7.28164e-07
1.36907e-05
7.247e-07
1.31604e-05
7.73007e-07
1.24632e-05
1.02967e-06
1.14607e-05
1.86854e-06
1.00938e-05
3.66689e-06
8.40385e-06
5.7446e-06
5.42379e-06
6.26779e-06
1.86585e-06
4.71962e-06
-3.69987e-07
7.24467e-07
2.99067e-07
-3.17234e-06
2.0394e-06
-3.34109e-06
1.16904e-05
-5.78511e-06
7.74485e-06
-7.5636e-06
5.31718e-06
-8.94219e-06
4.03794e-06
-1.00563e-05
3.25778e-06
-1.09726e-05
2.69679e-06
-1.1726e-05
2.24043e-06
-1.23371e-05
1.83897e-06
-1.2819e-05
1.46877e-06
-1.31807e-05
1.11715e-06
-1.3428e-05
7.75894e-07
-1.3564e-05
4.3864e-07
-1.3589e-05
9.95791e-08
-1.35013e-05
-2.44289e-07
-1.32952e-05
-5.99656e-07
-1.2966e-05
-9.68376e-07
-1.25086e-05
-1.34817e-06
-1.19195e-05
-1.73385e-06
-1.11983e-05
-2.11778e-06
-1.03481e-05
-2.49064e-06
-9.37581e-06
-2.84258e-06
-8.29197e-06
-3.1643e-06
-7.11008e-06
-3.44803e-06
-5.84582e-06
-3.68753e-06
-4.51705e-06
-3.87695e-06
-3.14394e-06
-4.00971e-06
-1.74297e-06
-4.088e-06
-3.09355e-07
-4.15255e-06
1.08332e-06
-4.18725e-06
2.36121e-06
-4.11503e-06
3.57032e-06
-3.97122e-06
4.7458e-06
-3.81632e-06
5.89636e-06
-3.66327e-06
7.02074e-06
-3.51867e-06
8.11549e-06
-3.3859e-06
9.17892e-06
-3.26409e-06
1.02107e-05
-3.15025e-06
1.12107e-05
-3.04127e-06
1.21785e-05
-2.93455e-06
1.31135e-05
-2.82793e-06
1.40145e-05
-2.71966e-06
1.48805e-05
-2.60836e-06
1.57099e-05
-2.49308e-06
1.65014e-05
-2.37323e-06
1.72536e-05
-2.24854e-06
1.79649e-05
-2.11903e-06
1.86344e-05
-1.9849e-06
1.92608e-05
-1.84655e-06
1.98432e-05
-1.70445e-06
2.03812e-05
-1.55918e-06
2.08741e-05
-1.41134e-06
2.13218e-05
-1.26158e-06
2.17241e-05
-1.11058e-06
2.20811e-05
-9.59014e-07
2.23931e-05
-8.07615e-07
2.26603e-05
-6.57138e-07
2.28829e-05
-5.08367e-07
2.30614e-05
-3.62054e-07
2.31962e-05
-2.1882e-07
2.32875e-05
-7.93046e-08
2.33356e-05
5.54803e-08
2.33418e-05
1.8419e-07
2.33079e-05
3.06327e-07
2.32355e-05
4.21467e-07
2.31269e-05
5.29192e-07
2.2984e-05
6.29087e-07
2.28094e-05
7.20792e-07
2.26055e-05
8.04054e-07
2.23747e-05
8.78737e-07
2.21197e-05
9.44835e-07
2.18428e-05
1.00247e-06
2.15464e-05
1.05192e-06
2.12326e-05
1.09354e-06
2.09034e-05
1.12787e-06
2.05605e-05
1.1555e-06
2.02052e-05
1.17712e-06
1.98387e-05
1.1935e-06
1.94619e-05
1.2054e-06
1.90754e-05
1.21361e-06
1.86794e-05
1.21887e-06
1.82742e-05
1.22186e-06
1.78596e-05
1.2232e-06
1.74353e-05
1.22342e-06
1.70009e-05
1.22304e-06
1.65555e-05
1.22258e-06
1.6098e-05
1.22278e-06
1.56262e-05
1.2248e-06
1.51355e-05
1.23095e-06
1.46171e-05
1.2466e-06
1.40547e-05
1.287e-06
1.34283e-05
1.39949e-06
1.27331e-05
1.72483e-06
1.20058e-05
2.5958e-06
1.12632e-05
4.40957e-06
1.02867e-05
6.72102e-06
8.57737e-06
7.97716e-06
6.06378e-06
7.23321e-06
2.41616e-06
4.37209e-06
4.69982e-08
-8.03182e-07
2.0864e-06
-2.80451e-06
1.44949e-05
-4.89657e-06
9.83692e-06
-6.49537e-06
6.91598e-06
-7.80379e-06
5.34636e-06
-8.90548e-06
4.35948e-06
-9.83665e-06
3.62796e-06
-1.06173e-05
3.02104e-06
-1.12616e-05
2.4833e-06
-1.17811e-05
1.98829e-06
-1.21848e-05
1.52085e-06
-1.24787e-05
1.06982e-06
-1.26655e-05
6.2544e-07
-1.27445e-05
1.78511e-07
-1.27101e-05
-2.78618e-07
-1.25558e-05
-7.53999e-07
-1.2273e-05
-1.25115e-06
-1.18542e-05
-1.76704e-06
-1.12939e-05
-2.29416e-06
-1.05905e-05
-2.82116e-06
-9.74695e-06
-3.33417e-06
-8.77111e-06
-3.81842e-06
-7.67533e-06
-4.26009e-06
-6.47568e-06
-4.64767e-06
-5.19114e-06
-4.97208e-06
-3.84324e-06
-5.22485e-06
-2.45567e-06
-5.39727e-06
-1.05146e-06
-5.49221e-06
3.33544e-07
-5.53755e-06
1.62164e-06
-5.47534e-06
2.81839e-06
-5.31178e-06
3.97891e-06
-5.13174e-06
5.11052e-06
-4.94793e-06
6.2155e-06
-4.76825e-06
7.29412e-06
-4.59729e-06
8.34517e-06
-4.43694e-06
9.36755e-06
-4.28647e-06
1.03607e-05
-4.14342e-06
1.13243e-05
-4.0048e-06
1.22575e-05
-3.86777e-06
1.31594e-05
-3.72986e-06
1.40288e-05
-3.58903e-06
1.48642e-05
-3.44374e-06
1.5664e-05
-3.29293e-06
1.64268e-05
-3.13602e-06
1.71511e-05
-2.97282e-06
1.78355e-05
-2.80351e-06
1.84791e-05
-2.6285e-06
1.9081e-05
-2.44841e-06
1.96405e-05
-2.26397e-06
2.01573e-05
-2.07599e-06
2.06313e-05
-1.88531e-06
2.10625e-05
-1.69279e-06
2.14512e-05
-1.49926e-06
2.17977e-05
-1.30557e-06
2.21027e-05
-1.11253e-06
2.23665e-05
-9.20946e-07
2.25897e-05
-7.31604e-07
2.27729e-05
-5.4524e-07
2.29166e-05
-3.6252e-07
2.30213e-05
-1.84054e-07
2.30874e-05
-1.05749e-08
2.3115e-05
1.56608e-07
2.3105e-05
3.16267e-07
2.30587e-05
4.67786e-07
2.29773e-05
6.10633e-07
2.28622e-05
7.44164e-07
2.27151e-05
8.67842e-07
2.25379e-05
9.81256e-07
2.23325e-05
1.08417e-06
2.21008e-05
1.17651e-06
2.18449e-05
1.25842e-06
2.15666e-05
1.33021e-06
2.12678e-05
1.39237e-06
2.09501e-05
1.44556e-06
2.0615e-05
1.49059e-06
2.02637e-05
1.52837e-06
1.98973e-05
1.5599e-06
1.95165e-05
1.58621e-06
1.91218e-05
1.60835e-06
1.87133e-05
1.62731e-06
1.82912e-05
1.64403e-06
1.7855e-05
1.65936e-06
1.74044e-05
1.67406e-06
1.69385e-05
1.68891e-06
1.64563e-05
1.70476e-06
1.59563e-05
1.7228e-06
1.54361e-05
1.74502e-06
1.4892e-05
1.77502e-06
1.43186e-05
1.82006e-06
1.3709e-05
1.89651e-06
1.30621e-05
2.04641e-06
1.2401e-05
2.38594e-06
1.17932e-05
3.2036e-06
1.12816e-05
4.92119e-06
1.06601e-05
7.34255e-06
9.48549e-06
9.15172e-06
7.52888e-06
9.18982e-06
4.6641e-06
7.23687e-06
8.23477e-07
3.03744e-06
2.90987e-06
-2.39746e-06
1.68924e-05
-4.21526e-06
1.16547e-05
-5.65372e-06
8.35444e-06
-6.88389e-06
6.57653e-06
-7.95736e-06
5.43296e-06
-8.88782e-06
4.55841e-06
-9.68315e-06
3.81637e-06
-1.03525e-05
3.15265e-06
-1.09056e-05
2.5414e-06
-1.13509e-05
1.96615e-06
-1.16937e-05
1.41265e-06
-1.19353e-05
8.66991e-07
-1.2072e-05
3.15256e-07
-1.20958e-05
-2.54868e-07
-1.19967e-05
-8.53105e-07
-1.17628e-05
-1.48498e-06
-1.13837e-05
-2.14618e-06
-1.08519e-05
-2.82599e-06
-1.01647e-05
-3.50835e-06
-9.32515e-06
-4.17369e-06
-8.34243e-06
-4.80115e-06
-7.23136e-06
-5.37115e-06
-6.01165e-06
-5.86737e-06
-4.70684e-06
-6.27689e-06
-3.34362e-06
-6.58807e-06
-1.95141e-06
-6.78948e-06
-5.62608e-07
-6.88101e-06
7.39228e-07
-6.83939e-06
1.94755e-06
-6.68367e-06
3.1082e-06
-6.47243e-06
4.2299e-06
-6.25344e-06
5.31945e-06
-6.03749e-06
6.38053e-06
-5.82933e-06
7.41498e-06
-5.63174e-06
8.42334e-06
-5.44531e-06
9.40552e-06
-5.26866e-06
1.03612e-05
-5.09907e-06
1.12896e-05
-4.93327e-06
1.21899e-05
-4.76806e-06
1.30607e-05
-4.6006e-06
1.39002e-05
-4.42858e-06
1.47068e-05
-4.25028e-06
1.54785e-05
-4.06465e-06
1.62136e-05
-3.87117e-06
1.69107e-05
-3.66985e-06
1.75682e-05
-3.4611e-06
1.81854e-05
-3.24563e-06
1.87613e-05
-3.02436e-06
1.92957e-05
-2.79834e-06
1.97884e-05
-2.56867e-06
2.02395e-05
-2.33645e-06
2.06495e-05
-2.10278e-06
2.1019e-05
-1.86871e-06
2.13486e-05
-1.63522e-06
2.16393e-05
-1.40323e-06
2.1892e-05
-1.1736e-06
2.21075e-05
-9.47103e-07
2.22867e-05
-7.24447e-07
2.24304e-05
-5.06258e-07
2.25395e-05
-2.9311e-07
2.26143e-05
-8.54496e-08
2.26549e-05
1.16022e-07
2.26614e-05
3.09778e-07
2.26342e-05
4.94995e-07
2.25739e-05
6.7091e-07
2.24813e-05
8.36756e-07
2.23573e-05
9.91836e-07
2.2203e-05
1.13557e-06
2.20196e-05
1.26757e-06
2.18085e-05
1.38766e-06
2.1571e-05
1.49587e-06
2.13087e-05
1.59249e-06
2.10231e-05
1.67803e-06
2.07154e-05
1.75322e-06
2.03871e-05
1.81896e-06
2.00391e-05
1.87634e-06
1.96724e-05
1.92654e-06
1.92879e-05
1.9708e-06
1.88858e-05
2.0104e-06
1.84665e-05
2.04659e-06
1.803e-05
2.08056e-06
1.7576e-05
2.1134e-06
1.71039e-05
2.14615e-06
1.6613e-05
2.17982e-06
1.61022e-05
2.21555e-06
1.55701e-05
2.25488e-06
1.5015e-05
2.30014e-06
1.44346e-05
2.35536e-06
1.38267e-05
2.42795e-06
1.31903e-05
2.53297e-06
1.25306e-05
2.70611e-06
1.18724e-05
3.0441e-06
1.12782e-05
3.79787e-06
1.08083e-05
5.39102e-06
1.03168e-05
7.83411e-06
9.39972e-06
1.00688e-05
7.75522e-06
1.08343e-05
5.3511e-06
9.64099e-06
1.81602e-06
6.57252e-06
4.72589e-06
-2.07822e-06
1.89706e-05
-3.69295e-06
1.32694e-05
-5.00346e-06
9.66495e-06
-6.15613e-06
7.7292e-06
-7.18629e-06
6.46311e-06
-8.09653e-06
5.46865e-06
-8.88867e-06
4.60851e-06
-9.56903e-06
3.83301e-06
-1.0146e-05
3.11842e-06
-1.06271e-05
2.44717e-06
-1.10158e-05
1.8014e-06
-1.13108e-05
1.16199e-06
-1.15051e-05
5.09493e-07
-1.15864e-05
-1.73533e-07
-1.15417e-05
-8.97805e-07
-1.13556e-05
-1.67108e-06
-1.10147e-05
-2.48702e-06
-1.051e-05
-3.3307e-06
-9.83808e-06
-4.18031e-06
-9.00225e-06
-5.00952e-06
-8.01314e-06
-5.79026e-06
-6.88842e-06
-6.49587e-06
-5.65198e-06
-7.10382e-06
-4.33277e-06
-7.5961e-06
-2.96396e-06
-7.95689e-06
-1.58455e-06
-8.16889e-06
-2.44284e-07
-8.22128e-06
9.95587e-07
-8.07926e-06
2.15854e-06
-7.84663e-06
3.27665e-06
-7.59053e-06
4.35598e-06
-7.33277e-06
5.40189e-06
-7.08341e-06
6.41923e-06
-6.84666e-06
7.41119e-06
-6.6237e-06
8.37943e-06
-6.41355e-06
9.32442e-06
-6.21366e-06
1.02459e-05
-6.02051e-06
1.11428e-05
-5.83022e-06
1.20138e-05
-5.63905e-06
1.28569e-05
-5.44373e-06
1.367e-05
-5.24167e-06
1.44508e-05
-5.03108e-06
1.51971e-05
-4.81093e-06
1.59069e-05
-4.58092e-06
1.65783e-05
-4.34133e-06
1.72102e-05
-4.09293e-06
1.78014e-05
-3.83681e-06
1.83513e-05
-3.57427e-06
1.88596e-05
-3.30671e-06
1.93266e-05
-3.03559e-06
1.97524e-05
-2.76233e-06
2.0138e-05
-2.48829e-06
2.0484e-05
-2.21476e-06
2.07917e-05
-1.9429e-06
2.10622e-05
-1.67377e-06
2.12969e-05
-1.40829e-06
2.14971e-05
-1.14726e-06
2.1664e-05
-8.91358e-07
2.17988e-05
-6.4112e-07
2.19027e-05
-3.96982e-07
2.19765e-05
-1.59238e-07
2.20207e-05
7.18488e-08
2.2035e-05
2.95449e-07
2.20194e-05
5.10647e-07
2.19737e-05
7.1652e-07
2.18983e-05
9.12208e-07
2.17932e-05
1.09689e-06
2.16589e-05
1.26987e-06
2.14959e-05
1.4306e-06
2.13048e-05
1.57876e-06
2.10864e-05
1.71426e-06
2.08417e-05
1.83725e-06
2.05715e-05
1.94819e-06
2.0277e-05
2.04775e-06
1.99591e-05
2.13688e-06
1.96187e-05
2.2167e-06
1.92567e-05
2.28851e-06
1.88738e-05
2.35372e-06
1.84704e-05
2.41377e-06
1.80469e-05
2.47012e-06
1.76033e-05
2.52419e-06
1.71394e-05
2.5773e-06
1.66548e-05
2.63074e-06
1.61489e-05
2.68575e-06
1.56207e-05
2.74366e-06
1.50695e-05
2.80617e-06
1.44939e-05
2.87571e-06
1.3893e-05
2.95621e-06
1.32665e-05
3.05451e-06
1.26155e-05
3.18394e-06
1.19464e-05
3.37522e-06
1.1279e-05
3.71152e-06
1.06622e-05
4.41468e-06
1.0156e-05
5.89719e-06
9.66643e-06
8.32367e-06
8.85292e-06
1.08823e-05
7.40069e-06
1.22866e-05
5.21991e-06
1.18218e-05
2.36391e-06
9.42853e-06
7.0898e-06
-1.8264e-06
2.0797e-05
-3.28672e-06
1.47298e-05
-4.49239e-06
1.08706e-05
-5.56907e-06
8.80588e-06
-6.54506e-06
7.4391e-06
-7.41969e-06
6.34328e-06
-8.19315e-06
5.38198e-06
-8.8709e-06
4.51075e-06
-9.46067e-06
3.70819e-06
-9.96871e-06
2.95521e-06
-1.03967e-05
2.2294e-06
-1.074e-05
1.50529e-06
-1.09874e-05
7.5693e-07
-1.11223e-05
-3.87149e-08
-1.11274e-05
-8.92697e-07
-1.09848e-05
-1.81367e-06
-1.06791e-05
-2.79274e-06
-1.02e-05
-3.80972e-06
-9.54407e-06
-4.83629e-06
-8.71486e-06
-5.83872e-06
-7.72424e-06
-6.78088e-06
-6.59246e-06
-7.62766e-06
-5.34754e-06
-8.34873e-06
-4.02429e-06
-8.91935e-06
-2.66286e-06
-9.31832e-06
-1.31061e-06
-9.52114e-06
-3.1114e-08
-9.50077e-06
1.15584e-06
-9.26622e-06
2.27771e-06
-8.96849e-06
3.35122e-06
-8.66405e-06
4.38529e-06
-8.36684e-06
5.38701e-06
-8.08513e-06
6.36225e-06
-7.8219e-06
7.31497e-06
-7.57642e-06
8.24724e-06
-7.34582e-06
9.15962e-06
-7.12603e-06
1.00515e-05
-6.91241e-06
1.09215e-05
-6.70021e-06
1.17675e-05
-6.48504e-06
1.25869e-05
-6.26318e-06
1.33771e-05
-6.03182e-06
1.41352e-05
-5.78915e-06
1.48585e-05
-5.53431e-06
1.5545e-05
-5.26734e-06
1.61925e-05
-4.98892e-06
1.67999e-05
-4.70026e-06
1.7366e-05
-4.40292e-06
1.78903e-05
-4.09861e-06
1.83728e-05
-3.78916e-06
1.88136e-05
-3.47637e-06
1.92132e-05
-3.16201e-06
1.95727e-05
-2.84773e-06
1.9893e-05
-2.53508e-06
2.01755e-05
-2.22545e-06
2.04219e-05
-1.92008e-06
2.06336e-05
-1.62002e-06
2.08124e-05
-1.32612e-06
2.09601e-05
-1.03906e-06
2.10783e-05
-7.59328e-07
2.11686e-05
-4.87222e-07
2.12323e-05
-2.22903e-07
2.12703e-05
3.38248e-08
2.12828e-05
2.82929e-07
2.12696e-05
5.23812e-07
2.12305e-05
7.5566e-07
2.1165e-05
9.77682e-07
2.10729e-05
1.18905e-06
2.09537e-05
1.38901e-06
2.08074e-05
1.5769e-06
2.06339e-05
1.75224e-06
2.04334e-05
1.91479e-06
2.02061e-05
2.06455e-06
1.99525e-05
2.2018e-06
1.96731e-05
2.32713e-06
1.93686e-05
2.44137e-06
1.90397e-05
2.54565e-06
1.86869e-05
2.64126e-06
1.83109e-05
2.72968e-06
1.79122e-05
2.81248e-06
1.74911e-05
2.89125e-06
1.70477e-05
2.96759e-06
1.6582e-05
3.04302e-06
1.60937e-05
3.119e-06
1.55825e-05
3.19693e-06
1.50479e-05
3.27829e-06
1.44893e-05
3.36482e-06
1.39061e-05
3.45886e-06
1.32983e-05
3.56405e-06
1.26662e-05
3.68655e-06
1.2012e-05
3.83821e-06
1.13408e-05
4.04635e-06
1.06669e-05
4.38545e-06
1.00245e-05
5.05709e-06
9.46192e-06
6.45976e-06
8.92254e-06
8.86304e-06
8.13699e-06
1.16678e-05
6.81658e-06
1.3607e-05
4.87227e-06
1.37661e-05
2.40764e-06
1.18932e-05
9.49744e-06
-1.62703e-06
2.2424e-05
-2.96641e-06
1.60691e-05
-4.08145e-06
1.19857e-05
-5.0822e-06
9.80663e-06
-5.99605e-06
8.35295e-06
-6.82348e-06
7.17071e-06
-7.56559e-06
6.12408e-06
-8.22829e-06
5.17346e-06
-8.81929e-06
4.29919e-06
-9.34394e-06
3.47986e-06
-9.80177e-06
2.68723e-06
-1.01845e-05
1.88804e-06
-1.04766e-05
1.04899e-06
-1.06565e-05
1.41234e-07
-1.07028e-05
-8.4643e-07
-1.05967e-05
-1.91978e-06
-1.03216e-05
-3.0678e-06
-9.86734e-06
-4.26401e-06
-9.23029e-06
-5.47333e-06
-8.4142e-06
-6.65482e-06
-7.43127e-06
-7.76381e-06
-6.30347e-06
-8.75545e-06
-5.06244e-06
-9.58977e-06
-3.74868e-06
-1.02331e-05
-2.40936e-06
-1.06576e-05
-1.09808e-06
-1.08324e-05
1.19369e-07
-1.07182e-05
1.25453e-06
-1.04014e-05
2.33076e-06
-1.00447e-05
3.3574e-06
-9.69068e-06
4.34565e-06
-9.35509e-06
5.30476e-06
-9.04424e-06
6.24132e-06
-8.75846e-06
7.15934e-06
-8.49444e-06
8.06063e-06
-8.2471e-06
8.94526e-06
-8.01067e-06
9.81207e-06
-7.77921e-06
1.06589e-05
-7.54708e-06
1.14831e-05
-7.30918e-06
1.22813e-05
-7.0614e-06
1.30503e-05
-6.80079e-06
1.37868e-05
-6.52566e-06
1.4488e-05
-6.23552e-06
1.51515e-05
-5.93086e-06
1.57755e-05
-5.6129e-06
1.63586e-05
-5.28338e-06
1.69e-05
-4.94432e-06
1.73993e-05
-4.5979e-06
1.78564e-05
-4.2463e-06
1.82717e-05
-3.89167e-06
1.86458e-05
-3.53608e-06
1.89796e-05
-3.18149e-06
1.92742e-05
-2.8297e-06
1.95311e-05
-2.48237e-06
1.9752e-05
-2.14096e-06
1.99387e-05
-1.80672e-06
2.00932e-05
-1.48066e-06
2.02177e-05
-1.16353e-06
2.03142e-05
-8.55817e-07
2.03847e-05
-5.57752e-07
2.04312e-05
-2.69346e-07
2.0455e-05
9.96166e-09
2.04571e-05
2.80917e-07
2.04374e-05
5.43468e-07
2.03959e-05
7.97161e-07
2.03321e-05
1.0415e-06
2.02453e-05
1.27588e-06
2.01347e-05
1.4996e-06
1.99996e-05
1.712e-06
1.98393e-05
1.91252e-06
1.96533e-05
2.10075e-06
1.94414e-05
2.27651e-06
1.92033e-05
2.43989e-06
1.89391e-05
2.59128e-06
1.86491e-05
2.73139e-06
1.83336e-05
2.86119e-06
1.79929e-05
2.98192e-06
1.76276e-05
3.09504e-06
1.72379e-05
3.20212e-06
1.68243e-05
3.30486e-06
1.6387e-05
3.40493e-06
1.5926e-05
3.50397e-06
1.54415e-05
3.60357e-06
1.49332e-05
3.70522e-06
1.4401e-05
3.81045e-06
1.38449e-05
3.92097e-06
1.32647e-05
4.03899e-06
1.2661e-05
4.1678e-06
1.20345e-05
4.313e-06
1.13874e-05
4.48538e-06
1.07234e-05
4.71029e-06
1.00516e-05
5.05728e-06
9.39346e-06
5.71522e-06
8.7828e-06
7.07042e-06
8.18547e-06
9.46038e-06
7.39683e-06
1.24565e-05
6.16929e-06
1.48345e-05
4.41614e-06
1.55192e-05
2.22628e-06
1.4083e-05
1.17237e-05
-1.46641e-06
2.38904e-05
-2.70888e-06
1.73116e-05
-3.74296e-06
1.30197e-05
-4.66753e-06
1.07312e-05
-5.51335e-06
9.19877e-06
-6.28461e-06
7.94197e-06
-6.98463e-06
6.8241e-06
-7.62053e-06
5.80936e-06
-8.20042e-06
4.87908e-06
-8.72898e-06
4.00843e-06
-9.20356e-06
3.1618e-06
-9.61214e-06
2.29662e-06
-9.93475e-06
1.3716e-06
-1.01474e-05
3.5392e-07
-1.02243e-05
-7.69608e-07
-1.01457e-05
-1.9983e-06
-9.8963e-06
-3.31723e-06
-9.46687e-06
-4.69343e-06
-8.85426e-06
-6.08595e-06
-8.06133e-06
-7.44775e-06
-7.09923e-06
-8.72591e-06
-5.99029e-06
-9.86439e-06
-4.76866e-06
-1.08114e-05
-3.48008e-06
-1.15217e-05
-2.17844e-06
-1.19593e-05
-9.22583e-07
-1.20883e-05
2.35332e-07
-1.18761e-05
1.31817e-06
-1.14842e-05
2.34246e-06
-1.1069e-05
3.32002e-06
-1.06682e-05
4.26354e-06
-1.02986e-05
5.1831e-06
-9.9638e-06
6.08513e-06
-9.66049e-06
6.97286e-06
-9.38218e-06
7.84715e-06
-9.1214e-06
8.7072e-06
-8.87071e-06
9.55101e-06
-8.62302e-06
1.03757e-05
-8.37181e-06
1.1178e-05
-8.1114e-06
1.19539e-05
-7.83737e-06
1.27e-05
-7.54682e-06
1.34127e-05
-7.23839e-06
1.40893e-05
-6.91213e-06
1.47276e-05
-6.56914e-06
1.53259e-05
-6.21128e-06
1.58834e-05
-5.84084e-06
1.63994e-05
-5.46031e-06
1.68737e-05
-5.07219e-06
1.73064e-05
-4.67898e-06
1.76978e-05
-4.28306e-06
1.80484e-05
-3.88671e-06
1.8359e-05
-3.4921e-06
1.86306e-05
-3.10129e-06
1.88644e-05
-2.71621e-06
1.90621e-05
-2.3386e-06
1.92253e-05
-1.96999e-06
1.93563e-05
-1.61165e-06
1.94573e-05
-1.26453e-06
1.95307e-05
-9.29237e-07
1.9579e-05
-6.06031e-07
1.96045e-05
-2.94847e-07
1.96093e-05
5.13615e-09
1.95949e-05
2.95323e-07
1.95621e-05
5.76315e-07
1.9511e-05
8.48222e-07
1.94415e-05
1.11105e-06
1.93528e-05
1.36459e-06
1.92439e-05
1.60845e-06
1.91138e-05
1.8421e-06
1.89614e-05
2.06499e-06
1.87855e-05
2.27664e-06
1.85853e-05
2.4767e-06
1.83601e-05
2.66507e-06
1.81095e-05
2.8419e-06
1.78332e-05
3.00768e-06
1.75312e-05
3.16319e-06
1.72036e-05
3.30952e-06
1.68506e-05
3.44801e-06
1.64726e-05
3.58018e-06
1.60697e-05
3.70768e-06
1.56425e-05
3.83222e-06
1.5191e-05
3.95546e-06
1.47155e-05
4.07902e-06
1.42163e-05
4.20442e-06
1.36936e-05
4.33316e-06
1.31477e-05
4.46689e-06
1.2579e-05
4.60765e-06
1.19884e-05
4.75848e-06
1.13768e-05
4.92455e-06
1.07461e-05
5.11613e-06
1.00987e-05
5.35767e-06
9.43931e-06
5.71665e-06
8.77933e-06
6.37521e-06
8.13855e-06
7.7112e-06
7.49371e-06
1.01052e-05
6.69179e-06
1.32584e-05
5.52992e-06
1.59964e-05
3.9322e-06
1.7117e-05
1.98594e-06
1.60293e-05
1.37097e-05
-1.33356e-06
2.5224e-05
-2.49669e-06
1.84747e-05
-3.45741e-06
1.39805e-05
-4.30621e-06
1.158e-05
-5.07983e-06
9.9724e-06
-5.7877e-06
8.64984e-06
-6.43602e-06
7.47242e-06
-7.03342e-06
6.40676e-06
-7.58865e-06
5.43431e-06
-8.10595e-06
4.52572e-06
-8.58078e-06
3.63663e-06
-8.99817e-06
2.71401e-06
-9.33477e-06
1.7082e-06
-9.56361e-06
5.82755e-07
-9.65696e-06
-6.76254e-07
-9.5954e-06
-2.05987e-06
-9.36626e-06
-3.54637e-06
-8.9629e-06
-5.09679e-06
-8.38249e-06
-6.66636e-06
-7.62577e-06
-8.20447e-06
-6.70076e-06
-9.65092e-06
-5.62835e-06
-1.09368e-05
-4.44385e-06
-1.19959e-05
-3.19731e-06
-1.27682e-05
-1.94817e-06
-1.32084e-05
-7.58017e-07
-1.32784e-05
3.37352e-07
-1.29715e-05
1.36321e-06
-1.25101e-05
2.33267e-06
-1.20385e-05
3.26084e-06
-1.15964e-05
4.16166e-06
-1.11994e-05
5.04486e-06
-1.0847e-05
5.91555e-06
-1.05312e-05
6.77534e-06
-1.0242e-05
7.62365e-06
-9.9697e-06
8.45856e-06
-9.70562e-06
9.2773e-06
-9.44176e-06
1.00764e-05
-9.17094e-06
1.08521e-05
-8.88704e-06
1.16002e-05
-8.58553e-06
1.23172e-05
-8.26378e-06
1.29998e-05
-7.92101e-06
1.36457e-05
-7.55801e-06
1.42532e-05
-7.17665e-06
1.48214e-05
-6.77948e-06
1.53498e-05
-6.36928e-06
1.58384e-05
-5.94887e-06
1.62872e-05
-5.52096e-06
1.66963e-05
-5.08814e-06
1.70661e-05
-4.65283e-06
1.73968e-05
-4.21738e-06
1.76887e-05
-3.78404e-06
1.79425e-05
-3.35506e-06
1.81589e-05
-2.93258e-06
1.83389e-05
-2.51868e-06
1.84842e-05
-2.11526e-06
1.85965e-05
-1.72398e-06
1.86781e-05
-1.34614e-06
1.87316e-05
-9.82645e-07
1.87595e-05
-6.33935e-07
1.87646e-05
-3.0001e-07
1.87497e-05
2.01035e-08
1.87167e-05
3.2824e-07
1.86674e-05
6.25657e-07
1.86025e-05
9.13145e-07
1.85222e-05
1.19137e-06
1.8426e-05
1.4607e-06
1.83133e-05
1.72123e-06
1.81826e-05
1.97277e-06
1.80326e-05
2.21494e-06
1.7862e-05
2.44729e-06
1.76693e-05
2.66938e-06
1.74534e-05
2.88092e-06
1.72135e-05
3.08185e-06
1.69488e-05
3.27238e-06
1.66589e-05
3.45304e-06
1.63438e-05
3.6247e-06
1.60033e-05
3.7885e-06
1.56376e-05
3.94581e-06
1.52471e-05
4.09817e-06
1.48322e-05
4.24719e-06
1.43931e-05
4.39448e-06
1.39306e-05
4.5416e-06
1.3445e-05
4.69e-06
1.2937e-05
4.84113e-06
1.24074e-05
4.9965e-06
1.1857e-05
5.15805e-06
1.12868e-05
5.32863e-06
1.06981e-05
5.51325e-06
1.00923e-05
5.72202e-06
9.47047e-06
5.97945e-06
8.83395e-06
6.35317e-06
8.1859e-06
7.02326e-06
7.5337e-06
8.36341e-06
6.85751e-06
1.07814e-05
6.04345e-06
1.40724e-05
4.93228e-06
1.71075e-05
3.4665e-06
1.85827e-05
1.7369e-06
1.77589e-05
1.54466e-05
-1.22066e-06
2.64447e-05
-2.31772e-06
1.95718e-05
-3.21171e-06
1.48745e-05
-3.98604e-06
1.23543e-05
-4.68476e-06
1.06711e-05
-5.32334e-06
9.28842e-06
-5.91116e-06
8.06024e-06
-6.45836e-06
6.95396e-06
-6.97437e-06
5.95033e-06
-7.46328e-06
5.01464e-06
-7.91938e-06
4.09272e-06
-8.32572e-06
3.12036e-06
-8.65663e-06
2.0391e-06
-8.88295e-06
8.09083e-07
-8.97695e-06
-5.82255e-07
-8.92063e-06
-2.11619e-06
-8.70622e-06
-3.76078e-06
-8.33075e-06
-5.47226e-06
-7.79169e-06
-7.20543e-06
-7.08598e-06
-8.91017e-06
-6.2161e-06
-1.05208e-05
-5.19942e-06
-1.19535e-05
-4.07089e-06
-1.31244e-05
-2.88372e-06
-1.39554e-05
-1.70152e-06
-1.43906e-05
-5.86342e-07
-1.43936e-05
4.41377e-07
-1.39992e-05
1.40515e-06
-1.34738e-05
2.31779e-06
-1.29511e-05
3.19697e-06
-1.24756e-05
4.0568e-06
-1.20593e-05
4.9053e-06
-1.16955e-05
5.74514e-06
-1.1371e-05
6.57565e-06
-1.10725e-05
7.39459e-06
-1.07887e-05
8.19907e-06
-1.05101e-05
8.98575e-06
-1.02284e-05
9.7509e-06
-9.93608e-06
1.04905e-05
-9.62668e-06
1.12008e-05
-9.29581e-06
1.18784e-05
-8.94136e-06
1.25208e-05
-8.56344e-06
1.31266e-05
-8.16379e-06
1.36951e-05
-7.74517e-06
1.42264e-05
-7.31075e-06
1.47208e-05
-6.86367e-06
1.51788e-05
-6.40689e-06
1.56009e-05
-5.94305e-06
1.59873e-05
-5.47456e-06
1.63381e-05
-5.00364e-06
1.66532e-05
-4.53245e-06
1.69323e-05
-4.06316e-06
1.71753e-05
-3.59804e-06
1.73821e-05
-3.13942e-06
1.75532e-05
-2.6897e-06
1.76891e-05
-2.25121e-06
1.77912e-05
-1.82613e-06
1.78614e-05
-1.41632e-06
1.7902e-05
-1.02317e-06
1.79156e-05
-6.47537e-07
1.79052e-05
-2.89667e-07
1.78739e-05
5.13712e-08
1.78246e-05
3.77589e-07
1.77594e-05
6.908e-07
1.76801e-05
9.92518e-07
1.75873e-05
1.28416e-06
1.74812e-05
1.56683e-06
1.73611e-05
1.84126e-06
1.72261e-05
2.10779e-06
1.70747e-05
2.36638e-06
1.69052e-05
2.61674e-06
1.67162e-05
2.85846e-06
1.6506e-05
3.09111e-06
1.62734e-05
3.31442e-06
1.60174e-05
3.52832e-06
1.57374e-05
3.73307e-06
1.54329e-05
3.92923e-06
1.51037e-05
4.11767e-06
1.475e-05
4.29953e-06
1.4372e-05
4.47614e-06
1.39703e-05
4.64894e-06
1.35454e-05
4.81937e-06
1.30982e-05
4.98885e-06
1.26295e-05
5.1587e-06
1.21403e-05
5.33025e-06
1.16319e-05
5.5049e-06
1.11055e-05
5.6845e-06
1.05623e-05
5.87186e-06
1.00035e-05
6.07201e-06
9.43019e-06
6.29533e-06
8.84244e-06
6.56721e-06
8.23844e-06
6.95717e-06
7.61454e-06
7.64716e-06
6.96729e-06
9.01066e-06
6.27624e-06
1.14725e-05
5.45677e-06
1.48919e-05
4.38949e-06
1.81748e-05
3.03788e-06
1.99343e-05
1.49721e-06
1.92995e-05
1.69438e-05
-1.12236e-06
2.7567e-05
-2.16396e-06
2.06134e-05
-2.99756e-06
1.57081e-05
-3.69967e-06
1.30564e-05
-4.32205e-06
1.12935e-05
-4.88666e-06
9.85304e-06
-5.40608e-06
8.57966e-06
-5.89178e-06
7.43966e-06
-6.3538e-06
6.41235e-06
-6.79644e-06
5.45728e-06
-7.21374e-06
4.51002e-06
-7.58802e-06
3.49464e-06
-7.89245e-06
2.34353e-06
-8.09701e-06
1.01364e-06
-8.17513e-06
-5.04138e-07
-8.11187e-06
-2.17945e-06
-7.90619e-06
-3.96645e-06
-7.55999e-06
-5.81846e-06
-7.07103e-06
-7.69438e-06
-6.43095e-06
-9.55025e-06
-5.63409e-06
-1.13177e-05
-4.69224e-06
-1.28954e-05
-3.63842e-06
-1.41782e-05
-2.52763e-06
-1.50662e-05
-1.42648e-06
-1.54918e-05
-3.95387e-07
-1.54247e-05
5.5908e-07
-1.49537e-05
1.45576e-06
-1.43705e-05
2.30966e-06
-1.3805e-05
3.13972e-06
-1.33056e-05
3.95864e-06
-1.28782e-05
4.77125e-06
-1.25081e-05
5.57687e-06
-1.21766e-05
6.37231e-06
-1.18679e-05
7.15383e-06
-1.15702e-05
7.91791e-06
-1.12742e-05
8.66107e-06
-1.09716e-05
9.37971e-06
-1.06547e-05
1.00701e-05
-1.03171e-05
1.0729e-05
-9.95468e-06
1.13539e-05
-9.56626e-06
1.19436e-05
-9.15311e-06
1.24979e-05
-8.71813e-06
1.30177e-05
-8.26496e-06
1.35042e-05
-7.79725e-06
1.39588e-05
-7.31826e-06
1.43826e-05
-6.83075e-06
1.47766e-05
-6.33697e-06
1.51409e-05
-5.83884e-06
1.54753e-05
-5.33806e-06
1.57792e-05
-4.83637e-06
1.60517e-05
-4.33563e-06
1.62916e-05
-3.83793e-06
1.64978e-05
-3.34567e-06
1.66696e-05
-2.86153e-06
1.68067e-05
-2.38831e-06
1.69095e-05
-1.92884e-06
1.69788e-05
-1.4857e-06
1.70167e-05
-1.06099e-06
1.70254e-05
-6.56234e-07
1.70079e-05
-2.72174e-07
1.69674e-05
9.17956e-08
1.69075e-05
4.3757e-07
1.68309e-05
7.67343e-07
1.67401e-05
1.08332e-06
1.66366e-05
1.3877e-06
1.6521e-05
1.68244e-06
1.63932e-05
1.96904e-06
1.62525e-05
2.24852e-06
1.60975e-05
2.52134e-06
1.59267e-05
2.78754e-06
1.57384e-05
3.04679e-06
1.55308e-05
3.29864e-06
1.53026e-05
3.54262e-06
1.50525e-05
3.77839e-06
1.47797e-05
4.00589e-06
1.44836e-05
4.22534e-06
1.4164e-05
4.43728e-06
1.3821e-05
4.64255e-06
1.34549e-05
4.84218e-06
1.30665e-05
5.03734e-06
1.26567e-05
5.22923e-06
1.22265e-05
5.41904e-06
1.17773e-05
5.60793e-06
1.13104e-05
5.79706e-06
1.08276e-05
5.98776e-06
1.03302e-05
6.18186e-06
9.81981e-06
6.38227e-06
9.29754e-06
6.59428e-06
8.76396e-06
6.82891e-06
8.21803e-06
7.11314e-06
7.65515e-06
7.52004e-06
7.06567e-06
8.23664e-06
6.43672e-06
9.6396e-06