/*--------------------------------*- C++ -*----------------------------------*\
| =========                 |                                                 |
| \\      /  F ield         | OpenFOAM: The Open Source CFD Toolbox           |
|  \\    /   O peration     | Version:  4.1                                   |
|   \\  /    A nd           | Web:      www.OpenFOAM.org                      |
|    \\/     M anipulation  |                                                 |
\*---------------------------------------------------------------------------*/
FoamFile
{
    version     2.0;
    format      ascii;
    class       volScalarField;
    location    "1200";
    object      T;
}
// * * * * * * * * * * * * * * * * * * * * * * * * * * * * * * * * * * * * * //

dimensions      [0 0 0 1 0 0 0];

internalField   nonuniform List<scalar> 
5000
(
286.397
286.128
285.951
285.811
285.691
285.582
285.48
285.384
285.292
285.202
285.114
285.027
284.94
284.852
284.768
284.693
284.627
284.569
284.517
284.472
284.433
284.398
284.368
284.342
284.319
284.3
284.284
284.269
284.254
284.23
284.192
284.176
284.187
284.206
284.227
284.249
284.271
284.293
284.315
284.337
284.359
284.383
284.407
284.433
284.46
284.489
284.52
284.553
284.589
284.627
284.669
284.714
284.762
284.814
284.871
284.932
284.997
285.068
285.139
285.21
285.281
285.352
285.423
285.494
285.565
285.636
285.707
285.779
285.85
285.922
285.993
286.064
286.136
286.207
286.278
286.349
286.42
286.492
286.564
286.636
286.71
286.785
286.861
286.94
287.021
287.105
287.193
287.285
287.382
287.484
287.592
287.708
287.827
287.88
287.4
285.791
285.18
284.833
284.809
285.521
285.642
284.858
284.363
284.062
283.855
283.698
283.572
283.471
283.39
283.326
283.279
283.246
283.226
283.22
283.222
283.224
283.227
283.229
283.232
283.235
283.238
283.242
283.245
283.249
283.252
283.256
283.26
283.265
283.269
283.275
283.279
283.282
283.285
283.288
283.29
283.292
283.294
283.296
283.297
283.299
283.3
283.301
283.302
283.303
283.303
283.303
283.303
283.303
283.303
283.303
283.302
283.301
283.3
283.299
283.297
283.295
283.294
283.292
283.293
283.298
283.307
283.32
283.337
283.358
283.381
283.408
283.436
283.467
283.5
283.533
283.568
283.602
283.637
283.672
283.706
283.74
283.773
283.806
283.839
283.871
283.904
283.937
283.972
284.008
284.047
284.088
284.132
284.178
284.227
284.28
284.352
284.515
284.928
285.652
286.167
285.901
285.107
284.23
284.058
285.014
285.263
284.334
283.818
283.557
283.412
283.324
283.27
283.237
283.218
283.209
283.206
283.206
283.209
283.212
283.216
283.22
283.224
283.229
283.233
283.238
283.243
283.247
283.252
283.257
283.262
283.267
283.273
283.279
283.286
283.292
283.296
283.3
283.304
283.307
283.31
283.313
283.316
283.318
283.32
283.322
283.323
283.325
283.326
283.327
283.327
283.328
283.328
283.328
283.328
283.328
283.327
283.327
283.326
283.325
283.323
283.321
283.32
283.317
283.315
283.312
283.309
283.306
283.303
283.301
283.299
283.297
283.297
283.297
283.298
283.3
283.303
283.306
283.311
283.316
283.321
283.327
283.334
283.341
283.348
283.357
283.366
283.377
283.388
283.402
283.418
283.436
283.457
283.482
283.512
283.549
283.605
283.72
283.999
284.568
285.217
285.467
285.217
284.786
284.258
284.807
285.029
284.06
283.577
283.369
283.275
283.23
283.209
283.2
283.198
283.198
283.201
283.205
283.209
283.214
283.219
283.225
283.23
283.236
283.242
283.248
283.253
283.258
283.264
283.269
283.275
283.281
283.288
283.296
283.304
283.31
283.315
283.32
283.324
283.328
283.331
283.334
283.337
283.339
283.341
283.343
283.344
283.345
283.346
283.347
283.347
283.347
283.347
283.347
283.347
283.347
283.347
283.346
283.346
283.345
283.345
283.344
283.343
283.341
283.34
283.338
283.336
283.334
283.331
283.328
283.324
283.321
283.317
283.313
283.309
283.305
283.301
283.297
283.294
283.29
283.287
283.284
283.282
283.279
283.277
283.276
283.275
283.275
283.275
283.277
283.28
283.285
283.293
283.303
283.317
283.337
283.371
283.44
283.613
284.006
284.577
285.002
285.063
284.863
284.501
284.616
284.869
283.898
283.453
283.287
283.224
283.2
283.192
283.191
283.193
283.196
283.2
283.205
283.211
283.218
283.225
283.233
283.24
283.247
283.254
283.26
283.266
283.271
283.276
283.281
283.287
283.294
283.302
283.312
283.32
283.326
283.332
283.337
283.342
283.346
283.349
283.352
283.354
283.356
283.357
283.358
283.358
283.358
283.358
283.357
283.357
283.356
283.356
283.355
283.355
283.354
283.354
283.354
283.353
283.353
283.353
283.353
283.353
283.352
283.352
283.351
283.351
283.349
283.348
283.346
283.344
283.341
283.338
283.335
283.331
283.327
283.323
283.319
283.314
283.309
283.304
283.299
283.294
283.289
283.285
283.28
283.275
283.271
283.267
283.263
283.26
283.259
283.258
283.26
283.264
283.273
283.29
283.331
283.439
283.708
284.167
284.624
284.847
284.811
284.586
284.501
284.752
283.793
283.382
283.245
283.202
283.189
283.186
283.188
283.191
283.196
283.202
283.209
283.217
283.226
283.236
283.245
283.254
283.263
283.27
283.275
283.28
283.284
283.288
283.292
283.298
283.305
283.314
283.325
283.333
283.341
283.347
283.353
283.357
283.361
283.363
283.365
283.366
283.366
283.366
283.365
283.364
283.362
283.361
283.359
283.357
283.355
283.354
283.352
283.351
283.35
283.349
283.349
283.349
283.349
283.349
283.349
283.35
283.351
283.351
283.352
283.353
283.353
283.353
283.353
283.352
283.351
283.35
283.348
283.346
283.343
283.34
283.336
283.332
283.328
283.323
283.318
283.313
283.308
283.303
283.297
283.291
283.285
283.28
283.274
283.268
283.263
283.259
283.256
283.254
283.256
283.264
283.287
283.357
283.545
283.907
284.342
284.645
284.721
284.581
284.447
284.663
283.723
283.339
283.223
283.191
283.183
283.183
283.186
283.191
283.198
283.206
283.216
283.227
283.239
283.251
283.262
283.273
283.281
283.288
283.293
283.296
283.298
283.3
283.302
283.306
283.314
283.325
283.336
283.345
283.353
283.36
283.365
283.37
283.372
283.374
283.374
283.373
283.371
283.369
283.366
283.362
283.359
283.355
283.351
283.348
283.345
283.342
283.339
283.337
283.336
283.335
283.334
283.334
283.334
283.334
283.335
283.337
283.338
283.34
283.342
283.344
283.346
283.348
283.349
283.35
283.351
283.351
283.351
283.351
283.35
283.348
283.346
283.343
283.34
283.337
283.333
283.328
283.323
283.318
283.313
283.307
283.301
283.294
283.288
283.281
283.275
283.268
283.263
283.258
283.255
283.257
283.27
283.317
283.454
283.743
284.139
284.477
284.628
284.555
284.415
284.593
283.674
283.311
283.209
283.184
283.18
283.181
283.186
283.193
283.202
283.213
283.226
283.24
283.255
283.27
283.283
283.295
283.303
283.309
283.312
283.313
283.312
283.311
283.311
283.314
283.321
283.333
283.346
283.356
283.364
283.371
283.376
283.379
283.38
283.379
283.377
283.374
283.37
283.365
283.359
283.353
283.347
283.342
283.336
283.331
283.327
283.323
283.319
283.316
283.314
283.312
283.311
283.311
283.311
283.312
283.313
283.315
283.317
283.32
283.322
283.326
283.329
283.332
283.336
283.339
283.341
283.344
283.346
283.347
283.348
283.348
283.348
283.347
283.345
283.343
283.34
283.337
283.333
283.329
283.324
283.319
283.313
283.307
283.3
283.293
283.286
283.278
283.271
283.265
283.259
283.257
283.264
283.297
283.401
283.638
283.996
284.345
284.544
284.521
284.389
284.536
283.638
283.293
283.201
283.18
283.178
283.181
283.187
283.195
283.207
283.221
283.238
283.256
283.274
283.292
283.307
283.32
283.329
283.333
283.334
283.331
283.326
283.321
283.318
283.319
283.327
283.341
283.354
283.365
283.374
283.38
283.384
283.385
283.384
283.381
283.377
283.37
283.363
283.355
283.347
283.338
283.33
283.323
283.316
283.309
283.303
283.298
283.294
283.291
283.288
283.286
283.284
283.284
283.284
283.284
283.286
283.288
283.29
283.293
283.297
283.301
283.306
283.31
283.315
283.319
283.324
283.328
283.332
283.336
283.338
283.341
283.342
283.343
283.344
283.343
283.342
283.34
283.338
283.335
283.331
283.326
283.321
283.315
283.309
283.302
283.295
283.287
283.279
283.272
283.265
283.26
283.263
283.287
283.37
283.57
283.894
284.244
284.474
284.487
284.365
284.49
283.613
283.281
283.195
283.177
283.176
283.181
283.188
283.199
283.214
283.232
283.252
283.274
283.296
283.316
283.334
283.347
283.356
283.359
283.357
283.351
283.342
283.332
283.325
283.324
283.332
283.347
283.361
283.373
283.382
283.387
283.39
283.389
283.385
283.379
283.372
283.362
283.352
283.341
283.33
283.32
283.31
283.301
283.292
283.285
283.279
283.273
283.268
283.264
283.261
283.259
283.257
283.256
283.256
283.256
283.257
283.259
283.262
283.265
283.269
283.273
283.278
283.284
283.289
283.295
283.301
283.307
283.313
283.318
283.323
283.327
283.331
283.334
283.336
283.338
283.339
283.338
283.337
283.336
283.333
283.33
283.326
283.321
283.315
283.308
283.301
283.294
283.285
283.277
283.27
283.264
283.264
283.283
283.352
283.525
283.823
284.167
284.417
284.455
284.341
284.45
283.595
283.273
283.192
283.176
283.175
283.181
283.189
283.203
283.221
283.242
283.267
283.293
283.319
283.342
283.362
283.377
283.385
283.387
283.383
283.372
283.358
283.343
283.332
283.328
283.336
283.352
283.367
283.38
283.388
283.393
283.393
283.39
283.384
283.375
283.363
283.351
283.338
283.324
283.311
283.299
283.288
283.278
283.269
283.261
283.255
283.249
283.244
283.24
283.237
283.234
283.232
283.231
283.23
283.23
283.23
283.232
283.234
283.237
283.24
283.245
283.25
283.255
283.262
283.268
283.275
283.282
283.289
283.296
283.303
283.309
283.315
283.32
283.324
283.328
283.33
283.332
283.333
283.333
283.332
283.33
283.327
283.323
283.318
283.312
283.305
283.298
283.29
283.282
283.274
283.267
283.266
283.281
283.341
283.495
283.771
284.109
284.37
284.426
284.317
284.417
283.582
283.269
283.189
283.174
283.175
283.181
283.191
283.206
283.227
283.253
283.282
283.312
283.342
283.368
283.39
283.406
283.415
283.416
283.41
283.395
283.375
283.354
283.338
283.332
283.34
283.357
283.373
283.386
283.394
283.397
283.395
283.389
283.379
283.367
283.353
283.337
283.321
283.306
283.291
283.278
283.266
283.256
283.247
283.24
283.234
283.229
283.224
283.221
283.217
283.214
283.212
283.21
283.208
283.207
283.207
283.208
283.209
283.211
283.214
283.217
283.222
283.228
283.234
283.241
283.248
283.256
283.264
283.272
283.28
283.288
283.296
283.303
283.309
283.314
283.319
283.323
283.325
283.327
283.328
283.327
283.325
283.323
283.319
283.314
283.308
283.301
283.293
283.285
283.276
283.269
283.267
283.28
283.334
283.475
283.735
284.065
284.333
284.401
284.294
284.389
283.574
283.266
283.188
283.173
283.174
283.18
283.192
283.209
283.233
283.263
283.296
283.33
283.363
283.393
283.417
283.434
283.444
283.445
283.437
283.419
283.394
283.366
283.344
283.336
283.343
283.361
283.378
283.391
283.398
283.399
283.395
283.386
283.374
283.358
283.341
283.322
283.304
283.287
283.271
283.258
283.246
283.237
283.23
283.224
283.219
283.214
283.21
283.207
283.203
283.2
283.197
283.194
283.192
283.19
283.188
283.188
283.188
283.189
283.19
283.193
283.197
283.202
283.207
283.214
283.221
283.23
283.238
283.247
283.256
283.266
283.275
283.283
283.291
283.299
283.305
283.311
283.316
283.319
283.322
283.323
283.322
283.321
283.318
283.314
283.309
283.302
283.295
283.287
283.278
283.271
283.268
283.28
283.33
283.462
283.71
284.032
284.304
284.378
284.272
284.365
283.569
283.266
283.188
283.172
283.173
283.18
283.192
283.212
283.238
283.27
283.307
283.345
283.382
283.413
283.438
283.457
283.468
283.471
283.463
283.443
283.412
283.378
283.351
283.339
283.346
283.365
283.383
283.395
283.401
283.4
283.394
283.382
283.367
283.348
283.328
283.307
283.287
283.269
283.253
283.24
283.23
283.223
283.217
283.213
283.209
283.205
283.202
283.198
283.195
283.191
283.187
283.183
283.18
283.177
283.174
283.172
283.171
283.17
283.171
283.172
283.175
283.179
283.184
283.19
283.197
283.205
283.213
283.223
283.233
283.243
283.253
283.264
283.273
283.283
283.291
283.299
283.305
283.311
283.315
283.317
283.318
283.318
283.316
283.313
283.308
283.302
283.295
283.287
283.279
283.272
283.269
283.28
283.328
283.454
283.692
284.008
284.28
284.357
284.251
284.344
283.568
283.268
283.188
283.172
283.172
283.179
283.192
283.212
283.24
283.275
283.315
283.356
283.395
283.427
283.453
283.473
283.488
283.494
283.487
283.465
283.43
283.39
283.357
283.342
283.35
283.368
283.387
283.399
283.404
283.401
283.392
283.377
283.359
283.338
283.315
283.292
283.27
283.252
283.237
283.226
283.219
283.213
283.21
283.207
283.205
283.202
283.199
283.195
283.191
283.186
283.181
283.176
283.171
283.167
283.162
283.159
283.156
283.154
283.154
283.154
283.156
283.158
283.162
283.167
283.174
283.182
283.19
283.2
283.21
283.222
283.233
283.244
283.256
283.267
283.277
283.286
283.295
283.302
283.308
283.312
283.314
283.315
283.314
283.312
283.307
283.302
283.295
283.288
283.28
283.273
283.27
283.281
283.328
283.45
283.68
283.989
284.261
284.339
284.233
284.328
283.57
283.271
283.189
283.172
283.171
283.178
283.191
283.211
283.24
283.277
283.319
283.362
283.401
283.433
283.458
283.48
283.5
283.511
283.508
283.486
283.447
283.401
283.362
283.346
283.353
283.372
283.391
283.403
283.406
283.4
283.389
283.372
283.351
283.327
283.302
283.277
283.255
283.238
283.225
283.217
283.212
283.209
283.208
283.206
283.205
283.203
283.2
283.195
283.19
283.184
283.178
283.171
283.164
283.158
283.152
283.147
283.143
283.14
283.138
283.138
283.138
283.14
283.143
283.147
283.153
283.161
283.169
283.179
283.19
283.202
283.214
283.227
283.24
283.252
283.264
283.276
283.286
283.294
283.301
283.307
283.31
283.312
283.312
283.31
283.306
283.301
283.294
283.287
283.279
283.272
283.27
283.282
283.328
283.447
283.672
283.976
284.244
284.323
284.216
284.316
283.576
283.276
283.192
283.172
283.17
283.176
283.188
283.209
283.238
283.275
283.318
283.362
283.4
283.429
283.452
283.478
283.504
283.522
283.525
283.504
283.463
283.411
283.368
283.349
283.356
283.376
283.395
283.406
283.407
283.4
283.386
283.367
283.343
283.317
283.289
283.264
283.242
283.226
283.216
283.211
283.209
283.209
283.21
283.21
283.209
283.206
283.202
283.197
283.19
283.183
283.174
283.166
283.157
283.149
283.141
283.135
283.129
283.125
283.123
283.121
283.121
283.123
283.125
283.129
283.135
283.142
283.151
283.161
283.172
283.185
283.198
283.213
283.227
283.241
283.254
283.267
283.278
283.288
283.297
283.303
283.307
283.31
283.31
283.308
283.305
283.3
283.293
283.286
283.278
283.272
283.27
283.282
283.329
283.447
283.667
283.966
284.231
284.308
284.202
284.309
283.586
283.283
283.195
283.172
283.169
283.174
283.185
283.205
283.233
283.27
283.313
283.355
283.391
283.415
283.437
283.467
283.502
283.528
283.537
283.519
283.475
283.42
283.373
283.352
283.359
283.379
283.399
283.408
283.408
283.398
283.383
283.361
283.335
283.307
283.278
283.252
283.232
283.218
283.211
283.209
283.21
283.212
283.214
283.215
283.214
283.211
283.206
283.199
283.191
283.182
283.171
283.16
283.149
283.139
283.129
283.121
283.115
283.11
283.107
283.105
283.105
283.106
283.108
283.113
283.118
283.126
283.135
283.146
283.158
283.172
283.186
283.202
283.217
283.233
283.248
283.262
283.274
283.285
283.294
283.301
283.306
283.308
283.309
283.307
283.303
283.298
283.291
283.284
283.277
283.271
283.269
283.283
283.331
283.448
283.665
283.958
284.219
284.295
284.189
284.308
283.603
283.294
283.2
283.174
283.168
283.171
283.181
283.199
283.226
283.262
283.303
283.343
283.375
283.392
283.415
283.453
283.495
283.53
283.545
283.53
283.485
283.427
283.377
283.355
283.362
283.383
283.402
283.411
283.408
283.397
283.379
283.356
283.328
283.298
283.268
283.242
283.224
283.213
283.21
283.211
283.214
283.217
283.22
283.22
283.219
283.215
283.21
283.202
283.193
283.181
283.169
283.156
283.142
283.129
283.118
283.108
283.1
283.094
283.09
283.088
283.088
283.09
283.093
283.098
283.104
283.113
283.123
283.135
283.148
283.163
283.179
283.196
283.213
283.229
283.245
283.26
283.273
283.284
283.294
283.301
283.305
283.307
283.307
283.305
283.301
283.296
283.289
283.282
283.275
283.269
283.269
283.283
283.333
283.45
283.664
283.953
284.209
284.283
284.179
284.309
283.634
283.312
283.208
283.177
283.168
283.169
283.177
283.193
283.217
283.25
283.289
283.326
283.352
283.361
283.392
283.438
283.489
283.53
283.55
283.538
283.493
283.432
283.38
283.357
283.365
283.387
283.406
283.412
283.408
283.395
283.376
283.351
283.322
283.29
283.26
283.235
283.218
283.211
283.21
283.214
283.218
283.222
283.225
283.226
283.224
283.22
283.214
283.206
283.195
283.183
283.169
283.154
283.138
283.123
283.109
283.097
283.087
283.079
283.075
283.073
283.073
283.075
283.08
283.086
283.094
283.104
283.115
283.129
283.144
283.161
283.178
283.196
283.214
283.231
283.247
283.262
283.275
283.286
283.295
283.302
283.305
283.307
283.306
283.303
283.299
283.293
283.286
283.279
283.272
283.267
283.267
283.283
283.335
283.453
283.665
283.949
284.199
284.272
284.171
284.307
283.682
283.345
283.223
283.183
283.17
283.168
283.173
283.186
283.206
283.235
283.269
283.301
283.318
283.328
283.374
283.428
283.483
283.529
283.553
283.544
283.498
283.435
283.381
283.359
283.368
283.392
283.409
283.414
283.408
283.394
283.373
283.347
283.316
283.284
283.253
283.23
283.216
283.211
283.213
283.218
283.223
283.227
283.23
283.23
283.229
283.225
283.219
283.211
283.201
283.188
283.174
283.158
283.141
283.124
283.107
283.092
283.08
283.071
283.065
283.062
283.062
283.066
283.072
283.08
283.09
283.102
283.116
283.131
283.148
283.165
283.184
283.202
283.22
283.238
283.254
283.268
283.28
283.29
283.298
283.303
283.306
283.306
283.304
283.301
283.296
283.289
283.282
283.275
283.268
283.264
283.266
283.283
283.337
283.456
283.667
283.947
284.191
284.261
284.164
284.302
283.736
283.401
283.254
283.198
283.177
283.17
283.171
283.179
283.195
283.218
283.246
283.27
283.277
283.308
283.36
283.421
283.48
283.531
283.558
283.548
283.501
283.435
283.38
283.359
283.372
283.396
283.413
283.415
283.408
283.393
283.371
283.344
283.312
283.279
283.249
283.227
283.215
283.213
283.216
283.221
283.226
283.231
283.234
283.235
283.234
283.231
283.226
283.219
283.21
283.198
283.184
283.169
283.152
283.134
283.116
283.1
283.085
283.074
283.066
283.062
283.062
283.066
283.075
283.085
283.097
283.111
283.126
283.143
283.16
283.178
283.197
283.215
283.233
283.249
283.264
283.277
283.287
283.296
283.301
283.305
283.306
283.305
283.302
283.297
283.291
283.285
283.277
283.27
283.264
283.26
283.263
283.283
283.339
283.46
283.67
283.946
284.184
284.252
284.157
284.293
283.793
283.471
283.307
283.231
283.197
283.181
283.175
283.177
283.187
283.203
283.223
283.24
283.253
283.299
283.358
283.422
283.484
283.536
283.564
283.552
283.501
283.432
283.377
283.36
283.376
283.401
283.416
283.417
283.408
283.392
283.369
283.341
283.309
283.276
283.247
283.226
283.216
283.215
283.218
283.224
283.229
283.233
283.237
283.238
283.239
283.237
283.234
283.228
283.221
283.212
283.2
283.187
283.172
283.156
283.139
283.123
283.107
283.094
283.085
283.079
283.079
283.085
283.094
283.105
283.118
283.132
283.148
283.164
283.181
283.199
283.216
283.233
283.249
283.263
283.275
283.286
283.294
283.3
283.304
283.306
283.305
283.303
283.298
283.293
283.286
283.278
283.27
283.263
283.257
283.255
283.26
283.282
283.34
283.464
283.674
283.946
284.178
284.243
284.152
284.28
283.851
283.551
283.378
283.285
283.235
283.209
283.195
283.19
283.192
283.201
283.214
283.228
283.256
283.307
283.368
283.433
283.495
283.546
283.571
283.555
283.498
283.426
283.373
283.361
283.381
283.406
283.418
283.417
283.407
283.391
283.368
283.34
283.308
283.275
283.247
283.228
283.219
283.218
283.221
283.225
283.23
283.235
283.239
283.241
283.243
283.243
283.241
283.238
283.234
283.228
283.22
283.21
283.199
283.187
283.174
283.16
283.147
283.135
283.126
283.12
283.119
283.123
283.131
283.14
283.152
283.165
283.179
283.193
283.209
283.224
283.239
283.253
283.266
283.277
283.287
283.295
283.301
283.304
283.306
283.305
283.303
283.298
283.293
283.286
283.278
283.27
283.262
283.254
283.249
283.248
283.255
283.28
283.342
283.468
283.679
283.948
284.174
284.234
284.146
284.262
283.905
283.635
283.462
283.358
283.296
283.259
283.237
283.225
283.221
283.223
283.232
283.248
283.283
283.334
283.392
283.454
283.513
283.56
283.58
283.556
283.493
283.417
283.367
283.362
283.386
283.411
283.421
283.418
283.408
283.391
283.368
283.34
283.309
283.277
283.25
283.232
283.223
283.22
283.222
283.226
283.231
283.235
283.239
283.243
283.245
283.247
283.248
283.248
283.246
283.244
283.24
283.234
283.228
283.22
283.212
283.203
283.195
283.187
283.18
283.175
283.172
283.172
283.177
283.183
283.192
283.202
283.213
283.225
283.237
283.249
283.261
283.272
283.282
283.29
283.296
283.301
283.304
283.305
283.304
283.302
283.298
283.292
283.285
283.277
283.268
283.259
283.25
283.242
283.238
283.239
283.249
283.277
283.343
283.473
283.686
283.951
284.171
284.226
284.141
284.238
283.951
283.717
283.553
283.445
283.375
283.33
283.301
283.283
283.274
283.273
283.281
283.299
283.332
283.377
283.43
283.485
283.538
283.578
283.589
283.555
283.483
283.405
283.361
283.364
283.392
283.416
283.423
283.419
283.408
283.391
283.369
283.342
283.311
283.281
283.255
283.237
283.227
283.224
283.224
283.227
283.231
283.235
283.239
283.243
283.246
283.25
283.252
283.254
283.255
283.256
283.256
283.254
283.252
283.249
283.246
283.241
283.237
283.232
283.227
283.224
283.221
283.22
283.222
283.225
283.231
283.238
283.246
283.254
283.263
283.272
283.28
283.287
283.294
283.298
283.302
283.304
283.304
283.303
283.3
283.296
283.29
283.283
283.275
283.266
283.255
283.245
283.235
283.227
283.224
283.228
283.242
283.273
283.343
283.479
283.694
283.958
284.169
284.218
284.135
284.205
283.986
283.791
283.644
283.54
283.467
283.417
283.384
283.362
283.35
283.346
283.352
283.369
283.397
283.434
283.478
283.524
283.567
283.598
283.597
283.549
283.468
283.391
283.355
283.367
283.399
283.42
283.424
283.419
283.409
283.393
283.371
283.345
283.316
283.287
283.263
283.244
283.233
283.227
283.226
283.228
283.23
283.234
283.238
283.241
283.245
283.249
283.253
283.256
283.259
283.262
283.265
283.267
283.268
283.269
283.269
283.268
283.267
283.265
283.263
283.261
283.26
283.259
283.258
283.26
283.263
283.267
283.272
283.278
283.283
283.288
283.293
283.297
283.3
283.302
283.303
283.303
283.301
283.298
283.293
283.287
283.28
283.272
283.262
283.252
283.24
283.228
283.216
283.208
283.207
283.215
283.233
283.269
283.345
283.486
283.708
283.97
284.169
284.21
284.13
284.163
284.005
283.851
283.726
283.632
283.563
283.513
283.478
283.454
283.439
283.433
283.437
283.45
283.47
283.498
283.531
283.566
283.599
283.617
283.601
283.537
283.448
283.374
283.35
283.373
283.407
283.424
283.425
283.42
283.41
283.395
283.375
283.35
283.323
283.296
283.272
283.253
283.24
283.233
283.23
283.229
283.23
283.233
283.236
283.239
283.242
283.246
283.249
283.253
283.257
283.261
283.265
283.269
283.273
283.277
283.279
283.282
283.283
283.284
283.284
283.284
283.284
283.283
283.283
283.284
283.285
283.287
283.289
283.292
283.295
283.297
283.299
283.301
283.301
283.301
283.3
283.297
283.293
283.289
283.283
283.275
283.267
283.257
283.247
283.234
283.221
283.208
283.196
283.188
283.188
283.199
283.223
283.266
283.348
283.503
283.732
283.984
284.167
284.201
284.125
284.111
284.008
283.893
283.793
283.714
283.653
283.607
283.573
283.549
283.533
283.525
283.524
283.532
283.545
283.563
283.584
283.608
283.628
283.632
283.597
283.517
283.423
283.357
283.347
283.381
283.414
283.427
283.426
283.421
283.412
283.398
283.38
283.358
283.333
283.308
283.284
283.264
283.25
283.24
283.235
283.233
283.232
283.233
283.234
283.236
283.239
283.241
283.244
283.247
283.25
283.254
283.258
283.263
283.268
283.273
283.278
283.282
283.286
283.289
283.291
283.293
283.294
283.295
283.295
283.295
283.295
283.296
283.297
283.298
283.298
283.299
283.299
283.298
283.296
283.294
283.291
283.287
283.282
283.276
283.269
283.26
283.25
283.24
283.228
283.215
283.201
283.187
283.175
283.166
283.168
283.184
283.215
283.266
283.364
283.534
283.762
283.999
284.165
284.192
284.121
284.054
283.99
283.91
283.837
283.776
283.727
283.688
283.658
283.636
283.619
283.608
283.604
283.605
283.611
283.619
283.63
283.642
283.651
283.639
283.583
283.488
283.393
283.341
283.348
283.391
283.421
283.428
283.427
283.423
283.414
283.402
283.386
283.367
283.344
283.321
283.298
283.279
283.263
283.252
283.244
283.24
283.237
283.236
283.236
283.237
283.237
283.238
283.239
283.24
283.242
283.244
283.247
283.25
283.255
283.26
283.265
283.27
283.276
283.281
283.285
283.289
283.291
283.293
283.294
283.294
283.294
283.294
283.294
283.294
283.293
283.292
283.291
283.288
283.286
283.282
283.278
283.273
283.267
283.259
283.251
283.241
283.23
283.219
283.206
283.193
283.18
283.167
283.155
283.148
283.152
283.173
283.213
283.282
283.4
283.576
283.797
284.016
284.162
284.182
284.116
283.994
283.945
283.894
283.846
283.804
283.769
283.741
283.717
283.698
283.682
283.67
283.662
283.658
283.658
283.659
283.662
283.666
283.664
283.634
283.555
283.449
283.362
283.327
283.354
283.402
283.426
283.43
283.428
283.425
283.418
283.408
283.394
283.377
283.357
283.336
283.315
283.296
283.28
283.267
283.258
283.252
283.248
283.245
283.244
283.242
283.241
283.24
283.239
283.238
283.238
283.237
283.237
283.237
283.239
283.242
283.245
283.25
283.256
283.262
283.267
283.272
283.277
283.28
283.282
283.283
283.283
283.283
283.282
283.282
283.28
283.278
283.276
283.273
283.269
283.265
283.26
283.254
283.247
283.239
283.229
283.218
283.207
283.195
283.183
283.171
283.159
283.148
283.14
283.137
283.146
283.177
283.236
283.322
283.451
283.629
283.837
284.033
284.158
284.171
284.111
283.934
283.861
283.823
283.795
283.772
283.753
283.737
283.723
283.711
283.701
283.692
283.685
283.68
283.677
283.675
283.675
283.675
283.664
283.613
283.513
283.405
283.332
283.32
283.365
283.414
283.429
283.43
283.43
283.427
283.422
283.414
283.403
283.389
283.372
283.353
283.334
283.317
283.301
283.288
283.278
283.271
283.266
283.262
283.259
283.257
283.255
283.253
283.25
283.247
283.244
283.24
283.236
283.233
283.23
283.228
283.227
283.228
283.231
283.235
283.241
283.247
283.252
283.256
283.26
283.262
283.263
283.263
283.263
283.262
283.26
283.258
283.255
283.251
283.247
283.242
283.237
283.231
283.223
283.215
283.204
283.191
283.18
283.169
283.16
283.151
283.145
283.139
283.137
283.142
283.164
283.212
283.283
283.381
283.516
283.688
283.878
284.049
284.153
284.16
284.105
283.872
283.747
283.682
283.653
283.642
283.638
283.64
283.644
283.649
283.655
283.659
283.662
283.665
283.666
283.668
283.67
283.671
283.65
283.573
283.459
283.359
283.308
283.32
283.381
283.423
283.43
283.431
283.431
283.43
283.427
283.421
283.412
283.401
283.387
283.372
283.356
283.34
283.326
283.314
283.304
283.297
283.291
283.288
283.285
283.283
283.281
283.278
283.275
283.271
283.267
283.261
283.254
283.246
283.238
283.23
283.223
283.217
283.213
283.211
283.212
283.215
283.22
283.225
283.23
283.233
283.235
283.236
283.236
283.235
283.233
283.231
283.228
283.224
283.22
283.215
283.209
283.203
283.195
283.186
283.174
283.164
283.157
283.153
283.15
283.149
283.149
283.152
283.159
283.178
283.214
283.272
283.351
283.456
283.59
283.751
283.92
284.064
284.146
284.147
284.099
283.815
283.633
283.53
283.468
283.449
283.451
283.468
283.494
283.524
283.555
283.583
283.607
283.626
283.64
283.651
283.66
283.661
283.621
283.516
283.399
283.319
283.292
283.329
283.399
283.428
283.43
283.431
283.432
283.433
283.431
283.427
283.422
283.413
283.403
283.392
283.379
283.366
283.354
283.344
283.336
283.329
283.325
283.322
283.321
283.32
283.319
283.317
283.315
283.312
283.308
283.302
283.294
283.285
283.274
283.261
283.248
283.234
283.22
283.208
283.198
283.192
283.189
283.19
283.193
283.197
283.2
283.202
283.203
283.202
283.201
283.199
283.196
283.193
283.188
283.184
283.179
283.174
283.169
283.165
283.163
283.163
283.166
283.169
283.173
283.177
283.184
283.195
283.213
283.242
283.288
283.353
283.436
283.541
283.669
283.814
283.958
284.075
284.138
284.134
284.091
283.775
283.559
283.443
283.384
283.359
283.351
283.358
283.381
283.418
283.463
283.509
283.552
283.588
283.617
283.639
283.653
283.644
283.57
283.446
283.344
283.289
283.285
283.345
283.415
283.429
283.429
283.431
283.433
283.435
283.435
283.434
283.43
283.426
283.419
283.411
283.402
283.393
283.385
283.377
283.371
283.367
283.365
283.364
283.364
283.365
283.366
283.367
283.368
283.367
283.364
283.36
283.354
283.345
283.334
283.321
283.305
283.288
283.269
283.248
283.228
283.209
283.191
283.178
283.17
283.167
283.168
283.17
283.172
283.172
283.172
283.172
283.171
283.171
283.172
283.174
283.178
283.184
283.19
283.197
283.204
283.21
283.216
283.221
283.227
283.235
283.247
283.265
283.291
283.329
283.38
283.447
283.53
283.63
283.747
283.872
283.991
284.083
284.127
284.119
284.078
283.755
283.527
283.433
283.38
283.358
283.355
283.354
283.36
283.382
283.422
283.472
283.523
283.57
283.608
283.637
283.647
283.609
283.496
283.377
283.302
283.27
283.287
283.365
283.425
283.428
283.428
283.431
283.434
283.437
283.438
283.439
283.438
283.436
283.433
283.429
283.424
283.419
283.415
283.411
283.408
283.407
283.407
283.409
283.411
283.415
283.419
283.422
283.425
283.427
283.427
283.426
283.422
283.416
283.408
283.397
283.383
283.367
283.348
283.327
283.304
283.279
283.255
283.232
283.211
283.194
283.183
283.179
283.181
283.184
283.188
283.194
283.202
283.212
283.223
283.235
283.246
283.257
283.267
283.274
283.28
283.285
283.29
283.296
283.304
283.316
283.332
283.355
283.387
283.428
283.481
283.547
283.626
283.717
283.819
283.923
284.017
284.085
284.113
284.099
284.056
283.748
283.534
283.44
283.374
283.358
283.37
283.382
283.386
283.397
283.425
283.471
283.523
283.574
283.614
283.64
283.629
283.545
283.415
283.324
283.276
283.262
283.296
283.387
283.427
283.427
283.427
283.43
283.434
283.437
283.44
283.443
283.444
283.445
283.445
283.444
283.443
283.442
283.441
283.441
283.441
283.443
283.446
283.451
283.456
283.461
283.467
283.473
283.478
283.483
283.486
283.488
283.488
283.485
283.481
283.474
283.464
283.451
283.436
283.418
283.399
283.377
283.354
283.332
283.31
283.292
283.277
283.268
283.268
283.273
283.281
283.291
283.303
283.315
283.327
283.337
283.346
283.354
283.359
283.364
283.368
283.372
283.378
283.386
283.396
283.411
283.431
283.457
283.49
283.532
283.584
283.645
283.716