/*--------------------------------*- C++ -*----------------------------------*\
| =========                 |                                                 |
| \\      /  F ield         | OpenFOAM: The Open Source CFD Toolbox           |
|  \\    /   O peration     | Version:  4.1                                   |
|   \\  /    A nd           | Web:      www.OpenFOAM.org                      |
|    \\/     M anipulation  |                                                 |
\*---------------------------------------------------------------------------*/
FoamFile
{
    version     2.0;
    format      ascii;
    class       volVectorField;
    location    "1200";
    object      U;
}
// * * * * * * * * * * * * * * * * * * * * * * * * * * * * * * * * * * * * * //

dimensions      [0 1 -1 0 0 0 0];

internalField   nonuniform List<vector> 
5000
(
(-0.00377497 0.002859 0)
(-0.00586707 0.00148567 0)
(-0.00781137 0.000903625 0)
(-0.00919573 0.000673916 0)
(-0.0103099 0.000554349 0)
(-0.0112472 0.000473127 0)
(-0.0120469 0.000407566 0)
(-0.0127267 0.000349139 0)
(-0.0132951 0.000293975 0)
(-0.0137559 0.000240034 0)
(-0.0141107 0.000186011 0)
(-0.0143592 0.000130787 0)
(-0.0144994 7.32075e-05 0)
(-0.014527 1.17932e-05 0)
(-0.0144362 -5.4387e-05 0)
(-0.0142216 -0.000123646 0)
(-0.0138794 -0.000194828 0)
(-0.0134081 -0.000266863 0)
(-0.0128083 -0.000338496 0)
(-0.0120831 -0.000408292 0)
(-0.0112387 -0.000474751 0)
(-0.0102839 -0.000536423 0)
(-0.00923009 -0.000592012 0)
(-0.00809084 -0.000640372 0)
(-0.00688183 -0.000680358 0)
(-0.00562055 -0.000710455 0)
(-0.00432588 -0.000729139 0)
(-0.00301813 -0.000739811 0)
(-0.00171943 -0.000765368 0)
(-0.000423517 -0.000851533 0)
(0.00113613 -0.000961627 0)
(0.00255029 -0.000949129 0)
(0.00385931 -0.000871241 0)
(0.00510881 -0.000791912 0)
(0.00629695 -0.000725969 0)
(0.00742498 -0.000672552 0)
(0.00849972 -0.000627974 0)
(0.00952843 -0.000589465 0)
(0.0105156 -0.000555126 0)
(0.0114634 -0.000523556 0)
(0.0123723 -0.000493675 0)
(0.0132418 -0.000464665 0)
(0.0140711 -0.000435925 0)
(0.0148586 -0.000407039 0)
(0.0156025 -0.000377734 0)
(0.016301 -0.000347849 0)
(0.0169521 -0.000317308 0)
(0.017554 -0.000286104 0)
(0.0181048 -0.000254277 0)
(0.0186029 -0.000221908 0)
(0.019047 -0.000189106 0)
(0.0194358 -0.000156009 0)
(0.0197683 -0.000122781 0)
(0.020044 -8.96149e-05 0)
(0.0202626 -5.6753e-05 0)
(0.0204241 -2.45291e-05 0)
(0.0205293 6.50536e-06 0)
(0.0205796 3.52826e-05 0)
(0.0205801 6.08309e-05 0)
(0.0205337 8.34842e-05 0)
(0.0204424 0.000104059 0)
(0.0203087 0.000123065 0)
(0.0201352 0.000140672 0)
(0.0199243 0.000156975 0)
(0.0196786 0.000172008 0)
(0.0194008 0.000185772 0)
(0.0190935 0.00019825 0)
(0.0187595 0.000209402 0)
(0.0184018 0.000219182 0)
(0.0180234 0.000227536 0)
(0.0176271 0.000234413 0)
(0.0172161 0.000239768 0)
(0.0167933 0.00024357 0)
(0.0163617 0.000245801 0)
(0.0159243 0.000246468 0)
(0.0154836 0.000245597 0)
(0.0150424 0.000243236 0)
(0.0146031 0.000239453 0)
(0.0141679 0.00023433 0)
(0.0137387 0.000227963 0)
(0.0133174 0.00022045 0)
(0.0129054 0.00021189 0)
(0.0125041 0.000202378 0)
(0.0121147 0.000191997 0)
(0.0117381 0.00018081 0)
(0.0113752 0.000168813 0)
(0.0110271 0.000155778 0)
(0.0106953 0.000140754 0)
(0.0103834 0.000121125 0)
(0.0100994 9.34796e-05 0)
(0.00984987 6.81073e-05 0)
(0.00959856 0.000124037 0)
(0.00914365 0.000504776 0)
(0.00796072 0.00158593 0)
(0.0048478 0.00284152 0)
(-0.000672036 0.000985562 0)
(-0.00210814 -0.000903794 0)
(-0.00158317 -0.00174327 0)
(0.000489485 -0.00214891 0)
(0.0019384 0.00059224 0)
(-0.00340426 0.00625097 0)
(-0.00560389 0.00385778 0)
(-0.00788605 0.00254603 0)
(-0.009474 0.00191826 0)
(-0.0107143 0.00155801 0)
(-0.0117183 0.00130538 0)
(-0.0125419 0.00110032 0)
(-0.0132136 0.000917922 0)
(-0.0137488 0.000746701 0)
(-0.0141567 0.000580798 0)
(-0.0144428 0.000416782 0)
(-0.0146101 0.000252203 0)
(-0.0146598 8.49378e-05 0)
(-0.014589 -8.72607e-05 0)
(-0.014404 -0.000265848 0)
(-0.0141013 -0.000450243 0)
(-0.0136766 -0.000638282 0)
(-0.0131269 -0.000827339 0)
(-0.0124516 -0.00101403 0)
(-0.0116527 -0.00119437 0)
(-0.0107354 -0.00136416 0)
(-0.00970799 -0.00151938 0)
(-0.00858156 -0.00165657 0)
(-0.00736932 -0.00177288 0)
(-0.00608591 -0.00186557 0)
(-0.00474707 -0.00193128 0)
(-0.0033721 -0.00196855 0)
(-0.001989 -0.00199489 0)
(-0.000601094 -0.00206364 0)
(0.000988986 -0.00216586 0)
(0.00232117 -0.00214888 0)
(0.00357054 -0.00204031 0)
(0.00479385 -0.00191095 0)
(0.0059894 -0.00179622 0)
(0.00715134 -0.00170287 0)
(0.00827593 -0.00162605 0)
(0.0093633 -0.00155957 0)
(0.010415 -0.00149922 0)
(0.011432 -0.00144226 0)
(0.0124146 -0.00138672 0)
(0.0133623 -0.00133113 0)
(0.0142741 -0.0012744 0)
(0.0151489 -0.00121576 0)
(0.0159851 -0.00115471 0)
(0.0167813 -0.00109098 0)
(0.017536 -0.00102446 0)
(0.0182475 -0.000955182 0)
(0.0189144 -0.000883264 0)
(0.0195356 -0.000808912 0)
(0.0201099 -0.00073238 0)
(0.0206364 -0.00065397 0)
(0.0211143 -0.000574017 0)
(0.0215433 -0.000492897 0)
(0.0219231 -0.000411034 0)
(0.0222535 -0.000328924 0)
(0.0225348 -0.00024719 0)
(0.0227671 -0.000166698 0)
(0.0229509 -8.87039e-05 0)
(0.0230837 -1.38689e-05 0)
(0.0231654 5.73416e-05 0)
(0.0231979 0.000124761 0)
(0.0231833 0.000188432 0)
(0.0231241 0.00024834 0)
(0.0230229 0.000304391 0)
(0.0228824 0.000356436 0)
(0.0227055 0.00040431 0)
(0.0224951 0.00044786 0)
(0.0222543 0.000486963 0)
(0.0219864 0.000521536 0)
(0.0216945 0.000551538 0)
(0.0213815 0.000576976 0)
(0.0210505 0.000597905 0)
(0.0207043 0.000614435 0)
(0.0203454 0.000626728 0)
(0.0199761 0.000635001 0)
(0.0195985 0.000639521 0)
(0.0192143 0.000640597 0)
(0.0188251 0.000638574 0)
(0.0184318 0.000633809 0)
(0.0180354 0.000626668 0)
(0.0176365 0.000617497 0)
(0.0172356 0.000606616 0)
(0.0168328 0.000594307 0)
(0.0164281 0.000580808 0)
(0.0160217 0.000566311 0)
(0.0156131 0.000550933 0)
(0.015202 0.000534594 0)
(0.0147871 0.000516663 0)
(0.0143656 0.000495697 0)
(0.0139291 0.000472919 0)
(0.0134549 0.000475672 0)
(0.0128844 0.000636446 0)
(0.0121087 0.00130693 0)
(0.0110098 0.00288837 0)
(0.0092788 0.0048026 0)
(0.00684551 0.00513734 0)
(0.00391523 0.00320931 0)
(0.000135397 -0.00144117 0)
(-0.000626307 -0.00342425 0)
(0.00120124 0.00190482 0)
(-0.002825 0.00989601 0)
(-0.00466651 0.00646463 0)
(-0.00681525 0.0044003 0)
(-0.00833097 0.00333196 0)
(-0.00955599 0.00268779 0)
(-0.0105605 0.00222689 0)
(-0.0113892 0.00185184 0)
(-0.0120673 0.00152048 0)
(-0.0126108 0.00121301 0)
(-0.0130305 0.000919138 0)
(-0.0133337 0.000632671 0)
(-0.0135249 0.0003492 0)
(-0.0136055 6.52645e-05 0)
(-0.0135733 -0.000221932 0)
(-0.0134268 -0.000517182 0)
(-0.0131593 -0.000822854 0)
(-0.0127655 -0.00113659 0)
(-0.0122411 -0.00145408 0)
(-0.011584 -0.00176925 0)
(-0.0107956 -0.00207482 0)
(-0.00988107 -0.00236305 0)
(-0.00884944 -0.00262668 0)
(-0.00771304 -0.00285954 0)
(-0.00648641 -0.00305668 0)
(-0.00518509 -0.00321337 0)
(-0.0038272 -0.00332448 0)
(-0.00244503 -0.00339266 0)
(-0.00107366 -0.00345714 0)
(0.000428146 -0.00353837 0)
(0.00176033 -0.00351544 0)
(0.00297005 -0.0033956 0)
(0.00415858 -0.00325262 0)
(0.00532239 -0.00311055 0)
(0.00646063 -0.0029799 0)
(0.00757118 -0.002863 0)
(0.00865142 -0.0027574 0)
(0.00969993 -0.00265949 0)
(0.0107164 -0.0025662 0)
(0.0117007 -0.00247516 0)
(0.0126525 -0.00238444 0)
(0.0135709 -0.00229248 0)
(0.0144549 -0.00219807 0)
(0.015303 -0.00210033 0)
(0.016114 -0.00199872 0)
(0.0168862 -0.00189295 0)
(0.0176184 -0.00178299 0)
(0.0183092 -0.00166898 0)
(0.0189574 -0.0015512 0)
(0.0195622 -0.00143004 0)
(0.0201227 -0.00130596 0)
(0.0206383 -0.00117948 0)
(0.0211088 -0.00105115 0)
(0.0215338 -0.000921558 0)
(0.0219136 -0.000791341 0)
(0.0222481 -0.000661181 0)
(0.0225377 -0.000531826 0)
(0.0227826 -0.00040409 0)
(0.0229831 -0.000278702 0)
(0.0231397 -0.000155989 0)
(0.0232529 -3.65032e-05 0)
(0.0233225 7.84463e-05 0)
(0.0233493 0.000187845 0)
(0.023335 0.000291236 0)
(0.0232814 0.000388323 0)
(0.0231903 0.000478771 0)
(0.023064 0.000562253 0)
(0.0229047 0.000638494 0)
(0.0227148 0.000707307 0)
(0.0224968 0.000768598 0)
(0.0222533 0.000822376 0)
(0.0219867 0.000868757 0)
(0.0216995 0.000907961 0)
(0.0213939 0.000940312 0)
(0.0210719 0.000966232 0)
(0.0207354 0.000986224 0)
(0.020386 0.00100087 0)
(0.0200248 0.00101078 0)
(0.019653 0.00101663 0)
(0.0192712 0.00101905 0)
(0.0188799 0.00101866 0)
(0.0184793 0.00101604 0)
(0.0180695 0.00101169 0)
(0.0176501 0.00100603 0)
(0.0172209 0.000999458 0)
(0.0167812 0.000992346 0)
(0.0163302 0.000985141 0)
(0.0158661 0.00097848 0)
(0.0153859 0.00097352 0)
(0.0148837 0.000973425 0)
(0.0143476 0.000990159 0)
(0.0137599 0.00107009 0)
(0.0131091 0.00136487 0)
(0.0124198 0.00223194 0)
(0.0117311 0.00406219 0)
(0.0108524 0.00629544 0)
(0.00948058 0.00726086 0)
(0.00744492 0.00622956 0)
(0.0047044 0.00303754 0)
(0.000151565 -0.00237045 0)
(0.000283504 0.00231908 0)
(-0.00235036 0.0131024 0)
(-0.00387782 0.00879877 0)
(-0.00581993 0.00611961 0)
(-0.00721356 0.0046904 0)
(-0.00840548 0.00380357 0)
(-0.0094146 0.00315551 0)
(-0.0102654 0.00262304 0)
(-0.010974 0.002153 0)
(-0.0115529 0.00171999 0)
(-0.0120124 0.00130996 0)
(-0.0123601 0.000913217 0)
(-0.0126002 0.000521782 0)
(-0.0127333 0.000128589 0)
(-0.0127565 -0.000272302 0)
(-0.0126627 -0.000687126 0)
(-0.0124448 -0.00111868 0)
(-0.012094 -0.00156444 0)
(-0.0116034 -0.00201827 0)
(-0.0109696 -0.00247092 0)
(-0.0101933 -0.00291109 0)
(-0.00928004 -0.00332678 0)
(-0.00824025 -0.00370673 0)
(-0.00708853 -0.00404158 0)
(-0.00584191 -0.00432386 0)
(-0.00451865 -0.0045466 0)
(-0.00314459 -0.004703 0)
(-0.0017722 -0.00479882 0)
(-0.000377376 -0.00487317 0)
(0.00104629 -0.004862 0)
(0.0022243 -0.0047328 0)
(0.00340006 -0.00456868 0)
(0.00454735 -0.00439848 0)
(0.005666 -0.00423211 0)
(0.00675803 -0.00407434 0)
(0.00782334 -0.00392709 0)
(0.00886071 -0.00378963 0)
(0.00986911 -0.00365961 0)
(0.010848 -0.00353428 0)
(0.0117967 -0.00341102 0)
(0.0127147 -0.00328756 0)
(0.0136008 -0.003162 0)
(0.0144536 -0.00303288 0)
(0.0152717 -0.00289914 0)
(0.0160535 -0.00276019 0)
(0.0167974 -0.00261576 0)
(0.0175022 -0.00246592 0)
(0.0181666 -0.00231095 0)
(0.0187896 -0.00215132 0)
(0.0193705 -0.00198762 0)
(0.0199089 -0.00182053 0)
(0.0204044 -0.00165075 0)
(0.020857 -0.00147902 0)
(0.021267 -0.00130609 0)
(0.0216346 -0.00113271 0)
(0.0219603 -0.000959666 0)
(0.0222446 -0.000787721 0)
(0.022488 -0.000617659 0)
(0.0226912 -0.000450222 0)
(0.0228545 -0.000286067 0)
(0.0229787 -0.000125907 0)
(0.0230646 2.93293e-05 0)
(0.0231111 0.000178113 0)
(0.0231195 0.000319552 0)
(0.0230911 0.000453163 0)
(0.0230269 0.000578516 0)
(0.0229283 0.000695107 0)
(0.0227968 0.000802505 0)
(0.0226342 0.000900399 0)
(0.0224423 0.000988624 0)
(0.0222233 0.00106717 0)
(0.021979 0.00113618 0)
(0.0217114 0.00119596 0)
(0.0214223 0.00124697 0)
(0.0211137 0.00128981 0)
(0.0207869 0.00132519 0)
(0.0204435 0.00135392 0)
(0.0200844 0.0013769 0)
(0.0197106 0.00139503 0)
(0.0193228 0.00140923 0)
(0.0189211 0.00142038 0)
(0.0185059 0.00142926 0)
(0.0180768 0.00143661 0)
(0.0176335 0.00144309 0)
(0.0171755 0.00144932 0)
(0.0167018 0.00145599 0)
(0.0162111 0.00146408 0)
(0.0157016 0.0014752 0)
(0.0151703 0.0014924 0)
(0.014613 0.00152227 0)
(0.014023 0.0015813 0)
(0.0133945 0.00171559 0)
(0.0127351 0.00205636 0)
(0.0120944 0.00291921 0)
(0.0115606 0.0047154 0)
(0.011046 0.00710504 0)
(0.0101969 0.00864456 0)
(0.00864969 0.00830953 0)
(0.00644403 0.00602129 0)
(0.00252396 0.00124055 0)
(-0.000307141 0.0024366 0)
(-0.00198229 0.0157639 0)
(-0.0032858 0.0107867 0)
(-0.00504277 0.00765473 0)
(-0.00631796 0.00596843 0)
(-0.00746519 0.00489629 0)
(-0.00846298 0.00408928 0)
(-0.00932198 0.0034121 0)
(-0.0100507 0.00280904 0)
(-0.0106589 0.00225361 0)
(-0.0111561 0.00173003 0)
(-0.0115494 0.00122581 0)
(-0.0118418 0.00072945 0)
(-0.0120319 0.000229752 0)
(-0.0121144 -0.000283181 0)
(-0.0120775 -0.000818676 0)
(-0.0119123 -0.00138109 0)
(-0.0116062 -0.0019669 0)
(-0.0111499 -0.0025672 0)
(-0.0105385 -0.0031686 0)
(-0.00977197 -0.00375466 0)
(-0.00885679 -0.00430789 0)
(-0.00780534 -0.00481194 0)
(-0.00663516 -0.00525323 0)
(-0.0053669 -0.00562105 0)
(-0.00402383 -0.00590574 0)
(-0.00264331 -0.00609834 0)
(-0.00129355 -0.00620279 0)
(0.000137518 -0.0062134 0)
(0.00136621 -0.00609665 0)
(0.00253269 -0.00590858 0)
(0.00367259 -0.00570836 0)
(0.00477867 -0.00550861 0)
(0.00585393 -0.00531481 0)
(0.00690161 -0.0051303 0)
(0.00792316 -0.00495629 0)
(0.00891875 -0.00479186 0)
(0.00988807 -0.00463459 0)
(0.0108305 -0.00448149 0)
(0.0117453 -0.00432961 0)
(0.0126313 -0.0041763 0)
(0.0134869 -0.00401941 0)
(0.0143105 -0.00385728 0)
(0.0151001 -0.00368884 0)
(0.015854 -0.00351351 0)
(0.0165706 -0.00333118 0)
(0.0172483 -0.00314212 0)
(0.0178859 -0.00294686 0)
(0.0184827 -0.00274614 0)
(0.0190381 -0.00254083 0)
(0.0195517 -0.00233188 0)
(0.0200236 -0.00212024 0)
(0.0204542 -0.00190689 0)
(0.0208438 -0.00169275 0)
(0.0211933 -0.00147874 0)
(0.0215033 -0.00126572 0)
(0.0217749 -0.00105452 0)
(0.0220088 -0.000845935 0)
(0.022206 -0.000640682 0)
(0.0223673 -0.000439428 0)
(0.0224935 -0.000242785 0)
(0.0225858 -5.12491e-05 0)
(0.0226437 0.0001341 0)
(0.022667 0.000311905 0)
(0.0226564 0.00048126 0)
(0.0226125 0.000641506 0)
(0.0225359 0.00079192 0)
(0.0224274 0.000931868 0)
(0.0222879 0.00106083 0)
(0.0221187 0.0011785 0)
(0.0219211 0.00128474 0)
(0.0216964 0.00137966 0)
(0.0214462 0.00146359 0)
(0.0211718 0.00153704 0)
(0.0208748 0.00160073 0)
(0.0205565 0.00165556 0)
(0.0202181 0.00170252 0)
(0.0198605 0.00174274 0)
(0.0194847 0.00177738 0)
(0.0190913 0.0018076 0)
(0.0186806 0.00183454 0)
(0.0182527 0.00185925 0)
(0.0178075 0.00188271 0)
(0.0173446 0.00190583 0)
(0.0168633 0.00192949 0)
(0.0163628 0.0019547 0)
(0.0158417 0.00198285 0)
(0.0152986 0.00201613 0)
(0.0147314 0.00205848 0)
(0.0141378 0.00211748 0)
(0.0135154 0.00220926 0)
(0.0128643 0.0023733 0)
(0.0121952 0.00271678 0)
(0.0115519 0.00350972 0)
(0.0110292 0.00517411 0)
(0.0106146 0.00761463 0)
(0.00999828 0.00964483 0)
(0.00876004 0.0100525 0)
(0.00681028 0.00849059 0)
(0.00382588 0.00510305 0)
(0.000152848 0.00369823 0)
(-0.00169049 0.0180016 0)
(-0.00283805 0.0125043 0)
(-0.00444517 0.0090329 0)
(-0.00561645 0.00716461 0)
(-0.00671003 0.00595301 0)
(-0.00767804 0.00501422 0)
(-0.00852614 0.00420996 0)
(-0.00925897 0.00348757 0)
(-0.00988475 0.00282201 0)
(-0.0104121 0.00219626 0)
(-0.0108469 0.00159447 0)
(-0.0111898 0.00100035 0)
(-0.0114364 0.000397504 0)
(-0.0115778 -0.000228698 0)
(-0.0115971 -0.000888952 0)
(-0.0114835 -0.00158973 0)
(-0.0112207 -0.00232591 0)
(-0.0107973 -0.00308496 0)
(-0.0102068 -0.00384819 0)
(-0.00944949 -0.00459289 0)
(-0.00853246 -0.00529491 0)
(-0.0074703 -0.0059315 0)
(-0.00628392 -0.00648359 0)
(-0.0049985 -0.0069361 0)
(-0.00364438 -0.00727576 0)
(-0.00227207 -0.0074889 0)
(-0.000943795 -0.00757105 0)
(0.000440665 -0.00747885 0)
(0.00158374 -0.00728053 0)
(0.00272249 -0.00704735 0)
(0.00382152 -0.00680913 0)
(0.00488369 -0.00657624 0)
(0.00591483 -0.00635325 0)
(0.00691917 -0.00614218 0)
(0.0078992 -0.00594291 0)
(0.00885595 -0.00575356 0)
(0.00978946 -0.00557111 0)
(0.010699 -0.00539207 0)
(0.0115835 -0.00521303 0)
(0.0124411 -0.00503094 0)
(0.0132698 -0.00484338 0)
(0.0140673 -0.00464856 0)
(0.0148314 -0.00444543 0)
(0.01556 -0.00423354 0)
(0.016251 -0.00401302 0)
(0.0169031 -0.00378441 0)
(0.0175149 -0.0035486 0)
(0.0180857 -0.00330666 0)
(0.018615 -0.00305982 0)
(0.0191027 -0.00280933 0)
(0.019549 -0.00255646 0)
(0.0199547 -0.00230241 0)
(0.0203203 -0.00204834 0)
(0.020647 -0.00179533 0)
(0.0209358 -0.00154433 0)
(0.0211882 -0.00129625 0)
(0.0214054 -0.00105184 0)
(0.0215887 -0.000811805 0)
(0.0217393 -0.000576715 0)
(0.0218585 -0.000347078 0)
(0.0219471 -0.000123246 0)
(0.0220067 9.41729e-05 0)
(0.0220357 0.000304022 0)
(0.0220349 0.000505289 0)
(0.0220043 0.000697066 0)
(0.0219437 0.00087853 0)
(0.0218534 0.00104893 0)
(0.0217336 0.00120762 0)
(0.0215848 0.00135415 0)
(0.0214076 0.00148827 0)
(0.0212026 0.00160997 0)
(0.0209708 0.00171948 0)
(0.0207131 0.00181731 0)
(0.0204305 0.00190417 0)
(0.020124 0.00198102 0)
(0.0197946 0.00204899 0)
(0.0194432 0.00210933 0)
(0.0190706 0.00216339 0)
(0.0186774 0.00221254 0)
(0.0182638 0.00225815 0)
(0.0178303 0.00230153 0)
(0.0173766 0.0023439 0)
(0.0169024 0.00238643 0)
(0.0164074 0.00243024 0)
(0.0158906 0.00247661 0)
(0.0153511 0.00252716 0)
(0.014788 0.00258432 0)
(0.0142 0.00265215 0)
(0.0135862 0.00273791 0)
(0.0129465 0.00285594 0)
(0.0122829 0.00303948 0)
(0.0116043 0.00337808 0)
(0.0109426 0.00410672 0)
(0.0103788 0.00564256 0)
(0.00994169 0.0080787 0)
(0.00939218 0.0104838 0)
(0.00831917 0.0115759 0)
(0.00656767 0.0107506 0)
(0.00400521 0.0080255 0)
(0.000732574 0.00586432 0)
(-0.00145496 0.0199396 0)
(-0.00249544 0.0140336 0)
(-0.00397967 0.0102893 0)
(-0.00505819 0.00828146 0)
(-0.00609108 0.00695972 0)
(-0.00701489 0.00591047 0)
(-0.00783626 0.00499617 0)
(-0.0085586 0.00416939 0)
(-0.00918965 0.00340743 0)
(-0.00973733 0.00269208 0)
(-0.010206 0.0020035 0)
(-0.0105938 0.00131977 0)
(-0.0108927 0.000618458 0)
(-0.0110892 -0.000120424 0)
(-0.0111598 -0.000908428 0)
(-0.0110933 -0.00175391 0)
(-0.0108699 -0.00264946 0)
(-0.0104767 -0.00357773 0)
(-0.00990688 -0.00451379 0)
(-0.00916052 -0.00542774 0)
(-0.0082456 -0.00628768 0)
(-0.00717849 -0.0070631 0)
(-0.00598329 -0.00772799 0)
(-0.00469014 -0.00826147 0)
(-0.00333725 -0.00864542 0)
(-0.00198878 -0.00885905 0)
(-0.000677786 -0.00888164 0)
(0.000615388 -0.00868952 0)
(0.00172165 -0.00842407 0)
(0.00282009 -0.00814361 0)
(0.00387403 -0.00786575 0)
(0.00489099 -0.00759939 0)
(0.00587871 -0.00734827 0)
(0.00684223 -0.00711283 0)
(0.00778456 -0.00689123 0)
(0.00870697 -0.00668025 0)
(0.00960939 -0.00647584 0)
(0.0104908 -0.00627375 0)
(0.0113493 -0.00606992 0)
(0.0121827 -0.00586087 0)
(0.0129882 -0.00564388 0)
(0.013763 -0.00541713 0)
(0.0145044 -0.00517962 0)
(0.0152098 -0.00493119 0)
(0.0158773 -0.0046723 0)
(0.0165052 -0.00440391 0)
(0.0170922 -0.0041273 0)
(0.0176376 -0.00384399 0)
(0.0181411 -0.00355558 0)
(0.0186028 -0.0032637 0)
(0.0190229 -0.00296994 0)
(0.0194023 -0.00267581 0)
(0.019742 -0.00238271 0)
(0.0200432 -0.00209192 0)
(0.0203073 -0.00180457 0)
(0.020536 -0.00152164 0)
(0.0207309 -0.00124395 0)
(0.0208939 -0.00097214 0)
(0.0210265 -0.000706733 0)
(0.0211304 -0.000448093 0)
(0.0212069 -0.000196438 0)
(0.0212583 4.82173e-05 0)
(0.0212833 0.000285473 0)
(0.0212829 0.000514544 0)
(0.0212568 0.00073447 0)
(0.0212047 0.00094435 0)
(0.0211259 0.0011433 0)
(0.0210203 0.00133056 0)
(0.0208876 0.00150552 0)
(0.0207277 0.00166776 0)
(0.0205407 0.0018171 0)
(0.0203266 0.00195365 0)
(0.020086 0.00207776 0)
(0.0198194 0.0021901 0)
(0.0195273 0.00229158 0)
(0.0192104 0.00238333 0)
(0.0188694 0.00246669 0)
(0.0185049 0.0025431 0)
(0.0181174 0.00261411 0)
(0.0177074 0.00268125 0)
(0.0172751 0.00274603 0)
(0.0168206 0.00280992 0)
(0.0163437 0.00287428 0)
(0.0158441 0.00294045 0)
(0.0153213 0.00300987 0)
(0.0147748 0.00308426 0)
(0.014204 0.00316604 0)
(0.0136085 0.00325903 0)
(0.0129882 0.00336979 0)
(0.0123439 0.00351091 0)
(0.011678 0.00371124 0)
(0.0109966 0.00404901 0)
(0.0103205 0.00473445 0)
(0.00970985 0.00617204 0)
(0.009208 0.00858466 0)
(0.00864658 0.0112731 0)
(0.00765979 0.0129541 0)
(0.00607129 0.0128046 0)
(0.0038091 0.0106621 0)
(0.000979735 0.00827925 0)
(-0.00126272 0.0216551 0)
(-0.00223115 0.0154264 0)
(-0.00361053 0.0114474 0)
(-0.00460298 0.00932124 0)
(-0.00556932 0.00790725 0)
(-0.00643815 0.00676457 0)
(-0.00722033 0.005757 0)
(-0.00791949 0.00484245 0)
(-0.0085438 0.0040004 0)
(-0.00910091 0.00321076 0)
(-0.00959375 0.00244856 0)
(-0.0100176 0.00168477 0)
(-0.0103604 0.000889855 0)
(-0.0106034 3.81094e-05 0)
(-0.0107168 -0.00088169 0)
(-0.0106888 -0.00187781 0)
(-0.0104987 -0.0029403 0)
(-0.010133 -0.00404594 0)
(-0.00958475 -0.00516297 0)
(-0.00885425 -0.00625398 0)
(-0.00794948 -0.00727867 0)
(-0.0068877 -0.00819744 0)
(-0.0056955 -0.00897564 0)
(-0.00440784 -0.00958468 0)
(-0.00307057 -0.0100003 0)
(-0.00175934 -0.0101944 0)
(-0.000473272 -0.0101293 0)
(0.00072139 -0.00985125 0)
(0.00179969 -0.00952411 0)
(0.0028504 -0.00919403 0)
(0.00385704 -0.0088764 0)
(0.00482953 -0.00857863 0)
(0.00577649 -0.00830257 0)
(0.00670331 -0.00804637 0)
(0.00761284 -0.00780616 0)
(0.00850595 -0.00757704 0)
(0.00938205 -0.00735371 0)
(0.0102394 -0.00713098 0)
(0.0110756 -0.00690408 0)
(0.0118876 -0.00666908 0)
(0.012672 -0.00642306 0)
(0.0134255 -0.00616423 0)
(0.014145 -0.00589186 0)
(0.014828 -0.00560617 0)
(0.0154722 -0.00530808 0)
(0.0160761 -0.00499907 0)
(0.0166387 -0.00468089 0)
(0.0171592 -0.00435552 0)
(0.0176375 -0.00402495 0)
(0.0180737 -0.00369119 0)
(0.0184683 -0.00335617 0)
(0.0188221 -0.00302169 0)
(0.0191361 -0.00268943 0)
(0.0194116 -0.00236093 0)
(0.0196501 -0.0020375 0)
(0.0198535 -0.00172028 0)
(0.0200237 -0.00141019 0)
(0.0201628 -0.00110791 0)
(0.0202728 -0.000813903 0)
(0.0203559 -0.000528419 0)
(0.0204138 -0.000251519 0)
(0.0204493 1.71631e-05 0)
(0.0204619 0.000277973 0)
(0.0204529 0.00053059 0)
(0.0204224 0.000774324 0)
(0.0203699 0.00100848 0)
(0.0202948 0.00123228 0)
(0.0201963 0.00144496 0)
(0.0200736 0.00164583 0)
(0.019926 0.00183435 0)
(0.019753 0.00201018 0)
(0.0195541 0.00217323 0)
(0.0193291 0.00232371 0)
(0.019078 0.00246211 0)
(0.0188008 0.00258922 0)
(0.0184979 0.0027061 0)
(0.0181697 0.00281404 0)
(0.0178166 0.00291454 0)
(0.017439 0.00300918 0)
(0.0170373 0.00309963 0)
(0.0166117 0.00318753 0)
(0.0161626 0.00327451 0)
(0.0156898 0.00336207 0)
(0.0151934 0.00345171 0)
(0.0146733 0.00354494 0)
(0.0141291 0.0036435 0)
(0.0135609 0.00374968 0)
(0.0129688 0.00386695 0)
(0.0123532 0.00400119 0)
(0.0117153 0.00416366 0)
(0.0110571 0.00438049 0)
(0.0103823 0.00472317 0)
(0.0097027 0.00538567 0)
(0.00905854 0.00675929 0)
(0.00849193 0.009152 0)
(0.00789025 0.0120574 0)
(0.00694736 0.0142274 0)
(0.00548914 0.0146598 0)
(0.00345965 0.0130097 0)
(0.00100497 0.0106103 0)
(-0.00110346 0.0231943 0)
(-0.00202404 0.0167125 0)
(-0.00331117 0.0125204 0)
(-0.00422231 0.0102846 0)
(-0.00511766 0.00878906 0)
(-0.00592348 0.00756647 0)
(-0.0066564 0.00648085 0)
(-0.00732102 0.0054946 0)
(-0.0079265 0.00458869 0)
(-0.00848054 0.00374017 0)
(-0.00898474 0.00291748 0)
(-0.00943164 0.00208294 0)
(-0.00980454 0.00119941 0)
(-0.0100791 0.000236428 0)
(-0.0102259 -0.000819197 0)
(-0.0102251 -0.00196999 0)
(-0.010061 -0.00320358 0)
(-0.00972006 -0.0044902 0)
(-0.00919639 -0.00579153 0)
(-0.00848982 -0.00706323 0)
(-0.00760711 -0.00825648 0)
(-0.00656494 -0.00932125 0)
(-0.00539114 -0.0102123 0)
(-0.0041249 -0.0108908 0)
(-0.00281901 -0.011325 0)
(-0.0015554 -0.0114808 0)
(-0.00031699 -0.0113175 0)
(0.000800866 -0.0109614 0)
(0.001838 -0.0105748 0)
(0.00283738 -0.0101959 0)
(0.00379644 -0.00984139 0)
(0.00472669 -0.00951661 0)
(0.0056367 -0.00922035 0)
(0.00653127 -0.00894783 0)
(0.00741233 -0.0086928 0)
(0.00827981 -0.0084486 0)
(0.00913226 -0.00820866 0)
(0.00996721 -0.00796683 0)
(0.0107815 -0.00771769 0)
(0.0115714 -0.00745692 0)
(0.0123333 -0.00718154 0)
(0.0130634 -0.00688998 0)
(0.0137588 -0.00658195 0)
(0.0144167 -0.00625821 0)
(0.0150355 -0.00592028 0)
(0.0156137 -0.00557017 0)
(0.0161507 -0.00521016 0)
(0.016646 -0.0048426 0)
(0.0170995 -0.00446987 0)
(0.0175116 -0.00409428 0)
(0.0178826 -0.00371803 0)
(0.0182131 -0.00334321 0)
(0.018504 -0.00297176 0)
(0.0187565 -0.00260549 0)
(0.0189719 -0.00224598 0)
(0.0191519 -0.00189461 0)
(0.0192986 -0.00155248 0)
(0.0194141 -0.00122042 0)
(0.0195008 -0.000898938 0)
(0.0195611 -0.00058825 0)
(0.0195974 -0.000288307 0)
(0.0196125 1.59634e-06 0)
(0.0196073 0.000282588 0)
(0.0195833 0.000554969 0)
(0.0195414 0.00081853 0)
(0.0194812 0.00107298 0)
(0.0194023 0.00131785 0)
(0.0193038 0.00155254 0)
(0.0191846 0.00177643 0)
(0.0190436 0.0019889 0)
(0.0188796 0.0021895 0)
(0.0186918 0.00237794 0)
(0.0184793 0.00255421 0)
(0.0182414 0.00271861 0)
(0.017978 0.00287171 0)
(0.0176889 0.00301443 0)
(0.017374 0.00314795 0)
(0.0170337 0.00327368 0)
(0.0166681 0.0033932 0)
(0.0162775 0.00350819 0)
(0.0158624 0.00362037 0)
(0.0154229 0.00373142 0)
(0.0149594 0.00384295 0)
(0.014472 0.0039565 0)
(0.013961 0.0040736 0)
(0.0134266 0.00419593 0)
(0.0128692 0.00432563 0)
(0.0122892 0.00446586 0)
(0.0116875 0.00462197 0)
(0.0110654 0.0048044 0)
(0.0104243 0.00503786 0)
(0.00976581 0.0053904 0)
(0.00909512 0.00604648 0)
(0.00843594 0.00738722 0)
(0.00782108 0.00977484 0)
(0.00717625 0.0128529 0)
(0.00625378 0.0154223 0)
(0.00490106 0.0163385 0)
(0.00306603 0.0150858 0)
(0.00093067 0.0127348 0)
(-0.000968923 0.0245888 0)
(-0.00185761 0.0179118 0)
(-0.00306233 0.0135165 0)
(-0.0038966 0.0111717 0)
(-0.00471809 0.00960032 0)
(-0.00545486 0.00830821 0)
(-0.00612999 0.00715762 0)
(-0.00674932 0.00611418 0)
(-0.0073233 0.00515944 0)
(-0.00785988 0.00426649 0)
(-0.00835969 0.00339561 0)
(-0.00881272 0.00249918 0)
(-0.00919849 0.00153178 0)
(-0.00948863 0.000458991 0)
(-0.00965302 -0.000733251 0)
(-0.00966626 -0.00204017 0)
(-0.00951979 -0.00344433 0)
(-0.00920144 -0.00490959 0)
(-0.00870702 -0.00639249 0)
(-0.00803518 -0.00784353 0)
(-0.00718961 -0.00920598 0)
(-0.00618437 -0.0104179 0)
(-0.00504687 -0.0114209 0)
(-0.00381961 -0.0121632 0)
(-0.00256138 -0.0126043 0)
(-0.00135528 -0.0127063 0)
(-0.00017983 -0.0124452 0)
(0.000867832 -0.0120168 0)
(0.00185525 -0.0115719 0)
(0.00280191 -0.0111483 0)
(0.00371461 -0.0107626 0)
(0.00460548 -0.0104169 0)
(0.00548195 -0.0101058 0)
(0.0063472 -0.00982115 0)
(0.00720156 -0.00955418 0)
(0.00804368 -0.00929671 0)
(0.00887117 -0.00904109 0)
(0.00968088 -0.00878036 0)
(0.0104691 -0.00850858 0)
(0.0112319 -0.00822122 0)
(0.0119653 -0.00791544 0)
(0.0126658 -0.00759011 0)
(0.0133306 -0.00724557 0)
(0.0139577 -0.0068833 0)
(0.0145458 -0.00650548 0)
(0.0150943 -0.00611466 0)
(0.0156029 -0.00571355 0)
(0.0160717 -0.00530481 0)
(0.0165007 -0.00489102 0)
(0.0168903 -0.00447464 0)
(0.0172405 -0.00405805 0)
(0.0175518 -0.00364351 0)
(0.0178246 -0.00323318 0)
(0.0180596 -0.00282912 0)
(0.0182576 -0.00243324 0)
(0.01842 -0.00204724 0)
(0.0185483 -0.00167254 0)
(0.0186448 -0.00131023 0)
(0.0187117 -0.000961025 0)
(0.0187518 -0.000625225 0)
(0.0187678 -0.000302756 0)
(0.0187624 7.30315e-06 0)
(0.0187379 0.000306619 0)
(0.0186963 0.000596151 0)
(0.0186391 0.000876334 0)
(0.0185665 0.00114748 0)
(0.0184784 0.00140962 0)
(0.0183742 0.00166257 0)
(0.0182528 0.00190593 0)
(0.0181129 0.00213919 0)
(0.0179529 0.00236184 0)
(0.0177716 0.00257349 0)
(0.0175676 0.00277392 0)
(0.0173399 0.00296317 0)
(0.0170877 0.0031416 0)
(0.0168105 0.00330988 0)
(0.016508 0.00346899 0)
(0.0161801 0.0036202 0)
(0.015827 0.00376498 0)
(0.0154488 0.00390493 0)
(0.015046 0.00404175 0)
(0.0146189 0.00417709 0)
(0.0141679 0.00431255 0)
(0.0136937 0.00444965 0)
(0.0131968 0.00458988 0)
(0.0126778 0.00473483 0)
(0.0121375 0.00488646 0)
(0.0115768 0.00504773 0)
(0.0109969 0.00522367 0)
(0.0103988 0.00542436 0)
(0.00978339 0.00567412 0)
(0.00915072 0.00604008 0)
(0.00850076 0.00670253 0)
(0.00784412 0.00803638 0)
(0.00720127 0.0104381 0)
(0.00652186 0.0136623 0)
(0.00560979 0.016559 0)
(0.00434472 0.0178703 0)
(0.00267991 0.0169264 0)
(0.000813045 0.0146107 0)
(-0.000852889 0.0258617 0)
(-0.00172008 0.019039 0)
(-0.00285091 0.0144426 0)
(-0.00361297 0.0119835 0)
(-0.00435915 0.0103376 0)
(-0.00502239 0.0089833 0)
(-0.00563234 0.00777812 0)
(-0.00619611 0.00668946 0)
(-0.00672542 0.00569854 0)
(-0.00722862 0.00477345 0)
(-0.00770585 0.00386503 0)
(-0.00814538 0.00291479 0)
(-0.00852393 0.00186866 0)
(-0.00881063 0.0006885 0)
(-0.00897463 -0.000638756 0)
(-0.00898743 -0.00209928 0)
(-0.00884955 -0.00366759 0)
(-0.00855195 -0.00530204 0)
(-0.00809256 -0.00695673 0)
(-0.00746792 -0.00858029 0)
(-0.00667635 -0.0101094 0)
(-0.00572707 -0.0114683 0)
(-0.00464511 -0.0125828 0)
(-0.00347516 -0.0133847 0)
(-0.00228102 -0.0138236 0)
(-0.00114265 -0.0138612 0)
(-4.21382e-05 -0.013508 0)
(0.000936019 -0.0130125 0)
(0.00186755 -0.012513 0)
(0.00276094 -0.0120515 0)
(0.00362875 -0.0116424 0)
(0.00448223 -0.0112825 0)
(0.00532643 -0.0109613 0)
(0.00616204 -0.0106672 0)
(0.00698737 -0.0103893 0)
(0.00779976 -0.0101185 0)
(0.00859607 -0.00984643 0)
(0.00937278 -0.00956553 0)
(0.010126 -0.00926955 0)
(0.0108518 -0.00895394 0)
(0.0115464 -0.00861626 0)
(0.0122069 -0.0082561 0)
(0.0128313 -0.00787466 0)
(0.0134187 -0.00747425 0)
(0.0139686 -0.00705772 0)
(0.0144815 -0.00662811 0)
(0.0149577 -0.00618834 0)
(0.0153978 -0.0057412 0)
(0.0158021 -0.00528922 0)
(0.0161709 -0.00483483 0)
(0.016504 -0.00438034 0)
(0.0168012 -0.00392802 0)
(0.0170624 -0.00348015 0)
(0.0172874 -0.00303902 0)
(0.0174763 -0.00260686 0)
(0.0176297 -0.00218578 0)
(0.0177484 -0.00177767 0)
(0.0178342 -0.00138406 0)
(0.017889 -0.00100606 0)
(0.0179154 -0.000644246 0)
(0.0179167 -0.000298694 0)
(0.017895 3.16007e-05 0)
(0.0178539 0.000348616 0)
(0.0177961 0.000653928 0)
(0.0177235 0.000948699 0)
(0.0176373 0.00123396 0)
(0.0175379 0.00151042 0)
(0.017425 0.00177846 0)
(0.0172978 0.0020381 0)
(0.0171549 0.0022891 0)
(0.0169949 0.00253105 0)
(0.016816 0.0027635 0)
(0.0166168 0.00298608 0)
(0.0163957 0.00319861 0)
(0.0161517 0.00340116 0)
(0.0158838 0.00359415 0)
(0.0155916 0.00377828 0)
(0.0152748 0.00395458 0)
(0.0149333 0.00412434 0)
(0.0145673 0.004289 0)
(0.0141773 0.00445011 0)
(0.0137638 0.00460922 0)
(0.0133276 0.00476783 0)
(0.0128694 0.00492736 0)
(0.0123902 0.00508919 0)
(0.0118911 0.0052548 0)
(0.0113733 0.00542605 0)
(0.010838 0.00560575 0)
(0.0102865 0.00579886 0)
(0.00971985 0.00601553 0)
(0.00913828 0.00628055 0)
(0.00854023 0.00666212 0)
(0.00792158 0.00734057 0)
(0.00728234 0.00868878 0)
(0.00663024 0.0111247 0)
(0.00592919 0.0144811 0)
(0.00502567 0.0176488 0)
(0.00383598 0.0192787 0)
(0.00232217 0.0185617 0)
(0.000679939 0.0162357 0)
(-0.000750774 0.0270299 0)
(-0.0016034 0.0201059 0)
(-0.00266846 0.0153051 0)
(-0.00336342 0.0127215 0)
(-0.00403413 0.010999 0)
(-0.00462071 0.00958644 0)
(-0.00515922 0.00833398 0)
(-0.00565786 0.00720885 0)
(-0.00612942 0.00619117 0)
(-0.00658275 0.00524333 0)
(-0.00701819 0.00430603 0)
(-0.00742344 0.00330919 0)
(-0.00777376 0.00218974 0)
(-0.00803678 0.000906164 0)
(-0.00818153 -0.000551646 0)
(-0.0081792 -0.0021588 0)
(-0.00804055 -0.0038784 0)