/*--------------------------------*- C++ -*----------------------------------*\
| =========                 |                                                 |
| \\      /  F ield         | OpenFOAM: The Open Source CFD Toolbox           |
|  \\    /   O peration     | Version:  4.1                                   |
|   \\  /    A nd           | Web:      www.OpenFOAM.org                      |
|    \\/     M anipulation  |                                                 |
\*---------------------------------------------------------------------------*/
FoamFile
{
    version     2.0;
    format      ascii;
    class       volScalarField;
    location    "1840";
    object      mag(U);
}
// * * * * * * * * * * * * * * * * * * * * * * * * * * * * * * * * * * * * * //

dimensions      [0 1 -1 0 0 0 0];

internalField   nonuniform List<scalar> 
5000
(
0.0042561
0.00440285
0.00462947
0.00431795
0.00390723
0.00350424
0.0031264
0.00278918
0.00245396
0.00197597
0.00131469
0.00118521
0.00238106
0.00396655
0.00508483
0.00575522
0.00483033
0.00304831
0.00860578
0.011605
0.0124755
0.0118423
0.0105322
0.00916821
0.00790744
0.00673374
0.00558887
0.00444912
0.00332182
0.00223718
0.00123267
0.000553821
0.001003
0.00184084
0.00270249
0.00352919
0.00430665
0.00502975
0.00569679
0.00630838
0.00686675
0.00737516
0.00783754
0.00825813
0.00864117
0.00899073
0.00931047
0.00960357
0.00987264
0.0101198
0.0103467
0.0105549
0.0107464
0.0109244
0.0110935
0.0112602
0.0114305
0.0116062
0.0117792
0.0119141
0.0118782
0.0113247
0.0097802
0.00604048
0.00261319
0.00346782
0.00448607
0.0052413
0.00587234
0.00641351
0.00683917
0.00708863
0.0070767
0.00672917
0.00599999
0.00485798
0.00348069
0.00316683
0.00425312
0.0063757
0.00834842
0.00992375
0.0111135
0.0119785
0.0125686
0.0129184
0.0130573
0.0130082
0.0128015
0.0124684
0.0120368
0.0115334
0.0109834
0.0104089
0.00982433
0.00922801
0.00857954
0.0077428
0.00633238
0.00548672
0.00588136
0.00415427
0.00468909
0.00488457
0.00482012
0.00454499
0.00407245
0.00342928
0.00269021
0.0020186
0.00171316
0.0019706
0.00244006
0.00265156
0.00210945
0.00111629
0.00510643
0.00814259
0.0104055
0.0100875
0.00979711
0.00939115
0.00878567
0.00809693
0.00736535
0.00659413
0.00577043
0.00489135
0.00396092
0.00300962
0.00211714
0.00151769
0.0016153
0.0022068
0.0029762
0.00377556
0.0045554
0.00529651
0.00599059
0.00663471
0.00722897
0.00777518
0.00827615
0.00873516
0.00915552
0.00954037
0.00989243
0.0102139
0.0105061
0.0107699
0.0110051
0.0112107
0.0113853
0.0115272
0.0116353
0.0117106
0.0117562
0.0117754
0.0117678
0.0117146
0.0115531
0.0111976
0.0108128
0.00993765
0.00713093
0.00279222
0.00291718
0.00370538
0.00442683
0.00501398
0.00542344
0.00559869
0.0054642
0.00502924
0.00436409
0.00368705
0.00381402
0.0051796
0.00538605
0.00640617
0.00774761
0.009008
0.0100687
0.0109183
0.0115658
0.012019
0.0122847
0.012368
0.0122743
0.0120277
0.0116519
0.0111713
0.0106109
0.00999291
0.00933257
0.00863205
0.0078687
0.00700001
0.0060602
0.0076195
0.00817572
0.00420977
0.00426415
0.00487848
0.00517515
0.00518706
0.00498038
0.00460981
0.00415772
0.00374575
0.00350909
0.00350293
0.00356553
0.00343188
0.00352186
0.00546088
0.00836991
0.0108261
0.0111741
0.00878772
0.00724425
0.00721878
0.00738295
0.00726215
0.00694975
0.00649973
0.00594048
0.00528927
0.00456354
0.00381074
0.00311845
0.00261682
0.00254023
0.00285165
0.00340295
0.00405878
0.00474315
0.00541727
0.00606122
0.00666522
0.00722522
0.00774051
0.00821228
0.00864279
0.00903476
0.00939095
0.00971388
0.0100056
0.0102675
0.0105002
0.0107033
0.0108753
0.0110134
0.0111131
0.0111676
0.0111683
0.0111045
0.0109652
0.0107441
0.0104455
0.0101349
0.0101018
0.0110092
0.0121876
0.0111138
0.00674746
0.00286977
0.00258641
0.00299936
0.00344742
0.00376155
0.00386113
0.00370015
0.00345086
0.00336058
0.00384172
0.00561875
0.00700443
0.00702634
0.00714425
0.00761721
0.00828188
0.00898117
0.00963229
0.0101919
0.0106321
0.0109308
0.011079
0.0110514
0.0108621
0.0105281
0.0100689
0.00950662
0.00886328
0.00815789
0.00740707
0.00664266
0.00606297
0.00650091
0.0105868
0.0103436
0.00516629
0.00454712
0.00513921
0.00562206
0.00587934
0.00592541
0.0058061
0.0055838
0.00536239
0.00526796
0.00537619
0.00565132
0.00605161
0.00672845
0.00793006
0.00972435
0.0112542
0.0107056
0.00747174
0.0053517
0.00582289
0.00643558
0.00666813
0.00665975
0.00648393
0.00617867
0.00576328
0.00525728
0.00470518
0.00417257
0.00373155
0.0035471
0.00366171
0.00400447
0.00449014
0.00504769
0.0056289
0.00620368
0.00675448
0.00727176
0.007751
0.00819083
0.0085917
0.00895516
0.00928317
0.00957778
0.00984071
0.0100732
0.0102756
0.0104475
0.0105874
0.0106922
0.0107572
0.0107754
0.0107372
0.0106286
0.0104388
0.0101581
0.00978461
0.0093923
0.00942597
0.0109642
0.0133979
0.0135802
0.010186
0.00549473
0.00303969
0.00259118
0.00249546
0.00241388
0.00227294
0.00219743
0.00262454
0.00343804
0.00481136
0.00701233
0.00820204
0.00816655
0.00778303
0.00758856
0.00767367
0.00796022
0.00835154
0.00876989
0.00915802
0.0094705
0.00968772
0.0097523
0.00965827
0.00941267
0.00902839
0.00852459
0.00792518
0.00725852
0.006566
0.00594556
0.00581014
0.00746605
0.0132361
0.0123311
0.00650656
0.00525979
0.0056119
0.00616385
0.00657506
0.00682381
0.00690209
0.0068403
0.00672701
0.00669975
0.00686485
0.00722684
0.00772828
0.00831349
0.00897223
0.00987979
0.0104799
0.00940835
0.0061823
0.00428471
0.00501771
0.00577623
0.00620786
0.0064219
0.00647775
0.00640644
0.00622261
0.00594057
0.00559089
0.00521368
0.00484867
0.00460777
0.00458483
0.00475214
0.00506677
0.00547891
0.00594447
0.00642964
0.00691113
0.00737407
0.00780961
0.00821305
0.0085824
0.00891739
0.00921872
0.00948747
0.00972475
0.00993133
0.0101074
0.0102525
0.0103649
0.0104419
0.0104791
0.0104705
0.010407
0.0102791
0.0100773
0.00979179
0.0094222
0.00903313
0.00907388
0.0108168
0.0139389
0.0151252
0.0126767
0.00821981
0.00474462
0.00324114
0.00242862
0.00162715
0.000933152
0.00155678
0.00294684
0.00426154
0.0058716
0.00790404
0.00895381
0.00880386
0.00812713
0.00750958
0.00715799
0.00707314
0.00718782
0.00742366
0.00771204
0.0079979
0.00823635
0.00839884
0.00842583
0.00831185
0.00805951
0.00768223
0.00720498
0.00666552
0.00612771
0.00573346
0.005991
0.00841238
0.0153607
0.0142736
0.00804351
0.00618184
0.00614914
0.00664687
0.00715476
0.00754549
0.00776999
0.00780842
0.00771361
0.0076267
0.00769082
0.00793897
0.00830151
0.00867191
0.00902226
0.00933991
0.00925566
0.00795093
0.00532359
0.00406125
0.00465428
0.00532476
0.00582049
0.00617461
0.00641429
0.00655517
0.00659998
0.00654883
0.00641095
0.0062014
0.00593707
0.00568897
0.0055766
0.00560767
0.00576885
0.00603356
0.00637041
0.00674929
0.00714549
0.00754066
0.00792218
0.00828193
0.00861508
0.00891911
0.00919297
0.00943642
0.00964959
0.00983255
0.00998511
0.0101065
0.0101953
0.0102491
0.0102643
0.0102363
0.0101583
0.0100249
0.00982817
0.0095624
0.00923125
0.00889278
0.0089515
0.0106941
0.0141351
0.016072
0.014515
0.0105294
0.00665887
0.00441904
0.00305632
0.00168054
0.000193284
0.00201646
0.00365992
0.00494325
0.00659524
0.0084727
0.00928825
0.00897319
0.00814137
0.00733525
0.00675173
0.00640984
0.00627601
0.00630339
0.00644155
0.00664407
0.00686666
0.00709697
0.00724175
0.00727702
0.00719052
0.00698575
0.00668455
0.00632829
0.00599114
0.00582639
0.00635278
0.00922727
0.0170953
0.0161516
0.00964167
0.00712156
0.00658395
0.00691814
0.00747792
0.00797129
0.0083132
0.00843009
0.00830923
0.00806926
0.00790613
0.00792096
0.00806253
0.00823013
0.00837988
0.00839372
0.0079996
0.00678638
0.00497572
0.00417758
0.00446847
0.00494489
0.00540772
0.00583959
0.00623187
0.00657824
0.00686017
0.00705398
0.00714244
0.00711611
0.00697293
0.00675845
0.00659835
0.00653151
0.00656553
0.00669398
0.00690078
0.00716459
0.00746376
0.00777944
0.00809675
0.00840473
0.00869582
0.00896507
0.00920938
0.00942689
0.00961642
0.00977711
0.00990809
0.0100083
0.0100764
0.0101104
0.0101079
0.0100657
0.00998053
0.00984913
0.00966743
0.00943458
0.00915845
0.00889418
0.00899166
0.0106453
0.0141633
0.0166481
0.0158861
0.0124669
0.00849845
0.0056897
0.00384623
0.00207432
0.00113541
0.00250546
0.00409305
0.00534667
0.00705576
0.00872342
0.00923788
0.00877488
0.00793613
0.0071563
0.00653711
0.00607081
0.00574214
0.00554793
0.00548079
0.00552996
0.00566924
0.00591722
0.00616251
0.00635218
0.00645004
0.00644264
0.00634218
0.00618607
0.00604763
0.00607355
0.00676628
0.00992175
0.0185627
0.0177509
0.0111571
0.00794248
0.00672695
0.00676716
0.00733823
0.00797808
0.00843458
0.00866689
0.00856545
0.00816835
0.00770632
0.00741522
0.00730935
0.00729518
0.00730536
0.00720936
0.00679955
0.00588642
0.00473269
0.00414705
0.00417476
0.00445249
0.00485411
0.00534454
0.00589187
0.00646088
0.0070007
0.00745683
0.00778504
0.00795334
0.0079423
0.00779013
0.00761839
0.00748804
0.00742262
0.00743262
0.00751681
0.00766477
0.00786113
0.00808937
0.00833434
0.00858341
0.0088268
0.00905724
0.00926955
0.00946001
0.00962594
0.00976529
0.00987636
0.00995763
0.0100076
0.0100249
0.0100079
0.00995527
0.00986693
0.0097422
0.00958107
0.00938737
0.00917333
0.0089924
0.00914231
0.0106772
0.0141197
0.0169867
0.0169292
0.0141054
0.0102242
0.00698194
0.00464831
0.00263193
0.00154777
0.00268671
0.004291
0.00550463
0.00727595
0.00866786
0.0088756
0.00836662
0.00768485
0.00708646
0.00655679
0.00606652
0.00560817
0.00520479
0.00488954
0.00471225
0.00469857
0.00489189
0.00521249
0.00555799
0.00585004
0.00604749
0.00614653
0.00617669
0.00620749
0.00637678
0.00716949
0.0105109
0.0198309
0.0186602
0.0124996
0.00880459
0.00670518
0.00603336
0.006474
0.00731114
0.00801217
0.0084428
0.00849636
0.00806313
0.00731067
0.00663351
0.0062416
0.00606194
0.00597738
0.00587608
0.00558299
0.00498511
0.00424199
0.00374803
0.0036022
0.00372314
0.00408074
0.00466362
0.00541149
0.00624117
0.00706048
0.00778669
0.00835623
0.00871854
0.00883986
0.00876791
0.00861457
0.00844924
0.00830953
0.0082204
0.00819408
0.00823132
0.0083246
0.0084618
0.00862933
0.00881425
0.00900534
0.00919348
0.00937147
0.00953376
0.00967603
0.0097949
0.00988765
0.00995213
0.00998664
0.00999001
0.00996163
0.00990154
0.00981263
0.00969695
0.0095588
0.00940627
0.00925534
0.00915804
0.00936622
0.0107822
0.0140617
0.0171784
0.0177365
0.0155088
0.0118327
0.00828695
0.00546279
0.00311114
0.00160223
0.00266579
0.00429481
0.00546792
0.00728247
0.00833497
0.0083254
0.007939
0.00753476
0.00717111
0.00677558
0.00632258
0.00580496
0.00523739
0.00466659
0.00419514
0.00395216
0.00400866
0.00439893
0.0049058
0.0053933
0.0057857
0.0060617
0.0062459
0.00640764
0.00667984
0.00753333
0.0110065
0.0209408
0.018337
0.0132345
0.00993622
0.00760736
0.00568334
0.00483937
0.00565335
0.00697245
0.00761255
0.00798133
0.00776469
0.00690115
0.00579266
0.00500259
0.00464014
0.00448706
0.00443665
0.00429766
0.00395065
0.00344678
0.00298461
0.00270184
0.00269933
0.00309175
0.0038757
0.0049052
0.00602718
0.00712222
0.00809891
0.00888962
0.00942471
0.00967061
0.00968784
0.00957367
0.00939465
0.00920116
0.00903074
0.00890747
0.00884253
0.00883661
0.00888308
0.00897129
0.00908914
0.00922491
0.00936815
0.00951
0.00964317
0.00976173
0.0098609
0.00993687
0.00998671
0.0100084
0.0100008
0.00996402
0.00989976
0.00981248
0.00970718
0.00959222
0.0094798
0.00938935
0.00937144
0.00963904
0.0109505
0.0140247
0.0172862
0.0183748
0.016725
0.0133291
0.00960545
0.00634269
0.00358729
0.00140572
0.00254981
0.00414649
0.00529751
0.00708381
0.00779346
0.00776088
0.0076454
0.00753587
0.00737643
0.00712436
0.00675667
0.00624511
0.00558036
0.00479833
0.00399848
0.00341663
0.00330345
0.00374618
0.00440701
0.00507495
0.00563529
0.00605244
0.00635242
0.00660944
0.00695508
0.00784833
0.0114219
0.0219233
0.0166878
0.0131332
0.0109428
0.0092582
0.00743626
0.00545098
0.00355715
0.00397267
0.00590815
0.00676715
0.0071049
0.00651736
0.00516908
0.00378803
0.00310522
0.00288416
0.00294633
0.00300004
0.00286277
0.00250353
0.0020116
0.00153359
0.00141995
0.00208044
0.00324693
0.00460326
0.00598536
0.00729825
0.00846599
0.00942902
0.0100882
0.0104464
0.010557
0.0104889
0.0103092
0.010077
0.00984032
0.0096332
0.00947616
0.00937766
0.00933689
0.00934684
0.00939716
0.0094764
0.00957337
0.00967796
0.00978138
0.00987623
0.00995638
0.0100169
0.0100541
0.0100655
0.0100498
0.0100077
0.00994207
0.00985867
0.0097651
0.00967305
0.00959846
0.00956405
0.00961917
0.00994467
0.0111717
0.0140302
0.0173565
0.0188959
0.0177941
0.014725
0.0109403
0.00735246
0.00425456
0.00135808
0.00236686
0.00386308
0.00504591
0.00669173
0.00718251
0.00734719
0.00752014
0.00764738
0.00767385
0.00756257
0.00728887
0.00683186
0.00617411
0.00526591
0.0041815
0.00314004
0.00270612
0.00321974
0.00405786
0.00488468
0.00557229
0.00608897
0.00646877
0.00679286
0.00719291
0.00811665
0.0117724
0.0228029
0.013789
0.0123318
0.0117361
0.0110431
0.00979948
0.00799429
0.00570659
0.00340036
0.00239041
0.00463321
0.00584845
0.00597558
0.00492188
0.0030439
0.00157687
0.00124844
0.00165092
0.00203574
0.00213005
0.00190108
0.00138611
0.000616409
0.000448586
0.0017521
0.0032348
0.00477001
0.00627189
0.0076832
0.00894199
0.00997673
0.0107336
0.0111939
0.0113831
0.0113567
0.0111809
0.0109198
0.0106285
0.0103494
0.0101107
0.00992789
0.00980571
0.00974099
0.00972564
0.00974902
0.00979976
0.00986688
0.00994041
0.0100117
0.0100733
0.0101195
0.0101457
0.0101489
0.010128
0.0100835
0.0100194
0.00994221
0.00986186
0.00979258
0.00975342
0.00977012
0.00989131
0.0102722
0.0114366
0.0140911
0.0174261
0.0193437
0.0187528
0.0160352
0.0122859
0.00850086
0.00515836
0.00167716
0.00211252
0.0034943
0.00477024
0.00613668
0.00666901
0.0070977
0.00751275
0.00784387
0.00804272
0.00807579
0.00791489
0.00753194
0.006901
0.00599929
0.00478466
0.00329895
0.00220259
0.0027133
0.00382667
0.00479907
0.00557052
0.00614829
0.00657885
0.00695029
0.00739367
0.00834581
0.0120726
0.0235989
0.00963909
0.0109925
0.0121057
0.0123772
0.0117249
0.0102744
0.00820374
0.00590351
0.00336609
0.000830773
0.00398424
0.00512223
0.00484538
0.00322149
0.00111375
0.000643053
0.00159475
0.00220052
0.00243414
0.00234211
0.00202241
0.00166752
0.00178664
0.00266062
0.00396416
0.00540403
0.00685453
0.00824573
0.00951358
0.0105878
0.011403
0.0119269
0.0121689
0.0121724
0.0119988
0.0117136
0.0113765
0.0110356
0.0107257
0.0104678
0.0102718
0.0101381
0.010061
0.010031
0.010037
0.0100674
0.0101115
0.0101595
0.0102032
0.0102358
0.0102522
0.010249
0.0102249
0.0101808
0.010121
0.0100528
0.00998749
0.00994136
0.00993583
0.00999931
0.0101804
0.0106147
0.0117387
0.0142154
0.0175251
0.0197578
0.0196356
0.0172755
0.0136292
0.00975087
0.00623719
0.00228052
0.00173638
0.0030211
0.00437964
0.00561556
0.0063158
0.00697881
0.00759361
0.0081005
0.00845919
0.00863744
0.00860396
0.00832503
0.00776404
0.00688304
0.00565322
0.00405048
0.00210111
0.00212902
0.00366602
0.00479764
0.00561777
0.00621946
0.00667577
0.00708075
0.00756161
0.00854414
0.0123355
0.0243259
0.00440397
0.00905875
0.0116521
0.0128118
0.0127679
0.0117096
0.00989234
0.00772234
0.00536857
0.00296485
0.00254201
0.00431485
0.00481201
0.00387754
0.00245918
0.00204164
0.00268427
0.00325627
0.0035063
0.00347426
0.00327936
0.00311366
0.00329735
0.00396507
0.00503394
0.00630922
0.0076514
0.00897326
0.0102031
0.0112667
0.0120947
0.0126444
0.0129118
0.0129291
0.0127517
0.0124437
0.0120668
0.0116732
0.0113019
0.010979
0.0107179
0.0105226
0.0103894
0.0103102
0.0102742
0.0102698
0.0102854
0.0103109
0.010337
0.0103565
0.0103638
0.0103554
0.0103298
0.0102884
0.0102355
0.0101789
0.0101309
0.0101091
0.0101364
0.0102438
0.0104803
0.0109675
0.0120734
0.0144086
0.0176795
0.0201751
0.0204765
0.0184626
0.014958
0.0110581
0.0074207
0.00293383
0.00115707
0.0025217
0.00399083
0.00521462
0.00610332
0.00695488
0.00773242
0.00839171
0.00889852
0.0092208
0.00932441
0.00917075
0.0087159
0.00791156
0.00670914
0.00507072
0.00298164
0.0010399
0.00343152
0.00484252
0.00571521
0.00630529
0.00676037
0.00718567
0.00770048
0.00871756
0.0125712
0.0249952
0.00174303
0.00651118
0.0102552
0.0123066
0.0129121
0.0122819
0.0107484
0.00876979
0.00661968
0.00464478
0.00381777
0.0046767
0.00526839
0.00487916
0.00395795
0.00352031
0.0038868
0.0044132
0.00468696
0.00469547
0.00456019
0.00447566
0.00467318
0.00524499
0.00616823
0.00730993
0.00854498
0.00978465
0.010955
0.0119807
0.0127902
0.0133349
0.0136025
0.0136167
0.0134271
0.0130953
0.0126832
0.0122446
0.0118219
0.011444
0.0111277
0.0108793
0.0106972
0.0105743
0.0105003
0.0104636
0.0104525
0.0104562
0.0104652
0.0104719
0.0104705
0.0104575
0.0104316
0.0103945
0.0103508
0.0103083
0.0102801
0.0102842
0.0103451
0.0104954
0.0107855
0.0113278
0.0124383
0.0146747
0.0179115
0.0206302
0.0213083
0.0196146
0.0162654
0.0123877
0.00865537
0.00361322
0.000683197
0.00216682
0.00369553
0.00496329
0.00600589
0.00699584
0.00790178
0.00869112
0.00933315
0.00979553
0.0100417
0.0100292
0.00970828
0.00902294
0.0079129
0.00631897
0.00419321
0.0015049
0.0027286
0.00485449
0.00585103
0.00641794
0.00684084
0.00726742
0.00781125
0.0088679
0.0127868
0.0256152
0.00343474
0.00327358
0.00822423
0.0111849
0.0124126
0.0121788
0.0109106
0.00914598
0.00722794
0.00562682
0.00519414
0.00586332
0.00633696
0.00609099
0.00539668
0.00490434
0.00500455
0.00541128
0.00569074
0.00574015
0.00565693
0.00563204
0.00584474
0.0063776
0.00722345
0.00827789
0.00943162
0.0106005
0.0117111
0.0126883
0.0134607
0.0139785
0.0142258
0.0142218
0.0140118
0.0136546
0.0132107
0.0127346
0.0122699
0.0118476
0.0114865
0.0111945
0.0109716
0.0108114
0.0107042
0.0106386
0.0106027
0.0105857
0.0105779
0.0105718
0.0105617
0.0105443
0.0105187
0.0104872
0.0104544
0.0104284
0.0104224
0.010455
0.0105511
0.0107453
0.0110902
0.011693
0.0128324
0.0150174
0.0182411
0.0211556
0.0221627
0.0207494
0.0175476
0.0137129
0.00989286
0.00433494
0.00127212
0.00216161
0.00359045
0.00486893
0.00599877
0.00707553
0.00807559
0.0089717
0.00973426
0.0103301
0.0107208
0.0108605
0.0106953
0.0101627
0.00919415
0.00771822
0.00567014
0.00300535
0.000618464
0.00466559
0.00596934
0.0065603
0.00692911
0.00733059
0.00789278
0.00899299
0.0129851
0.0261917
0.00472006
0.00175809
0.00624179
0.00988441
0.0115974
0.0116263
0.0105397
0.00896149
0.00731272
0.00622509
0.00636861
0.00712177
0.0075077
0.0072602
0.00662319
0.00606685
0.00594651
0.00618371
0.00642586
0.00650418
0.00647566
0.00651688
0.0067684
0.00730894
0.00812999
0.00914057
0.0102442
0.0113622
0.0124224
0.0133499
0.0140755
0.0145517
0.0147637
0.0147297
0.0144925
0.0141085
0.0136364
0.01313
0.0126329
0.0121769
0.0117816
0.011456
0.0112008
0.0110104
0.0108752
0.0107842
0.0107257
0.0106889
0.0106646
0.0106455
0.0106263
0.0106044
0.0105795
0.0105544
0.010534
0.0105265
0.0105453
0.0106089
0.0107431
0.0109842
0.0113879
0.0120606
0.0132558
0.015441
0.0186864
0.0217813
0.0230677
0.0218814
0.018801
0.015015
0.0110797
0.00514412
0.00240533
0.00262375
0.00371133
0.00491908
0.00605774
0.00716955
0.00822914
0.00920796
0.0100749
0.0107953
0.0113288
0.0116276
0.011634
0.0112812
0.0104935
0.00919064
0.00729627
0.00475645
0.00167794
0.00336277
0.00597487
0.00670643
0.00703298
0.00738246
0.00794469
0.00908853
0.0131661
0.0267288
0.00513145
0.00230015
0.0042238
0.00874485
0.0107141
0.0107853
0.00975748
0.00833642
0.00707222
0.00672771
0.0074487
0.00824027
0.00848791
0.00815502
0.00749158
0.0068705
0.00659477
0.0066779
0.0068606
0.00695503
0.00698443
0.00710967
0.00742847
0.00801792
0.00885728
0.00986164
0.0109447
0.0120328
0.0130539
0.0139338
0.0146072
0.0150322
0.0151985
0.0151261
0.0148572
0.0144463
0.0139501
0.0134207
0.0129009
0.0124218
0.012003
0.0116539
0.011375
0.0111611
0.0110032
0.0108901
0.0108109
0.0107551
0.0107142
0.0106815
0.0106528
0.010626
0.0106018
0.0105838
0.0105772
0.0105901
0.0106361
0.0107336
0.0109092
0.0112018
0.0116717
0.012428
0.01371
0.0159514
0.0192646
0.0225335
0.0240446
0.0230177
0.0200195
0.0162782
0.012118
0.00613635
0.00359963
0.00333274
0.00402829
0.00507812
0.00615634
0.00725508
0.00834115
0.00937899
0.0103332
0.0111668
0.011838
0.0122974
0.0124856
0.0123321
0.0117563
0.0106702
0.00898595
0.00663662
0.00364958
0.00176969
0.0055004
0.00678625
0.00714254
0.00742973
0.00796953
0.00915148
0.0133283
0.0272291
0.00485679
0.00260197
0.0023839
0.0078218
0.00988134
0.00971786
0.00862987
0.00741965
0.00682452
0.00740112
0.00843458
0.00907615
0.00910367
0.00863329
0.00791122
0.00724102
0.00687345
0.00685626
0.00698953
0.00709898
0.00719574
0.00741222
0.00783203
0.00850775
0.0094004
0.0104292
0.0115171
0.0125931
0.0135842
0.014418
0.015035
0.0154019
0.0155155
0.0153995
0.0150969
0.0146607
0.0141453
0.0136006
0.0130675
0.0125756
0.0121438
0.0117804
0.0114859
0.0112549
0.0110784
0.0109462
0.0108475
0.010773
0.0107151
0.0106682
0.0106291
0.010597
0.0105734
0.0105632
0.0105718
0.0106071
0.0106827
0.010817
0.0110379
0.011388
0.0119343
0.0127933
0.014199
0.0165578
0.0199933
0.0234333
0.0251044
0.0241539
0.021189
0.017483
0.0130173
0.00719273
0.00478033
0.00417005
0.00448234
0.00529825
0.00626608
0.00731208
0.00839601
0.00947078
0.0104945
0.0114274
0.0122267
0.0128427
0.0132156
0.0132733
0.0129318
0.0120972
0.0106715
0.00857022
0.00576397
0.00267164
0.00394402
0.00667351
0.00722346
0.00747277
0.00797256
0.00918284
0.0134709
0.0276954
0.00405918
0.00279792
0.00257789
0.00650626
0.00907326
0.00837285
0.00721334
0.00652263
0.00698027
0.00819544
0.00913083
0.00945717
0.00922879
0.00862071
0.00785433
0.00717242
0.00678025
0.00672427
0.0068347
0.00696933
0.0071478
0.00747227
0.00802054
0.00880612
0.00977405
0.0108495
0.0119612
0.0130375
0.0140032
0.0147889
0.0153448
0.0156482
0.0157047
0.0155429
0.0152069
0.0147485
0.0142197
0.0136675
0.0131302
0.0126353
0.0121996
0.0118302
0.0115268
0.0112837
0.0110921
0.0109423
0.0108247
0.0107312
0.0106554
0.0105932
0.0105429
0.010505
0.0104823
0.0104805
0.0105058
0.0105653
0.0106727
0.0108467
0.0111174
0.0115328
0.0121698
0.0131572
0.0147313
0.0172748
0.0208909
0.0244944
0.026243
0.0252706
0.0222872
0.0185529
0.0138365
0.00824548
0.00591715
0.00502191
0.00493414
0.00550881
0.00634791
0.00732491
0.00838587
0.0094777
0.0105524
0.0115676
0.0124805
0.0132426
0.0137953
0.0140672
0.0139732
0.0134151
0.0122867
0.0104845
0.00794219
0.00475166
0.00275843
0.00580131
0.00720573
0.00749718
0.00795837
0.00918828
0.013596
0.0281308
0.00286472
0.00301184
0.00318959
0.00525655
0.00798387
0.00663924
0.00577697
0.00621392
0.00757499
0.00872759
0.00927159
0.00925232
0.00881546
0.00812665
0.00736499
0.00672159
0.00636852
0.00632333
0.00643771
0.0066131
0.00689156
0.00734538
0.00803813
0.0089448
0.0100021
0.0111409
0.0122896
0.0133709
0.0143083
0.0150401
0.0155288
0.0157643
0.0157616
0.0155541
0.0151872
0.0147111
0.0141752
0.0136233
0.0130902
0.0126007
0.0121689
0.0118002
0.0114928
0.0112408
0.0110357
0.0108688
0.0107318
0.0106181
0.0105232
0.0104446
0.0103821
0.010338
0.0103163
0.0103237
0.0103675
0.0104534
0.0105949
0.0108115
0.0111369
0.0116276
0.0123748
0.0135253
0.0153231
0.0181246
0.0219763
0.0257178
0.0274352
0.0263322
0.0232936
0.0194353
0.0145884
0.00924056
0.00698169
0.00586988
0.00543
0.00571088
0.00639336
0.0072928
0.00831344
0.00940291
0.0105084
0.0115858
0.0125929
0.0134837
0.0142028
0.0146821
0.0148379
0.014571
0.0137693
0.0123163
0.0101153
0.00714147
0.00385535
0.00427798
0.00678995
0.00745921
0.00792163
0.0091743
0.0137125
0.0285379
0.00170918
0.00301578
0.00357059
0.00410606
0.0062122
0.00469122
0.00506557
0.0065569
0.00784698
0.00854541
0.00871377
0.0084705
0.00793809
0.00724655
0.00653945
0.00597659
0.00571071
0.00570632
0.0058456
0.00608353
0.00646757
0.00707943
0.00792627
0.00896047
0.0101197
0.0113342
0.0125236
0.013604
0.0145029
0.0151708
0.0155854
0.0157501
0.015688
0.0154371
0.0150431
0.0145546
0.014018
0.0134734
0.0129519
0.0124745
0.0120524
0.0116884
0.0113796
0.0111198
0.0109011
0.010716
0.0105581
0.0104227
0.010307
0.0102106
0.0101352
0.0100845
0.0100642
0.0100818
0.0101456
0.0102603
0.0104384
0.0107006
0.0110867
0.0116662
0.0125511
0.0139127
0.0160027
0.0191387
0.0232662
0.0270852
0.0286314
0.0272976
0.0241018
0.0202
0.0152396
0.0101429
0.00795328
0.00668517
0.00596353
0.00595654
0.00643253
0.00722676
0.00818998
0.0092566
0.0103712
0.0114878
0.0125653
0.013561
0.0144248
0.0150939
0.0154897
0.0155156
0.0150573
0.0139889
0.0121857
0.00956491
0.00619293
0.00344884
0.00566403
0.00720264
0.0078261
0.00913514
0.0138388
0.0289141
0.00215088
0.00269773
0.00319564
0.00272481
0.00329407
0.00341741
0.00508262
0.00643832
0.00725894
0.00762552
0.00761556
0.00729506
0.00675199
0.00610062
0.00547147
0.00503236
0.00487042
0.00492097
0.00510523
0.00543735
0.00595169
0.00672988
0.00773175
0.00890189
0.0101753
0.0114687
0.0126884
0.01375
0.0145928
0.0151846
0.0155191
0.0156113
0.0154916
0.0152007
0.0147843
0.0142889
0.0137575
0.0132262
0.0127217
0.012261
0.0118515
0.0114938
0.0111837
0.0109149
0.0106807
0.0104754
0.0102944
0.010135
0.0099967
0.00988097
0.00979145
0.00973379
0.00971512
0.0097438
0.00983015
0.00997633
0.0101937
0.0105052
0.0109606
0.0116486
0.0127117
0.014351
0.0168155
0.0203572
0.0247667
0.0285467
0.029752
0.0280563
0.0247646
0.0208136
0.0157765
0.0109351
0.00882398
0.00744573
0.00650228
0.0062378
0.00648408
0.00713876
0.00802927
0.00905215
0.0101536
0.0112852
0.0124065
0.0134785
0.0144572
0.0152879
0.0159005
0.0162057
0.0160927
0.0154319
0.0140837
0.0119242
0.00889499
0.00527353
0.00411086
0.00643145
0.00754714
0.00902549
0.0139826
0.0292485
0.00337172
0.00253462
0.00210647
0.000844375
0.00126731
0.00323779
0.00461901
0.00555155
0.00611791
0.00634705
0.00626346
0.00591109
0.00536978
0.00476073
0.00423181
0.00394869
0.00389596
0.00400842
0.00426429
0.00470342
0.0053953
0.00634768
0.0075132
0.00883463
0.0102262
0.0115824
0.0128045
0.0138195
0.0145858
0.0150898
0.0153396
0.0153596
0.0151851
0.0148583
0.0144242
0.0139268
0.0134054
0.0128916
0.0124074
0.0119651
0.0115685
0.0112159
0.010902
0.0106212
0.0103683
0.0101395
0.00993263
0.00974701
0.00958401
0.00944709
0.00934199
0.00927637
0.00925905
0.00929929
0.00940982
0.00959182
0.00985382
0.010221
0.0107584
0.0115853
0.012889
0.0148965
0.0178241
0.0218173
0.02645
0.0300189
0.0306515
0.028614
0.0252625
0.0212572
0.0161925
0.011607
0.00959122
0.00814036
0.0070206
0.00653966
0.00656034
0.00704222
0.00784006
0.00880205
0.00986957
0.0109927
0.012131
0.0132483
0.0143069
0.0152617
0.0160542
0.0166074
0.016821
0.0165698
0.0157082
0.0140821
0.0115709
0.00815736
0.00453029
0.00497718
0.0068567
0.00877636
0.0143602
0.0293929
0.0043976
0.00253627
0.000728234
0.00164914
0.00202225
0.00300485
0.00388468
0.00452249
0.00489199
0.00497518
0.00478639
0.00438866
0.00383428
0.00327166
0.00291119
0.00278709
0.00283518
0.00301593
0.00338483
0.00396609
0.00485725
0.00600021
0.00735375
0.00883404
0.0103212
0.0116997
0.0128831
0.0138205
0.0144916
0.0148991
0.0150621
0.0150114
0.0147852
0.0144264
0.0139785
0.0134828
0.0129745
0.0124803
0.012017
0.011592
0.0112058
0.0108544
0.0105324
0.0102351
0.00995947
0.00970389
0.00946824
0.00925377
0.00906354
0.00890285
0.00877962
0.0087038
0.00868621
0.00873756
0.00887366
0.00909647
0.00940975
0.0098396
0.0104776
0.0114968
0.0131417
0.0156307
0.0190944
0.0235432
0.028312
0.031264
0.0312604
0.0289528
0.0255757
0.0215293
0.016484
0.0121523
0.0102548
0.00876464
0.00750259
0.00684419
0.00665347
0.00694732
0.00762641
0.00851573
0.00953087
0.0106251
0.0117561
0.0128891
0.0139913
0.0150267
0.0159503
0.0167017
0.0171982
0.0173294
0.0169554
0.0159121
0.014032
0.011209
0.00750491
0.00434089
0.00580302
0.00854142
0.0148137
0.0290263
0.00510975
0.00247088
0.00124839
0.00231869
0.0025495
0.00289801
0.00329747
0.00360473
0.00372964
0.00361122
0.00323084
0.00276749
0.0021808
0.00173621
0.00159051
0.00161658
0.00173428
0.00200703
0.00251734
0.00333785
0.00443351
0.00579663
0.0073511
0.00895724
0.0104819
0.0118261
0.0129286
0.013762
0.0143242
0.0146299
0.0147057
0.014586
0.0143109
0.0139228
0.0134637
0.0129717
0.0124777
0.0120029
0.0115584
0.0111471
0.0107662
0.0104105
0.0100748
0.00975623
0.00945384
0.00916816
0.00890081
0.00865445
0.00843349
0.00824484
0.00809883
0.0080081
0.00798595
0.00804571
0.00820439
0.00847509
0.00883949
0.00932748
0.0100995
0.0114218
0.0135681
0.0166548
0.0207187
0.0256389
0.0299774
0.0321318
0.0315599
0.029067
0.0257006
0.0216317
0.0166492
0.0125676
0.0108166
0.00931916
0.00793949
0.00713737
0.00675578
0.00685379
0.00738354
0.00819325
0.00914383
0.0101935
0.0112981
0.0124221
0.0135352
0.0146083
0.0156085
0.0164933
0.017203
0.0176524
0.0177227
0.0172591
0.0160787
0.0140108
0.010967
0.00729655
0.00548478
0.00841152
0.0149457
0.027866
0.00560015
0.00221495
0.00179188
0.00259268
0.00271048
0.00278359
0.00289231
0.00294695
0.00284331
0.00249845
0.00184057
0.00109883
0.000498041
0.000423566
0.000564249
0.000592013
0.000637153
0.00107516
0.00186783
0.00291908
0.00425583
0.00586089
0.00756219
0.00921035
0.0106992
0.0119568
0.0129455
0.0136569
0.0141018
0.0143031
0.0142917
0.0141044
0.0137817
0.0133657
0.0128964
0.0124085
0.0119279
0.0114699
0.0110399
0.0106365
0.0102547
0.00988829
0.0095335
0.00918924
0.00885683
0.00853813
0.00823586
0.00795349
0.00769629
0.00747247
0.00729528
0.00718088
0.00714562
0.00720674
0.00738059
0.00769402
0.00806649
0.00859224
0.00961535
0.011482
0.0143355
0.0181651
0.0228753
0.0276028
0.0312057
0.0325782
0.0315547
0.0289648
0.0256359
0.0215711
0.0166891
0.0128525
0.0112815
0.00980993
0.00832934
0.00741206
0.00686123
0.0067617
0.00712232
0.00782892
0.00870991
0.00970285
0.0107678
0.0118658
0.0129658
0.0140413
0.0150676
0.0160169
0.0168522
0.0175186
0.0179318
0.0179671
0.0174567
0.0161987
0.0140206
0.0108882
0.00770668
0.00848203
0.0143616
0.0257063
0.0059703
0.00179126
0.0019598
0.00255754
0.00265671
0.00272992
0.00279511
0.00278975
0.00264144
0.00229964
0.00177812
0.001174
0.00105249
0.00122362
0.0011529
0.000868473
0.000466725
0.000847674
0.0017368
0.00290556
0.00447825
0.00623069
0.00795644
0.00955922
0.0109562
0.0120913
0.0129446
0.0135226
0.0138455
0.0139409
0.013842
0.0135869
0.0132166
0.0127725
0.0122926
0.0118076
0.011338
0.0108924
0.0104711
0.0100691
0.00967998
0.00929749
0.00891945
0.00854683
0.00818252
0.00782825
0.00748707
0.0071626
0.00686051
0.00658956
0.00636677
0.00621312
0.00614885
0.00619118
0.0063564
0.00661971
0.00688416
0.00755636
0.00923422
0.0120397
0.0158639
0.0202701
0.0249335
0.0291097
0.0319209
0.0326159
0.0312698
0.0286559