/*--------------------------------*- C++ -*----------------------------------*\
| =========                 |                                                 |
| \\      /  F ield         | OpenFOAM: The Open Source CFD Toolbox           |
|  \\    /   O peration     | Version:  4.1                                   |
|   \\  /    A nd           | Web:      www.OpenFOAM.org                      |
|    \\/     M anipulation  |                                                 |
\*---------------------------------------------------------------------------*/
FoamFile
{
    version     2.0;
    format      ascii;
    class       volScalarField;
    location    "940";
    object      p_rgh;
}
// * * * * * * * * * * * * * * * * * * * * * * * * * * * * * * * * * * * * * //

dimensions      [0 2 -2 0 0 0 0];

internalField   nonuniform List<scalar> 
5000
(
0.0492026
0.049204
0.0492077
0.0492077
0.0492047
0.0492012
0.049198
0.0491952
0.049193
0.0491913
0.0491899
0.0491879
0.0491839
0.0491768
0.0491644
0.0491502
0.0491448
0.0491358
0.0491446
0.0491682
0.0491927
0.0492028
0.0492044
0.0492049
0.0492072
0.0492109
0.0492153
0.0492194
0.0492233
0.0492267
0.0492294
0.0492312
0.0492319
0.0492315
0.04923
0.0492273
0.0492236
0.0492191
0.049214
0.0492085
0.0492028
0.0491971
0.0491915
0.0491861
0.049181
0.0491762
0.0491719
0.049168
0.0491646
0.0491615
0.0491585
0.0491556
0.0491526
0.0491493
0.0491455
0.0491414
0.0491384
0.0491393
0.0491671
0.0491783
0.0491738
0.0491483
0.0491122
0.0490815
0.0490657
0.0490577
0.0490616
0.0490777
0.0490902
0.0490916
0.0490905
0.049095
0.0491046
0.0491137
0.0491184
0.0491209
0.0491243
0.0491299
0.0491376
0.0491465
0.0491555
0.0491639
0.0491717
0.0491789
0.0491857
0.0491922
0.0491981
0.0492034
0.0492077
0.0492107
0.0492117
0.0492101
0.049206
0.0491994
0.0491901
0.0491782
0.0491647
0.0491524
0.0491447
0.0491432
0.0492088
0.0492435
0.0492574
0.0492563
0.049254
0.0492515
0.0492488
0.049246
0.0492431
0.0492398
0.0492358
0.0492305
0.0492222
0.049209
0.0491884
0.0491585
0.04913
0.0491215
0.0491446
0.0491963
0.0492288
0.0492396
0.0492462
0.0492514
0.0492557
0.0492592
0.0492623
0.049265
0.0492674
0.0492695
0.049271
0.0492718
0.0492717
0.0492707
0.0492687
0.0492659
0.0492622
0.049258
0.0492534
0.0492486
0.0492439
0.0492394
0.0492353
0.0492318
0.049229
0.0492269
0.0492254
0.0492238
0.0492219
0.0492197
0.049217
0.0492141
0.0492108
0.0492069
0.0491998
0.0491839
0.0491553
0.0491399
0.0491728
0.0491971
0.0491932
0.0491664
0.0491279
0.0490809
0.0490498
0.0490428
0.0490862
0.0491396
0.0491498
0.0491533
0.049148
0.0491252
0.049115
0.0491189
0.0491261
0.0491333
0.0491413
0.0491498
0.0491579
0.0491655
0.049173
0.0491803
0.0491873
0.049194
0.0492005
0.0492066
0.0492123
0.0492173
0.0492213
0.0492239
0.0492246
0.0492229
0.0492186
0.0492121
0.0492043
0.0491961
0.0491895
0.0491783
0.049167
0.0491416
0.0491943
0.049249
0.0492607
0.049259
0.0492563
0.0492535
0.0492506
0.0492478
0.0492448
0.0492418
0.0492382
0.0492336
0.0492263
0.0492137
0.0491932
0.0491662
0.0491388
0.0491226
0.049146
0.0492085
0.0492372
0.0492429
0.0492476
0.0492519
0.0492558
0.0492592
0.0492622
0.0492647
0.0492669
0.0492689
0.0492703
0.049271
0.0492708
0.0492697
0.0492675
0.0492646
0.0492608
0.0492565
0.0492519
0.0492472
0.0492425
0.0492382
0.0492343
0.049231
0.0492284
0.0492266
0.0492258
0.0492258
0.0492265
0.0492275
0.0492287
0.0492295
0.0492298
0.0492286
0.0492227
0.0492035
0.0491602
0.0491394
0.0491787
0.0492096
0.0492051
0.0491718
0.0491195
0.049067
0.0490398
0.0490557
0.0491305
0.0491535
0.0491542
0.0491409
0.049128
0.0491135
0.0491059
0.0491106
0.0491214
0.0491322
0.0491414
0.0491493
0.0491566
0.0491638
0.0491709
0.0491777
0.0491842
0.0491904
0.0491964
0.0492022
0.0492075
0.0492122
0.0492159
0.0492183
0.0492188
0.0492172
0.0492132
0.049207
0.0491994
0.0491919
0.0491873
0.0491847
0.0491801
0.0491304
0.0491754
0.0492486
0.0492616
0.0492602
0.0492572
0.0492542
0.0492511
0.0492481
0.0492452
0.0492424
0.0492397
0.0492367
0.0492328
0.049227
0.0492179
0.0492044
0.0491841
0.0491674
0.0491847
0.0492386
0.0492434
0.0492453
0.049248
0.0492511
0.0492543
0.0492574
0.0492603
0.0492628
0.0492648
0.0492666
0.049268
0.0492686
0.0492683
0.049267
0.0492648
0.0492616
0.0492578
0.0492534
0.0492487
0.049244
0.0492394
0.0492351
0.0492314
0.0492283
0.049226
0.0492245
0.0492239
0.0492244
0.0492257
0.0492278
0.0492305
0.0492333
0.0492357
0.0492367
0.0492324
0.0492119
0.0491594
0.0491421
0.0491962
0.0492306
0.0492232
0.0491846
0.0491388
0.0490957
0.0490801
0.0491241
0.0491744
0.0491525
0.0491341
0.0491209
0.0491081
0.0490977
0.0490942
0.0491012
0.0491144
0.0491275
0.0491381
0.0491468
0.0491548
0.0491622
0.0491689
0.0491749
0.0491805
0.0491859
0.0491913
0.0491965
0.0492014
0.0492058
0.0492093
0.0492115
0.049212
0.0492106
0.049207
0.0492013
0.0491942
0.049187
0.049182
0.0491861
0.0491866
0.0491202
0.0491573
0.0492466
0.0492617
0.0492608
0.0492578
0.0492545
0.0492513
0.0492481
0.0492452
0.0492424
0.04924
0.049238
0.0492363
0.0492351
0.0492345
0.049234
0.0492308
0.0492268
0.0492361
0.0492484
0.049246
0.049246
0.0492475
0.0492498
0.0492524
0.0492552
0.0492578
0.0492602
0.0492622
0.0492637
0.049265
0.0492656
0.0492652
0.0492638
0.0492613
0.049258
0.0492539
0.0492494
0.0492446
0.0492399
0.0492354
0.0492313
0.0492278
0.0492249
0.0492229
0.0492217
0.0492215
0.0492223
0.049224
0.0492267
0.0492301
0.049234
0.0492377
0.0492401
0.0492366
0.0492141
0.0491528
0.0491466
0.0492214
0.0492531
0.0492379
0.0492064
0.0491732
0.0491472
0.0491451
0.0491684
0.0491608
0.0491376
0.0491182
0.0491034
0.0490923
0.049086
0.0490868
0.0490959
0.04911
0.0491242
0.0491362
0.0491463
0.0491551
0.0491624
0.049168
0.0491725
0.0491768
0.0491812
0.0491858
0.0491904
0.0491949
0.0491989
0.0492021
0.0492042
0.0492049
0.0492038
0.0492008
0.0491958
0.0491892
0.0491821
0.0491767
0.0491798
0.0491885
0.0491124
0.04914
0.0492437
0.0492613
0.0492609
0.0492579
0.0492545
0.049251
0.0492476
0.0492445
0.0492417
0.0492393
0.0492375
0.0492364
0.0492363
0.0492378
0.0492411
0.0492452
0.0492485
0.0492501
0.0492475
0.0492453
0.049245
0.049246
0.0492478
0.0492501
0.0492526
0.049255
0.0492573
0.0492592
0.0492606
0.0492616
0.0492621
0.0492616
0.0492599
0.0492572
0.0492535
0.0492492
0.0492445
0.0492396
0.0492349
0.0492306
0.0492267
0.0492234
0.0492209
0.0492192
0.0492184
0.0492186
0.0492197
0.0492219
0.049225
0.049229
0.0492336
0.0492382
0.0492414
0.0492377
0.0492112
0.0491384
0.0491559
0.0492496
0.0492702
0.0492475
0.0492205
0.0491954
0.049178
0.0491716
0.0491653
0.0491453
0.0491236
0.0491054
0.0490916
0.0490828
0.0490801
0.0490843
0.0490951
0.0491099
0.0491251
0.0491387
0.04915
0.0491585
0.0491638
0.0491669
0.0491696
0.0491725
0.049176
0.0491799
0.049184
0.049188
0.0491917
0.0491947
0.0491968
0.0491977
0.0491972
0.0491949
0.0491909
0.0491852
0.0491781
0.0491716
0.0491707
0.0491889
0.0491068
0.049123
0.0492402
0.0492602
0.0492604
0.0492575
0.0492538
0.0492501
0.0492464
0.049243
0.0492401
0.0492376
0.0492357
0.0492346
0.0492345
0.0492356
0.0492383
0.0492418
0.0492446
0.0492449
0.0492434
0.0492425
0.0492426
0.0492436
0.0492453
0.0492474
0.0492497
0.049252
0.0492542
0.049256
0.0492572
0.0492579
0.0492582
0.0492575
0.0492555
0.0492524
0.0492484
0.0492437
0.0492387
0.0492338
0.0492291
0.0492249
0.0492213
0.0492184
0.0492162
0.0492149
0.0492146
0.0492151
0.0492167
0.0492193
0.0492229
0.0492274
0.0492325
0.0492377
0.0492412
0.0492361
0.0492027
0.0491147
0.0491757
0.0492739
0.0492749
0.0492524
0.0492279
0.0492051
0.0491869
0.0491725
0.049156
0.0491355
0.0491159
0.0490996
0.0490877
0.0490814
0.0490814
0.049088
0.0491003
0.049116
0.049132
0.0491459
0.0491559
0.0491614
0.0491633
0.0491641
0.0491654
0.0491675
0.0491703
0.0491737
0.0491773
0.049181
0.0491844
0.0491873
0.0491895
0.0491907
0.0491909
0.0491897
0.0491871
0.0491828
0.0491767
0.0491686
0.0491599
0.0491589
0.0491088
0.0491062
0.0492361
0.0492585
0.0492592
0.0492563
0.0492525
0.0492485
0.0492445
0.0492409
0.0492376
0.049235
0.0492329
0.0492317
0.0492313
0.049232
0.0492337
0.049236
0.0492379
0.0492386
0.0492386
0.0492387
0.0492394
0.0492407
0.0492424
0.0492444
0.0492466
0.0492488
0.0492508
0.0492524
0.0492534
0.0492538
0.0492538
0.0492529
0.0492506
0.049247
0.0492425
0.0492374
0.0492321
0.049227
0.0492223
0.0492183
0.0492151
0.0492126
0.0492109
0.0492101
0.0492102
0.0492113
0.0492133
0.0492163
0.0492203
0.0492252
0.0492308
0.0492363
0.0492395
0.0492315
0.0491875
0.0490849
0.049204
0.0492806
0.0492723
0.0492524
0.0492301
0.0492085
0.0491891
0.0491713
0.0491528
0.049134
0.0491168
0.0491028
0.0490933
0.0490893
0.0490914
0.0490995
0.0491124
0.0491276
0.0491422
0.0491531
0.0491588
0.0491602
0.0491598
0.0491596
0.0491603
0.0491619
0.0491643
0.0491673
0.0491706
0.0491739
0.0491772
0.04918
0.0491824
0.049184
0.0491849
0.049185
0.0491842
0.0491824
0.049179
0.0491726
0.0491613
0.0491458
0.0491204
0.0490896
0.0492314
0.0492559
0.0492571
0.0492542
0.0492503
0.0492461
0.0492419
0.0492379
0.0492344
0.0492315
0.0492293
0.0492279
0.0492273
0.0492276
0.0492287
0.0492303
0.0492318
0.0492329
0.0492338
0.0492347
0.0492359
0.0492374
0.0492392
0.0492412
0.0492433
0.0492453
0.049247
0.0492484
0.0492492
0.0492493
0.049249
0.0492477
0.049245
0.0492409
0.0492358
0.0492302
0.0492245
0.0492193
0.0492147
0.049211
0.0492081
0.0492062
0.0492051
0.0492048
0.0492054
0.049207
0.0492094
0.0492129
0.0492173
0.0492225
0.0492284
0.049234
0.0492361
0.0492234
0.0491623
0.0490564
0.0492265
0.0492762
0.049266
0.0492484
0.0492287
0.0492088
0.04919
0.0491723
0.0491551
0.0491388
0.0491245
0.0491133
0.0491063
0.0491043
0.0491077
0.0491159
0.0491274
0.0491397
0.0491497
0.0491554
0.0491568
0.0491558
0.0491545
0.049154
0.0491544
0.0491558
0.0491579
0.0491606
0.0491637
0.0491669
0.04917
0.0491729
0.0491754
0.0491775
0.0491792
0.0491805
0.0491816
0.0491826
0.0491832
0.0491826
0.0491784
0.0491662
0.0491387
0.0490732
0.0492258
0.0492523
0.049254
0.0492511
0.0492472
0.0492428
0.0492384
0.0492342
0.0492304
0.0492274
0.0492251
0.0492235
0.0492228
0.0492229
0.0492237
0.049225
0.0492265
0.0492279
0.0492293
0.0492307
0.0492323
0.049234
0.0492358
0.0492377
0.0492396
0.0492413
0.0492428
0.0492439
0.0492444
0.0492443
0.0492436
0.049242
0.0492388
0.0492342
0.0492285
0.0492222
0.0492161
0.0492107
0.0492062
0.0492028
0.0492005
0.0491991
0.0491986
0.049199
0.0492002
0.0492022
0.0492051
0.0492089
0.0492137
0.0492192
0.0492252
0.0492306
0.0492311
0.0492116
0.0491229
0.049037
0.0492384
0.0492674
0.0492572
0.0492416
0.0492243
0.0492067
0.0491898
0.0491739
0.0491591
0.0491457
0.0491345
0.0491261
0.0491213
0.0491206
0.049124
0.0491306
0.0491387
0.0491461
0.0491507
0.049152
0.0491509
0.0491492
0.0491478
0.0491473
0.0491477
0.049149
0.0491509
0.0491535
0.0491565
0.0491596
0.0491628
0.0491659
0.0491687
0.0491712
0.0491736
0.0491758
0.0491784
0.0491815
0.0491855
0.0491905
0.0491953
0.0491936
0.0491667
0.0490565
0.0492191
0.0492474
0.0492494
0.0492467
0.0492429
0.0492386
0.0492341
0.0492297
0.0492258
0.0492227
0.0492203
0.0492188
0.0492181
0.0492182
0.0492189
0.0492202
0.0492217
0.0492233
0.049225
0.0492268
0.0492285
0.0492303
0.0492321
0.0492338
0.0492355
0.0492369
0.049238
0.0492387
0.049239
0.0492386
0.0492375
0.0492356
0.049232
0.0492268
0.0492204
0.0492135
0.0492069
0.0492013
0.0491969
0.0491939
0.0491921
0.0491914
0.0491917
0.0491927
0.0491944
0.049197
0.0492003
0.0492044
0.0492094
0.0492151
0.0492211
0.0492261
0.0492241
0.049193
0.0490793
0.0490294
0.0492403
0.0492562
0.0492463
0.0492326
0.0492174
0.0492022
0.0491875
0.049174
0.0491618
0.0491511
0.0491424
0.0491362
0.0491327
0.0491322
0.0491343
0.0491381
0.0491421
0.049145
0.0491458
0.0491447
0.0491429
0.0491411
0.04914
0.0491396
0.04914
0.0491413
0.0491433
0.0491458
0.0491488
0.0491521
0.0491554
0.0491587
0.0491619
0.0491649
0.0491678
0.0491708
0.0491743
0.0491786
0.0491842
0.0491919
0.0492021
0.0492129
0.0492166
0.0490393
0.0492109
0.0492407
0.0492432
0.0492408
0.0492374
0.0492333
0.0492289
0.0492246
0.0492207
0.0492176
0.0492153
0.0492139
0.0492133
0.0492135
0.0492143
0.0492157
0.0492174
0.0492192
0.0492211
0.0492229
0.0492247
0.0492265
0.0492281
0.0492295
0.0492308
0.0492318
0.0492326
0.049233
0.0492329
0.0492323
0.049231
0.0492287
0.0492246
0.0492188
0.0492117
0.049204
0.0491969
0.049191
0.0491868
0.0491842
0.0491831
0.0491831
0.0491841
0.0491858
0.0491882
0.0491911
0.0491948
0.0491992
0.0492045
0.0492103
0.0492162
0.0492205
0.0492156
0.0491607
0.0490416
0.0490329
0.0492355
0.0492436
0.0492339
0.0492216
0.0492084
0.0491952
0.0491828
0.0491714
0.0491613
0.0491527
0.0491457
0.0491407
0.0491375
0.0491363
0.0491366
0.0491375
0.0491383
0.0491382
0.049137
0.0491352
0.0491334
0.0491319
0.0491309
0.0491307
0.0491314
0.0491327
0.0491348
0.0491375
0.0491406
0.0491441
0.0491477
0.0491514
0.049155
0.0491584
0.0491618
0.0491654
0.0491693
0.049174
0.04918
0.0491877
0.0491969
0.0492059
0.0492113
0.0490211
0.0492007
0.049232
0.049235
0.0492332
0.0492305
0.0492271
0.049223
0.0492188
0.0492151
0.0492121
0.0492101
0.0492089
0.0492086
0.049209
0.0492101
0.0492116
0.0492134
0.0492153
0.0492172
0.0492191
0.0492208
0.0492223
0.0492237
0.0492248
0.0492257
0.0492263
0.0492267
0.0492267
0.0492263
0.0492255
0.0492238
0.0492212
0.0492167
0.0492103
0.0492024
0.049194
0.0491862
0.0491801
0.049176
0.0491738
0.0491733
0.0491742
0.0491759
0.0491784
0.0491813
0.0491847
0.0491886
0.0491932
0.0491986
0.0492045
0.0492103
0.0492137
0.0492048
0.0491204
0.0490113
0.0490444
0.0492264
0.0492296
0.0492201
0.049209
0.0491973
0.049186
0.0491754
0.0491658
0.0491573
0.0491499
0.0491439
0.0491392
0.0491358
0.0491336
0.0491321
0.049131
0.0491298
0.0491282
0.0491264
0.0491244
0.0491228
0.0491216
0.0491209
0.0491209
0.0491218
0.0491233
0.0491255
0.0491284
0.0491318
0.0491355
0.0491395
0.0491436
0.0491476
0.0491515
0.0491554
0.0491593
0.0491635
0.0491682
0.049174
0.049181
0.0491888
0.049196
0.0492005
0.049001
0.0491879
0.0492207
0.0492245
0.0492237
0.0492221
0.0492198
0.0492164
0.0492125
0.0492091
0.0492065
0.0492048
0.049204
0.049204
0.0492047
0.049206
0.0492077
0.0492096
0.0492115
0.0492134
0.0492152
0.0492167
0.0492179
0.0492189
0.0492197
0.0492201
0.0492203
0.0492202
0.0492199
0.0492192
0.0492181
0.0492162
0.0492132
0.0492082
0.0492012
0.0491926
0.0491834
0.049175
0.0491685
0.0491644
0.0491627
0.0491629
0.0491645
0.049167
0.0491702
0.0491736
0.0491773
0.0491814
0.0491862
0.0491917
0.0491976
0.0492031
0.0492053
0.0491883
0.0490772
0.0489886
0.0490595
0.0492142
0.0492143
0.0492051
0.049195
0.0491846
0.0491748
0.0491656
0.0491573
0.0491498
0.0491433
0.0491377
0.049133
0.0491292
0.049126
0.0491234
0.0491211
0.0491189
0.0491167
0.0491146
0.0491128
0.0491113
0.0491104
0.04911
0.0491103
0.0491114
0.0491131
0.0491155
0.0491186
0.0491222
0.0491263
0.0491307
0.0491352
0.0491397
0.0491441
0.0491484
0.0491526
0.0491568
0.0491613
0.0491665
0.0491725
0.049179
0.0491851
0.0491893
0.0489783
0.0491718
0.0492064
0.0492114
0.0492121
0.0492122
0.0492114
0.049209
0.0492058
0.0492028
0.0492007
0.0491995
0.0491992
0.0491996
0.0492007
0.0492022
0.049204
0.049206
0.0492079
0.0492097
0.0492112
0.0492125
0.0492134
0.049214
0.0492143
0.0492143
0.049214
0.0492135
0.0492128
0.0492118
0.0492104
0.0492083
0.0492047
0.0491993
0.0491917
0.0491823
0.0491723
0.0491631
0.0491562
0.0491521
0.0491508
0.0491516
0.049154
0.0491573
0.0491612
0.0491651
0.049169
0.0491731
0.0491779
0.0491834
0.0491893
0.0491946
0.0491956
0.0491617
0.0490365
0.0489731
0.0490742
0.0491998
0.0491979
0.0491891
0.0491798
0.0491706
0.0491619
0.0491538
0.0491464
0.0491398
0.0491337
0.0491283
0.0491235
0.0491193
0.0491156
0.0491123
0.0491093
0.0491067
0.0491043
0.0491022
0.0491006
0.0490994
0.0490987
0.0490986
0.0490992
0.0491004
0.0491023
0.0491049
0.0491082
0.049112
0.0491164
0.0491212
0.0491262
0.0491312
0.0491361
0.0491407
0.0491451
0.0491493
0.0491535
0.0491579
0.0491628
0.0491682
0.0491734
0.0491776
0.0489519
0.0491519
0.0491888
0.0491955
0.0491981
0.0492005
0.0492018
0.049201
0.0491987
0.0491964
0.0491949
0.0491943
0.0491945
0.0491954
0.0491968
0.0491986
0.0492005
0.0492025
0.0492044
0.049206
0.0492073
0.0492083
0.0492088
0.049209
0.0492087
0.0492082
0.0492074
0.0492065
0.0492054
0.0492042
0.0492025
0.0492
0.049196
0.0491899
0.0491816
0.0491715
0.0491607
0.0491507
0.0491432
0.0491392
0.0491382
0.0491397
0.0491427
0.0491467
0.0491512
0.0491555
0.0491594
0.0491634
0.049168
0.0491735
0.0491794
0.0491846
0.0491845
0.0491284
0.0489986
0.0489634
0.0490852
0.0491837
0.0491806
0.0491723
0.0491638
0.0491555
0.0491477
0.0491406
0.0491339
0.0491278
0.0491221
0.0491169
0.049112
0.0491076
0.0491035
0.0490999
0.0490967
0.0490939
0.0490916
0.0490896
0.0490882
0.0490873
0.0490869
0.0490871
0.0490878
0.0490892
0.0490912
0.0490938
0.0490972
0.0491013
0.0491059
0.049111
0.0491165
0.049122
0.0491274
0.0491324
0.049137
0.0491411
0.0491449
0.0491485
0.0491524
0.0491567
0.0491613
0.0491656
0.0489206
0.0491274
0.0491674
0.0491763
0.0491813
0.0491866
0.0491908
0.0491922
0.0491913
0.0491898
0.0491891
0.0491891
0.0491899
0.0491913
0.0491931
0.0491951
0.0491972
0.0491993
0.0492011
0.0492026
0.0492037
0.0492042
0.0492043
0.0492039
0.0492031
0.049202
0.0492007
0.0491993
0.0491979
0.0491964
0.0491945
0.0491915
0.0491869
0.0491802
0.0491712
0.0491602
0.0491485
0.0491377
0.0491297
0.0491256
0.049125
0.049127
0.0491306
0.0491353
0.0491403
0.0491446
0.0491483
0.0491519
0.0491561
0.0491615
0.0491676
0.0491726
0.0491712
0.0490903
0.0489641
0.0489582
0.0490911
0.0491665
0.0491627
0.0491549
0.0491471
0.0491397
0.0491328
0.0491263
0.0491203
0.0491147
0.0491093
0.0491042
0.0490994
0.0490949
0.0490907
0.049087
0.0490838
0.0490811
0.0490789
0.0490772
0.0490761
0.0490755
0.0490754
0.0490758
0.0490766
0.049078
0.04908
0.0490826
0.049086
0.0490901
0.0490949
0.0491003
0.0491062
0.0491122
0.049118
0.0491235
0.0491283
0.0491324
0.0491358
0.0491387
0.0491417
0.049145
0.049149
0.0491533
0.0488838
0.0490979
0.0491421
0.0491537
0.0491614
0.0491702
0.0491783
0.0491828
0.0491837
0.0491832
0.0491834
0.0491842
0.0491856
0.0491875
0.0491897
0.049192
0.0491943
0.0491964
0.0491981
0.0491995
0.0492003
0.0492004
0.0491999
0.0491989
0.0491974
0.0491956
0.0491938
0.049192
0.0491903
0.0491887
0.0491864
0.049183
0.0491777
0.0491701
0.0491602
0.0491484
0.0491357
0.0491241
0.0491156
0.0491114
0.0491112
0.0491137
0.0491178
0.0491229
0.0491283
0.0491325
0.0491354
0.049138
0.0491417
0.0491471
0.0491535
0.0491585
0.0491543
0.0490491
0.0489333
0.0489558
0.0490917
0.0491485
0.0491444
0.0491372
0.0491302
0.0491235
0.0491173
0.0491115
0.0491061
0.0491009
0.0490958
0.049091
0.0490863
0.0490818
0.0490778
0.0490741
0.0490711
0.0490686
0.0490667
0.0490654
0.0490646
0.0490644
0.0490646
0.0490651
0.049066
0.0490673
0.0490691
0.0490715
0.0490747
0.0490787
0.0490836
0.0490891
0.0490953
0.0491017
0.0491081
0.0491141
0.0491192
0.0491233
0.0491264
0.0491287
0.0491307
0.0491332
0.0491367
0.049141
0.0488418
0.0490631
0.0491129
0.0491279
0.0491385
0.0491511
0.049164
0.0491728
0.0491761
0.0491768
0.0491779
0.0491795
0.0491816
0.049184
0.0491866
0.0491892
0.0491917
0.0491939
0.0491957
0.0491969
0.0491972
0.0491968
0.0491956
0.0491937
0.0491915
0.049189
0.0491866
0.0491845
0.0491828
0.0491809
0.0491783
0.0491743
0.0491682
0.0491597
0.0491487
0.0491359
0.0491224
0.0491099
0.0491009
0.0490967
0.049097
0.0490999
0.0491043
0.0491098
0.0491154
0.0491191
0.0491204
0.0491214
0.0491242
0.0491297
0.0491369
0.0491423
0.0491309
0.0490077
0.0489062
0.0489549
0.0490875
0.04913
0.0491259
0.0491195
0.0491131
0.0491072
0.0491017
0.0490965
0.0490916
0.0490869
0.0490822
0.0490775
0.0490731
0.0490688
0.049065
0.0490616
0.0490589
0.0490568
0.0490554
0.0490546
0.0490543
0.0490544
0.0490547
0.0490553
0.0490561
0.0490572
0.0490588
0.0490609
0.0490637
0.0490674
0.0490721
0.0490777
0.0490841
0.0490909
0.0490977
0.0491041
0.0491096
0.0491139
0.0491168
0.0491186
0.0491199
0.0491215
0.0491245
0.0491289
0.0487965
0.0490232
0.0490803
0.0490993
0.0491126
0.0491291
0.0491479
0.0491623
0.0491687
0.0491707
0.0491728
0.0491753
0.049178
0.049181
0.0491841
0.049187
0.0491898
0.0491921
0.0491939
0.0491948
0.0491946
0.0491935
0.0491913
0.0491885
0.0491853
0.0491821
0.0491793
0.049177
0.0491752
0.0491732
0.0491702
0.0491656
0.0491585
0.0491488
0.0491367
0.0491228
0.0491084
0.0490952
0.0490858
0.0490819
0.0490826
0.049086
0.0490906
0.0490962
0.0491018
0.0491044
0.0491032
0.0491016
0.0491031
0.0491091
0.0491175
0.0491242
0.0491024
0.0489664
0.0488825
0.0489541
0.0490793
0.0491112
0.0491074
0.0491018
0.0490962
0.049091
0.0490862
0.0490817
0.0490773
0.0490729
0.0490686
0.0490643
0.0490601
0.0490562
0.0490526
0.0490497
0.0490475
0.049046
0.0490452
0.049045
0.0490451
0.0490456
0.0490462
0.0490467
0.0490474
0.0490482
0.0490493
0.0490509
0.0490532
0.0490565
0.0490608
0.0490662
0.0490726
0.0490797
0.049087
0.0490939
0.0490999
0.0491044
0.0491073
0.0491087
0.0491093
0.0491102
0.0491126
0.049117
0.0487533
0.0489778
0.0490446
0.0490687
0.0490843
0.0491042
0.0491294
0.0491512
0.0491619
0.0491651
0.0491682
0.0491715
0.049175
0.0491786
0.0491821
0.0491855
0.0491885
0.0491911
0.0491927
0.0491932
0.0491924
0.0491902
0.049187
0.049183
0.0491788
0.0491749
0.0491717
0.0491694
0.0491676
0.0491655
0.0491622
0.0491568
0.0491486
0.0491376
0.0491242
0.0491091
0.0490938
0.0490801
0.0490706
0.0490671
0.0490684
0.0490722
0.0490767
0.0490821
0.0490877
0.0490886
0.0490837
0.0490782
0.0490782
0.0490851
0.0490956
0.0491041
0.0490697
0.048926
0.0488616
0.0489523
0.0490679
0.0490923
0.049089
0.0490843
0.0490796
0.0490752
0.049071
0.0490671
0.0490633
0.0490594
0.0490554
0.0490515
0.0490476
0.0490441
0.049041
0.0490387
0.0490371
0.0490363
0.0490363
0.0490367
0.0490374
0.0490382
0.0490389
0.0490394
0.0490398
0.0490402
0.0490408
0.0490418
0.0490435
0.0490461
0.0490498
0.0490549
0.0490612
0.0490684
0.0490761
0.0490835
0.04909
0.0490949
0.0490979
0.0490991
0.0490991
0.0490993
0.0491013
0.0491057
0.0487169
0.0489302
0.0490061
0.049037
0.0490549
0.0490767
0.0491084
0.0491395
0.0491561
0.0491606
0.0491646
0.0491686
0.0491727
0.0491768
0.0491809
0.0491847
0.0491881
0.0491908
0.0491923
0.0491923
0.0491905
0.049187
0.0491824
0.0491771
0.0491719
0.0491673
0.0491641
0.0491619
0.0491602
0.049158
0.0491543
0.049148
0.0491385
0.049126
0.0491112
0.049095
0.0490788
0.0490647
0.0490555
0.0490528
0.0490549
0.0490589
0.049063
0.0490681
0.0490733
0.0490721
0.0490618
0.049051
0.0490493
0.0490579
0.0490713
0.0490822
0.0490337
0.0488869
0.048843
0.0489487
0.049054
0.0490732
0.0490709
0.0490672
0.0490635
0.0490599
0.0490564
0.0490531
0.0490498
0.0490464
0.0490428
0.0490393
0.0490358
0.0490327
0.0490302
0.0490285
0.0490278
0.0490279
0.0490286
0.0490298
0.049031
0.0490321
0.0490328
0.0490332
0.0490333
0.0490334
0.0490335
0.0490338
0.0490347
0.0490365
0.0490395
0.049044
0.04905
0.0490572
0.0490651
0.0490731
0.0490802
0.0490856
0.0490889
0.04909
0.0490896
0.0490892
0.0490907
0.0490951
0.0486886
0.0488856
0.0489666
0.0490046
0.0490255
0.0490475
0.0490849
0.0491271
0.0491512
0.0491569
0.0491618
0.0491665
0.0491712
0.0491759
0.0491805
0.0491849
0.0491887
0.0491915
0.0491927
0.0491918
0.0491887
0.0491837
0.0491775
0.0491709
0.0491646
0.0491597
0.0491564
0.0491544
0.049153
0.0491508
0.0491466
0.0491391
0.0491282
0.0491141
0.0490977
0.0490804
0.0490637
0.0490496
0.0490411
0.0490395
0.0490425
0.0490464
0.0490499
0.0490543
0.0490592
0.049055
0.0490373
0.0490199
0.0490167
0.0490281
0.0490454
0.0490584
0.0489957
0.0488497
0.0488259
0.0489429
0.0490383
0.0490541
0.049053
0.0490506
0.0490479
0.0490452
0.0490425
0.0490398
0.0490371
0.0490341
0.049031
0.0490278
0.0490248
0.0490222
0.0490203
0.0490194
0.0490195
0.0490205
0.0490221
0.049024
0.0490257
0.049027
0.0490277
0.049028
0.0490279
0.0490277
0.0490272
0.0490269
0.049027
0.0490279
0.04903
0.0490338
0.0490392
0.0490462
0.0490544
0.0490628
0.0490705
0.0490766
0.0490803
0.0490815
0.0490809
0.04908
0.049081
0.0490854
0.048669
0.0488456
0.0489298
0.0489733
0.0489972
0.049018
0.0490591
0.0491143
0.0491474
0.0491544
0.0491601
0.0491655
0.0491708
0.049176
0.0491811
0.049186
0.0491902
0.0491931
0.0491937
0.0491917
0.0491869
0.0491801
0.0491722
0.0491641
0.0491572
0.0491521
0.0491489
0.0491473
0.0491462
0.049144
0.0491391
0.0491303
0.0491176
0.0491018
0.0490841
0.0490658
0.0490488
0.0490351
0.049028
0.049028
0.0490317
0.0490352
0.0490376
0.0490414
0.0490458
0.0490377
0.0490101
0.0489848
0.0489811
0.048997
0.0490191
0.0490323
0.0489579
0.0488146
0.0488096
0.0489344
0.049021
0.0490349
0.0490353
0.0490344
0.049033
0.0490313
0.0490295
0.0490274
0.0490252
0.0490227
0.0490201
0.0490173
0.0490147
0.0490126
0.0490113
0.0490111
0.049012
0.0490139
0.0490164
0.049019
0.0490212
0.0490226
0.0490233
0.0490235
0.0490234
0.0490229
0.049022
0.0490211
0.0490204
0.0490203
0.0490216
0.0490244
0.0490292
0.0490358
0.049044
0.0490528
0.0490612
0.049068
0.0490723
0.0490738
0.049073
0.0490718
0.0490724
0.0490768
0.0486588
0.0488119
0.048896
0.0489451
0.0489716
0.0489889
0.0490305
0.0491009
0.0491449
0.0491531
0.0491596
0.0491656
0.0491714
0.0491771
0.0491827
0.0491881
0.0491927
0.0491955
0.0491953
0.0491917
0.0491851
0.0491762
0.0491665
0.0491572
0.0491498
0.0491446
0.0491417
0.0491406
0.04914
0.0491377
0.0491319
0.0491215
0.049107
0.0490895
0.0490704
0.0490515
0.0490346
0.0490221
0.0490169
0.0490188
0.0490229
0.0490255
0.0490267
0.0490297
0.0490336
0.04902
0.0489796
0.0489458
0.0489439
0.0489662
0.0489938
0.0490056
0.0489215
0.0487817
0.048793
0.0489232
0.0490026
0.0490157
0.0490177
0.0490185
0.0490186
0.0490181
0.0490172
0.0490159
0.0490143
0.0490123
0.0490101
0.0490078
0.0490056
0.0490039
0.0490031
0.0490035
0.0490051
0.0490079
0.0490112
0.0490145
0.049017
0.0490185
0.0490192
0.0490194
0.0490194
0.0490188
0.0490177
0.0490163
0.0490148
0.0490139
0.0490141
0.049016
0.04902
0.0490262
0.0490342
0.0490434
0.0490524
0.04906
0.049065
0.049067
0.0490663
0.0490648
0.0490651
0.0490694
0.0486587
0.0487856
0.0488661
0.0489193
0.0489499
0.048963
0.0489984
0.0490855
0.0491437
0.0491533
0.0491604
0.0491669
0.0491732
0.0491793
0.0491854
0.0491913
0.0491962
0.0491986
0.0491973
0.0491918
0.049183
0.049172
0.0491606
0.0491505
0.0491427
0.0491375
0.0491351
0.0491347
0.0491346
0.049132
0.049125
0.0491129
0.0490964
0.0490772
0.0490571
0.049038
0.0490219
0.0490113
0.0490088
0.0490125
0.0490164
0.0490175
0.0490175
0.04902
0.0490226
0.0490014
0.0489448
0.0489037
0.0489075
0.0489379
0.0489707
0.0489801
0.0488881
0.0487511
0.0487756
0.0489094
0.0489832
0.0489961
0.0489998
0.0490025
0.0490044
0.0490055
0.0490058
0.0490054
0.0490044
0.049003
0.0490012
0.0489993
0.0489975
0.0489961
0.0489957
0.0489965
0.0489986
0.0490019
0.0490059
0.0490099
0.0490128
0.0490143
0.0490149
0.0490154
0.0490156
0.0490153
0.0490141
0.0490123
0.0490102
0.0490085
0.0490078
0.0490087
0.0490119
0.0490174
0.0490253
0.0490346
0.0490442
0.0490527
0.0490586
0.0490612
0.0490608
0.0490592
0.0490593
0.0490635
0.0486686
0.0487673
0.048841
0.0488963
0.048931
0.0489431
0.0489643
0.0490653
0.0491422
0.0491551
0.0491626
0.0491695
0.0491761
0.0491826
0.0491891
0.0491954
0.0492005
0.0492024
0.0491995
0.0491918
0.0491805
0.0491675
0.0491549
0.0491441
0.0491359
0.0491309
0.0491292
0.0491298
0.0491301
0.0491272
0.0491187
0.0491044
0.0490859
0.0490653
0.0490446
0.0490259
0.0490114
0.0490036
0.0490042
0.0490092
0.0490118
0.0490112
0.0490104
0.0490127
0.0490122
0.0489774
0.0489043
0.048861
0.048875
0.0489143
0.048951
0.0489567
0.0488589
0.048723
0.0487568
0.048893
0.0489629
0.048976
0.0489813
0.048986
0.04899
0.0489931
0.0489949
0.0489957
0.0489955
0.0489947
0.0489934
0.0489919
0.0489904
0.0489893
0.048989
0.04899
0.0489922
0.0489958
0.0490002
0.0490046
0.0490079
0.0490094
0.0490102
0.0490112
0.049012
0.0490121
0.049011
0.0490091
0.0490065
0.0490041
0.0490025
0.0490025
0.0490048
0.0490097
0.0490172
0.0490267
0.0490369
0.0490462
0.0490531
0.0490565
0.0490566
0.0490551
0.0490551
0.0490592
0.0486874
0.0487566
0.048821
0.0488766
0.0489144
0.0489275
0.0489379
0.049038
0.0491375
0.0491585
0.0491663
0.0491735
0.0491803
0.049187
0.0491939
0.0492006
0.0492056
0.0492064
0.0492015
0.0491913
0.0491778
0.0491634
0.0491496
0.0491381
0.0491297
0.0491252
0.0491245
0.0491261
0.0491269
0.0491231
0.0491127
0.0490962
0.0490758
0.0490541
0.0490335
0.0490161
0.0490041
0.0489999
0.0490035
0.0490085
0.0490089
0.0490067
0.0490058
0.0490073
0.0490002
0.0489473
0.0488629
0.0488249
0.0488508
0.0488962
0.0489344
0.0489362
0.0488348
0.0486976
0.0487364
0.0488744
0.048942
0.0489551
0.0489616
0.048968
0.0489743
0.0489798
0.0489839
0.0489864
0.0489874
0.0489873
0.0489866
0.0489855
0.0489844
0.0489835
0.0489833
0.0489841
0.0489861
0.0489894
0.0489936
0.048998
0.0490018
0.0490036
0.049005
0.0490069
0.0490085
0.0490091
0.0490084
0.0490063
0.0490035
0.0490005
0.0489982
0.0489974
0.0489989
0.0490032
0.0490103
0.0490198
0.0490306
0.0490408
0.0490487
0.0490532
0.0490539
0.0490527
0.0490526
0.0490567
0.0487128
0.0487522
0.0488058
0.0488602
0.0489001
0.0489146
0.0489217
0.0490165
0.0491253
0.0491623
0.0491716
0.0491788
0.0491857
0.0491925
0.0491996
0.0492065
0.049211
0.0492102
0.049203
0.0491907
0.0491755
0.0491595
0.0491448
0.0491326
0.0491243
0.0491206
0.0491211
0.049124
0.049125
0.04912
0.0491073
0.0490884
0.0490664
0.0490443
0.0490246
0.0490094
0.0490009
0.0490006
0.0490061
0.0490094
0.0490073
0.0490043
0.0490033
0.0490015
0.0489816
0.0489126
0.0488326
0.048803
0.0488344
0.0488826
0.0489204
0.0489188
0.0488163
0.0486753
0.0487146
0.0488537
0.0489203
0.0489334
0.0489404
0.0489479
0.0489561
0.0489643
0.0489714
0.0489766
0.0489795
0.0489807
0.0489807
0.0489802
0.0489795
0.0489788
0.0489786
0.0489791
0.0489808
0.0489835
0.048987
0.0489909
0.0489944
0.0489969
0.0489996
0.0490025
0.049005
0.0490063
0.0490059
0.049004
0.049001
0.0489976
0.0489947
0.0489933
0.0489941
0.0489978
0.0490046
0.0490141
0.0490253
0.0490365
0.0490456
0.0490511
0.0490527
0.049052
0.0490521
0.0490561
0.048741
0.0487522
0.0487949
0.048847
0.048888
0.0489037
0.0489123
0.0490075
0.0491145
0.0491636
0.0491777
0.0491853
0.0491922
0.0491991
0.0492062
0.0492129
0.0492162
0.0492135
0.0492044
0.0491902
0.0491733
0.0491561
0.0491405
0.0491281
0.0491201
0.0491174
0.0491195
0.0491236
0.0491245
0.0491177
0.0491023
0.0490812
0.049058
0.0490363
0.0490185
0.0490065
0.0490022
0.0490054
0.0490107
0.049011
0.0490067
0.0490036
0.0490012
0.0489909
0.0489566
0.0488895
0.0488184