/*--------------------------------*- C++ -*----------------------------------*\
| =========                 |                                                 |
| \\      /  F ield         | OpenFOAM: The Open Source CFD Toolbox           |
|  \\    /   O peration     | Version:  4.1                                   |
|   \\  /    A nd           | Web:      www.OpenFOAM.org                      |
|    \\/     M anipulation  |                                                 |
\*---------------------------------------------------------------------------*/
FoamFile
{
    version     2.0;
    format      ascii;
    class       surfaceScalarField;
    location    "940";
    object      phi;
}
// * * * * * * * * * * * * * * * * * * * * * * * * * * * * * * * * * * * * * //

dimensions      [0 3 -1 0 0 0 0];

internalField   nonuniform List<scalar> 
9850
(
-3.68733e-06
3.68733e-06
-4.35515e-06
6.67827e-07
-3.87175e-06
-4.83397e-07
-3.35787e-06
-5.13883e-07
-3.00815e-06
-3.49719e-07
-2.78253e-06
-2.25619e-07
-2.62216e-06
-1.60375e-07
-2.47863e-06
-1.43528e-07
-2.3044e-06
-1.74228e-07
-2.03755e-06
-2.66859e-07
-1.59911e-06
-4.38438e-07
-9.00063e-07
-6.99044e-07
1.32709e-07
-1.03277e-06
1.44215e-06
-1.30944e-06
2.5645e-06
-1.12235e-06
2.38965e-06
1.74847e-07
-3.38439e-07
2.72809e-06
-5.22765e-06
4.88921e-06
-8.03497e-06
2.80732e-06
-7.48731e-06
-5.47658e-07
-5.49321e-06
-1.99411e-06
-3.84946e-06
-1.64374e-06
-2.85814e-06
-9.91327e-07
-2.25925e-06
-5.98884e-07
-1.78809e-06
-4.71157e-07
-1.29708e-06
-4.91012e-07
-7.33208e-07
-5.63875e-07
-1.06904e-07
-6.26304e-07
5.72558e-07
-6.79462e-07
1.30511e-06
-7.32548e-07
2.08993e-06
-7.84827e-07
2.91773e-06
-8.27801e-07
3.77447e-06
-8.56731e-07
4.64395e-06
-8.69486e-07
5.50933e-06
-8.65374e-07
6.35422e-06
-8.44897e-07
7.16376e-06
-8.09536e-07
7.9251e-06
-7.61342e-07
8.62761e-06
-7.02506e-07
9.26263e-06
-6.35022e-07
9.82312e-06
-5.60487e-07
1.03032e-05
-4.80063e-07
1.06978e-05
-3.94635e-07
1.1003e-05
-3.05163e-07
1.12163e-05
-2.13274e-07
1.13383e-05
-1.22077e-07
1.13742e-05
-3.58751e-08
1.13302e-05
4.40049e-08
1.12094e-05
1.20801e-07
1.10141e-05
1.95314e-07
1.07493e-05
2.64816e-07
1.04275e-05
3.21739e-07
1.00714e-05
3.56157e-07
9.68422e-06
3.8715e-07
9.12456e-06
5.59656e-07
7.83105e-06
1.29351e-06
4.46911e-06
3.36195e-06
3.49999e-07
4.11911e-06
8.71018e-07
-5.2102e-07
3.88797e-06
-3.01696e-06
6.97633e-06
-3.08836e-06
9.31923e-06
-2.3429e-06
1.03294e-05
-1.01013e-06
9.14965e-06
1.17971e-06
5.59302e-06
3.55663e-06
3.09495e-07
5.28352e-06
-2.2537e-06
2.56319e-06
-1.45485e-06
-7.98851e-07
-3.07255e-07
-1.14759e-06
1.5132e-07
-4.58576e-07
-5.4224e-07
6.9356e-07
-2.99317e-06
2.45093e-06
-6.75435e-06
3.76118e-06
-1.05515e-05
3.79716e-06
-1.34827e-05
2.93119e-06
-1.53183e-05
1.8356e-06
-1.61875e-05
8.69185e-07
-1.63183e-05
1.30841e-07
-1.59289e-05
-3.89455e-07
-1.52062e-05
-7.22663e-07
-1.42838e-05
-9.22367e-07
-1.32598e-05
-1.02404e-06
-1.21914e-05
-1.06835e-06
-1.11024e-05
-1.089e-06
-9.99456e-06
-1.10789e-06
-8.85796e-06
-1.1366e-06
-7.67837e-06
-1.1796e-06
-6.44127e-06
-1.2371e-06
-5.13426e-06
-1.30701e-06
-3.74724e-06
-1.38702e-06
-2.26782e-06
-1.47942e-06
-6.77025e-07
-1.59079e-06
1.01845e-06
-1.69547e-06
2.68188e-06
-1.66343e-06
4.14457e-06
-1.46269e-06
5.24437e-06
-1.0998e-06
5.77728e-06
-5.32914e-07
5.41306e-06
3.64223e-07
4.03253e-06
1.38053e-06
4.03253e-06
-2.97981e-06
6.66713e-06
-4.00133e-06
1.68935e-06
-4.16237e-06
-3.22357e-07
-4.16079e-06
-5.15467e-07
-4.08294e-06
-4.27563e-07
-3.95859e-06
-3.49968e-07
-3.80446e-06
-3.14505e-07
-3.62182e-06
-3.26167e-07
-3.39889e-06
-3.97164e-07
-3.11795e-06
-5.478e-07
-2.75896e-06
-7.97424e-07
-2.31045e-06
-1.14755e-06
-1.80994e-06
-1.53328e-06
-1.40918e-06
-1.7102e-06
-1.40717e-06
-1.12436e-06
-2.21511e-06
9.82788e-07
-3.61508e-06
4.12806e-06
-4.74008e-06
6.01421e-06
-5.74615e-06
3.8134e-06
-5.35705e-06
-9.36763e-07
-4.31962e-06
-3.03154e-06
-3.7173e-06
-2.24606e-06
-3.12056e-06
-1.58807e-06
-2.47812e-06
-1.24132e-06
-1.8333e-06
-1.11598e-06
-1.20018e-06
-1.12413e-06
-5.68402e-07
-1.19566e-06
8.4253e-08
-1.27896e-06
7.73577e-07
-1.36879e-06
1.51503e-06
-1.474e-06
2.31204e-06
-1.58184e-06
3.15618e-06
-1.67194e-06
4.03329e-06
-1.73384e-06
4.92692e-06
-1.76312e-06
5.81982e-06
-1.75828e-06
6.69534e-06
-1.72042e-06
7.53853e-06
-1.65273e-06
8.33676e-06
-1.55958e-06
9.07982e-06
-1.44556e-06
9.75961e-06
-1.31482e-06
1.03697e-05
-1.17057e-06
1.09047e-05
-1.0151e-06
1.13601e-05
-8.50018e-07
1.1732e-05
-6.77004e-07
1.20177e-05
-4.99046e-07
1.22169e-05
-3.21275e-07
1.23281e-05
-1.47033e-07
1.23475e-05
2.46311e-08
1.22763e-05
1.92014e-07
1.21192e-05
3.5237e-07
1.18836e-05
5.00432e-07
1.15775e-05
6.27781e-07
1.1202e-05
7.31673e-07
1.07215e-05
8.67628e-07
9.99056e-06
1.29064e-06
8.66793e-06
2.61614e-06
6.5434e-06
5.48647e-06
4.24198e-06
6.42054e-06
2.82575e-06
8.95202e-07
3.6901e-06
-3.8813e-06
5.17898e-06
-4.57724e-06
6.2863e-06
-3.45022e-06
6.00384e-06
-7.27665e-07
4.18319e-06
3.00035e-06
1.6734e-06
6.06642e-06
1.7887e-07
6.77806e-06
6.41713e-07
2.10035e-06
1.19744e-06
-1.35458e-06
1.08346e-06
-1.03362e-06
-3.34332e-08
6.5832e-07
-2.17774e-06
2.83787e-06
-5.00369e-06
5.27688e-06
-7.89738e-06
6.65487e-06
-1.05968e-05
6.49661e-06
-1.28489e-05
5.18327e-06
-1.44413e-05
3.42802e-06
-1.53182e-05
1.74604e-06
-1.55616e-05
3.74304e-07
-1.5336e-05
-6.15047e-07
-1.48144e-05
-1.24428e-06
-1.41302e-05
-1.60656e-06
-1.33565e-05
-1.7978e-06
-1.25248e-05
-1.9e-06
-1.16428e-05
-1.971e-06
-1.07063e-05
-2.04436e-06
-9.70725e-06
-2.13569e-06
-8.63733e-06
-2.24952e-06
-7.49012e-06
-2.38431e-06
-6.26183e-06
-2.5353e-06
-4.95248e-06
-2.69637e-06
-3.57144e-06
-2.86046e-06
-2.14959e-06
-3.01263e-06
-7.3048e-07
-3.11459e-06
6.94447e-07
-3.08836e-06
2.02159e-06
-2.78983e-06
2.93418e-06
-2.01239e-06
3.30447e-06
-9.03204e-07
3.06519e-06
6.03506e-07
2.44713e-06
1.99858e-06
6.47966e-06
-2.10451e-06
8.77164e-06
-3.06988e-06
2.65472e-06
-3.65655e-06
2.64319e-07
-3.9475e-06
-2.24522e-07
-4.05857e-06
-3.16493e-07
-4.07589e-06
-3.32648e-07
-4.0441e-06
-3.4629e-07
-3.99001e-06
-3.80254e-07
-3.93135e-06
-4.55828e-07
-3.88422e-06
-5.94927e-07
-3.87059e-06
-8.11059e-07
-3.92705e-06
-1.0911e-06
-4.10771e-06
-1.35262e-06
-4.45096e-06
-1.36695e-06
-4.87026e-06
-7.05059e-07
-4.98155e-06
1.09407e-06
-4.49011e-06
3.63662e-06
-3.774e-06
5.2981e-06
-3.34219e-06
3.38159e-06
-2.98518e-06
-1.29377e-06
-3.25223e-06
-2.76449e-06
-3.30984e-06
-2.18844e-06
-3.07906e-06
-1.81885e-06
-2.6787e-06
-1.64169e-06
-2.18805e-06
-1.60662e-06
-1.64463e-06
-1.66755e-06
-1.05597e-06
-1.78432e-06
-4.1128e-07
-1.92365e-06
2.84413e-07
-2.06448e-06
1.03221e-06
-2.22179e-06
1.83911e-06
-2.38874e-06
2.69655e-06
-2.52938e-06
3.58759e-06
-2.62488e-06
4.49337e-06
-2.66889e-06
5.39494e-06
-2.65985e-06
6.27464e-06
-2.60011e-06
7.1173e-06
-2.49538e-06
7.91082e-06
-2.35309e-06
8.64606e-06
-2.18081e-06
9.31638e-06
-1.98513e-06
9.91685e-06
-1.77105e-06
1.04435e-05
-1.54175e-06
1.08925e-05
-1.29902e-06
1.12596e-05
-1.04412e-06
1.15397e-05
-7.79088e-07
1.17261e-05
-5.07712e-07
1.18142e-05
-2.35107e-07
1.18036e-05
3.51993e-08
1.16963e-05
2.99317e-07
1.14978e-05
5.50862e-07
1.12158e-05
7.82464e-07
1.08557e-05
9.87853e-07
1.04139e-05
1.1735e-06
9.86733e-06
1.41418e-06
9.15129e-06
2.00668e-06
8.10633e-06
3.66109e-06
6.54382e-06
7.04899e-06
5.04907e-06
7.91528e-06
3.81958e-06
2.12469e-06
3.3291e-06
-3.39082e-06
3.09292e-06
-4.34106e-06
2.31878e-06
-2.67608e-06
1.27893e-06
3.12182e-07
4.8302e-07
3.79626e-06
1.32145e-07
6.4173e-06
1.67835e-06
5.23185e-06
2.94631e-06
8.32398e-07
1.54312e-06
4.86144e-08
-8.40706e-07
1.3502e-06
-3.44601e-06
3.26363e-06
-5.70499e-06
5.09684e-06
-7.5206e-06
7.09248e-06
-9.16693e-06
8.30121e-06
-1.075e-05
8.07966e-06
-1.2163e-05
6.5963e-06
-1.32291e-05
4.49406e-06
-1.38579e-05
2.3749e-06
-1.40821e-05
5.98494e-07
-1.40075e-05
-6.89597e-07
-1.37386e-05
-1.51321e-06
-1.33484e-05
-1.99678e-06
-1.28705e-05
-2.27575e-06
-1.23122e-05
-2.45826e-06
-1.16705e-05
-2.61271e-06
-1.09407e-05
-2.7741e-06
-1.01204e-05
-2.95608e-06
-9.20906e-06
-3.16082e-06
-8.20859e-06
-3.38478e-06
-7.12269e-06
-3.62121e-06
-5.95853e-06
-3.86053e-06
-4.73099e-06
-4.088e-06
-3.46705e-06
-4.27658e-06
-2.20575e-06
-4.37589e-06
-9.90921e-07
-4.30318e-06
1.61744e-07
-3.9425e-06
1.21855e-06
-3.0692e-06
1.69893e-06
-1.38358e-06
1.62925e-06
6.73185e-07
1.46577e-06
2.16207e-06
7.94543e-06
-1.69957e-06
1.04712e-05
-2.62048e-06
3.57563e-06
-3.2955e-06
9.39343e-07
-3.72233e-06
2.02301e-07
-3.96276e-06
-7.60619e-08
-4.08821e-06
-2.072e-07
-4.15674e-06
-2.7776e-07
-4.20544e-06
-3.31545e-07
-4.26479e-06
-3.96487e-07
-4.36558e-06
-4.94137e-07
-4.54539e-06
-6.31243e-07
-4.84737e-06
-7.89119e-07
-5.29678e-06
-9.03207e-07
-5.83847e-06
-8.25258e-07
-6.24178e-06
-3.01757e-07
-6.02853e-06
8.8083e-07
-4.93261e-06
2.5407e-06
-3.24238e-06
3.60787e-06
-1.99118e-06
2.13039e-06
-2.12167e-06
-1.16328e-06
-2.99678e-06
-1.88938e-06
-3.28804e-06
-1.89718e-06
-3.22956e-06
-1.87733e-06
-2.96476e-06
-1.90649e-06
-2.57134e-06
-2.00004e-06
-2.08891e-06
-2.14998e-06
-1.53332e-06
-2.33991e-06
-9.05264e-07
-2.55171e-06
-2.02168e-07
-2.76758e-06
5.63636e-07
-2.9876e-06
1.39044e-06
-3.21555e-06
2.26832e-06
-3.40726e-06
3.17888e-06
-3.53544e-06
4.10041e-06
-3.59042e-06
5.01175e-06
-3.57119e-06
5.89386e-06
-3.48223e-06
6.73133e-06
-3.33285e-06
7.51275e-06
-3.13452e-06
8.23042e-06
-2.89848e-06
8.87948e-06
-2.63418e-06
9.45693e-06
-2.3485e-06
9.96054e-06
-2.04536e-06
1.03877e-05
-1.72615e-06
1.07346e-05
-1.39102e-06
1.0996e-05
-1.04056e-06
1.11657e-05
-6.77362e-07
1.12371e-05
-3.06514e-07
1.12054e-05
6.6881e-08
1.1068e-05
4.36745e-07
1.0826e-05
7.92897e-07
1.04841e-05
1.12436e-06
1.0048e-05
1.42388e-06
9.52006e-06
1.70148e-06
8.89152e-06
2.04271e-06
8.12084e-06
2.77736e-06
7.05899e-06
4.72294e-06
5.47207e-06
8.63591e-06
4.34486e-06
9.04249e-06
3.7121e-06
2.75745e-06
2.5792e-06
-2.25791e-06
9.87277e-07
-2.74913e-06
-6.68503e-07
-1.0203e-06
-1.72577e-06
1.36945e-06
-1.80464e-06
3.87512e-06
-7.18207e-07
5.33087e-06
5.89069e-07
3.92457e-06
-4.19057e-07
1.84052e-06
-2.8339e-06
2.46346e-06
-4.99693e-06
3.51323e-06
-6.73813e-06
5.00483e-06
-8.30035e-06
6.65907e-06
-9.45879e-06
8.25092e-06
-1.03183e-05
9.16071e-06
-1.10808e-05
8.84215e-06
-1.17938e-05
7.30933e-06
-1.23761e-05
5.07635e-06
-1.27567e-05
2.75547e-06
-1.29399e-05
7.81745e-07
-1.29791e-05
-6.50407e-07
-1.29199e-05
-1.57248e-06
-1.27767e-05
-2.13995e-06
-1.25399e-05
-2.51256e-06
-1.21957e-05
-2.80241e-06
-1.17374e-05
-3.07104e-06
-1.1166e-05
-3.34548e-06
-1.04877e-05
-3.63437e-06
-9.71075e-06
-3.9378e-06
-8.84375e-06
-4.25178e-06
-7.89557e-06
-4.56939e-06
-6.8763e-06
-4.87979e-06
-5.7994e-06
-5.16491e-06
-4.6831e-06
-5.39288e-06
-3.54976e-06
-5.50923e-06
-2.42568e-06
-5.42727e-06
-1.3503e-06
-5.01788e-06
-3.24906e-07
-4.09459e-06
6.73931e-07
-2.38242e-06
1.06795e-06
2.79165e-07
9.79948e-07
2.25007e-06
8.92538e-06
-1.46294e-06
1.19341e-05
-2.37584e-06
4.48853e-06
-3.08111e-06
1.64462e-06
-3.57621e-06
6.97402e-07
-3.90402e-06
2.51744e-07
-4.1186e-06
7.3844e-09
-4.26883e-06
-1.27533e-07
-4.39733e-06
-2.03039e-07
-4.5347e-06
-2.59119e-07
-4.70793e-06
-3.20905e-07
-4.94449e-06
-3.94685e-07
-5.26981e-06
-4.63805e-07
-5.68961e-06
-4.834e-07
-6.14606e-06
-3.68807e-07
-6.44423e-06
-3.58662e-09
-6.24014e-06
6.76736e-07
-5.2305e-06
1.53106e-06
-3.57619e-06
1.95357e-06
-2.43512e-06
9.89312e-07
-2.87653e-06
-7.21869e-07
-3.38542e-06
-1.3805e-06
-3.57224e-06
-1.71035e-06
-3.51508e-06
-1.93449e-06
-3.28174e-06
-2.13983e-06
-2.9195e-06
-2.36228e-06
-2.45784e-06
-2.61164e-06
-1.91259e-06
-2.88515e-06
-1.2894e-06
-3.1749e-06
-5.86142e-07
-3.47083e-06
1.85335e-07
-3.75907e-06
1.03327e-06
-4.06348e-06
1.92901e-06
-4.30299e-06
2.8566e-06
-4.46303e-06
3.79194e-06
-4.52576e-06
4.71086e-06
-4.49012e-06
5.59233e-06
-4.36369e-06
6.42038e-06
-4.1609e-06
7.18445e-06
-3.89859e-06
7.87844e-06
-3.59247e-06
8.49957e-06
-3.25532e-06
9.04706e-06
-2.896e-06
9.52067e-06
-2.51896e-06
9.91921e-06
-2.12469e-06
1.02395e-05
-1.71133e-06
1.04762e-05
-1.27726e-06
1.06224e-05
-8.23535e-07
1.06709e-05
-3.55012e-07
1.06146e-05
1.23137e-07
1.04477e-05
6.03709e-07
1.01669e-05
1.07362e-06
9.77306e-06
1.51824e-06
9.26943e-06
1.9275e-06
8.65869e-06
2.31222e-06
7.93128e-06
2.77013e-06
7.02941e-06
3.67923e-06
5.76719e-06
5.98516e-06
3.93918e-06
1.04639e-05
3.20751e-06
9.77416e-06
2.94398e-06
3.02098e-06
1.3495e-06
-6.63434e-07
-8.11223e-07
-5.88411e-07
-2.535e-06
7.03472e-07
-3.42901e-06
2.26346e-06
-3.39071e-06
3.83683e-06
-2.67007e-06
4.61023e-06
-2.75641e-06
4.01091e-06
-4.55079e-06
3.63491e-06
-6.30925e-06
4.22191e-06
-7.95305e-06
5.15704e-06
-9.315e-06
6.36678e-06
-1.03518e-05
7.69586e-06
-1.09848e-05
8.88396e-06
-1.12917e-05
9.46756e-06
-1.1468e-05
9.0185e-06
-1.16451e-05
7.48639e-06
-1.18321e-05
5.26339e-06
-1.20001e-05
2.92343e-06
-1.21477e-05
9.2937e-07
-1.22866e-05
-5.11505e-07
-1.2397e-05
-1.46209e-06
-1.24341e-05
-2.1028e-06
-1.23572e-05
-2.58952e-06
-1.21471e-05
-3.01251e-06
-1.18042e-05
-3.41396e-06
-1.13391e-05
-3.81055e-06
-1.07658e-05
-4.20761e-06
-1.00983e-05
-4.6054e-06
-9.34882e-06
-5.00122e-06
-8.52884e-06
-5.38936e-06
-7.64899e-06
-5.75964e-06
-6.71988e-06
-6.09402e-06
-5.7517e-06
-6.36105e-06
-4.75306e-06
-6.50786e-06
-3.73035e-06
-6.44998e-06
-2.68889e-06
-6.05933e-06
-1.62831e-06
-5.15517e-06
-5.07293e-07
-3.50344e-06
4.64818e-07
-6.92946e-07
5.50715e-07
2.16417e-06
9.47609e-06
-1.30144e-06
1.32356e-05
-2.22629e-06
5.41337e-06
-2.96581e-06
2.38414e-06
-3.51191e-06
1.2435e-06
-3.90285e-06
6.42682e-07
-4.18445e-06
2.88986e-07
-4.40244e-06
9.04602e-08
-4.59416e-06
-1.13186e-08
-4.78768e-06
-6.55996e-08
-5.00254e-06
-1.06042e-07
-5.25294e-06
-1.44288e-07
-5.54582e-06
-1.70925e-07
-5.87074e-06
-1.5848e-07
-6.17736e-06
-6.21903e-08
-6.33776e-06
1.56815e-07
-6.17079e-06
5.0976e-07
-5.4979e-06
8.58173e-07
-4.43629e-06
8.91959e-07
-3.72412e-06
2.77141e-07
-3.83039e-06
-6.15597e-07
-3.9675e-06
-1.24339e-06
-3.98019e-06
-1.69767e-06
-3.84886e-06
-2.06582e-06
-3.5865e-06
-2.40218e-06
-3.2127e-06
-2.73608e-06
-2.74441e-06
-3.07992e-06
-2.19345e-06
-3.43612e-06
-1.56642e-06
-3.80193e-06
-8.66048e-07
-4.17121e-06
-8.95419e-08
-4.53558e-06
7.58006e-07
-4.91103e-06
1.66194e-06
-5.20693e-06
2.60023e-06
-5.40132e-06
3.54533e-06
-5.47086e-06
4.46898e-06
-5.41376e-06
5.34702e-06
-5.24173e-06
6.16253e-06
-4.97642e-06
6.90573e-06
-4.64179e-06
7.57238e-06
-4.25911e-06
8.16198e-06
-3.84491e-06
8.67618e-06
-3.4102e-06
9.11695e-06
-2.95974e-06
9.48473e-06
-2.49246e-06
9.77693e-06
-2.00352e-06
9.98769e-06
-1.48801e-06
1.01089e-05
-9.44732e-07
1.01318e-05
-3.77939e-07
1.00473e-05
2.07624e-07
9.84727e-06
8.03758e-07
9.52605e-06
1.39484e-06
9.08124e-06
1.96305e-06
8.51317e-06
2.49557e-06
7.82084e-06
3.00455e-06
6.98451e-06
3.60646e-06
5.91668e-06
4.74707e-06
4.38821e-06
7.51364e-06
2.27374e-06
1.25784e-05
2.0164e-06
1.00315e-05
1.53427e-06
3.50311e-06
-4.0341e-07
1.27425e-06
-2.50401e-06
1.51219e-06
-4.08177e-06
2.28123e-06
-5.10484e-06
3.28654e-06
-5.52333e-06
4.25532e-06
-5.70236e-06
4.78926e-06
-6.50379e-06
4.81233e-06
-7.86108e-06
4.99221e-06
-9.18318e-06
5.54401e-06
-1.03667e-05
6.34053e-06
-1.13102e-05
7.31035e-06
-1.19264e-05
8.31197e-06
-1.21601e-05
9.11767e-06
-1.20765e-05
9.38394e-06
-1.18503e-05
8.79229e-06
-1.16491e-05
7.28526e-06
-1.15546e-05
5.16883e-06
-1.15863e-05
2.95518e-06
-1.17376e-05
1.08068e-06
-1.19648e-05
-2.84315e-07
-1.21786e-05
-1.24832e-06
-1.23004e-05
-1.98097e-06
-1.22879e-05
-2.60199e-06
-1.21338e-05
-3.16667e-06
-1.18486e-05
-3.69914e-06
-1.14487e-05
-4.21045e-06
-1.09506e-05
-4.70575e-06
-1.03692e-05
-5.18676e-06
-9.71813e-06
-5.6523e-06
-9.00955e-06
-6.09794e-06
-8.25447e-06
-6.51472e-06
-7.46208e-06
-6.88642e-06
-6.6382e-06
-7.18493e-06
-5.78276e-06
-7.36329e-06
-4.88672e-06
-7.34603e-06
-3.9295e-06
-7.01655e-06
-2.88614e-06
-6.19853e-06
-1.76951e-06
-4.62007e-06
-5.2528e-07
-1.93718e-06
-9.25614e-08
1.73146e-06
9.38353e-06
-1.19616e-06
1.44317e-05
-2.14209e-06
6.35931e-06
-2.91992e-06
3.16197e-06
-3.51389e-06
1.83746e-06
-3.95729e-06
1.08608e-06
-4.29349e-06
6.25188e-07
-4.56462e-06
3.61594e-07
-4.80597e-06
2.30029e-07
-5.04044e-06
1.68866e-07
-5.28183e-06
1.35351e-07
-5.53568e-06
1.09562e-07
-5.7988e-06
9.21901e-08
-6.05417e-06
9.68896e-08
-6.25779e-06
1.41435e-07
-6.34188e-06
2.40908e-07
-6.20203e-06
3.69907e-07
-5.78603e-06
4.42174e-07
-5.19205e-06
2.97974e-07
-4.75232e-06
-1.6259e-07
-4.60112e-06
-7.66796e-07
-4.51345e-06
-1.33106e-06
-4.3809e-06
-1.83022e-06
-4.16299e-06
-2.28373e-06
-3.85057e-06
-2.7146e-06
-3.44742e-06
-3.13924e-06
-2.96105e-06
-3.56629e-06
-2.39871e-06
-3.99845e-06
-1.76616e-06
-4.43448e-06
-1.06666e-06
-4.87071e-06
-2.98104e-07
-5.30413e-06
5.34064e-07
-5.7432e-06
1.44062e-06
-6.11348e-06
2.38342e-06
-6.34412e-06
3.33384e-06
-6.42128e-06
4.25945e-06
-6.33937e-06
5.13197e-06
-6.11425e-06
5.93284e-06
-5.77729e-06
6.653e-06
-5.36196e-06
7.29025e-06
-4.89636e-06
7.84663e-06
-4.40129e-06
8.3264e-06
-3.88996e-06
8.73393e-06
-3.36727e-06
9.07139e-06
-2.82992e-06
9.3368e-06
-2.26893e-06
9.52351e-06
-1.67473e-06
9.62153e-06
-1.04275e-06
9.61981e-06
-3.76218e-07
9.50677e-06
3.20663e-07
9.27218e-06
1.03835e-06
8.90861e-06
1.7584e-06
8.41166e-06
2.46e-06
7.77925e-06
3.12798e-06
7.00602e-06
3.77778e-06
6.05934e-06
4.55314e-06
4.8172e-06
5.9892e-06
2.99801e-06
9.33283e-06
8.00525e-07
1.47759e-05
8.49161e-07
9.98287e-06
3.10037e-08
4.32126e-06
-1.97979e-06
3.28504e-06
-3.90804e-06
3.44044e-06
-5.53185e-06
3.90504e-06
-6.77019e-06
4.52488e-06
-7.63929e-06
5.12441e-06
-8.37627e-06
5.52624e-06
-9.31473e-06
5.75078e-06
-1.03767e-05
6.05419e-06
-1.13717e-05
6.53897e-06
-1.22077e-05
7.17661e-06
-1.28019e-05
7.90454e-06
-1.30864e-05
8.59643e-06
-1.30292e-05
9.06047e-06
-1.26886e-05
9.04334e-06
-1.22187e-05
8.32239e-06
-1.18e-05
6.86654e-06
-1.15604e-05
4.92925e-06
-1.15463e-05
2.94112e-06
-1.17202e-05
1.25454e-06
-1.19719e-05
-3.25987e-08
-1.21873e-05
-1.03293e-06
-1.22942e-05
-1.87402e-06
-1.22711e-05
-2.62513e-06
-1.2122e-05
-3.31575e-06
-1.18598e-05
-3.96132e-06
-1.1499e-05
-4.57127e-06
-1.10536e-05
-5.15113e-06
-1.05372e-05
-5.70321e-06
-9.96268e-06
-6.22678e-06
-9.34272e-06
-6.71789e-06
-8.68905e-06
-7.16839e-06
-8.01152e-06
-7.56395e-06
-7.31597e-06
-7.88048e-06
-6.60095e-06
-8.07831e-06
-5.85365e-06
-8.09333e-06
-5.04691e-06
-7.8233e-06
-4.13847e-06
-7.10696e-06
-3.06109e-06
-5.69745e-06
-1.75752e-06
-3.24075e-06
-1.10008e-06
1.07402e-06
8.28345e-06
-1.13381e-06
1.55656e-05
-2.11034e-06
7.33584e-06
-2.93076e-06
3.9824e-06
-3.57167e-06
2.47837e-06
-4.06206e-06
1.57647e-06
-4.44335e-06
1.00647e-06
-4.75685e-06
6.75097e-07
-5.03487e-06
5.08046e-07
-5.29872e-06
4.32722e-07
-5.5571e-06
3.93732e-07
-5.81008e-06
3.62542e-07
-6.05034e-06
3.32447e-07
-6.26076e-06
3.0731e-07
-6.41108e-06
2.9175e-07
-6.45589e-06
2.8572e-07
-6.34966e-06
2.63681e-07
-6.07715e-06
1.69659e-07
-5.70688e-06
-7.22899e-08
-5.38304e-06
-4.86433e-07
-5.14927e-06
-1.00056e-06
-4.94363e-06
-1.5367e-06
-4.71106e-06
-2.06279e-06
-4.42076e-06
-2.57403e-06
-4.05988e-06
-3.07548e-06
-3.62584e-06
-3.57328e-06
-3.12071e-06
-4.07142e-06
-2.54809e-06
-4.57108e-06
-1.91152e-06
-5.07105e-06
-1.21326e-06
-5.56898e-06
-4.55115e-07
-6.06227e-06
3.54703e-07
-6.55302e-06
1.25399e-06
-7.01277e-06
2.19356e-06
-7.2837e-06
3.14368e-06
-7.37141e-06
4.06785e-06
-7.26354e-06
4.93281e-06
-6.97921e-06
5.71748e-06
-6.56196e-06
6.41323e-06
-6.0577e-06
7.01997e-06
-5.5031e-06
7.54248e-06
-4.92381e-06
7.98776e-06
-4.33524e-06
8.36267e-06
-3.74218e-06
8.67122e-06
-3.13848e-06
8.9121e-06
-2.50981e-06
9.07773e-06
-1.84037e-06
9.15587e-06
-1.12089e-06
9.13243e-06
-3.52777e-07
8.99274e-06
4.6035e-07
8.72425e-06
1.30684e-06
8.31797e-06
2.16469e-06
7.76827e-06
3.0097e-06
7.07176e-06
3.8245e-06
6.21968e-06
4.62985e-06
5.1666e-06
5.60622e-06
3.75435e-06
7.40144e-06
1.58497e-06
1.15022e-05
-4.12135e-07
1.6773e-05
-2.6142e-07
9.83215e-06
-1.49896e-06
5.5588e-06
-3.35381e-06
5.13989e-06
-5.1565e-06
5.24313e-06
-6.77223e-06
5.52078e-06
-8.13125e-06
5.88389e-06
-9.24292e-06
6.23609e-06
-1.02193e-05
6.50265e-06
-1.11781e-05
6.70956e-06
-1.20903e-05
6.96642e-06
-1.28774e-05
7.32603e-06
-1.34753e-05
7.77449e-06
-1.3824e-05
8.25327e-06
-1.38807e-05
8.65309e-06
-1.36385e-05
8.8183e-06
-1.31602e-05
8.56508e-06
-1.25872e-05
7.74938e-06
-1.20958e-05
6.37514e-06
-1.18213e-05
4.65476e-06
-1.17975e-05
2.91728e-06
-1.19473e-05
1.40434e-06
-1.21404e-05
1.60498e-07
-1.2279e-05
-8.94326e-07
-1.23209e-05
-1.83215e-06
-1.22582e-05
-2.68779e-06
-1.20953e-05
-3.47866e-06
-1.18403e-05
-4.21633e-06
-1.15028e-05
-4.90876e-06
-1.10933e-05
-5.56065e-06
-1.06229e-05
-6.17364e-06
-1.01033e-05
-6.74639e-06
-9.54669e-06
-7.27446e-06
-8.96542e-06
-7.74967e-06
-8.37067e-06
-8.1587e-06
-7.77071e-06
-8.48044e-06
-7.16777e-06
-8.68126e-06
-6.5541e-06
-8.707e-06
-5.90701e-06
-8.47039e-06
-5.18067e-06
-7.8333e-06
-4.29782e-06
-6.5803e-06
-3.20563e-06
-4.33293e-06
-1.85484e-06
-2.76774e-07
6.42861e-06
-1.10325e-06
1.66688e-05
-2.12158e-06
8.35417e-06
-2.99013e-06
4.85095e-06
-3.6778e-06
3.16603e-06
-4.21008e-06
2.10876e-06
-4.62725e-06
1.42364e-06
-4.97083e-06
1.01868e-06
-5.27361e-06
8.10824e-07
-5.5549e-06
7.14016e-07
-5.82084e-06
6.59667e-07
-6.06874e-06
6.10441e-07
-6.2901e-06
5.53815e-07
-6.47006e-06
4.87263e-07
-6.58737e-06
4.09061e-07
-6.61393e-06
3.12285e-07
-6.52831e-06
1.78057e-07
-6.32994e-06
-2.87134e-08
-6.06069e-06
-3.41537e-07
-5.78235e-06
-7.64768e-07
-5.51716e-06
-1.26576e-06
-5.24824e-06
-1.80562e-06
-4.95129e-06
-2.35974e-06
-4.6081e-06
-2.91722e-06
-4.2086e-06
-3.47498e-06
-3.7488e-06
-4.03308e-06
-3.2283e-06
-4.59192e-06
-2.64836e-06
-5.15101e-06
-2.01067e-06
-5.70874e-06
-1.31697e-06
-6.26268e-06
-5.70357e-07
-6.80889e-06
2.23489e-07
-7.34686e-06
1.10524e-06
-7.89452e-06
2.03274e-06
-8.21119e-06
2.97499e-06
-8.31366e-06
3.89259e-06
-8.18114e-06
4.74714e-06
-7.83376e-06
5.5141e-06
-7.32892e-06
6.18448e-06
-6.72808e-06
6.76018e-06
-6.0788e-06
7.24879e-06
-5.41243e-06
7.66008e-06
-4.74653e-06
8.00334e-06
-4.08543e-06
8.28441e-06
-3.41955e-06
8.50268e-06
-2.72808e-06
8.64971e-06
-1.9874e-06
8.71081e-06
-1.18198e-06
8.66854e-06
-3.10508e-07
8.50479e-06
6.24097e-07
8.20421e-06
1.60742e-06
7.75605e-06
2.61285e-06
7.15391e-06
3.61184e-06
6.394e-06
4.58441e-06
5.46555e-06
5.5583e-06
4.31169e-06
6.76008e-06
2.73969e-06
8.97345e-06
2.94625e-07
1.39473e-05
-1.22156e-06
1.82892e-05
-1.24183e-06
9.85242e-06
-2.74713e-06
7.0641e-06
-4.47285e-06
6.86562e-06
-6.15469e-06
6.92496e-06
-7.70914e-06
7.07523e-06
-9.08419e-06
7.25894e-06
-1.02751e-05
7.42699e-06
-1.13242e-05
7.55181e-06
-1.22705e-05
7.6558e-06
-1.30965e-05
7.79243e-06
-1.37581e-05
7.98763e-06
-1.42102e-05
8.22662e-06
-1.44134e-05
8.4564e-06
-1.43464e-05
8.5861e-06
-1.40232e-05
8.49515e-06
-1.35137e-05
8.05556e-06
-1.29475e-05
7.18316e-06
-1.24785e-05
5.90612e-06
-1.22147e-05
4.391e-06
-1.21612e-05
2.86377e-06
-1.22311e-05
1.47423e-06
-1.23191e-05
2.48538e-07
-1.23615e-05
-8.51967e-07
-1.23337e-05
-1.85991e-06
-1.22293e-05
-2.79226e-06
-1.20478e-05
-3.6601e-06
-1.17925e-05
-4.47169e-06
-1.14685e-05
-5.23275e-06
-1.10828e-05
-5.94632e-06
-1.06438e-05
-6.61262e-06
-1.01612e-05
-7.22903e-06
-9.64565e-06
-7.78997e-06
-9.10882e-06
-8.2865e-06
-8.56211e-06
-8.70541e-06
-8.01525e-06
-9.02729e-06
-7.47378e-06
-9.22274e-06
-6.9352e-06
-9.24558e-06
-6.38327e-06
-9.02232e-06
-5.77976e-06
-8.43681e-06
-5.05521e-06
-7.30485e-06
-4.07298e-06
-5.31517e-06
-2.4215e-06
-1.92825e-06
4.00711e-06
-1.09794e-06
1.77667e-05
-2.1691e-06
9.42533e-06
-3.09082e-06
5.77268e-06
-3.82452e-06
3.89972e-06
-4.39308e-06
2.67732e-06
-4.83676e-06
1.86732e-06
-5.19897e-06
1.38088e-06
-5.51418e-06
1.12604e-06
-5.80166e-06
1.00149e-06
-6.06612e-06
9.24132e-07
-6.30358e-06
8.47902e-07
-6.50576e-06
7.55994e-07
-6.66063e-06
6.42132e-07
-6.75224e-06
5.00671e-07
-6.76416e-06
3.24209e-07
-6.68568e-06
9.95702e-08
-6.52018e-06
-1.94213e-07
-6.29144e-06
-5.70274e-07
-6.02863e-06
-1.02758e-06
-5.74567e-06
-1.54872e-06
-5.43981e-06
-2.11148e-06
-5.10143e-06
-2.69812e-06
-4.72115e-06
-3.2975e-06
-4.29253e-06
-3.9036e-06
-3.81224e-06
-4.51337e-06
-3.27922e-06
-5.12494e-06
-2.6937e-06
-5.73654e-06
-2.05649e-06
-6.34594e-06
-1.369e-06
-6.95017e-06
-6.33381e-07
-7.54451e-06
1.50878e-07
-8.13112e-06
1.00798e-06
-8.75162e-06
1.91352e-06
-9.11673e-06
2.83762e-06
-9.23776e-06
3.74085e-06
-9.08437e-06
4.58061e-06
-8.67353e-06
5.32796e-06
-8.07627e-06
5.97232e-06
-7.37244e-06
6.51694e-06
-6.62342e-06
6.97215e-06
-5.86763e-06
7.35039e-06
-5.12477e-06
7.66317e-06
-4.39821e-06
7.91796e-06
-3.67435e-06
8.11487e-06
-2.92498e-06
8.24469e-06
-2.11722e-06
8.29043e-06
-1.22773e-06
8.2312e-06
-2.51277e-07
8.04531e-06
8.09994e-07
7.71425e-06
1.93847e-06
7.22519e-06
3.10191e-06
6.57092e-06
4.26611e-06
5.74767e-06
5.40766e-06
4.74274e-06
6.56324e-06
3.4866e-06
8.01622e-06
1.63273e-06
1.08273e-05
-9.49383e-07
1.65294e-05
-1.77176e-06
1.91115e-05
-2.22791e-06
1.03086e-05
-3.72797e-06
8.56415e-06
-5.32531e-06
8.46295e-06
-6.88357e-06
8.48322e-06
-8.34325e-06
8.53491e-06
-9.66581e-06
8.5815e-06
-1.08398e-05
8.60096e-06
-1.18758e-05
8.58786e-06
-1.27815e-05
8.56149e-06
-1.35402e-05
8.55108e-06
-1.41207e-05
8.56815e-06
-1.44906e-05
8.59652e-06
-1.46252e-05
8.59104e-06
-1.45192e-05
8.48009e-06
-1.41993e-05
8.17526e-06
-1.37361e-05
7.59231e-06
-1.32405e-05
6.68759e-06
-1.28313e-05
5.49694e-06
-1.25798e-05
4.1395e-06
-1.24756e-05
2.7595e-06
-1.24511e-05
1.44972e-06
-1.24381e-05
2.35604e-07
-1.23971e-05
-8.92955e-07
-1.23104e-05
-1.94667e-06
-1.2169e-05
-2.93361e-06
-1.19692e-05
-3.85988e-06
-1.17105e-05
-4.7304e-06
-1.13948e-05
-5.54849e-06
-1.10258e-05
-6.31529e-06
-1.06091e-05
-7.02939e-06
-1.01515e-05
-7.68664e-06
-9.66138e-06
-8.28005e-06
-9.14833e-06
-8.79954e-06
-8.62221e-06
-9.23153e-06
-8.09189e-06
-9.55762e-06
-7.56285e-06
-9.75177e-06
-7.03356e-06
-9.77486e-06
-6.49033e-06
-9.56555e-06
-5.90163e-06
-9.02551e-06
-5.21043e-06
-7.99605e-06
-4.29664e-06
-6.22896e-06
-2.86354e-06
-3.36134e-06
1.14357e-06
-1.11445e-06
1.88812e-05
-2.24808e-06
1.05589e-05
-3.22621e-06
6.75081e-06
-4.00379e-06
4.6773e-06
-4.60209e-06
3.27562e-06
-5.06261e-06
2.32784e-06
-5.43213e-06
1.7504e-06
-5.74801e-06
1.44192e-06
-6.03089e-06
1.28437e-06
-6.28511e-06
1.17835e-06
-6.50603e-06
1.06883e-06
-6.68641e-06
9.3637e-07
-6.81588e-06
7.71604e-07
-6.88398e-06
5.68773e-07
-6.87909e-06
3.19319e-07
-6.79622e-06
1.66979e-08
-6.63942e-06
-3.51013e-07
-6.42228e-06
-7.87417e-07
-6.16043e-06
-1.28943e-06
-5.86333e-06
-1.84583e-06
-5.53261e-06
-2.44219e-06
-5.16534e-06
-3.0654e-06
-4.75734e-06
-3.7055e-06
-4.30519e-06
-4.35574e-06
-3.80693e-06
-5.01163e-06
-3.2619e-06
-5.66997e-06
-2.67034e-06
-6.3281e-06
-2.03299e-06
-6.9833e-06
-1.35098e-06
-7.63219e-06
-6.24992e-07
-8.27049e-06
1.522e-07
-8.90831e-06
9.80383e-07
-9.5798e-06
1.85273e-06
-9.98908e-06
2.74593e-06
-1.0131e-05
3.62413e-06
-9.96257e-06
4.44275e-06
-9.49214e-06
5.16785e-06
-8.80136e-06
5.78565e-06
-7.99024e-06
6.29962e-06
-7.1374e-06
6.72243e-06
-6.29044e-06
7.06906e-06
-5.4714e-06
7.35281e-06
-4.68197e-06
7.58245e-06
-3.90398e-06
7.75868e-06
-3.10121e-06
7.87174e-06
-2.23027e-06
7.90245e-06
-1.25844e-06
7.82667e-06
-1.75495e-07
7.61932e-06
1.01734e-06
7.25845e-06
2.29934e-06
6.72871e-06
3.63164e-06
6.02192e-06
4.9729e-06
5.13432e-06
6.29527e-06
4.05102e-06
7.64654e-06
2.70218e-06
9.36505e-06
4.4981e-07
1.30797e-05
-1.87313e-06
1.88523e-05
-2.21502e-06
1.94534e-05
-3.01368e-06
1.11072e-05
-4.46202e-06
1.00125e-05
-5.9415e-06
9.94244e-06
-7.3764e-06
9.91812e-06
-8.72491e-06
9.88343e-06
-9.95908e-06
9.81568e-06
-1.10662e-05
9.70812e-06
-1.20442e-05
9.56578e-06
-1.28881e-05
9.40547e-06
-1.3582e-05
9.24492e-06
-1.41023e-05
9.08844e-06
-1.44262e-05
8.92047e-06
-1.45399e-05
8.70474e-06
-1.44476e-05
8.38775e-06
-1.41804e-05
7.90807e-06
-1.38013e-05
7.21321e-06
-1.3397e-05
6.28332e-06
-1.3051e-05
5.15092e-06
-1.28073e-05
3.89583e-06
-1.26562e-05
2.60837e-06
-1.25563e-05
1.34981e-06
-1.24675e-05
1.46764e-07
-1.2364e-05
-9.96451e-07
-1.22314e-05
-2.07925e-06
-1.20603e-05
-3.10472e-06
-1.18452e-05
-4.07497e-06
-1.15834e-05
-4.9922e-06
-1.12743e-05
-5.85762e-06
-1.09189e-05
-6.67067e-06
-1.05198e-05
-7.42847e-06
-1.0081e-05
-8.12543e-06
-9.60793e-06
-8.75313e-06
-9.10717e-06
-9.3003e-06
-8.58594e-06
-9.75276e-06
-8.05067e-06
-1.00929e-05
-7.50447e-06
-1.0298e-05
-6.94305e-06
-1.03363e-05
-6.34917e-06
-1.01594e-05
-5.68667e-06
-9.688e-06
-4.89429e-06
-8.78844e-06
-3.87157e-06
-7.25168e-06
-2.42021e-06
-4.8127e-06
-1.27665e-06
-1.15034e-06
2.00315e-05
-2.35406e-06
1.17627e-05
-3.38987e-06
7.78662e-06
-4.20803e-06
5.49547e-06
-4.82918e-06
3.89677e-06
-5.29706e-06
2.79572e-06
-5.66263e-06
2.11596e-06
-5.96839e-06
1.74768e-06
-6.23603e-06
1.55202e-06
-6.47134e-06
1.41366e-06
-6.67e-06
1.26749e-06
-6.82429e-06
1.09066e-06
-6.92683e-06
8.74145e-07
-6.9691e-06
6.11042e-07
-6.94484e-06
2.95054e-07
-6.84977e-06
-7.83648e-08
-6.68822e-06
-5.12568e-07
-6.46826e-06
-1.00738e-06
-6.19912e-06
-1.55857e-06
-5.88736e-06
-2.15759e-06
-5.53575e-06
-2.79379e-06
-5.14434e-06
-3.45681e-06
-4.712e-06
-4.13784e-06
-4.23773e-06
-4.83002e-06
-3.72116e-06
-5.52819e-06
-3.16269e-06
-6.22843e-06
-2.56322e-06
-6.92757e-06
-1.92385e-06
-7.62266e-06
-1.24558e-06
-8.31047e-06
-5.27446e-07
-8.98862e-06
2.42274e-07
-9.67803e-06
1.03722e-06
-1.03748e-05
1.86502e-06
-1.08169e-05
2.71384e-06
-1.09798e-05
3.55458e-06
-1.08033e-05
4.34375e-06
-1.02813e-05
5.04288e-06
-9.50049e-06
5.63338e-06
-8.58075e-06
6.11741e-06
-7.62142e-06
6.50928e-06
-6.68232e-06
6.82621e-06
-5.78833e-06
7.08288e-06
-4.93863e-06
7.28872e-06
-4.10983e-06
7.44493e-06
-3.25742e-06
7.54128e-06
-2.32662e-06
7.55665e-06
-1.27381e-06
7.46364e-06
-8.24902e-08
7.23418e-06
1.2468e-06
6.84275e-06
2.69078e-06
6.27133e-06
4.20307e-06
5.51043e-06
5.7338e-06
4.55551e-06
7.25018e-06
3.38408e-06
8.81797e-06
1.88182e-06
1.08673e-05
-6.89e-07
1.56505e-05
-2.52701e-06
2.06903e-05
-2.57994e-06
1.95064e-05
-3.60569e-06
1.2133e-05
-4.99401e-06
1.14008e-05
-6.36597e-06
1.13144e-05
-7.68208e-06
1.12342e-05
-8.91533e-06
1.11167e-05
-1.00469e-05
1.09472e-05
-1.10657e-05
1.0727e-05
-1.19654e-05
1.04655e-05
-1.27374e-05
1.01774e-05
-1.33674e-05
9.87494e-06
-1.38381e-05
9.55917e-06
-1.41345e-05
9.21686e-06
-1.42502e-05
8.82041e-06
-1.41941e-05
8.33166e-06