/*--------------------------------*- C++ -*----------------------------------*\
| =========                 |                                                 |
| \\      /  F ield         | OpenFOAM: The Open Source CFD Toolbox           |
|  \\    /   O peration     | Version:  4.1                                   |
|   \\  /    A nd           | Web:      www.OpenFOAM.org                      |
|    \\/     M anipulation  |                                                 |
\*---------------------------------------------------------------------------*/
FoamFile
{
    version     2.0;
    format      ascii;
    class       volScalarField;
    location    "1480";
    object      mag(U);
}
// * * * * * * * * * * * * * * * * * * * * * * * * * * * * * * * * * * * * * //

dimensions      [0 1 -1 0 0 0 0];

internalField   nonuniform List<scalar> 
5000
(
0.00277438
0.00238178
0.00190217
0.000665828
0.00083712
0.00159044
0.00256311
0.00366297
0.00483283
0.00602646
0.00720605
0.00834264
0.00941595
0.0104131
0.0113272
0.0121559
0.0129003
0.0135637
0.0141511
0.0146685
0.0151221
0.0155183
0.0158632
0.0161627
0.0164221
0.0166463
0.0168397
0.0170062
0.0171493
0.0172717
0.0173762
0.0174648
0.0175394
0.0176014
0.017652
0.017692
0.0177221
0.0177426
0.0177537
0.0177553
0.0177482
0.017732
0.0177063
0.0176708
0.0176251
0.017569
0.0175022
0.0174246
0.0173358
0.017235
0.0171206
0.0169893
0.0168359
0.0166527
0.0164299
0.016157
0.0158259
0.0154351
0.0149954
0.0145347
0.0140997
0.0137524
0.0135604
0.0135693
0.0137543
0.0140787
0.0145061
0.0150005
0.0155292
0.0160582
0.0165405
0.0168947
0.0169948
0.0165549
0.0151306
0.0121425
0.00721802
0.00225129
0.00272317
0.00433493
0.00541066
0.00599501
0.00620711
0.00614038
0.00585104
0.00535009
0.00466838
0.00383499
0.00287758
0.0018318
0.00103372
0.00179533
0.00346088
0.00554769
0.00790865
0.0102053
0.0119084
0.0120971
0.00986775
0.00647489
0.0038838
0.00166431
0.00213576
0.00155132
0.0012022
0.0017013
0.00267049
0.00381804
0.00503213
0.00626089
0.00746984
0.0086337
0.0097349
0.0107625
0.0117108
0.0125782
0.0133662
0.0140784
0.0147197
0.0152958
0.0158127
0.0162765
0.016693
0.0170678
0.0174058
0.0177116
0.0179893
0.0182425
0.0184742
0.0186873
0.0188839
0.0190662
0.0192355
0.0193934
0.0195407
0.0196781
0.0198062
0.0199252
0.020035
0.0201354
0.0202251
0.0203035
0.0203696
0.0204225
0.0204606
0.0204829
0.0204883
0.0204757
0.0204443
0.0203929
0.0203206
0.0202267
0.0201107
0.0199732
0.0198161
0.0196441
0.0194652
0.0192915
0.0191392
0.0190257
0.018965
0.0189583
0.0189877
0.0190235
0.0190741
0.0191517
0.0192597
0.0193948
0.0195434
0.0196769
0.0197426
0.019633
0.0191541
0.018141
0.0165397
0.0144327
0.0118297
0.00821917
0.00386775
0.00262526
0.00313444
0.0036337
0.00388791
0.00390539
0.00372548
0.00335155
0.00283391
0.00226635
0.00186333
0.0019926
0.00269512
0.00378143
0.00513584
0.00669671
0.00831326
0.00961905
0.0103963
0.0104557
0.00985037
0.0100021
0.00516667
0.00137215
0.00221896
0.0021327
0.00228677
0.00279384
0.00357005
0.00455102
0.00562899
0.00673983
0.00784348
0.00891239
0.00992794
0.0108785
0.0117579
0.012564
0.0132976
0.0139618
0.0145607
0.0150996
0.0155838
0.016019
0.0164104
0.016763
0.0170816
0.0173705
0.0176333
0.0178736
0.0180943
0.0182981
0.0184872
0.0186636
0.0188289
0.0189845
0.0191315
0.0192706
0.0194025
0.0195275
0.0196456
0.0197566
0.0198601
0.0199553
0.0200414
0.0201172
0.0201817
0.0202331
0.0202691
0.0202883
0.0202893
0.0202713
0.020234
0.0201785
0.020107
0.0200237
0.0199344
0.0198463
0.0197671
0.0197032
0.0196575
0.0196277
0.0196059
0.019581
0.0195437
0.0194915
0.0194343
0.0193838
0.0193468
0.0193212
0.0192928
0.0192316
0.0190838
0.0187823
0.018283
0.0175961
0.0168756
0.0163139
0.015521
0.0133572
0.00952048
0.00550585
0.00247259
0.00121767
0.00129427
0.00148855
0.00163762
0.00179064
0.00199553
0.00232335
0.00280619
0.00344753
0.00424099
0.00518116
0.00626223
0.00746066
0.00858791
0.00906349
0.00878668
0.00905498
0.0111296
0.0142145
0.00616605
0.00109131
0.00220712
0.00258133
0.00329295
0.00401042
0.00474647
0.00560622
0.00653709
0.00749643
0.00845373
0.00938617
0.0102773
0.0111161
0.0118962
0.0126149
0.0132722
0.01387
0.0144117
0.0149012
0.0153431
0.0157419
0.016102
0.0164278
0.0167231
0.0169916
0.0172366
0.0174611
0.0176676
0.0178587
0.0180363
0.0182023
0.0183582
0.0185054
0.0186451
0.0187781
0.0189051
0.0190265
0.0191426
0.0192533
0.0193582
0.019457
0.0195488
0.0196326
0.0197072
0.0197714
0.0198242
0.019863
0.0198865
0.0198939
0.0198847
0.0198594
0.0198199
0.0197691
0.0197116
0.0196525
0.0195962
0.0195454
0.0194988
0.0194511
0.019394
0.0193197
0.0192252
0.0191149
0.0189978
0.0188829
0.0187748
0.0186697
0.0185538
0.0184001
0.0181663
0.0178348
0.0174294
0.0171012
0.0171632
0.0177273
0.0180007
0.0167196
0.013785
0.0102351
0.00701352
0.00445016
0.00255345
0.00167305
0.00184588
0.00238143
0.00300347
0.00363539
0.00427061
0.00492421
0.00561683
0.00636984
0.00719923
0.00810169
0.00889127
0.00877156
0.00766299
0.00858942
0.0131476
0.0177991
0.0070017
0.000905758
0.00215808
0.00304589
0.00433512
0.00526229
0.0060262
0.006808
0.00760325
0.00839985
0.00918653
0.00995236
0.0106877
0.0113849
0.0120389
0.012647
0.0132084
0.013724
0.0141958
0.0146264
0.0150191
0.0153771
0.0157036
0.0160019
0.016275
0.0165255
0.016756
0.016969
0.0171663
0.01735
0.0175218
0.0176832
0.0178356
0.0179802
0.0181181
0.0182502
0.0183771
0.0184995
0.0186175
0.0187312
0.0188404
0.0189447
0.0190434
0.0191356
0.01922
0.0192954
0.0193606
0.0194143
0.0194544
0.0194799
0.0194905
0.019486
0.0194674
0.0194363
0.019395
0.0193458
0.0192907
0.01923
0.0191618
0.0190822
0.0189866
0.0188717
0.0187379
0.0185902
0.0184333
0.0182724
0.0181118
0.01795
0.0177761
0.0175666
0.0173013
0.0169858
0.0166976
0.0166772
0.0172923
0.0185238
0.019405
0.0187864
0.0166368
0.0137818
0.0109652
0.00857037
0.00670412
0.0052999
0.00462903
0.00459351
0.00487721
0.00530075
0.00577172
0.00625565
0.00675184
0.00727628
0.0078509
0.00848914
0.00903452
0.00850001
0.00670393
0.00880631
0.0152315
0.0204853
0.00775867
0.000973152
0.00209729
0.00357661
0.00541615
0.00651739
0.00733612
0.00806267
0.0087313
0.00936013
0.00996031
0.0105371
0.0110913
0.0116218
0.0121263
0.0126031
0.013051
0.0134699
0.0138601
0.0142228
0.0145595
0.0148719
0.0151618
0.0154311
0.0156815
0.0159148
0.0161326
0.0163365
0.0165278
0.0167079
0.0168781
0.0170396
0.0171935
0.0173408
0.0174826
0.0176196
0.0177525
0.017882
0.0180082
0.0181314
0.0182514
0.0183677
0.0184797
0.0185865
0.0186866
0.0187787
0.018861
0.0189324
0.0189907
0.0190341
0.0190618
0.0190735
0.0190692
0.0190496
0.0190155
0.0189676
0.0189063
0.0188308
0.0187395
0.0186297
0.0184989
0.0183459
0.0181725
0.017983
0.0177852
0.0175834
0.0173789
0.0171717
0.0169541
0.0167089
0.0164377
0.0161632
0.0159983
0.0162292
0.0172096
0.018802
0.0200176
0.0198872
0.0183988
0.0161741
0.0138131
0.0116721
0.00990438
0.00853517
0.00748926
0.00696003
0.00682213
0.00691144
0.00710881
0.00734438
0.00759325
0.00786121
0.00817342
0.00855974
0.00890996
0.00809622
0.00570658
0.00957813
0.0171651
0.0223159
0.00845738
0.00127076
0.00204789
0.00420702
0.00652105
0.00776791
0.0086457
0.00932265
0.00986509
0.0103195
0.0107199
0.0110896
0.0114425
0.0117854
0.0121211
0.0124495
0.0127697
0.0130803
0.0133801
0.0136683
0.0139444
0.0142082
0.0144597
0.0146993
0.0149272
0.0151441
0.0153504
0.0155468
0.015734
0.0159127
0.0160837
0.0162479
0.016406
0.016559
0.0167077
0.0168529
0.0169954
0.0171356
0.0172742
0.0174113
0.0175469
0.0176807
0.0178119
0.0179395
0.0180621
0.0181781
0.0182854
0.0183816
0.018466
0.0185342
0.0185847
0.0186165
0.0186288
0.0186213
0.0185938
0.0185461
0.0184777
0.0183877
0.0182747
0.018137
0.0179733
0.017784
0.0175714
0.0173403
0.0170969
0.0168486
0.0166
0.0163482
0.0160884
0.0158237
0.0155575
0.0153294
0.0152806
0.01571
0.0169188
0.0186781
0.0200614
0.0202736
0.0193012
0.01761
0.0156754
0.0138085
0.0121714
0.0108351
0.00977415
0.00898115
0.00851553
0.00828619
0.00818802
0.00814728
0.00812638
0.0081237
0.00816747
0.00830418
0.00847967
0.00749061
0.00469749
0.0108399
0.0187791
0.0233516
0.00910232
0.00164219
0.00203086
0.00496357
0.00762425
0.00900729
0.00993335
0.0105533
0.0109617
0.0112315
0.0114195
0.0115672
0.0117026
0.0118424
0.0119948
0.0121626
0.0123453
0.0125404
0.012745
0.012956
0.0131705
0.0133861
0.0136006
0.0138126
0.0140206
0.0142239
0.0144216
0.0146135
0.0147994
0.0149794
0.0151537
0.0153227
0.0154871
0.0156474
0.0158046
0.0159593
0.0161124
0.0162647
0.0164168
0.016569
0.0167215
0.0168741
0.0170264
0.0171772
0.0173253
0.0174688
0.0176055
0.0177329
0.0178479
0.0179496
0.0180317
0.0180923
0.0181298
0.0181425
0.0181294
0.0180894
0.0180214
0.0179244
0.0177973
0.0176389
0.0174489
0.0172279
0.0169781
0.0167038
0.0164107
0.0161061
0.0157981
0.0154943
0.0151994
0.0149154
0.0146541
0.0144709
0.0145242
0.0151052
0.0164422
0.0182443
0.0196861
0.0201279
0.019548
0.0182921
0.0167325
0.0151334
0.0136515
0.0123703
0.011321
0.0104475
0.00978636
0.00930747
0.00894614
0.00864055
0.00835421
0.00808287
0.00785759
0.00774128
0.00774035
0.00665891
0.00391837
0.0124269
0.0198839
0.023705
0.00969279
0.00200614
0.00206965
0.00587171
0.00868939
0.0102246
0.0111786
0.0117246
0.0119846
0.0120568
0.01202
0.0119341
0.0118412
0.011768
0.011729
0.0117302
0.0117714
0.0118494
0.0119592
0.012095
0.0122514
0.0124232
0.0126061
0.0127961
0.0129901
0.0131856
0.0133805
0.0135733
0.0137629
0.0139487
0.0141302
0.0143076
0.014481
0.0146509
0.0148182
0.0149835
0.0151478
0.0153119
0.0154768
0.0156429
0.0158108
0.0159804
0.0161515
0.0163233
0.0164946
0.0166635
0.0168279
0.0169852
0.0171322
0.0172665
0.0173848
0.0174805
0.0175505
0.0175925
0.0176038
0.0175823
0.0175263
0.0174341
0.0173046
0.0171369
0.0169309
0.0166876
0.0164094
0.0161003
0.0157665
0.0154159
0.0150583
0.0147041
0.0143622
0.0140424
0.0137683
0.0136115
0.0137422
0.0144281
0.0158185
0.0175851
0.0190162
0.0196022
0.0193147
0.0184067
0.0171671
0.0158167
0.0144985
0.0132972
0.0122562
0.0113724
0.0105986
0.00994364
0.00937176
0.00883834
0.00831208
0.00778788
0.00729712
0.00691635
0.00671481
0.00557795
0.00385925
0.014199
0.0202522
0.0235673
0.0102241
0.00232764
0.00220639
0.00686236
0.0097345
0.0114039
0.0123584
0.0128071
0.0129001
0.0127604
0.0124884
0.0121618
0.0118366
0.0115488
0.011319
0.0111556
0.0110593
0.0110254
0.0110468
0.011115
0.0112216
0.0113585
0.0115187
0.011696
0.011885
0.0120814
0.0122817
0.0124832
0.0126836
0.0128815
0.013076
0.0132665
0.013453
0.0136358
0.0138154
0.0139927
0.0141686
0.0143442
0.0145205
0.0146983
0.0148783
0.0150609
0.015246
0.015433
0.015621
0.0158084
0.0159932
0.0161731
0.016345
0.0165056
0.0166538
0.0167826
0.0168862
0.0169608
0.0170028
0.0170084
0.0169746
0.0168991
0.0167801
0.0166164
0.0164077
0.016155
0.0158605
0.015528
0.0151633
0.0147744
0.0143718
0.0139675
0.0135748
0.0132117
0.0129151
0.0127718
0.0129583
0.0137089
0.0150971
0.0167802
0.0181572
0.0188247
0.0187497
0.0181155
0.0171448
0.0160186
0.0148633
0.0137588
0.012749
0.011848
0.0110308
0.0102659
0.00953695
0.00881843
0.00808534
0.00732964
0.00657593
0.00590307
0.00544162
0.00415986
0.0050868
0.0154376
0.0199422
0.0232166
0.0106876
0.00258838
0.00255469
0.00783574
0.0107719
0.0125253
0.0134467
0.0137711
0.0136768
0.0133116
0.0127978
0.0122309
0.011679
0.0111865
0.0107779
0.0104635
0.0102435
0.0101117
0.0100584
0.0100723
0.0101419
0.0102563
0.0104057
0.0105813
0.0107758
0.010983
0.0111978
0.0114161
0.0116348
0.0118516
0.0120647
0.0122732
0.0124767
0.0126753
0.0128692
0.0130595
0.013247
0.013433
0.0136186
0.013805
0.0139931
0.0141835
0.0143763
0.0145713
0.0147677
0.0149641
0.0151589
0.0153499
0.0155348
0.0157106
0.0158739
0.0160256
0.0161548
0.0162573
0.0163284
0.0163632
0.0163571
0.0163064
0.0162082
0.0160604
0.0158622
0.0156137
0.0153166
0.0149739
0.0145905
0.014174
0.0137344
0.0132852
0.0128443
0.0124381
0.0121163
0.0119798
0.0122046
0.0129852
0.0143298
0.0158997
0.0171957
0.0178991
0.0179744
0.0175531
0.016805
0.015877
0.014877
0.0138769
0.0129184
0.0120178
0.0111679
0.0103415
0.0095121
0.00865743
0.00776001
0.00680819
0.0058082
0.00481129
0.0039743
0.00224354
0.00636365
0.0159178
0.019229
0.0228999
0.0110658
0.00271158
0.00338682
0.00869208
0.0117825
0.013567
0.0144156
0.0145869
0.0142851
0.0136841
0.012929
0.0121323
0.0113731
0.0107007
0.0101413
0.00970385
0.00938651
0.00918047
0.00907325
0.0090508
0.00909894
0.00920417
0.00935423
0.0095383
0.00974705
0.0099726
0.0102085
0.0104494
0.0106912
0.0109307
0.0111657
0.0113946
0.0116167
0.0118316
0.0120399
0.0122422
0.0124396
0.0126335
0.0128254
0.0130164
0.0132078
0.0134004
0.0135946
0.0137901
0.0139864
0.0141823
0.0143763
0.0145666
0.0147513
0.014928
0.0150942
0.0152486
0.0153896
0.0155081
0.0155992
0.0156577
0.0156777
0.0156539
0.015582
0.0154586
0.0152814
0.0150496
0.0147634
0.0144249
0.0140375
0.0136074
0.0131443
0.0126623
0.0121831
0.0117414
0.0113989
0.0112672
0.0115154
0.0122953
0.0135641
0.0150025
0.0162008
0.016907
0.0170847
0.0168262
0.0162602
0.0155035
0.0146465
0.0137517
0.0128565
0.0119772
0.0111121
0.0102453
0.00935293
0.00841357
0.00740895
0.00632218
0.00513801
0.00384672
0.00250698
0.000322604
0.00706098
0.0158524
0.018396
0.0227632
0.0113264
0.00285109
0.00441459
0.00955988
0.012743
0.0145023
0.0152361
0.0152251
0.0146986
0.0138578
0.0128723
0.0118711
0.0109413
0.0101331
0.00946885
0.00895232
0.00857644
0.00832835
0.0081926
0.00815297
0.00819356
0.00829941
0.00845681
0.0086536
0.00887914
0.00912437
0.00938171
0.00964492
0.00990902
0.0101701
0.0104253
0.0106726
0.0109109
0.0111398
0.0113594
0.0115705
0.0117744
0.0119724
0.0121662
0.0123574
0.0125472
0.0127366
0.012926
0.0131155
0.0133044
0.0134915
0.0136755
0.0138548
0.0140277
0.0141927
0.0143481
0.0144919
0.0146269
0.0147446
0.0148415
0.0149123
0.0149505
0.0149496
0.014904
0.0148085
0.0146594
0.014454
0.0141911
0.0138709
0.0134953
0.0130689
0.0126001
0.0121034
0.0116033
0.0111412
0.0107885
0.0106628
0.0109204
0.0116716
0.0128396
0.0141352
0.0152255
0.0159102
0.0161528
0.0160163
0.0155964
0.0149851
0.0142561
0.0134623
0.012637
0.0117957
0.0109402
0.0100615
0.00914525
0.00817501
0.00713525
0.00601285
0.00479052
0.00343561
0.0019391
0.00131524
0.00745306
0.0154168
0.017609
0.022872
0.0114621
0.00236816
0.00525416
0.0104462
0.0136232
0.0152993
0.0158783
0.0156587
0.014896
0.0138216
0.012631
0.0114691
0.0104262
0.00954609
0.00883998
0.00830057
0.00791215
0.00765665
0.00751615
0.00747379
0.00751388
0.00762184
0.00778425
0.00798887
0.00822481
0.00848254
0.00875389
0.00903201
0.00931125
0.00958713
0.00985621
0.0101161
0.0103651
0.0106027
0.0108288
0.0110441
0.0112498
0.0114475
0.0116388
0.0118254
0.0120089
0.0121902
0.0123699
0.0125478
0.0127232
0.012895
0.0130618
0.0132221
0.0133745
0.0135179
0.0136514
0.0137741
0.0138871
0.0139904
0.0140786
0.0141478
0.0141926
0.0142063
0.0141821
0.0141137
0.0139956
0.0138232
0.0135935
0.0133044
0.0129563
0.0125519
0.0120982
0.0116093
0.0111112
0.0106498
0.0103021
0.0101859
0.0104393
0.0111368
0.0121848
0.0133311
0.0143073
0.0149526
0.0152307
0.0151821
0.0148771
0.0143863
0.013769
0.0130694
0.0123165
0.0115261
0.010703
0.00984473
0.00894502
0.00799671
0.00699589
0.00594443
0.00484963
0.00373488
0.00275594
0.00287724
0.00772251
0.0147377
0.016939
0.0232037
0.0112776
0.00197173
0.00611743
0.011298
0.0143877
0.0159258
0.0163145
0.0158661
0.0148648
0.0135766
0.0122252
0.0109676
0.0098886
0.00901461
0.00833664
0.00783085
0.00747137
0.00723575
0.0071056
0.00706585
0.00710335
0.00720605
0.00736258
0.00756217
0.00779476
0.00805119
0.00832328
0.00860391
0.008887
0.00916754
0.00944155
0.00970603
0.00995895
0.0101992
0.0104264
0.010641
0.0108441
0.011037
0.0112217
0.0113996
0.0115725
0.0117412
0.0119064
0.0120677
0.0122246
0.0123756
0.0125194
0.0126547
0.0127803
0.0128954
0.0129999
0.0130937
0.0131777
0.0132549
0.013322
0.0133775
0.0134173
0.0134355
0.0134255
0.0133802
0.0132927
0.0131568
0.0129672
0.01272
0.0124135
0.0120487
0.011631
0.0111738
0.0107033
0.0102667
0.00994173
0.00983938
0.0100767
0.0107008
0.0116162
0.0126107
0.0134695
0.0140622
0.0143523
0.0143638
0.0141463
0.0137532
0.0132316
0.0126181
0.0119385
0.0112087
0.010437
0.0096271
0.00878116
0.00790311
0.00700425
0.00610744
0.00525097
0.00450322
0.00403165
0.00434411
0.00798019
0.0139604
0.016395
0.0236931
0.0107627
0.00162503
0.0070095
0.0120708
0.0150033
0.0163558
0.0165245
0.0158348
0.0146046
0.0131404
0.011694
0.0104254
0.00939815
0.0086072
0.00801596
0.00758376
0.00727779
0.00707502
0.00695951
0.00692005
0.00694754
0.00703371
0.00717046
0.00734955
0.00756272
0.00780198
0.00805975
0.00832902
0.00860354
0.00887785
0.0091474
0.00940857
0.00965867
0.0098959
0.0101194
0.010329
0.0105255
0.01071
0.0108841
0.0110494
0.0112073
0.011359
0.0115048
0.0116446
0.0117777
0.0119029
0.0120188
0.0121243
0.0122185
0.0123011
0.0123724
0.0124331
0.0124845
0.0125302
0.0125694
0.0126029
0.0126289
0.0126432
0.0126402
0.012613
0.0125539
0.0124554
0.0123104
0.0121132
0.0118599
0.0115498
0.011187
0.0107836
0.0103649
0.00997632
0.0096911
0.00960785
0.00982146
0.0103604
0.011138
0.0119825
0.0127234
0.0132539
0.0135377
0.0135862
0.0134329
0.0131176
0.0126771
0.012142
0.0115353
0.0108734
0.0101682
0.00942906
0.00866644
0.00789538
0.00714147
0.00644336
0.00585202
0.00543169
0.00528625
0.00568931
0.00829846
0.013221
0.0159694
0.0242686
0.00997236
0.00151222
0.00790561
0.0127362
0.0154492
0.0165751
0.0164997
0.0155652
0.0141314
0.0125503
0.0110956
0.0099106
0.00901551
0.00836205
0.00788792
0.00754351
0.00729643
0.00712738
0.00702453
0.00698111
0.00699188
0.00705241
0.00715808
0.00730371
0.00748352
0.00769141
0.00792103
0.00816602
0.00842027
0.0086781
0.00893447
0.00918506
0.00942635
0.00965566
0.00987125
0.0100723
0.0102587
0.0104312
0.0105909
0.0107393
0.0108778
0.0110074
0.0111288
0.0112418
0.011346
0.0114403
0.0115237
0.0115954
0.0116548
0.0117022
0.0117384
0.0117646
0.011783
0.0117962
0.0118059
0.0118146
0.0118226
0.0118281
0.0118274
0.0118143
0.0117813
0.01172
0.0116221
0.01148
0.0112883
0.0110445
0.0107514
0.0104195
0.0100719
0.00975014
0.00951874
0.00946022
0.00964829
0.0100998
0.0107432
0.0114443
0.0120699
0.0125322
0.0127959
0.012863
0.012755
0.0125007
0.0121288
0.011665
0.0111302
0.0105416
0.00991379
0.00926176
0.00860303
0.00796195
0.00737358
0.00688151
0.00653028
0.00635842
0.00641536
0.00686295
0.00873227
0.0126253
0.0156462
0.024866
0.00896397
0.00212528
0.00877801
0.0132817
0.0157186
0.016582
0.0162444
0.0150727
0.0134793
0.0118629
0.0105002
0.00948453
0.00877198
0.0082744
0.0079179
0.00765604
0.00746259
0.00732358
0.00723089
0.00718128
0.00717213
0.00720224
0.00727008
0.00737356
0.00750977
0.00767505
0.00786492
0.00807425
0.00829759
0.00852939
0.00876433
0.00899743
0.00922423
0.00944093
0.00964464
0.00983342
0.0100063
0.0101631
0.0103046
0.0104318
0.0105461
0.0106487
0.0107404
0.0108214
0.0108917
0.0109505
0.0109974
0.011032
0.0110543
0.0110651
0.0110658
0.0110583
0.0110452
0.0110284
0.011011
0.0109966
0.0109874
0.010984
0.0109843
0.0109839
0.0109758
0.0109515
0.0109017
0.0108178
0.0106928
0.0105228
0.0103089
0.01006
0.00979621
0.00955335
0.00938505
0.00935666
0.00952304
0.00989419
0.0104151
0.0109849
0.0115015
0.0118936
0.0121278
0.0121998
0.0121223
0.0119156
0.0116021
0.0112035
0.0107392
0.0102268
0.00968363
0.00912894
0.00858594
0.0080851
0.0076647
0.0073638
0.00721118
0.00721956
0.00740384
0.00786564
0.00924901
0.0122351
0.0154155
0.0254412
0.00776974
0.00309097
0.00958426
0.013698
0.015813
0.0163842
0.0157742
0.014388
0.0127015
0.0111509
0.00997524
0.00918177
0.00866121
0.0083069
0.00805232
0.00786149
0.00771492
0.00760272
0.00751911
0.00746319
0.00743364
0.00743191
0.00745884
0.00751522
0.00760096
0.00771522
0.00785579
0.00801938
0.00820179
0.00839811
0.0086031
0.00881129
0.00901729
0.00921606
0.00940334
0.00957582
0.00973129
0.00986864
0.00998782
0.0100896
0.0101752
0.0102461
0.0103035
0.0103483
0.0103807
0.0104008
0.0104085
0.0104039
0.010388
0.010362
0.010328
0.0102887
0.0102474
0.0102044
0.0101649
0.0101328
0.0101114
0.010103
0.0101073
0.0101212
0.0101388
0.0101519
0.0101508
0.0101261
0.0100698
0.00997659
0.00984626
0.00968553
0.00951106
0.00935214
0.00925109
0.00925713
0.00940949
0.00971399
0.0101305
0.0105861
0.0110043
0.0113284
0.0115284
0.0115963
0.0115385
0.0113692
0.0111061
0.0107676
0.0103718
0.00993661
0.00948163
0.00902927
0.00860651
0.00824637
0.00798493
0.0078511
0.0078565
0.00799429
0.00825943
0.00871865
0.0097831
0.0120631
0.0152779
0.0259724
0.00640884
0.00416172
0.0102967
0.0139762
0.0157368
0.0159953
0.0151146
0.0135564
0.0118679
0.0104882
0.00956696
0.00900152
0.00865
0.00841414
0.00824434
0.00811476
0.00801012
0.00792243
0.00784746
0.00778568
0.00773642
0.00770338
0.00768886
0.00769616
0.00772757
0.00778506
0.00786876
0.00797767
0.00810942
0.00826031
0.00842567
0.0086
0.00877715
0.00895092
0.00911565
0.00926655
0.00939995
0.00951354
0.00960638
0.00967881
0.00973208
0.00976793
0.00978814
0.00979414
0.00978686
0.00976686
0.00973462
0.0096909
0.00963713
0.00957548
0.0095088
0.00944046
0.0093748
0.00931067
0.00925565
0.00921324
0.0091874
0.0091812
0.00919544
0.0092281
0.00927414
0.00932585
0.00937374
0.00940789
0.00941949
0.00940244
0.00935502
0.00928185
0.00919588
0.00911984
0.00908559
0.00912861
0.00927584
0.00953047
0.00986428
0.010226
0.01056
0.0108226
0.0109881
0.0110472
0.0110023
0.0108635
0.0106446
0.0103618
0.010032
0.00967363
0.00930763
0.00895857
0.00865521
0.0084299
0.0083127
0.00832024
0.00844923
0.00867963
0.00899585
0.0094437
0.0102959
0.0120686
0.0152337
0.0264559
0.00491943
0.00520533
0.010882
0.0141078
0.0154979
0.0154345
0.0143012
0.0126385
0.0110543
0.00993445
0.00928548
0.00891984
0.00869923
0.00855876
0.008462
0.00838769
0.00832082
0.00825575
0.00818891
0.00812149
0.00805395
0.00799158
0.00793742
0.00789662
0.00787313
0.00787127
0.0078931
0.00794003
0.00801197
0.00810681
0.00822116
0.00835015
0.00848747
0.00862618
0.0087595
0.00888128
0.00898636
0.00907104
0.0091334
0.0091732
0.00919163
0.00919077
0.00917293
0.00914018
0.00909403
0.0090355
0.00896544
0.00888502
0.00879615
0.00870169
0.00860535
0.00851174
0.00842556
0.0083456
0.00828222
0.00823815
0.00821711
0.00822217
0.00825426
0.00831176
0.00839021
0.00848242
0.00857914
0.00867042
0.00874707
0.0088023
0.0088332
0.00884238
0.00883921
0.00884044
0.008869
0.00894944
0.00909955
0.00932076
0.00959361
0.00988289
0.0101493
0.0103602
0.0104948
0.0105442
0.010509
0.0103961
0.0102173
0.00998663
0.00972037
0.0094372
0.0091591
0.00891163
0.00872344
0.0086236
0.00863389
0.0087588
0.0089834
0.00927956
0.00962724
0.01006
0.0107692
0.0121935
0.0152754
0.0268983
0.00337993
0.00616142
0.0113231
0.014094
0.0151105
0.0147284
0.0133812
0.0117045
0.0103334
0.00952839
0.00910994
0.00889059
0.00877914
0.00872212
0.00868849
0.00866082
0.00862854
0.00858458
0.00852592
0.00845401
0.0083711
0.00828311
0.00819399
0.00810962
0.0080347
0.00797511
0.00793383
0.00791448
0.00791911
0.00794733
0.00799773
0.00806706
0.00814977
0.00823907
0.00832796
0.00840947
0.00847717
0.00852603
0.00855296
0.00855704
0.00853924
0.00850183
0.00844752
0.00837886
0.00829774
0.00820537
0.00810268
0.00799091
0.00787222
0.00774995
0.00762862
0.0075145
0.00741143
0.00732217
0.00725803
0.00722089
0.00721388
0.00723934
0.00729745
0.00738625
0.00750132
0.00763573
0.00778054
0.00792599
0.00806288
0.00818405
0.00828573
0.00836876
0.00843937
0.00850924
0.00859414
0.00871041
0.00886928
0.00907101
0.00930229
0.00953933
0.00975498
0.00992578
0.0100359
0.0100778
0.0100515
0.00996253
0.00982094
0.00963977
0.0094348
0.00922494
0.00903271
0.00888359
0.00880444
0.00881909
0.00893999
0.00916076
0.00945816
0.00979989
0.0101655
0.0105821
0.0111938
0.0123864
0.0153883
0.0273094
0.00195009
0.00699914
0.0116208
0.0139484
0.0145966
0.0139122
0.0124124
0.0108302
0.00977536
0.0092389
0.00898715
0.00889321
0.00887776
0.00889418
0.00891592
0.00892821
0.008923
0.00889642
0.00884752
0.00877402
0.00868165
0.00857469
0.0084588
0.00833924
0.008221
0.0081105
0.00801004
0.00792478
0.00785829
0.00781126
0.00778473
0.00777811
0.00778767
0.00780817
0.00783405
0.00785883
0.00787558
0.00787829
0.00786276
0.00782727
0.00777227
0.00769983
0.00761273
0.00751358
0.00740421
0.0072856
0.00715829
0.00702324
0.0068825
0.00673969
0.00659993
0.00647169
0.00635505
0.00626565
0.00620828
0.0061857
0.0062009
0.00625481
0.00634618
0.00647199
0.0066272
0.00680474
0.00699589
0.00719127
0.00738199
0.0075609
0.00772373
0.00786999
0.00800335
0.00813148
0.0082647
0.00841342
0.00858436
0.00877704
0.00898232
0.00918431
0.00936467
0.00950711
0.00960025
0.00963864
0.00962252
0.00955702
0.00945132
0.00931793
0.00917252
0.00903423
0.00892552
0.0088708
0.00889359
0.00901103
0.00922606
0.00952342
0.00987442
0.0102459
0.0106197
0.0110203
0.0115649
0.0126079
0.0155541
0.0276985
0.00108467
0.00771521
0.0117957
0.0136957
0.0139849
0.0130296
0.0114604
0.010105
0.00935932
0.00901227
0.00890351
0.00891844
0.00898625
0.00906634
0.00913608
0.0091833
0.00920203
0.00919026
0.00914891
0.00907956
0.0089862
0.00886975
0.00873891
0.00859729
0.00844837
0.00829897
0.008149
0.00800429
0.0078689
0.00774293
0.00762968
0.00753184
0.00744798
0.00737599
0.00731426
0.00725905
0.00720464
0.00714516
0.00707597
0.00699453
0.00690043
0.00679485
0.00667984
0.00655731
0.00642832
0.00629287
0.00615061
0.00600176
0.00584813
0.00569356
0.00554388
0.00540961
0.00528992
0.00520731
0.00516341
0.0051623
0.00520667
0.00529581
0.00542651
0.00559388
0.00579159
0.00601199
0.00624649
0.00648624
0.00672299
0.00695001
0.007163
0.00736059
0.00754463
0.00771975
0.00789235
0.00806871
0.00825253
0.00844292
0.00863354
0.00881385
0.00897174
0.00909631
0.00918
0.00921949
0.00921591
0.00917457
0.00910453
0.00901822
0.00893146
0.00886346
0.00883604
0.00887136
0.00898823
0.0091962
0.00948921
0.00984538
0.0102332
0.0106213
0.0109957
0.0113808
0.0118792
0.0128303
0.0157543
0.0280729
0.0014817
0.00834974
0.0118801
0.0133634
0.0133065
0.0121293
0.0106033
0.00955712
0.00902053
0.00883516
0.00884943
0.00895769
0.00909691
0.00923183
0.00934339
0.009422
0.00946383
0.00946868
0.0094387
0.00937711
0.00928861
0.0091767
0.00904542
0.00889775
0.00873343
0.00856148
0.00837814
0.00818667
0.00799185
0.00779098
0.00758857
0.00739047
0.00719634
0.00700791
0.00683036
0.0066655
0.00651158
0.00636561
0.00622433
0.00608534
0.00594706
0.00580872
0.00567028
0.00553163
0.00539171
0.00524855
0.0051001
0.0049456
0.0047867
0.00462792
0.00447642
0.00434479
0.00423263
0.00416456
0.00414251
0.00417193
0.00425479
0.00438794
0.00456515
0.00477878
0.00502067
0.00528247
0.00555591
0.00583305
0.00610671
0.00637109
0.00662229
0.00685865
0.00708079
0.0072913
0.00749383
0.00769188
0.00788723
0.00807875
0.00826201
0.00843008
0.00857514
0.00869031
0.00877108
0.00881617
0.00882791
0.00881223
0.00877855
0.00873961
0.00871143
0.008713
0.00876464
0.00888509
0.0090872
0.00937257
0.00972735
0.0101254
0.0105349
0.0109284
0.0112971
0.0116672
0.0121343
0.0130347
0.015973
0.028438
0.00214611
0.0088731
0.0118847
0.0129676
0.0125875
0.0112576
0.00993002
0.0091017
0.00874317
0.00869655
0.0088155
0.00900311
0.00920341
0.00938595
0.00953501
0.00964358
0.00970998
0.00973576
0.00972431
0.0096798
0.00960654
0.00950805
0.00938786
0.00924832
0.00908953
0.00891272
0.0087157
0.00849407
0.00825618
0.00799517
0.00771167
0.00741532
0.00710492
0.00678401
0.00646681
0.00616173
0.00587416
0.00560828
0.00536654
0.00514955
0.00495529
0.00477989
0.00461928
0.00446909
0.00432414
0.00417876
0.00402821
0.00387048
0.0037075
0.0035457
0.00339548
0.00327222
0.00317616
0.00313479
0.00315059
0.00322902
0.00336852
0.0035608
0.00379492
0.00405997
0.00434635
0.00464587
0.00495142
0.00525675
0.00555643
0.00584608
0.00612265
0.00638464
0.00663207
0.00686618
0.00708885
0.00730174
0.00750543
0.00769869
0.00787841
0.00804007
0.00817885
0.00829076
0.00837375
0.00842837
0.00845825
0.00847026
0.00847447
0.00848406
0.00851512
0.00858577
0.00871381
0.00891327
0.00919017
0.00953844
0.00993827
0.0103616
0.0107788
0.0111678
0.0115257
0.0118814
0.0123282
0.0132086
0.0161969
0.0287969
0.00274252
0.00924876
0.0117965
0.0125097
0.0118482
0.0105094
0.00936517
0.00871831
0.00851355
0.00858511
0.00879277
0.00904797
0.00930114
0.00952622
0.00971075
0.00985024
0.00994503
0.00999817
0.010014
0.00999701
0.00995122
0.00987956
0.00978399
0.00966507
0.00952205
0.00935413
0.00915885
0.0089321
0.00867172
0.00837348
0.00802648
0.00764748
0.00723316
0.00678232
0.00631796
0.00585441
0.0054046
0.00498334
0.00460476
0.00427894
0.0040059
0.00377943
0.00358978
0.00342552
0.00327427
0.00312423
0.00296639
0.00279684
0.00261818
0.00244051
0.00228254
0.00216454
0.00210194
0.00211564
0.00220795
0.00237593
0.002605
0.00287717
0.00317695
0.00349287
0.00381697
0.00414366
0.00446872
0.00478858
0.0051001
0.00540065
0.00568825
0.00596184
0.00622124
0.00646688
0.00669946
0.00691949
0.00712675
0.00732003
0.00749713
0.0076552
0.00779148
0.00790413
0.00799304
0.00806041
0.00811117
0.00815327
0.00819752
0.00825742
0.00834863
0.00848741
0.0086878
0.00895799
0.00929684
0.00969166
0.010119
0.0105515
0.0109633
0.0113392
0.0116822
0.012024
0.0124595
0.0133442
0.0164161
0.0291514
0.00323894
0.00945703
0.0116002
0.0119872
0.0111363
0.00986838
0.00887538
0.00838917
0.00831759
0.00849003
0.00877341
0.00908708
0.00938737
0.00965238
0.00987273
0.0100463
0.0101751
0.0102634
0.010316
0.0103371
0.0103302
0.0102971
0.0102385
0.0101535
0.0100398
0.00989435
0.00971281
0.00949006
0.00922185
0.00890337
0.00852865
0.00809629
0.00760777
0.00705331
0.00645871
0.00584802
0.00523562
0.00464479
0.00410219
0.00363645
0.00325347
0.00294931
0.00271065
0.00251742
0.00234703
0.00217845
0.00199579
0.00179082
0.00156408
0.00132888
0.00112279
0.000990439
0.00102184
0.00119886
0.00147181
0.00179388
0.002136
0.00248374
0.00282998
0.00317146
0.00350677
0.0038353
0.00415646
0.00446939
0.00477305
0.00506626
0.00534797
0.00561754
0.00587463
0.00611903
0.00635063
0.00656912
0.00677375
0.00696335
0.00713639
0.00729119
0.00742646
0.00754202
0.00763932
0.00772199
0.00779628
0.0078711
0.00795785
0.00806989
0.00822147
0.00842577
0.00869175
0.0090211
0.00940599
0.00982891
0.0102656
0.0106913
0.0110861
0.0114416
0.0117664
0.0120956
0.0125274
0.0134369
0.0166239
0.0295024
0.00362888
0.00950369
0.0112922
0.0114098
0.0104817
0.00928973
0.00844007
0.00809783
0.00814238
0.00840194
0.00875116
0.00911698
0.00946125