/*--------------------------------*- C++ -*----------------------------------*\
| =========                 |                                                 |
| \\      /  F ield         | OpenFOAM: The Open Source CFD Toolbox           |
|  \\    /   O peration     | Version:  4.1                                   |
|   \\  /    A nd           | Web:      www.OpenFOAM.org                      |
|    \\/     M anipulation  |                                                 |
\*---------------------------------------------------------------------------*/
FoamFile
{
    version     2.0;
    format      ascii;
    class       volVectorField;
    location    "40";
    object      U;
}
// * * * * * * * * * * * * * * * * * * * * * * * * * * * * * * * * * * * * * //

dimensions      [0 1 -1 0 0 0 0];

internalField   nonuniform List<vector> 
5000
(
(0.00272222 -0.00172743 0)
(-0.000547792 0.00214578 0)
(-0.00331908 -0.000902207 0)
(-0.000616557 -0.0014019 0)
(0.00029603 0.00061519 0)
(-0.00068568 0.000260741 0)
(-0.00055767 -2.45954e-05 0)
(-0.000467609 3.36627e-06 0)
(-0.000382446 -5.93153e-05 0)
(-0.000240677 -8.22975e-05 0)
(-0.000159405 8.29034e-06 0)
(-0.000148394 -1.20657e-05 0)
(-0.000117571 -1.59163e-05 0)
(-0.000113166 1.43425e-05 0)
(-5.86479e-05 -4.98751e-05 0)
(-3.94364e-05 3.27308e-05 0)
(-8.56747e-05 1.35213e-06 0)
(-4.10181e-05 -3.03547e-05 0)
(-3.89895e-05 2.60386e-05 0)
(-5.86051e-05 -1.55867e-05 0)
(-1.69583e-05 -1.54626e-05 0)
(-2.18321e-05 1.25823e-05 0)
(-8.54728e-06 -1.44966e-05 0)
(-2.55051e-05 3.0654e-05 0)
(-4.59309e-05 -2.47306e-05 0)
(2.87233e-07 -6.18767e-06 0)
(-1.87541e-05 1.87439e-05 0)
(-2.83569e-05 -1.55046e-05 0)
(1.16301e-05 -1.32011e-05 0)
(-4.38372e-07 2.26846e-05 0)
(-3.46149e-05 4.7034e-06 0)
(-2.11216e-05 -1.50609e-05 0)
(4.3118e-06 -5.71852e-06 0)
(-4.61644e-06 1.27373e-05 0)
(-2.06369e-05 -8.97787e-07 0)
(-9.87706e-06 -8.55499e-06 0)
(9.04589e-06 -8.90142e-06 0)
(8.77322e-06 1.01475e-05 0)
(-1.77965e-05 1.24792e-05 0)
(-1.82228e-05 -1.14048e-05 0)
(1.28155e-06 -5.98355e-06 0)
(5.78266e-06 2.90498e-06 0)
(-8.25571e-06 9.83147e-06 0)
(-1.56862e-05 -4.00092e-06 0)
(-4.16637e-06 -6.1082e-06 0)
(4.8543e-06 -2.5002e-06 0)
(1.65868e-06 5.46181e-06 0)
(-8.62654e-06 3.91942e-06 0)
(-8.50813e-06 -3.76127e-06 0)
(3.34472e-08 -4.97429e-06 0)
(8.64632e-06 -2.11785e-06 0)
(8.7941e-07 9.04322e-06 0)
(-1.07909e-05 1.25736e-06 0)
(-6.91504e-06 -3.75825e-06 0)
(1.24068e-07 -3.839e-06 0)
(7.65224e-06 -2.18607e-06 0)
(9.09377e-07 8.11282e-06 0)
(-9.48209e-06 1.0498e-06 0)
(-5.80727e-06 -3.35395e-06 0)
(3.49595e-07 -3.43893e-06 0)
(8.59111e-06 -4.54698e-06 0)
(9.09535e-06 5.27144e-06 0)
(-7.00724e-06 9.09677e-06 0)
(-1.24132e-05 -4.25484e-06 0)
(-2.41818e-06 -4.13899e-06 0)
(3.03676e-06 -1.76098e-06 0)
(3.82282e-06 1.48744e-06 0)
(-2.524e-06 4.49523e-06 0)
(-6.23593e-06 -1.25941e-06 0)
(-2.24939e-06 -2.14793e-06 0)
(1.96367e-06 -2.92703e-06 0)
(1.13513e-05 -5.48409e-06 0)
(9.78643e-06 8.09107e-06 0)
(-9.94549e-06 9.10646e-06 0)
(-1.21557e-05 -6.47398e-06 0)
(-1.50435e-06 -2.85647e-06 0)
(2.48929e-06 -2.52499e-06 0)
(9.88338e-06 -2.26091e-06 0)
(-2.37984e-07 1.03197e-05 0)
(-9.46958e-06 -3.00364e-06 0)
(-1.03594e-06 -2.08891e-06 0)
(2.40357e-08 -3.75784e-07 0)
(3.76033e-06 -5.6687e-06 0)
(2.63786e-05 -8.6761e-06 0)
(1.06168e-06 2.73631e-05 0)
(-2.25719e-05 -7.83949e-06 0)
(-4.8073e-06 -1.26509e-06 0)
(-4.16279e-06 -8.44983e-06 0)
(3.85457e-05 -3.12716e-05 0)
(5.43219e-05 2.51935e-05 0)
(-3.36013e-05 4.86246e-05 0)
(-5.42148e-05 -2.7037e-05 0)
(-9.16469e-06 -1.40094e-05 0)
(2.36915e-05 -2.03061e-05 0)
(2.57372e-05 1.35839e-05 0)
(2.87133e-05 -4.92504e-06 0)
(-1.15707e-05 4.61396e-05 0)
(-5.72538e-05 -1.99551e-05 0)
(3.41816e-05 -5.26732e-05 0)
(5.04165e-05 3.93353e-05 0)
(0.00083518 -0.00212023 0)
(-0.00162883 0.00571431 0)
(-0.00373488 -0.00131089 0)
(-0.00305555 -0.00188569 0)
(-0.00225522 -1.75315e-05 0)
(-0.00126019 -8.10946e-05 0)
(-0.000769067 -0.000261675 0)
(-0.000517499 -0.000142654 0)
(-0.000359058 -0.000172182 0)
(-0.000301681 -0.000170457 0)
(-0.000246758 -4.3865e-05 0)
(-0.000177278 -5.02687e-05 0)
(-0.000140751 -4.64822e-05 0)
(-0.000100363 -6.7476e-06 0)
(-8.8003e-05 -8.21185e-05 0)
(-8.76617e-05 4.63121e-05 0)
(-5.87109e-05 -1.4465e-05 0)
(-5.21867e-05 -5.21166e-05 0)
(-4.90695e-05 3.91009e-05 0)
(-3.79763e-05 -3.12785e-05 0)
(-3.7561e-05 -2.98531e-05 0)
(-3.06689e-05 1.58156e-05 0)
(-2.31519e-05 -2.87587e-05 0)
(-1.83152e-05 5.60349e-05 0)
(-2.16623e-05 -4.04313e-05 0)
(-2.44074e-05 -1.72906e-05 0)
(-1.44039e-05 3.12072e-05 0)
(-1.24658e-05 -2.73204e-05 0)
(-1.59917e-05 -2.49841e-05 0)
(-1.51188e-05 4.28659e-05 0)
(-9.47254e-06 4.41749e-06 0)
(-1.00115e-05 -2.50763e-05 0)
(-1.33605e-05 -1.26954e-05 0)
(-1.02573e-05 2.30891e-05 0)
(-5.52023e-06 -5.12498e-06 0)
(-4.31869e-06 -1.50108e-05 0)
(-7.58262e-06 -1.60527e-05 0)
(-6.98623e-06 1.80222e-05 0)
(-3.21184e-06 2.27636e-05 0)
(-4.65544e-06 -1.89202e-05 0)
(-8.15335e-06 -1.17965e-05 0)
(-5.91783e-06 2.83574e-06 0)
(-3.38482e-06 1.85566e-05 0)
(-2.65475e-06 -7.82571e-06 0)
(-4.12231e-06 -1.03281e-05 0)
(-5.0491e-06 -5.6287e-06 0)
(-3.6253e-06 9.82122e-06 0)
(-1.68735e-06 6.39953e-06 0)
(-9.27992e-07 -6.86952e-06 0)
(-2.79148e-06 -8.46385e-06 0)
(-3.03097e-06 -5.1736e-06 0)
(-2.23788e-06 1.77984e-05 0)
(-1.25301e-06 1.22166e-06 0)
(-6.92183e-07 -6.81298e-06 0)
(-2.11873e-06 -6.82746e-06 0)
(-2.14782e-06 -4.93925e-06 0)
(-1.69371e-06 1.58719e-05 0)
(-4.91576e-07 6.4414e-07 0)
(2.32788e-07 -6.24854e-06 0)
(-5.89936e-07 -6.4976e-06 0)
(-1.31032e-06 -8.34312e-06 0)
(-1.09694e-06 9.66014e-06 0)
(-4.87059e-07 1.79554e-05 0)
(-8.55977e-07 -7.96856e-06 0)
(-1.93307e-06 -7.30082e-06 0)
(-2.3981e-06 -3.8654e-06 0)
(-1.14805e-06 1.95003e-06 0)
(-2.91606e-07 8.5482e-06 0)
(3.03293e-07 -3.00637e-06 0)
(8.65181e-07 -4.26924e-06 0)
(1.03817e-06 -5.80324e-06 0)
(1.00508e-07 -9.81581e-06 0)
(-4.90847e-07 1.55245e-05 0)
(6.60535e-07 1.76812e-05 0)
(-4.85326e-07 -1.12257e-05 0)
(-1.68376e-06 -6.0501e-06 0)
(-9.26422e-07 -5.26946e-06 0)
(-1.10852e-07 -4.99711e-06 0)
(2.31059e-07 2.03529e-05 0)
(2.58608e-08 -5.90612e-06 0)
(2.98898e-07 -4.67373e-06 0)
(2.55126e-06 -2.79672e-06 0)
(4.13148e-06 -1.08622e-05 0)
(2.81964e-06 -1.57816e-05 0)
(1.2679e-06 5.4678e-05 0)
(-6.95229e-08 -1.56378e-05 0)
(4.24878e-06 -7.91765e-06 0)
(1.29903e-05 -1.90243e-05 0)
(3.25804e-06 -5.13813e-05 0)
(-2.20618e-06 4.6486e-05 0)
(5.42828e-06 9.5229e-05 0)
(-7.6825e-07 -4.76102e-05 0)
(-2.13684e-06 -2.91348e-05 0)
(-4.38054e-06 -3.52811e-05 0)
(-4.76879e-06 2.0467e-05 0)
(6.03102e-06 -1.4982e-05 0)
(9.04435e-06 8.95594e-05 0)
(1.61242e-05 -4.14918e-05 0)
(-1.24896e-06 -8.45165e-05 0)
(-1.22362e-05 6.78452e-05 0)
(-6.62596e-05 -0.0013441 0)
(-0.00104364 0.00871303 0)
(-0.00143513 -0.00119461 0)
(-0.00205571 -0.0024529 0)
(-0.00147481 -0.00126837 0)
(-0.000845765 -0.000761638 0)
(-0.000557494 -0.000534237 0)
(-0.000407097 -0.000346409 0)
(-0.000302855 -0.000258629 0)
(-0.000248357 -0.000196546 0)
(-0.000202968 -0.000126222 0)
(-0.000158752 -9.3135e-05 0)
(-0.000129047 -7.23428e-05 0)
(-0.000103056 -5.25354e-05 0)
(-9.6949e-05 -6.03592e-05 0)
(-7.68967e-05 1.06978e-06 0)
(-4.8448e-05 -3.18904e-05 0)
(-5.6854e-05 -3.72444e-05 0)
(-4.33449e-05 7.38357e-06 0)
(-2.78585e-05 -2.70671e-05 0)
(-3.90022e-05 -2.45252e-05 0)
(-3.25995e-05 -1.26167e-06 0)
(-3.56871e-05 -2.13457e-05 0)
(-1.82469e-05 3.00454e-05 0)
(-3.76378e-06 -2.36136e-05 0)
(-2.58122e-05 -1.70122e-05 0)
(-1.45424e-05 1.25321e-05 0)
(-7.60542e-06 -1.75972e-05 0)
(-2.60727e-05 -1.63523e-05 0)
(-1.55718e-05 2.48851e-05 0)
(2.68907e-06 -1.59349e-06 0)
(-4.73235e-06 -1.41055e-05 0)
(-1.53162e-05 -1.02068e-05 0)
(-8.06348e-06 1.19479e-05 0)
(-4.05122e-08 -6.89527e-06 0)
(-6.57738e-06 -9.5891e-06 0)
(-1.41091e-05 -9.74113e-06 0)
(-1.33771e-05 9.76202e-06 0)
(1.68377e-06 1.30665e-05 0)
(3.23236e-06 -9.99707e-06 0)
(-7.0583e-06 -7.92611e-06 0)
(-9.75723e-06 -4.66903e-07 0)
(-1.14751e-06 1.09158e-05 0)
(2.98967e-06 -5.46968e-06 0)
(-3.27218e-06 -5.96427e-06 0)
(-6.78515e-06 -4.40793e-06 0)
(-5.22484e-06 5.19406e-06 0)
(7.30777e-07 2.93298e-06 0)
(7.54222e-07 -4.40318e-06 0)
(-3.21039e-06 -4.88415e-06 0)
(-7.98286e-06 -3.89442e-06 0)
(-2.8918e-06 1.13306e-05 0)
(3.88275e-06 -9.96496e-08 0)
(6.92665e-07 -4.19245e-06 0)
(-2.27484e-06 -4.21037e-06 0)
(-6.54657e-06 -3.54826e-06 0)
(-2.15307e-06 9.96138e-06 0)
(3.86603e-06 -5.53035e-07 0)
(1.01051e-06 -4.04161e-06 0)
(-1.73116e-06 -4.36852e-06 0)
(-5.91815e-06 -4.82694e-06 0)
(-6.5889e-06 5.88962e-06 0)
(2.77545e-06 1.16929e-05 0)
(5.61481e-06 -4.54875e-06 0)
(3.08545e-08 -4.28883e-06 0)
(-2.30583e-06 -2.9876e-06 0)
(-3.28642e-06 4.0446e-07 0)
(5.49867e-07 5.03611e-06 0)
(2.64185e-06 -2.4529e-06 0)
(2.24047e-07 -3.18362e-06 0)
(-1.5104e-06 -4.05904e-06 0)
(-6.71511e-06 -5.32035e-06 0)
(-6.00068e-06 9.9472e-06 0)
(5.23676e-06 1.14116e-05 0)
(6.59241e-06 -5.91625e-06 0)
(6.28751e-07 -4.48681e-06 0)
(-1.20366e-06 -3.94084e-06 0)
(-6.05009e-06 -3.57598e-06 0)
(1.3174e-07 1.28665e-05 0)
(6.078e-06 -3.85007e-06 0)
(1.24679e-06 -3.86849e-06 0)
(3.01043e-07 -3.93838e-06 0)
(-1.47768e-06 -7.01612e-06 0)
(-1.50021e-05 -8.84482e-06 0)
(5.79103e-07 3.55802e-05 0)
(1.61852e-05 -1.00685e-05 0)
(3.56696e-06 -9.7631e-06 0)
(1.86289e-07 -1.48136e-05 0)
(-2.12645e-05 -2.51399e-05 0)
(-2.96565e-05 2.87983e-05 0)
(1.8637e-05 6.18866e-05 0)
(3.23695e-05 -2.54227e-05 0)
(5.19692e-06 -2.05783e-05 0)
(-1.0989e-05 -2.1232e-05 0)
(-8.73533e-06 8.31678e-06 0)
(-1.74085e-05 -1.26466e-05 0)
(4.66216e-06 5.66689e-05 0)
(2.96604e-05 -2.72512e-05 0)
(-2.066e-05 -4.03875e-05 0)
(-2.41723e-05 3.74209e-05 0)
(-0.000525954 -0.00129416 0)
(-0.000263077 0.00945444 0)
(0.000833114 3.02675e-05 0)
(-0.000351324 -0.00223125 0)
(-0.000505876 -0.00152396 0)
(-0.000375901 -0.000944379 0)
(-0.000301941 -0.000631865 0)
(-0.000248971 -0.000432294 0)
(-0.00020607 -0.000311571 0)
(-0.00017657 -0.000228966 0)
(-0.000150411 -0.000164291 0)
(-0.000125474 -0.000122135 0)
(-0.000105478 -9.30038e-05 0)
(-8.89891e-05 -7.11034e-05 0)
(-7.88523e-05 -5.91351e-05 0)
(-6.4981e-05 -3.43603e-05 0)
(-5.04666e-05 -3.5146e-05 0)
(-4.74624e-05 -3.19969e-05 0)
(-3.9269e-05 -1.71806e-05 0)
(-3.15239e-05 -2.32881e-05 0)
(-3.24925e-05 -2.05354e-05 0)
(-2.93486e-05 -1.17974e-05 0)
(-2.81652e-05 -1.34282e-05 0)
(-1.92141e-05 2.70376e-06 0)
(-1.23491e-05 -1.38454e-05 0)
(-1.85125e-05 -1.11123e-05 0)
(-1.44641e-05 -2.34604e-06 0)
(-1.15968e-05 -1.02756e-05 0)
(-1.69382e-05 -8.18135e-06 0)
(-1.22609e-05 4.80452e-06 0)
(-4.80381e-06 -2.80658e-06 0)
(-6.60503e-06 -7.2721e-06 0)
(-1.00595e-05 -5.83121e-06 0)
(-7.32355e-06 1.0124e-06 0)
(-4.29853e-06 -4.65604e-06 0)
(-6.69629e-06 -5.66244e-06 0)
(-9.4793e-06 -4.45885e-06 0)
(-8.64915e-06 2.2637e-06 0)
(-2.23165e-06 3.67254e-06 0)
(-1.0428e-06 -4.11164e-06 0)
(-4.89276e-06 -3.66911e-06 0)
(-5.87254e-06 -8.72109e-07 0)
(-2.32783e-06 2.73625e-06 0)
(-5.01577e-07 -2.764e-06 0)
(-2.90553e-06 -3.13895e-06 0)
(-4.30828e-06 -2.24365e-06 0)
(-3.60545e-06 8.50481e-07 0)
(-1.22207e-06 4.08047e-07 0)
(-1.08302e-06 -2.19743e-06 0)
(-2.70643e-06 -2.41534e-06 0)
(-4.47883e-06 -1.30663e-06 0)
(-2.16051e-06 3.58223e-06 0)
(6.79332e-07 -1.62847e-07 0)
(-5.1645e-07 -1.90027e-06 0)
(-1.85852e-06 -2.08208e-06 0)
(-3.5171e-06 -1.21653e-06 0)
(-1.50342e-06 3.07543e-06 0)
(9.57492e-07 -3.03952e-07 0)
(-2.49878e-07 -1.91258e-06 0)
(-1.62074e-06 -2.19362e-06 0)
(-3.37861e-06 -1.54843e-06 0)
(-3.33284e-06 2.28664e-06 0)
(7.58362e-07 4.14257e-06 0)
(2.20465e-06 -1.14947e-06 0)
(-2.5467e-09 -1.84122e-06 0)
(-1.15585e-06 -1.44122e-06 0)
(-1.60998e-06 -1.45899e-07 0)
(-2.69643e-08 1.28899e-06 0)
(8.04651e-07 -1.15608e-06 0)
(-3.55286e-07 -1.79818e-06 0)
(-1.45592e-06 -1.96432e-06 0)
(-3.5009e-06 -1.38434e-06 0)
(-2.76827e-06 3.79151e-06 0)
(2.05854e-06 4.22576e-06 0)
(3.01163e-06 -1.63453e-06 0)
(5.98869e-07 -2.12142e-06 0)
(-6.33707e-07 -1.97896e-06 0)
(-2.60163e-06 -1.22831e-06 0)
(2.13831e-08 3.91071e-06 0)
(2.56883e-06 -1.44578e-06 0)
(6.35957e-07 -2.19383e-06 0)
(-3.66401e-07 -2.56034e-06 0)
(-1.74509e-06 -3.00187e-06 0)
(-6.80104e-06 -2.32461e-06 0)
(8.14249e-08 1.16924e-05 0)
(6.76491e-06 -3.14472e-06 0)
(1.32151e-06 -4.90087e-06 0)
(-2.13028e-06 -6.74414e-06 0)
(-1.10005e-05 -7.01831e-06 0)
(-1.28181e-05 1.20704e-05 0)
(7.747e-06 2.26388e-05 0)
(1.49298e-05 -6.48272e-06 0)
(3.92443e-06 -8.70834e-06 0)
(-4.43735e-06 -9.59761e-06 0)
(-4.93068e-06 1.79615e-06 0)
(-8.43923e-06 -3.02736e-06 0)
(1.27032e-06 1.90069e-05 0)
(1.11053e-05 -7.91684e-06 0)
(-8.29547e-06 -1.18825e-05 0)
(-9.15882e-06 1.259e-05 0)
(-0.00101772 -0.000802293 0)
(0.00021191 0.00758876 0)
(0.00202146 0.000180188 0)
(0.00108713 -0.00154614 0)
(0.000297941 -0.00130034 0)
(5.92797e-05 -0.000887376 0)
(-4.34089e-05 -0.000616372 0)
(-8.60879e-05 -0.00044002 0)
(-9.89941e-05 -0.000323743 0)
(-0.000101217 -0.000242105 0)
(-9.62443e-05 -0.000181329 0)
(-8.75338e-05 -0.000137906 0)
(-7.81445e-05 -0.000106401 0)
(-6.91863e-05 -8.29179e-05 0)
(-6.15582e-05 -6.56418e-05 0)
(-5.3033e-05 -4.89492e-05 0)
(-4.48357e-05 -4.13564e-05 0)
(-3.99598e-05 -3.47555e-05 0)
(-3.46137e-05 -2.64988e-05 0)
(-3.00191e-05 -2.46695e-05 0)
(-2.8074e-05 -2.11709e-05 0)
(-2.55963e-05 -1.6177e-05 0)
(-2.31979e-05 -1.37282e-05 0)
(-1.85665e-05 -7.69788e-06 0)
(-1.50389e-05 -1.15242e-05 0)
(-1.54126e-05 -1.01598e-05 0)
(-1.36805e-05 -6.76585e-06 0)
(-1.23346e-05 -8.2921e-06 0)
(-1.29846e-05 -6.75973e-06 0)
(-1.05978e-05 -2.25446e-06 0)
(-7.408e-06 -4.03731e-06 0)
(-7.31489e-06 -5.47462e-06 0)
(-7.96043e-06 -4.80985e-06 0)
(-6.91058e-06 -2.50575e-06 0)
(-5.79854e-06 -3.99457e-06 0)
(-6.36484e-06 -4.19468e-06 0)
(-7.08785e-06 -3.22375e-06 0)
(-6.33646e-06 -5.76004e-07 0)
(-3.82162e-06 1.58322e-07 0)
(-3.01429e-06 -2.55031e-06 0)
(-3.98247e-06 -2.45815e-06 0)
(-4.14747e-06 -1.33219e-06 0)
(-2.83455e-06 -8.29507e-08 0)
(-2.06231e-06 -1.94381e-06 0)
(-2.73021e-06 -2.15744e-06 0)
(-3.19609e-06 -1.6934e-06 0)
(-2.85198e-06 -5.53403e-07 0)
(-1.95643e-06 -5.69819e-07 0)
(-1.82469e-06 -1.45053e-06 0)
(-2.34938e-06 -1.49398e-06 0)
(-2.78798e-06 -8.65876e-07 0)
(-1.88906e-06 8.40069e-07 0)
(-8.23692e-07 -4.36011e-07 0)
(-1.06887e-06 -1.12841e-06 0)
(-1.58306e-06 -1.21796e-06 0)
(-2.05248e-06 -7.3893e-07 0)
(-1.30313e-06 7.44725e-07 0)
(-4.28542e-07 -4.70508e-07 0)
(-7.80344e-07 -1.10561e-06 0)
(-1.38608e-06 -1.19299e-06 0)
(-2.00328e-06 -6.90292e-07 0)
(-1.80655e-06 8.22791e-07 0)
(-1.60678e-07 1.49442e-06 0)
(5.12463e-07 -4.32369e-07 0)
(-2.301e-07 -8.94943e-07 0)
(-6.95506e-07 -8.20787e-07 0)
(-8.73943e-07 -3.32324e-07 0)
(-3.09319e-07 1.39249e-07 0)
(-4.22609e-08 -7.75815e-07 0)
(-5.59615e-07 -1.06597e-06 0)
(-1.12251e-06 -1.02633e-06 0)
(-1.78295e-06 -4.62491e-07 0)
(-1.28754e-06 1.46617e-06 0)
(5.90649e-07 1.60352e-06 0)
(1.13549e-06 -5.3884e-07 0)
(3.01566e-07 -1.06956e-06 0)
(-3.35103e-07 -1.08178e-06 0)
(-1.01877e-06 -6.77606e-07 0)
(-5.34949e-08 1.03821e-06 0)
(8.54849e-07 -8.44167e-07 0)
(1.31274e-07 -1.37436e-06 0)
(-5.1917e-07 -1.60981e-06 0)
(-1.32254e-06 -1.51381e-06 0)
(-2.87874e-06 -7.96862e-07 0)
(-2.2382e-07 3.93775e-06 0)
(2.17029e-06 -1.26139e-06 0)
(3.83888e-08 -2.45855e-06 0)
(-2.01334e-06 -3.04758e-06 0)
(-5.20103e-06 -1.78667e-06 0)
(-5.01255e-06 5.44854e-06 0)
(2.76308e-06 8.98513e-06 0)
(6.03655e-06 -1.42044e-06 0)
(2.19371e-06 -3.72694e-06 0)
(-1.62434e-06 -4.31908e-06 0)
(-2.63909e-06 1.01047e-07 0)
(-3.71201e-06 -7.3964e-07 0)
(9.4536e-08 6.9034e-06 0)
(3.38701e-06 -2.27948e-06 0)
(-2.97525e-06 -3.45025e-06 0)
(-3.09841e-06 4.81119e-06 0)
(-0.000960006 -0.000206575 0)
(0.000428411 0.00464944 0)
(0.00205675 0.000247034 0)
(0.00136198 -0.000868224 0)
(0.00065408 -0.000841768 0)
(0.00031487 -0.000664427 0)
(0.000138068 -0.000510991 0)
(4.26401e-05 -0.000390516 0)
(-7.83369e-06 -0.000300796 0)
(-3.40651e-05 -0.000232836 0)
(-4.61547e-05 -0.000180939 0)
(-5.05105e-05 -0.000141605 0)
(-5.04727e-05 -0.000111642 0)
(-4.82282e-05 -8.86467e-05 0)
(-4.49302e-05 -7.08588e-05 0)
(-4.06754e-05 -5.63335e-05 0)
(-3.62564e-05 -4.63266e-05 0)
(-3.26603e-05 -3.8424e-05 0)
(-2.91824e-05 -3.15399e-05 0)
(-2.6159e-05 -2.71163e-05 0)
(-2.40214e-05 -2.2998e-05 0)
(-2.19157e-05 -1.89198e-05 0)
(-1.97161e-05 -1.57333e-05 0)
(-1.69799e-05 -1.24217e-05 0)
(-1.47669e-05 -1.20852e-05 0)
(-1.37892e-05 -1.07558e-05 0)
(-1.25742e-05 -8.97866e-06 0)
(-1.15486e-05 -8.39319e-06 0)
(-1.09613e-05 -7.05322e-06 0)
(-9.55926e-06 -5.02596e-06 0)
(-7.9698e-06 -5.11758e-06 0)
(-7.35257e-06 -5.30744e-06 0)
(-7.12735e-06 -4.82502e-06 0)
(-6.53673e-06 -3.90706e-06 0)
(-5.97213e-06 -4.02086e-06 0)
(-5.90987e-06 -3.81978e-06 0)
(-5.88638e-06 -3.10201e-06 0)
(-5.31734e-06 -1.89891e-06 0)
(-4.1986e-06 -1.48251e-06 0)
(-3.60861e-06 -2.20594e-06 0)
(-3.64752e-06 -2.16791e-06 0)
(-3.50933e-06 -1.68986e-06 0)
(-2.94342e-06 -1.23813e-06 0)
(-2.55298e-06 -1.74866e-06 0)
(-2.63739e-06 -1.82755e-06 0)
(-2.71215e-06 -1.57337e-06 0)
(-2.51868e-06 -1.09073e-06 0)
(-2.15442e-06 -1.01468e-06 0)
(-2.02562e-06 -1.24095e-06 0)
(-2.12666e-06 -1.19491e-06 0)
(-2.17315e-06 -8.52993e-07 0)
(-1.75655e-06 -2.7458e-07 0)
(-1.28871e-06 -6.02378e-07 0)
(-1.28151e-06 -8.7208e-07 0)
(-1.42767e-06 -8.98761e-07 0)
(-1.52943e-06 -6.59733e-07 0)
(-1.21697e-06 -1.78924e-07 0)
(-8.75195e-07 -5.25642e-07 0)
(-9.67118e-07 -7.69865e-07 0)
(-1.19698e-06 -7.68848e-07 0)
(-1.37965e-06 -4.66113e-07 0)
(-1.19911e-06 1.48662e-07 0)
(-5.30277e-07 4.1507e-07 0)
(-1.90515e-07 -3.04851e-07 0)
(-3.77815e-07 -5.43227e-07 0)
(-5.50506e-07 -5.67484e-07 0)
(-6.09247e-07 -4.07144e-07 0)
(-4.32652e-07 -2.60013e-07 0)
(-3.65426e-07 -5.96403e-07 0)
(-5.82341e-07 -7.02909e-07 0)
(-8.38234e-07 -6.16281e-07 0)
(-1.02953e-06 -2.57364e-07 0)
(-7.43497e-07 4.73578e-07 0)
(3.18028e-08 5.24536e-07 0)
(3.27486e-07 -2.69386e-07 0)
(5.07061e-08 -6.07671e-07 0)
(-2.28986e-07 -6.73112e-07 0)
(-4.80954e-07 -5.06287e-07 0)
(-1.16351e-07 3.53443e-08 0)
(1.86296e-07 -6.42721e-07 0)
(-1.47992e-07 -9.31259e-07 0)
(-5.17631e-07 -1.03264e-06 0)
(-9.38542e-07 -8.86634e-07 0)
(-1.42588e-06 -4.0786e-07 0)
(-3.81528e-07 1.1675e-06 0)
(4.29406e-07 -6.42889e-07 0)
(-4.88454e-07 -1.21697e-06 0)
(-1.48144e-06 -1.25892e-06 0)
(-2.5893e-06 -2.37137e-07 0)
(-2.15028e-06 2.53549e-06 0)
(9.15533e-07 3.68125e-06 0)
(2.35895e-06 -4.67747e-08 0)
(1.01291e-06 -1.52204e-06 0)
(-6.52829e-07 -1.85445e-06 0)
(-1.37341e-06 -2.18585e-07 0)
(-1.74522e-06 3.049e-08 0)
(-2.61763e-07 2.60678e-06 0)
(8.80571e-07 -3.44425e-07 0)
(-1.16079e-06 -6.55221e-07 0)
(-1.0806e-06 2.04558e-06 0)
(-0.000558477 0.000254075 0)
(0.000410096 0.00243711 0)
(0.00149249 0.000347412 0)
(0.0011043 -0.000312669 0)
(0.000676037 -0.000443952 0)
(0.000400975 -0.000430173 0)
(0.000229721 -0.000375945 0)
(0.000123412 -0.000313662 0)
(5.81985e-05 -0.000256736 0)
(1.85166e-05 -0.00020797 0)
(-4.9537e-06 -0.000167956 0)
(-1.81945e-05 -0.000135605 0)
(-2.51882e-05 -0.000109814 0)
(-2.84084e-05 -8.91567e-05 0)
(-2.92307e-05 -7.26765e-05 0)
(-2.84944e-05 -5.93805e-05 0)
(-2.69448e-05 -4.91324e-05 0)
(-2.51823e-05 -4.09831e-05 0)
(-2.32914e-05 -3.43182e-05 0)
(-2.14847e-05 -2.91395e-05 0)
(-1.99018e-05 -2.47389e-05 0)
(-1.83231e-05 -2.08703e-05 0)
(-1.6676e-05 -1.76402e-05 0)
(-1.49157e-05 -1.48994e-05 0)
(-1.33878e-05 -1.32729e-05 0)
(-1.22977e-05 -1.17211e-05 0)
(-1.12947e-05 -1.02096e-05 0)
(-1.04138e-05 -9.05957e-06 0)
(-9.64174e-06 -7.82383e-06 0)
(-8.66091e-06 -6.58357e-06 0)
(-7.66997e-06 -6.04147e-06 0)
(-7.02526e-06 -5.67965e-06 0)
(-6.58721e-06 -5.1719e-06 0)
(-6.11762e-06 -4.59106e-06 0)
(-5.69544e-06 -4.28706e-06 0)
(-5.43777e-06 -3.90741e-06 0)
(-5.18799e-06 -3.3383e-06 0)
(-4.73919e-06 -2.66925e-06 0)
(-4.11871e-06 -2.32034e-06 0)
(-3.66922e-06 -2.37485e-06 0)
(-3.45223e-06 -2.25553e-06 0)
(-3.22678e-06 -1.98772e-06 0)
(-2.89819e-06 -1.76429e-06 0)
(-2.63808e-06 -1.83146e-06 0)
(-2.54505e-06 -1.79652e-06 0)
(-2.47943e-06 -1.61969e-06 0)
(-2.3355e-06 -1.37119e-06 0)
(-2.13869e-06 -1.25749e-06 0)
(-2.01219e-06 -1.25218e-06 0)
(-1.96215e-06 -1.16201e-06 0)
(-1.88383e-06 -9.52476e-07 0)
(-1.66196e-06 -6.95121e-07 0)
(-1.42447e-06 -7.56753e-07 0)
(-1.33617e-06 -8.38121e-07 0)
(-1.32804e-06 -8.24133e-07 0)
(-1.30481e-06 -6.91657e-07 0)
(-1.16147e-06 -4.9749e-07 0)
(-1.0154e-06 -5.81348e-07 0)
(-1.01012e-06 -6.56884e-07 0)
(-1.06896e-06 -6.24842e-07 0)
(-1.09386e-06 -4.50523e-07 0)
(-9.60275e-07 -1.78285e-07 0)
(-6.54895e-07 -6.81318e-08 0)
(-4.61343e-07 -3.1309e-07 0)
(-4.68534e-07 -4.44854e-07 0)
(-5.0947e-07 -4.80085e-07 0)
(-5.21829e-07 -4.34939e-07 0)
(-4.74092e-07 -3.95838e-07 0)
(-4.67938e-07 -4.99798e-07 0)
(-5.56762e-07 -5.29197e-07 0)
(-6.59221e-07 -4.56678e-07 0)
(-6.96957e-07 -2.56993e-07 0)
(-5.32149e-07 3.98175e-08 0)
(-1.93458e-07 6.84293e-08 0)
(-2.87936e-08 -2.48954e-07 0)
(-9.86125e-08 -4.28892e-07 0)
(-2.06816e-07 -4.94814e-07 0)
(-2.93625e-07 -4.49389e-07 0)
(-1.79915e-07 -2.75528e-07 0)
(-1.06838e-07 -5.49028e-07 0)
(-2.70696e-07 -6.82139e-07 0)
(-4.79655e-07 -7.11007e-07 0)
(-6.93445e-07 -6.01406e-07 0)
(-8.40308e-07 -3.37866e-07 0)
(-4.78375e-07 2.16007e-07 0)
(-2.33457e-07 -4.28462e-07 0)
(-6.02935e-07 -6.14481e-07 0)
(-1.04615e-06 -4.98098e-07 0)
(-1.41224e-06 1.02273e-07 0)
(-1.08087e-06 1.22138e-06 0)
(1.90132e-07 1.58926e-06 0)
(8.36264e-07 1.96982e-07 0)
(3.72411e-07 -5.5928e-07 0)
(-3.39126e-07 -7.61116e-07 0)
(-7.65026e-07 -1.45769e-07 0)
(-9.05431e-07 1.60049e-07 0)
(-2.91147e-07 1.10293e-06 0)
(1.18105e-07 1.6114e-07 0)
(-5.27619e-07 1.253e-07 0)
(-4.06713e-07 1.01454e-06 0)
(-0.000196813 0.000457244 0)
(0.000323721 0.00130518 0)
(0.00090774 0.00041252 0)
(0.000766998 -4.36677e-06 0)
(0.000560835 -0.000185469 0)
(0.00038665 -0.000247211 0)
(0.000255341 -0.000252894 0)
(0.00016201 -0.000233416 0)
(9.78699e-05 -0.000205028 0)
(5.46815e-05 -0.000175272 0)
(2.61654e-05 -0.000147586 0)
(7.63137e-06 -0.000123292 0)
(-4.03248e-06 -0.000102694 0)
(-1.10741e-05 -8.54274e-05 0)
(-1.51378e-05 -7.12232e-05 0)
(-1.71519e-05 -5.94016e-05 0)
(-1.78702e-05 -4.9842e-05 0)
(-1.78283e-05 -4.2039e-05 0)
(-1.73338e-05 -3.56166e-05 0)
(-1.66022e-05 -3.03603e-05 0)
(-1.57545e-05 -2.59531e-05 0)
(-1.47961e-05 -2.21904e-05 0)
(-1.37449e-05 -1.90125e-05 0)
(-1.26307e-05 -1.63714e-05 0)
(-1.15867e-05 -1.43537e-05 0)
(-1.07029e-05 -1.26308e-05 0)
(-9.90935e-06 -1.10949e-05 0)
(-9.18534e-06 -9.78026e-06 0)
(-8.49404e-06 -8.58189e-06 0)
(-7.7597e-06 -7.52492e-06 0)
(-7.05867e-06 -6.7653e-06 0)
(-6.50253e-06 -6.16078e-06 0)
(-6.05376e-06 -5.59042e-06 0)
(-5.638e-06 -5.05364e-06 0)
(-5.26996e-06 -4.60793e-06 0)
(-4.97049e-06 -4.15182e-06 0)
(-4.67355e-06 -3.65235e-06 0)
(-4.30322e-06 -3.16863e-06 0)
(-3.88098e-06 -2.83428e-06 0)
(-3.52574e-06 -2.656e-06 0)
(-3.26775e-06 -2.46301e-06 0)
(-3.03227e-06 -2.24565e-06 0)
(-2.78373e-06 -2.06974e-06 0)
(-2.57335e-06 -1.98684e-06 0)
(-2.43501e-06 -1.87966e-06 0)
(-2.32389e-06 -1.71922e-06 0)
(-2.19347e-06 -1.54321e-06 0)
(-2.04624e-06 -1.42045e-06 0)
(-1.92202e-06 -1.338e-06 0)
(-1.82662e-06 -1.22749e-06 0)
(-1.72232e-06 -1.07594e-06 0)
(-1.57266e-06 -9.31763e-07 0)
(-1.41784e-06 -8.97698e-07 0)
(-1.31561e-06 -8.908e-07 0)
(-1.25538e-06 -8.47222e-07 0)
(-1.19954e-06 -7.54304e-07 0)
(-1.11271e-06 -6.53509e-07 0)
(-1.02749e-06 -6.42541e-07 0)
(-9.8838e-07 -6.44694e-07 0)
(-9.74995e-07 -6.01294e-07 0)
(-9.42898e-07 -4.92367e-07 0)
(-8.44598e-07 -3.52516e-07 0)
(-6.85267e-07 -2.93221e-07 0)
(-5.61475e-07 -3.74467e-07 0)
(-5.15452e-07 -4.40715e-07 0)
(-5.0331e-07 -4.63337e-07 0)
(-4.96404e-07 -4.47778e-07 0)
(-4.83033e-07 -4.33643e-07 0)
(-4.87026e-07 -4.58068e-07 0)
(-5.19577e-07 -4.56576e-07 0)
(-5.51179e-07 -4.05026e-07 0)
(-5.41506e-07 -2.95643e-07 0)
(-4.44527e-07 -1.62168e-07 0)
(-2.85901e-07 -1.44368e-07 0)
(-1.88534e-07 -2.76524e-07 0)
(-1.84213e-07 -3.74553e-07 0)
(-2.15065e-07 -4.23391e-07 0)
(-2.46684e-07 -4.2481e-07 0)
(-2.26283e-07 -3.82926e-07 0)
(-2.30036e-07 -4.76421e-07 0)
(-3.222e-07 -5.35791e-07 0)
(-4.41581e-07 -5.36384e-07 0)
(-5.53495e-07 -4.62074e-07 0)
(-6.15087e-07 -3.25491e-07 0)
(-4.99468e-07 -1.25692e-07 0)
(-4.30874e-07 -3.01893e-07 0)
(-5.8361e-07 -3.32906e-07 0)
(-7.6914e-07 -2.01401e-07 0)
(-8.65443e-07 1.23607e-07 0)
(-6.5307e-07 6.04816e-07 0)
(-9.95444e-08 7.33632e-07 0)
(2.05996e-07 1.97559e-07 0)
(4.63134e-08 -1.57397e-07 0)
(-2.55812e-07 -2.75552e-07 0)
(-4.67625e-07 -3.99533e-08 0)
(-5.18784e-07 1.76272e-07 0)
(-2.84419e-07 5.48618e-07 0)
(-1.1421e-07 2.5393e-07 0)
(-2.63387e-07 2.96686e-07 0)
(-1.62167e-07 5.83816e-07 0)
(-2.01046e-05 0.000458334 0)
(0.000245658 0.000745591 0)
(0.000530986 0.000370559 0)
(0.000519345 0.000109461 0)
(0.000434316 -4.27876e-05 0)
(0.000334471 -0.000123577 0)
(0.000244113 -0.000156965 0)
(0.000171539 -0.000163146 0)
(0.000116437 -0.000155175 0)
(7.60094e-05 -0.00014071 0)
(4.70464e-05 -0.000124073 0)
(2.66897e-05 -0.000107599 0)
(1.26745e-05 -9.23457e-05 0)
(3.07617e-06 -7.88586e-05 0)
(-3.21265e-06 -6.71558e-05 0)
(-7.12151e-06 -5.7159e-05 0)
(-9.57226e-06 -4.87866e-05 0)
(-1.09512e-05 -4.16943e-05 0)
(-1.1629e-05 -3.57416e-05 0)
(-1.18274e-05 -3.07472e-05 0)
(-1.17107e-05 -2.65208e-05 0)
(-1.13745e-05 -2.29084e-05 0)
(-1.08758e-05 -1.98356e-05 0)
(-1.02667e-05 -1.72588e-05 0)
(-9.62954e-06 -1.51398e-05 0)
(-9.02954e-06 -1.33314e-05 0)
(-8.46366e-06 -1.17552e-05 0)
(-7.91593e-06 -1.0395e-05 0)
(-7.37334e-06 -9.20627e-06 0)
(-6.83015e-06 -8.17381e-06 0)
(-6.31797e-06 -7.32233e-06 0)
(-5.86789e-06 -6.61169e-06 0)
(-5.47061e-06 -5.99067e-06 0)
(-5.11032e-06 -5.42982e-06 0)
(-4.79083e-06 -4.91898e-06 0)
(-4.50556e-06 -4.42983e-06 0)
(-4.21986e-06 -3.96195e-06 0)
(-3.90796e-06 -3.54002e-06 0)
(-3.58721e-06 -3.19781e-06 0)
(-3.30185e-06 -2.93029e-06 0)
(-3.06149e-06 -2.69142e-06 0)
(-2.84063e-06 -2.4761e-06 0)
(-2.62949e-06 -2.29621e-06 0)
(-2.44777e-06 -2.15021e-06 0)
(-2.3056e-06 -1.99953e-06 0)
(-2.1821e-06 -1.83749e-06 0)
(-2.05464e-06 -1.68367e-06 0)
(-1.92349e-06 -1.5567e-06 0)
(-1.80523e-06 -1.44408e-06 0)
(-1.70278e-06 -1.32176e-06 0)
(-1.59922e-06 -1.19233e-06 0)
(-1.48009e-06 -1.08232e-06 0)
(-1.36007e-06 -1.01862e-06 0)
(-1.26385e-06 -9.69005e-07 0)
(-1.19301e-06 -9.03013e-07 0)
(-1.13109e-06 -8.19273e-07 0)
(-1.06173e-06 -7.43193e-07 0)
(-9.92612e-07 -7.04686e-07 0)
(-9.39595e-07 -6.76534e-07 0)
(-8.98675e-07 -6.27722e-07 0)
(-8.50548e-07 -5.5045e-07 0)
(-7.74232e-07 -4.68403e-07 0)
(-6.73293e-07 -4.28058e-07 0)
(-5.84854e-07 -4.46995e-07 0)
(-5.31744e-07 -4.71589e-07 0)
(-5.04551e-07 -4.7533e-07 0)
(-4.89971e-07 -4.59177e-07 0)
(-4.80376e-07 -4.4495e-07 0)
(-4.78032e-07 -4.45264e-07 0)
(-4.82571e-07 -4.35011e-07 0)
(-4.82929e-07 -3.98822e-07 0)
(-4.61566e-07 -3.37242e-07 0)
(-4.01415e-07 -2.70716e-07 0)
(-3.17511e-07 -2.5639e-07 0)
(-2.5659e-07 -3.14015e-07 0)
(-2.33388e-07 -3.71164e-07 0)
(-2.33487e-07 -4.00043e-07 0)
(-2.47458e-07 -4.08259e-07 0)
(-2.57455e-07 -4.01383e-07 0)
(-2.81176e-07 -4.23564e-07 0)
(-3.39642e-07 -4.45956e-07 0)
(-4.09762e-07 -4.41358e-07 0)
(-4.69759e-07 -3.90829e-07 0)
(-5.01394e-07 -3.1453e-07 0)
(-4.77345e-07 -2.18087e-07 0)
(-4.69088e-07 -2.38684e-07 0)
(-5.27724e-07 -2.11674e-07 0)
(-5.91776e-07 -9.92675e-08 0)
(-5.96871e-07 8.67619e-08 0)
(-4.66012e-07 3.05747e-07 0)
(-2.17157e-07 3.65595e-07 0)
(-6.58709e-08 1.55397e-07 0)
(-1.06944e-07 -5.18225e-09 0)
(-2.28725e-07 -5.7932e-08 0)
(-3.24656e-07 3.41089e-08 0)
(-3.41633e-07 1.55901e-07 0)
(-2.46465e-07 3.18912e-07 0)
(-1.58995e-07 2.69208e-07 0)
(-1.55658e-07 3.15872e-07 0)
(-7.43778e-08 3.87235e-07 0)
(3.23226e-05 0.00038664 0)
(0.000182775 0.000464339 0)
(0.000327408 0.000299159 0)
(0.000356466 0.000142277 0)
(0.000326395 2.75448e-05 0)
(0.000272689 -4.69185e-05 0)
(0.000216029 -8.86076e-05 0)
(0.000163977 -0.000107509 0)
(0.00012042 -0.000112129 0)
(8.58344e-05 -0.000108474 0)
(5.92825e-05 -0.000100496 0)
(3.93835e-05 -9.06638e-05 0)
(2.47379e-05 -8.04169e-05 0)
(1.40989e-05 -7.05847e-05 0)
(6.54716e-06 -6.14454e-05 0)
(1.23721e-06 -5.34027e-05 0)
(-2.39686e-06 -4.63322e-05 0)
(-4.79894e-06 -4.01911e-05 0)
(-6.398e-06 -3.49193e-05 0)
(-7.36506e-06 -3.0373e-05 0)
(-7.90228e-06 -2.64567e-05 0)
(-8.12401e-06 -2.30755e-05 0)
(-8.10662e-06 -2.01753e-05 0)
(-7.92196e-06 -1.77046e-05 0)
(-7.6474e-06 -1.56001e-05 0)
(-7.33444e-06 -1.37836e-05 0)
(-6.99405e-06 -1.22111e-05 0)
(-6.63022e-06 -1.08533e-05 0)
(-6.25529e-06 -9.6676e-06 0)
(-5.88028e-06 -8.63e-06 0)
(-5.5148e-06 -7.74295e-06 0)
(-5.16767e-06 -6.99024e-06 0)
(-4.84536e-06 -6.33444e-06 0)
(-4.55264e-06 -5.74063e-06 0)
(-4.28752e-06 -5.19499e-06 0)
(-4.03622e-06 -4.69433e-06 0)
(-3.78226e-06 -4.24032e-06 0)
(-3.52291e-06 -3.83307e-06 0)
(-3.27086e-06 -3.47575e-06 0)
(-3.03954e-06 -3.1695e-06 0)
(-2.82827e-06 -2.90693e-06 0)
(-2.63017e-06 -2.68178e-06 0)
(-2.44806e-06 -2.48393e-06 0)
(-2.29103e-06 -2.30206e-06 0)
(-2.15746e-06 -2.12658e-06 0)
(-2.03336e-06 -1.96161e-06 0)
(-1.9091e-06 -1.81333e-06 0)
(-1.78868e-06 -1.67919e-06 0)
(-1.6807e-06 -1.54909e-06 0)
(-1.58364e-06 -1.41904e-06 0)
(-1.48647e-06 -1.29842e-06 0)
(-1.38339e-06 -1.19907e-06 0)
(-1.28332e-06 -1.12139e-06 0)
(-1.19908e-06 -1.04728e-06 0)
(-1.13127e-06 -9.65545e-07 0)
(-1.06925e-06 -8.83025e-07 0)
(-1.00381e-06 -8.15134e-07 0)
(-9.38031e-07 -7.68038e-07 0)
(-8.8036e-07 -7.25278e-07 0)
(-8.31217e-07 -6.71395e-07 0)
(-7.81053e-07 -6.07888e-07 0)
(-7.18518e-07 -5.51051e-07 0)
(-6.44757e-07 -5.18619e-07 0)
(-5.77095e-07 -5.11539e-07 0)
(-5.30344e-07 -5.0826e-07 0)
(-5.03255e-07 -4.95141e-07 0)
(-4.85991e-07 -4.73295e-07 0)
(-4.71617e-07 -4.56186e-07 0)
(-4.59375e-07 -4.49894e-07 0)
(-4.48374e-07 -4.38672e-07 0)
(-4.35123e-07 -4.10541e-07 0)
(-4.13194e-07 -3.71766e-07 0)
(-3.73775e-07 -3.35758e-07 0)
(-3.2212e-07 -3.235e-07 0)
(-2.80638e-07 -3.49031e-07 0)
(-2.5901e-07 -3.83421e-07 0)
(-2.52368e-07 -3.95478e-07 0)
(-2.60868e-07 -3.9372e-07 0)
(-2.78065e-07 -3.90259e-07 0)
(-3.01504e-07 -3.87219e-07 0)
(-3.38241e-07 -3.9017e-07 0)
(-3.80344e-07 -3.87602e-07 0)
(-4.14911e-07 -3.52494e-07 0)
(-4.35963e-07 -3.0335e-07 0)
(-4.38487e-07 -2.45157e-07 0)
(-4.4431e-07 -2.11404e-07 0)
(-4.66031e-07 -1.67511e-07 0)
(-4.79028e-07 -7.88014e-08 0)
(-4.56568e-07 3.58355e-08 0)
(-3.75519e-07 1.50793e-07 0)
(-2.56689e-07 1.90908e-07 0)
(-1.78148e-07 1.16753e-07 0)
(-1.7693e-07 4.65051e-08 0)