/*--------------------------------*- C++ -*----------------------------------*\
| =========                 |                                                 |
| \\      /  F ield         | OpenFOAM: The Open Source CFD Toolbox           |
|  \\    /   O peration     | Version:  4.1                                   |
|   \\  /    A nd           | Web:      www.OpenFOAM.org                      |
|    \\/     M anipulation  |                                                 |
\*---------------------------------------------------------------------------*/
FoamFile
{
    version     2.0;
    format      ascii;
    class       volScalarField;
    location    "600";
    object      p_rgh;
}
// * * * * * * * * * * * * * * * * * * * * * * * * * * * * * * * * * * * * * //

dimensions      [0 2 -2 0 0 0 0];

internalField   nonuniform List<scalar> 
5000
(
0.0492249
0.0492354
0.0492341
0.0492242
0.0492158
0.049207
0.0491991
0.0491939
0.0491912
0.0491911
0.0491936
0.0492068
0.0492252
0.0492344
0.0492378
0.0492366
0.0492316
0.0492238
0.0492136
0.0492017
0.0491887
0.049175
0.0491611
0.0491473
0.0491342
0.049122
0.0491112
0.0491021
0.0490951
0.0490902
0.0490872
0.0490857
0.0490852
0.049085
0.0490846
0.0490839
0.0490836
0.0490854
0.0490874
0.0490899
0.0490995
0.0491054
0.0491054
0.0491033
0.0491009
0.0490976
0.0490932
0.0490896
0.0490883
0.0490837
0.0490757
0.0490683
0.0490641
0.0490613
0.0490591
0.0490571
0.049055
0.0490527
0.0490502
0.0490476
0.0490449
0.0490423
0.0490397
0.0490375
0.0490356
0.0490342
0.0490335
0.0490336
0.0490346
0.0490368
0.04904
0.0490446
0.0490504
0.0490574
0.0490655
0.0490746
0.0490845
0.0490951
0.0491061
0.0491174
0.0491286
0.0491397
0.0491503
0.0491603
0.0491696
0.0491778
0.0491848
0.0491906
0.0491947
0.0491966
0.0491957
0.0491935
0.049189
0.0491815
0.0491721
0.0491631
0.049156
0.0491517
0.0491506
0.0491553
0.0492298
0.04926
0.0492604
0.049261
0.0492617
0.0492621
0.0492604
0.0492576
0.0492585
0.0492604
0.0492665
0.0492801
0.0492798
0.0492786
0.049276
0.0492711
0.0492637
0.0492543
0.0492431
0.0492307
0.0492173
0.0492036
0.0491898
0.0491764
0.0491638
0.0491523
0.0491425
0.0491349
0.0491297
0.0491266
0.0491252
0.049125
0.0491254
0.0491251
0.0491224
0.0491158
0.0491045
0.0490864
0.0490609
0.0490735
0.0491352
0.0491474
0.0491534
0.0491554
0.0491553
0.0491541
0.0491528
0.0491515
0.0491503
0.0490828
0.0490729
0.0490923
0.0491039
0.0491076
0.049108
0.0491068
0.0491047
0.049102
0.0490988
0.0490953
0.0490917
0.049088
0.0490844
0.049081
0.049078
0.0490755
0.0490736
0.0490724
0.0490721
0.0490727
0.0490743
0.049077
0.0490808
0.0490858
0.0490921
0.0490996
0.049108
0.0491172
0.049127
0.0491371
0.0491472
0.0491573
0.0491669
0.0491759
0.0491842
0.0491915
0.0491977
0.0492025
0.0492056
0.0492067
0.0492053
0.0492023
0.0491984
0.0491929
0.0491867
0.049182
0.0491804
0.0491772
0.0491663
0.0491488
0.0492246
0.0492619
0.0492628
0.0492637
0.0492653
0.0492676
0.0492711
0.049275
0.0492791
0.0492825
0.0492843
0.049283
0.049281
0.0492782
0.049274
0.049268
0.0492599
0.04925
0.0492385
0.0492258
0.0492124
0.0491986
0.0491848
0.0491713
0.0491586
0.049147
0.0491371
0.0491295
0.0491247
0.0491228
0.0491233
0.0491258
0.049129
0.049131
0.0491291
0.0491205
0.0491023
0.0490655
0.0490133
0.0490446
0.0491035
0.0491449
0.0491557
0.0491571
0.0491561
0.0491545
0.0491528
0.049152
0.0491143
0.0490509
0.049059
0.0491038
0.0491261
0.0491329
0.0491335
0.0491314
0.0491277
0.0491232
0.0491181
0.0491125
0.0491068
0.0491009
0.049095
0.0490894
0.0490841
0.0490794
0.0490754
0.0490723
0.0490702
0.0490694
0.0490699
0.0490719
0.0490754
0.0490803
0.0490866
0.049094
0.0491024
0.0491115
0.0491212
0.0491311
0.0491411
0.0491509
0.0491602
0.049169
0.0491769
0.0491838
0.0491895
0.0491939
0.0491966
0.0491974
0.0491961
0.049193
0.0491893
0.0491847
0.0491797
0.0491765
0.0491766
0.0491777
0.0491665
0.0491264
0.0492179
0.0492619
0.049263
0.0492638
0.0492651
0.0492672
0.0492704
0.0492743
0.049278
0.0492807
0.0492822
0.0492814
0.049279
0.0492753
0.04927
0.0492629
0.049254
0.0492434
0.0492314
0.0492184
0.0492048
0.0491908
0.0491768
0.0491631
0.04915
0.0491381
0.0491279
0.0491202
0.0491157
0.0491144
0.0491162
0.0491203
0.0491255
0.0491291
0.0491269
0.0491157
0.0490922
0.0490408
0.0489769
0.0490339
0.049108
0.049148
0.049159
0.0491584
0.0491557
0.0491527
0.0491503
0.0491363
0.0490669
0.049021
0.0490495
0.0491097
0.049137
0.0491446
0.0491446
0.0491412
0.0491361
0.0491299
0.0491232
0.049116
0.0491086
0.0491011
0.0490938
0.0490868
0.0490803
0.0490745
0.0490696
0.0490658
0.0490633
0.0490622
0.0490627
0.0490647
0.0490683
0.0490733
0.0490797
0.0490872
0.0490956
0.0491047
0.0491143
0.0491241
0.0491338
0.0491433
0.0491523
0.0491606
0.049168
0.0491744
0.0491796
0.0491835
0.0491858
0.0491864
0.0491851
0.0491821
0.0491785
0.0491748
0.0491709
0.049169
0.0491705
0.0491736
0.0491627
0.0491017
0.049211
0.0492611
0.0492624
0.0492632
0.0492646
0.0492669
0.0492702
0.0492738
0.049277
0.0492793
0.0492796
0.0492784
0.0492755
0.049271
0.0492647
0.0492566
0.0492468
0.0492354
0.0492228
0.0492094
0.0491954
0.0491812
0.049167
0.049153
0.0491395
0.0491269
0.0491161
0.049108
0.0491036
0.0491029
0.0491058
0.0491116
0.0491186
0.0491232
0.0491203
0.0491069
0.0490818
0.049022
0.0489636
0.0490472
0.0491278
0.04916
0.049164
0.0491601
0.049155
0.0491492
0.0491435
0.0490845
0.0490259
0.0490003
0.0490475
0.0491142
0.0491416
0.0491485
0.0491477
0.0491433
0.0491372
0.0491299
0.049122
0.0491137
0.0491053
0.0490968
0.0490886
0.0490808
0.0490736
0.0490673
0.049062
0.0490581
0.0490555
0.0490545
0.0490551
0.0490574
0.0490612
0.0490665
0.0490731
0.0490807
0.0490892
0.0490983
0.0491077
0.0491173
0.0491267
0.0491357
0.0491442
0.049152
0.0491587
0.0491645
0.049169
0.0491722
0.049174
0.0491743
0.049173
0.0491702
0.0491669
0.0491638
0.049161
0.0491605
0.0491635
0.0491682
0.0491584
0.0490794
0.0492037
0.0492596
0.0492613
0.0492624
0.0492641
0.0492668
0.04927
0.0492733
0.0492757
0.0492771
0.0492766
0.0492747
0.0492712
0.0492658
0.0492586
0.0492494
0.0492386
0.0492264
0.0492133
0.0491994
0.0491851
0.0491707
0.0491562
0.0491419
0.0491277
0.0491142
0.0491022
0.0490934
0.0490887
0.0490884
0.0490925
0.0490999
0.0491087
0.0491142
0.0491102
0.0490955
0.049073
0.0490116
0.0489748
0.0490775
0.0491504
0.0491701
0.0491672
0.0491607
0.0491537
0.0491442
0.0491074
0.0490444
0.0489937
0.0489883
0.0490502
0.0491175
0.0491427
0.0491482
0.0491465
0.0491414
0.0491345
0.0491266
0.0491179
0.0491089
0.0490997
0.0490906
0.0490817
0.0490734
0.0490658
0.0490592
0.0490539
0.04905
0.0490476
0.0490469
0.0490479
0.0490506
0.0490549
0.0490605
0.0490673
0.0490751
0.0490835
0.0490925
0.0491017
0.0491109
0.0491199
0.0491285
0.0491363
0.0491434
0.0491494
0.0491543
0.049158
0.0491605
0.0491617
0.0491616
0.0491602
0.0491577
0.0491547
0.0491522
0.0491506
0.0491516
0.049156
0.0491621
0.049154
0.0490593
0.0491958
0.0492574
0.0492598
0.0492614
0.0492636
0.0492665
0.0492697
0.0492726
0.0492743
0.0492745
0.0492733
0.0492707
0.0492664
0.0492602
0.049252
0.0492418
0.04923
0.049217
0.0492032
0.049189
0.0491745
0.0491598
0.0491451
0.0491303
0.0491154
0.0491004
0.0490867
0.0490765
0.0490712
0.0490711
0.0490763
0.0490854
0.0490958
0.0491018
0.0490964
0.0490815
0.0490656
0.0490103
0.0490042
0.0491101
0.0491646
0.0491722
0.0491665
0.0491596
0.0491504
0.0491278
0.0490696
0.0490108
0.0489696
0.0489827
0.0490549
0.0491196
0.0491416
0.0491456
0.049143
0.0491374
0.04913
0.0491215
0.0491123
0.0491028
0.049093
0.0490834
0.0490741
0.0490654
0.0490577
0.0490511
0.0490458
0.0490422
0.0490403
0.0490401
0.0490416
0.0490449
0.0490496
0.0490555
0.0490625
0.0490703
0.0490786
0.0490874
0.0490963
0.0491051
0.0491136
0.0491215
0.0491287
0.049135
0.0491402
0.0491442
0.0491471
0.0491487
0.0491492
0.0491487
0.0491471
0.0491449
0.0491422
0.0491403
0.0491399
0.0491425
0.0491483
0.0491558
0.0491497
0.0490409
0.0491877
0.0492547
0.0492579
0.0492601
0.0492628
0.0492661
0.0492694
0.0492717
0.0492725
0.0492718
0.0492699
0.0492665
0.0492615
0.0492544
0.0492452
0.049234
0.0492212
0.0492075
0.0491932
0.0491786
0.0491639
0.0491491
0.0491342
0.0491191
0.0491032
0.0490861
0.0490697
0.0490572
0.0490507
0.0490508
0.0490571
0.0490682
0.0490802
0.0490862
0.0490788
0.0490647
0.0490585
0.0490164
0.0490383
0.0491304
0.0491646
0.0491659
0.0491618
0.0491561
0.0491425
0.0491029
0.0490421
0.0489833
0.048952
0.0489811
0.0490599
0.0491204
0.0491392
0.0491417
0.0491384
0.0491323
0.0491244
0.0491155
0.0491059
0.0490959
0.0490857
0.0490757
0.0490661
0.0490573
0.0490495
0.0490431
0.0490382
0.049035
0.0490337
0.0490341
0.0490363
0.0490401
0.0490452
0.0490514
0.0490584
0.0490661
0.0490743
0.0490828
0.0490913
0.0490995
0.0491074
0.0491147
0.0491212
0.0491267
0.049131
0.0491342
0.0491362
0.049137
0.0491368
0.0491358
0.049134
0.0491319
0.0491297
0.0491284
0.0491291
0.0491333
0.0491407
0.0491497
0.0491455
0.0490239
0.0491796
0.0492519
0.049256
0.0492588
0.0492621
0.0492658
0.0492691
0.0492707
0.0492706
0.049269
0.0492665
0.0492625
0.0492567
0.0492488
0.0492385
0.0492262
0.0492125
0.0491981
0.0491833
0.0491686
0.0491539
0.0491391
0.0491241
0.0491087
0.0490917
0.0490718
0.0490511
0.0490351
0.0490269
0.0490271
0.0490352
0.0490486
0.0490621
0.0490676
0.0490579
0.049046
0.0490507
0.0490256
0.0490634
0.0491323
0.0491508
0.0491522
0.0491529
0.04915
0.0491326
0.0490863
0.0490214
0.0489614
0.0489392
0.0489815
0.0490642
0.0491202
0.049136
0.0491373
0.0491333
0.0491267
0.0491184
0.0491091
0.0490991
0.0490886
0.0490781
0.0490678
0.0490581
0.0490492
0.0490416
0.0490355
0.0490311
0.0490286
0.0490279
0.0490291
0.0490319
0.0490361
0.0490415
0.0490478
0.0490548
0.0490624
0.0490703
0.0490783
0.0490863
0.049094
0.0491013
0.0491079
0.0491136
0.0491183
0.0491219
0.0491243
0.0491254
0.0491255
0.0491246
0.049123
0.049121
0.049119
0.0491173
0.0491167
0.0491184
0.0491241
0.0491339
0.0491443
0.0491419
0.0490085
0.0491718
0.0492491
0.049254
0.0492576
0.0492615
0.0492657
0.0492687
0.0492696
0.0492687
0.0492664
0.0492632
0.0492586
0.0492522
0.0492433
0.049232
0.0492187
0.0492041
0.049189
0.049174
0.0491593
0.0491447
0.0491301
0.0491152
0.0490995
0.0490817
0.049058
0.049031
0.04901
0.0489995
0.0490006
0.0490114
0.0490277
0.0490427
0.0490469
0.0490348
0.0490265
0.0490415
0.0490328
0.0490732
0.0491183
0.0491274
0.0491324
0.0491408
0.0491432
0.0491265
0.0490781
0.049007
0.0489436
0.0489289
0.0489822
0.0490673
0.0491192
0.0491326
0.0491327
0.0491281
0.0491209
0.0491123
0.0491025
0.0490921
0.0490813
0.0490704
0.0490599
0.0490501
0.0490413
0.049034
0.0490283
0.0490246
0.0490228
0.0490229
0.0490248
0.0490281
0.0490327
0.0490382
0.0490445
0.0490514
0.0490586
0.0490661
0.0490737
0.0490811
0.0490883
0.0490949
0.0491008
0.0491059
0.0491099
0.0491127
0.0491143
0.0491147
0.0491141
0.0491126
0.0491106
0.0491084
0.0491064
0.0491052
0.0491054
0.049108
0.0491151
0.04913
0.0491406
0.0491391
0.0489947
0.0491642
0.0492464
0.0492522
0.0492565
0.0492612
0.0492658
0.0492683
0.0492684
0.0492668
0.049264
0.0492602
0.0492551
0.0492479
0.0492382
0.0492259
0.0492115
0.049196
0.0491805
0.0491654
0.0491509
0.0491367
0.0491223
0.0491076
0.049092
0.0490737
0.0490459
0.0490101
0.0489821
0.0489693
0.0489727
0.0489877
0.0490074
0.0490233
0.0490254
0.0490114
0.0490076
0.0490306
0.0490345
0.0490688
0.0490951
0.0490999
0.0491085
0.049125
0.0491371
0.0491257
0.049078
0.0489995
0.0489287
0.0489192
0.0489816
0.0490689
0.0491177
0.0491292
0.0491283
0.049123
0.0491154
0.0491062
0.0490961
0.0490852
0.049074
0.0490628
0.0490521
0.0490422
0.0490336
0.0490267
0.0490216
0.0490186
0.0490175
0.0490184
0.0490209
0.0490247
0.0490295
0.0490351
0.0490413
0.0490479
0.0490548
0.0490618
0.0490689
0.0490758
0.0490823
0.0490883
0.0490936
0.0490979
0.0491012
0.0491034
0.0491043
0.0491041
0.0491029
0.0491009
0.0490984
0.0490961
0.0490943
0.0490936
0.0490946
0.0490983
0.0491062
0.0491301
0.0491385
0.0491375
0.0489828
0.0491569
0.0492439
0.0492506
0.0492557
0.0492612
0.049266
0.0492679
0.0492672
0.049265
0.0492617
0.0492574
0.0492518
0.049244
0.0492335
0.0492201
0.0492047
0.0491885
0.0491727
0.0491577
0.0491436
0.0491299
0.049116
0.0491017
0.0490863
0.0490684
0.0490376
0.0489901
0.0489528
0.0489388
0.0489465
0.0489666
0.0489893
0.0490052
0.0490045
0.0489892
0.0489904
0.049018
0.0490293
0.0490544
0.0490686
0.0490722
0.0490837
0.0491068
0.0491309
0.0491305
0.0490874
0.0490008
0.0489154
0.0489084
0.0489789
0.0490688
0.0491158
0.0491258
0.0491241
0.0491182
0.04911
0.0491005
0.0490898
0.0490785
0.0490668
0.0490554
0.0490445
0.0490346
0.0490262
0.0490197
0.0490152
0.0490129
0.0490126
0.0490142
0.0490173
0.0490214
0.0490264
0.0490319
0.049038
0.0490443
0.0490508
0.0490574
0.0490639
0.0490702
0.0490762
0.0490816
0.0490862
0.0490899
0.0490925
0.049094
0.0490944
0.0490936
0.0490919
0.0490895
0.0490868
0.0490843
0.0490826
0.0490824
0.0490843
0.0490891
0.0490983
0.0491235
0.0491361
0.0491367
0.0489726
0.0491498
0.0492415
0.0492491
0.0492552
0.0492615
0.0492662
0.0492674
0.049266
0.0492633
0.0492596
0.0492549
0.0492488
0.0492405
0.0492292
0.0492148
0.0491983
0.0491815
0.0491656
0.049151
0.0491375
0.0491244
0.0491112
0.0490975
0.0490827
0.0490658
0.0490353
0.0489734
0.0489248
0.0489114
0.048925
0.04895
0.0489747
0.0489892
0.0489853
0.0489697
0.0489752
0.0490035
0.0490176
0.0490343
0.0490418
0.0490463
0.0490603
0.049088
0.0491217
0.0491378
0.0491062
0.0490141
0.0489027
0.0488949
0.0489731
0.049067
0.0491137
0.0491227
0.0491202
0.0491137
0.0491051
0.049095
0.0490839
0.0490721
0.04906
0.0490482
0.0490371
0.0490272
0.0490191
0.0490129
0.0490091
0.0490075
0.0490079
0.0490102
0.0490137
0.0490181
0.0490232
0.0490287
0.0490345
0.0490405
0.0490466
0.0490528
0.0490588
0.0490646
0.04907
0.0490748
0.0490788
0.0490819
0.0490839
0.0490848
0.0490846
0.0490834
0.0490812
0.0490785
0.0490755
0.049073
0.0490716
0.0490719
0.0490745
0.0490804
0.0490912
0.049111
0.0491326
0.0491363
0.0489639
0.0491431
0.0492392
0.0492479
0.0492549
0.0492619
0.0492663
0.0492668
0.0492649
0.0492618
0.0492578
0.0492526
0.0492461
0.0492374
0.0492254
0.04921
0.0491925
0.0491752
0.0491594
0.0491453
0.0491325
0.0491202
0.0491078
0.0490949
0.0490811
0.0490658
0.0490402
0.0489637
0.0489018
0.0488901
0.0489097
0.0489385
0.0489636
0.0489755
0.0489684
0.0489536
0.0489616
0.0489874
0.0490011
0.0490115
0.049016
0.0490223
0.0490393
0.0490692
0.0491094
0.0491407
0.049129
0.0490428
0.04889
0.0488776
0.0489636
0.0490633
0.0491112
0.0491198
0.0491167
0.0491096
0.0491006
0.04909
0.0490784
0.0490661
0.0490535
0.0490413
0.04903
0.0490201
0.0490121
0.0490064
0.049003
0.0490021
0.0490032
0.0490061
0.0490101
0.0490148
0.0490199
0.0490254
0.049031
0.0490368
0.0490425
0.0490482
0.0490538
0.0490591
0.049064
0.0490682
0.0490717
0.0490741
0.0490755
0.0490758
0.0490751
0.0490734
0.0490709
0.049068
0.0490649
0.0490623
0.0490611
0.0490619
0.0490653
0.0490721
0.0490844
0.0491028
0.0491298
0.0491363
0.048956
0.0491367
0.0492371
0.0492468
0.0492549
0.0492625
0.0492664
0.0492662
0.0492638
0.0492604
0.049256
0.0492506
0.0492438
0.0492347
0.049222
0.0492056
0.0491873
0.0491696
0.049154
0.0491406
0.0491287
0.0491173
0.0491058
0.0490938
0.0490813
0.049068
0.0490496
0.0489664
0.0488873
0.0488757
0.0488998
0.0489307
0.0489549
0.0489638
0.0489541
0.0489406
0.0489488
0.0489699
0.0489815
0.0489881
0.0489919
0.0490005
0.0490202
0.0490524
0.0490937
0.0491353
0.0491474
0.0490857
0.0488784
0.048856
0.0489496
0.0490576
0.0491084
0.0491171
0.0491135
0.049106
0.0490965
0.0490855
0.0490733
0.0490605
0.0490475
0.0490349
0.0490232
0.0490132
0.0490053
0.0489999
0.048997
0.0489967
0.0489985
0.0490019
0.0490064
0.0490114
0.0490166
0.049022
0.0490275
0.049033
0.0490385
0.0490438
0.0490489
0.0490538
0.0490583
0.0490621
0.0490649
0.0490668
0.0490675
0.0490672
0.049066
0.0490639
0.0490612
0.049058
0.0490549
0.0490524
0.0490514
0.0490526
0.0490567
0.0490644
0.0490777
0.0490993
0.0491286
0.0491371
0.0489493
0.0491305
0.0492352
0.049246
0.0492552
0.049263
0.0492664
0.0492656
0.0492628
0.0492591
0.0492545
0.0492489
0.0492419
0.0492324
0.049219
0.0492017
0.0491826
0.0491646
0.0491494
0.0491369
0.0491259
0.0491154
0.0491048
0.0490939
0.0490828
0.0490716
0.0490589
0.0489944
0.0488885
0.0488687
0.0488932
0.0489246
0.0489473
0.0489532
0.048942
0.0489299
0.0489364
0.0489518
0.0489607
0.0489655
0.0489702
0.0489814
0.0490035
0.0490373
0.0490794
0.0491226
0.0491518
0.0491234
0.0488736
0.0488316
0.0489304
0.0490495
0.0491052
0.0491146
0.0491107
0.0491028
0.0490928
0.0490814
0.0490688
0.0490555
0.049042
0.0490288
0.0490168
0.0490066
0.0489986
0.0489934
0.048991
0.0489912
0.0489935
0.0489975
0.0490025
0.0490078
0.0490132
0.0490187
0.0490241
0.0490294
0.0490346
0.0490396
0.0490444
0.049049
0.0490531
0.0490565
0.0490589
0.0490601
0.0490602
0.0490593
0.0490575
0.0490551
0.0490521
0.0490488
0.0490457
0.0490433
0.0490425
0.0490442
0.0490488
0.0490573
0.0490716
0.0490957
0.0491289
0.0491387
0.0489439
0.0491246
0.0492334
0.0492454
0.0492556
0.0492636
0.0492663
0.049265
0.0492619
0.0492579
0.049253
0.0492473
0.0492402
0.0492305
0.0492165
0.0491982
0.0491784
0.0491604
0.0491457
0.049134
0.049124
0.0491144
0.0491047
0.0490948
0.049085
0.0490758
0.0490671
0.0490391
0.048907
0.0488706
0.0488886
0.0489183
0.048939
0.0489428
0.0489313
0.0489204
0.0489239
0.0489339
0.0489405
0.048945
0.0489517
0.0489655
0.0489899
0.0490248
0.049067
0.0491099
0.0491444
0.0491438
0.0488797
0.0488107
0.0489007
0.0490386
0.0491017
0.0491123
0.0491083
0.0491
0.0490897
0.0490779
0.0490649
0.0490511
0.049037
0.0490234
0.0490109
0.0490003
0.0489922
0.048987
0.0489848
0.0489854
0.0489883
0.0489929
0.0489983
0.0490041
0.0490097
0.0490152
0.0490206
0.0490259
0.0490309
0.0490358
0.0490403
0.0490446
0.0490485
0.0490516
0.0490536
0.0490543
0.0490538
0.0490522
0.0490499
0.049047
0.0490438
0.0490405
0.0490374
0.0490351
0.0490346
0.0490366
0.0490419
0.049051
0.049066
0.0490914
0.0491301
0.0491412
0.0489401
0.049119
0.0492317
0.0492449
0.0492561
0.0492641
0.0492663
0.0492645
0.0492611
0.0492568
0.0492518
0.049246
0.0492389
0.0492289
0.0492144
0.0491953
0.0491748
0.0491567
0.0491427
0.0491319
0.0491228
0.0491141
0.0491052
0.0490962
0.0490876
0.0490801
0.0490742
0.049066
0.0489538
0.048887
0.0488884
0.0489116
0.0489295
0.0489319
0.0489212
0.0489113
0.0489118
0.0489174
0.0489225
0.0489279
0.0489372
0.0489539
0.0489803
0.0490158
0.0490575
0.0490995
0.049135
0.0491496
0.0488978
0.0487963
0.0488679
0.0490169
0.0490977
0.0491104
0.0491063
0.0490977
0.0490871
0.0490749
0.0490616
0.0490474
0.0490328
0.0490185
0.0490054
0.0489944
0.0489859
0.0489806
0.0489785
0.0489795
0.0489828
0.0489878
0.0489938
0.0490001
0.049006
0.0490116
0.0490171
0.0490224
0.0490274
0.0490322
0.0490366
0.0490408
0.0490445
0.0490475
0.0490493
0.0490496
0.0490484
0.0490462
0.0490432
0.0490399
0.0490366
0.0490333
0.0490303
0.0490281
0.0490278
0.0490301
0.0490358
0.0490454
0.0490609
0.0490866
0.0491296
0.0491434
0.0489381
0.0491137
0.0492302
0.0492447
0.0492566
0.0492645
0.0492662
0.0492641
0.0492604
0.0492558
0.0492506
0.0492449
0.0492379
0.0492278
0.0492126
0.0491927
0.0491717
0.0491537
0.0491403
0.0491304
0.0491222
0.0491142
0.049106
0.0490978
0.0490901
0.0490839
0.0490799
0.0490774
0.0490218
0.0489233
0.0488992
0.0489083
0.0489203
0.0489212
0.0489118
0.0489029
0.0489012
0.0489042
0.0489089
0.048916
0.048928
0.0489474
0.0489753
0.049011
0.0490515
0.0490921
0.0491271
0.0491482
0.0489257
0.0487899
0.0488369
0.0489849
0.0490908
0.0491088
0.0491048
0.0490959
0.049085
0.0490726
0.049059
0.0490443
0.0490293
0.0490144
0.0490007
0.048989
0.04898
0.0489744
0.0489722
0.0489732
0.0489769
0.0489823
0.0489888
0.0489956
0.0490018
0.0490076
0.0490132
0.0490187
0.0490239
0.0490288
0.0490333
0.0490375
0.0490413
0.0490443
0.0490459
0.0490459
0.0490442
0.0490412
0.0490377
0.049034
0.0490304
0.0490272
0.0490244
0.0490224
0.0490223
0.0490248
0.0490308
0.0490406
0.049056
0.0490815
0.0491233
0.0491449
0.0489379
0.0491088
0.0492288
0.0492446
0.0492573
0.049265
0.0492662
0.0492637
0.0492598
0.049255
0.0492497
0.049244
0.0492372
0.049227
0.0492113
0.0491905
0.049169
0.0491513
0.0491385
0.0491294
0.0491219
0.0491146
0.049107
0.0490994
0.0490924
0.0490869
0.049084
0.0490842
0.0490688
0.0489783
0.0489279
0.0489159
0.0489169
0.0489143
0.0489056
0.0488975
0.0488948
0.0488967
0.0489019
0.048911
0.0489255
0.0489468
0.0489755
0.0490105
0.0490491
0.0490874
0.0491209
0.049144
0.048959
0.0487919
0.0488097
0.0489495
0.0490744
0.0491076
0.0491038
0.0490947
0.0490835
0.0490709
0.049057
0.0490421
0.0490266
0.0490112
0.0489968
0.0489843
0.0489746
0.0489684
0.0489658
0.0489667
0.0489705
0.0489763
0.0489832
0.0489903
0.0489969
0.0490028
0.0490086
0.0490145
0.0490203
0.0490257
0.0490303
0.0490347
0.0490387
0.0490419
0.0490436
0.0490433
0.0490411
0.0490375
0.0490334
0.0490292
0.0490255
0.0490224
0.0490199
0.0490183
0.0490183
0.0490211
0.0490271
0.0490367
0.0490518
0.0490773
0.0491166
0.0491443
0.0489399
0.0491041
0.0492276
0.0492446
0.0492579
0.0492654
0.0492662
0.0492635
0.0492594
0.0492544
0.0492489
0.0492433
0.0492368
0.0492266
0.0492103
0.0491887
0.0491668
0.0491492
0.0491371
0.0491288
0.049122
0.0491152
0.049108
0.0491008
0.0490943
0.0490893
0.0490866
0.0490873
0.0490885
0.049035
0.0489734
0.0489409
0.0489269
0.0489173
0.0489072
0.0488993
0.0488961
0.0488977
0.0489036
0.0489142
0.0489303
0.0489525
0.0489808
0.049014
0.0490499
0.0490851
0.0491161
0.0491389
0.0489925
0.0488019
0.0487877
0.0489131
0.0490515
0.0491038
0.0491034
0.0490941
0.0490827
0.0490699
0.0490559
0.0490407
0.0490249
0.049009
0.0489938
0.0489805
0.04897
0.0489629
0.0489596
0.0489601
0.0489637
0.0489696
0.0489767
0.0489842
0.048991
0.0489969
0.0490028
0.0490094
0.0490164
0.0490226
0.0490277
0.0490323
0.0490367
0.0490403
0.0490423
0.0490419
0.0490393
0.0490351
0.0490303
0.0490258
0.0490219
0.049019
0.0490169
0.0490158
0.0490162
0.0490192
0.0490253
0.0490345
0.0490486
0.0490736
0.0491158
0.0491403
0.0489453
0.0490998
0.0492265
0.0492447
0.0492586
0.0492659
0.0492664
0.0492635
0.0492592
0.0492539
0.0492482
0.0492428
0.0492367
0.0492266
0.0492098
0.0491873
0.0491649
0.0491476
0.0491361
0.0491285
0.0491222
0.0491158
0.0491089
0.0491021
0.0490959
0.049091
0.0490882
0.0490884
0.0490928
0.0490736
0.0490236
0.048981
0.0489538
0.0489356
0.0489219
0.0489125
0.0489084
0.0489094
0.0489154
0.0489264
0.0489425
0.048964
0.0489905
0.0490209
0.0490533
0.0490847
0.0491126
0.0491338
0.0490223
0.0488184
0.0487717
0.0488779
0.049023
0.0490963
0.0491032
0.0490943
0.0490825
0.0490696
0.0490555
0.0490402
0.0490242
0.0490078
0.048992
0.0489779
0.0489663
0.0489581
0.0489539
0.0489536
0.0489567
0.0489623
0.0489693
0.0489768
0.0489838
0.0489896
0.0489956
0.0490032
0.0490119
0.0490196
0.0490254
0.0490304
0.0490353
0.0490395
0.0490419
0.0490416
0.0490386
0.0490339
0.0490285
0.0490236
0.0490197
0.0490171
0.0490156
0.0490151
0.0490161
0.0490194
0.0490258
0.0490347
0.0490471
0.0490689
0.0491075
0.0491326
0.048956
0.0490957
0.0492256
0.0492449
0.0492593
0.0492664
0.0492666
0.0492637
0.0492592
0.0492536
0.0492478
0.0492426
0.0492368
0.049227
0.0492097
0.0491863
0.0491634
0.0491462
0.0491354
0.0491283
0.0491225
0.0491164
0.0491097
0.049103
0.049097
0.0490921
0.0490889
0.0490881
0.0490908
0.0490898
0.0490626
0.0490249
0.0489924
0.0489679
0.04895
0.0489381
0.0489321
0.0489316
0.0489364
0.0489462
0.0489608
0.0489801
0.0490036
0.0490303
0.0490585
0.0490858
0.0491101
0.049129
0.0490463
0.0488396
0.0487621
0.0488455
0.0489909
0.0490841
0.0491024
0.049095
0.0490831
0.04907
0.0490559
0.0490406
0.0490245
0.0490079
0.0489915
0.0489765
0.0489639
0.0489545
0.048949
0.0489476
0.0489497
0.0489546
0.0489612
0.0489683
0.048975
0.0489808
0.0489867
0.0489955
0.0490069
0.0490166
0.0490234
0.0490291
0.0490346
0.0490395
0.0490424
0.0490422
0.0490391
0.0490338
0.0490279
0.0490226
0.0490187
0.0490165
0.0490158
0.0490163
0.0490181
0.049022
0.0490289
0.0490381
0.0490488
0.0490653
0.0490964
0.0491236
0.0489739
0.049092
0.0492247
0.0492451
0.0492599
0.0492669
0.049267
0.0492641
0.0492594
0.0492535
0.0492475
0.0492425
0.0492373
0.0492277
0.0492099
0.0491856
0.0491622
0.0491452
0.0491349
0.0491283
0.0491229
0.049117
0.0491104
0.0491037
0.0490976
0.0490926
0.0490889
0.0490869
0.0490876
0.0490913
0.0490828
0.0490592
0.0490312
0.049006
0.0489861
0.048972
0.0489637
0.0489611
0.0489636
0.0489709
0.0489828
0.0489988
0.0490186
0.0490411
0.0490649
0.049088
0.0491086
0.0491251
0.0490643
0.0488633
0.0487585
0.048817
0.0489572
0.0490668
0.0491
0.0490961
0.0490845
0.0490712
0.0490571
0.0490419
0.0490258
0.0490091
0.0489924
0.0489768
0.0489631
0.0489524
0.0489455
0.0489426
0.0489434
0.0489472
0.0489529
0.0489593
0.0489654
0.0489708
0.0489763
0.0489867
0.0490015
0.0490137
0.0490218
0.0490282
0.0490345
0.0490402
0.0490436
0.0490437
0.0490403
0.0490347
0.0490283
0.0490226
0.0490187
0.049017
0.0490173
0.049019
0.049022
0.049027
0.0490348
0.0490449
0.049055
0.0490664
0.0490876
0.0491143
0.0489998
0.0490885
0.0492239
0.0492454
0.0492606
0.0492675
0.0492676
0.0492647
0.0492599
0.0492536
0.0492473
0.0492426
0.0492381
0.0492288
0.0492104
0.0491852
0.0491613
0.0491445
0.0491346
0.0491285
0.0491234
0.0491175
0.049111
0.0491041
0.0490977
0.0490923
0.0490881
0.0490851
0.0490839
0.0490864
0.0490872
0.0490776
0.0490597
0.0490396
0.0490213
0.049007
0.0489975
0.0489928
0.0489928
0.0489972
0.0490057
0.0490181
0.0490338
0.0490522
0.0490717
0.0490908
0.049108
0.049122
0.0490773
0.0488878
0.0487605
0.048793
0.0489235
0.049045
0.0490952
0.0490973
0.0490864
0.0490732
0.0490591
0.0490441
0.0490282
0.0490115
0.0489947
0.0489786
0.0489642
0.0489524
0.048944
0.0489393
0.0489384
0.0489406
0.0489449
0.0489506
0.0489559
0.0489604
0.0489655
0.0489778
0.0489962
0.049011
0.0490207
0.049028
0.0490351
0.0490415
0.0490455
0.0490458
0.0490423
0.0490363
0.0490295
0.0490235
0.0490197
0.0490184
0.0490197
0.049023
0.0490276
0.0490337
0.0490428
0.0490547
0.0490663
0.0490749
0.0490862
0.049106
0.0490328
0.0490853
0.0492232
0.0492457
0.0492612
0.0492681
0.0492684
0.0492656
0.0492606
0.0492538
0.0492473
0.049243
0.0492392
0.0492303
0.0492114
0.0491852
0.0491607
0.049144
0.0491345
0.0491289
0.0491239
0.0491182
0.0491114
0.0491044
0.0490975
0.0490915
0.0490865
0.0490828
0.0490802
0.04908
0.0490828
0.049082
0.0490745
0.0490622
0.0490488
0.0490367
0.0490275
0.0490218
0.0490199
0.0490217
0.0490272
0.0490361
0.0490482
0.0490627
0.0490784
0.0490939
0.0491081
0.0491199
0.0490865
0.0489118
0.0487673
0.048774
0.0488908
0.0490194
0.049087
0.0490979
0.049089
0.0490759
0.0490619
0.0490471
0.0490314
0.049015
0.0489982
0.0489819
0.048967
0.0489543
0.0489446
0.0489385
0.0489358
0.0489363
0.048939
0.0489431
0.0489471
0.0489509
0.0489568
0.0489709
0.0489919
0.0490088
0.04902
0.0490285
0.0490365
0.0490435
0.0490479
0.0490483
0.0490447
0.0490384
0.0490312
0.049025
0.0490212
0.0490204
0.0490227
0.0490275
0.0490339
0.0490416
0.0490518
0.0490659
0.0490812
0.0490921
0.049097
0.049098
0.0490709
0.0490823
0.0492225
0.0492459
0.0492619
0.0492689
0.0492694
0.0492668
0.0492616
0.0492541
0.0492474
0.0492436
0.0492406
0.0492321
0.0492126
0.0491854
0.0491605
0.0491438
0.0491346
0.0491293
0.0491246
0.0491188
0.0491119
0.0491045
0.0490971
0.0490903
0.0490844
0.0490798
0.0490763
0.0490741
0.0490754
0.0490781
0.0490777
0.0490732
0.0490658
0.0490577
0.0490505
0.0490452
0.0490424
0.0490425
0.0490456
0.0490518
0.0490608
0.049072
0.0490845
0.049097
0.0491086
0.0491186
0.0490932
0.0489347
0.048778
0.0487599
0.0488601
0.0489908
0.0490747
0.0490974
0.0490918
0.0490794
0.0490655
0.0490509
0.0490355
0.0490194
0.0490029
0.0489866
0.0489714
0.0489581
0.0489475
0.04894
0.0489358
0.0489346
0.0489359
0.0489386
0.048942
0.0489461
0.0489541
0.0489692
0.0489892
0.0490072
0.0490201
0.0490298
0.0490386
0.0490461
0.0490507
0.049051
0.0490472
0.0490406
0.0490331
0.0490268
0.049023
0.0490226
0.0490258
0.049032
0.0490403
0.0490496
0.0490606
0.0490758
0.0490957
0.0491149
0.0491273
0.0491285
0.049112
0.0490794
0.0492219
0.0492461
0.0492625
0.0492698
0.0492707
0.0492683
0.0492627
0.0492545
0.0492477
0.0492445
0.0492424
0.0492344
0.0492142
0.049186
0.0491605
0.0491438
0.049135
0.04913
0.0491254
0.0491196
0.0491125
0.0491046
0.0490965
0.0490889
0.049082
0.0490763
0.0490719
0.0490687
0.0490677
0.0490706
0.049074
0.0490752
0.0490736
0.04907
0.0490657
0.0490619
0.0490594
0.0490588
0.0490604
0.0490646
0.0490713
0.04908
0.04909
0.0491001
0.0491096
0.0491181
0.0490984
0.0489559
0.048792
0.0487509
0.048832
0.04896
0.0490578
0.0490947
0.0490946
0.0490834
0.0490699
0.0490556
0.0490405
0.0490248
0.0490086
0.0489926
0.0489773
0.0489637
0.0489523
0.0489438
0.0489384
0.0489358
0.0489357
0.0489374
0.0489405
0.0489455
0.0489552
0.0489711
0.0489903
0.0490078
0.0490212
0.049032
0.0490415
0.0490494
0.0490537
0.0490537
0.0490496
0.0490426
0.0490349
0.0490285
0.0490247
0.0490246
0.0490285
0.0490358
0.0490458
0.0490567
0.0490682
0.0490824
0.0491033
0.0491306
0.0491579
0.0491748
0.0491609
0.0490767
0.0492213
0.0492463
0.0492631
0.0492707
0.0492721
0.04927
0.0492639
0.049255
0.0492483
0.0492457
0.0492446
0.0492371
0.0492162
0.049187
0.0491609
0.0491442
0.0491356
0.0491308
0.0491264
0.0491206
0.0491133
0.0491049
0.0490961
0.0490876
0.0490796
0.0490727
0.0490672
0.0490633
0.0490613
0.0490623
0.0490674
0.0490723
0.0490751
0.0490756
0.0490745
0.0490727
0.0490711
0.0490705
0.0490715
0.0490746
0.0490797
0.0490867
0.0490947
0.049103
0.0491109
0.0491182
0.0491027
0.0489755
0.0488085
0.0487467
0.0488074
0.0489282
0.049036
0.0490887
0.0490968
0.0490879
0.0490749
0.049061
0.0490463
0.0490311
0.0490153
0.0489996
0.0489845
0.0489708
0.048959
0.0489498
0.0489433
0.0489397
0.0489385
0.0489396
0.0489427
0.0489486
0.0489595
0.0489756
0.0489938
0.0490103
0.0490239
0.0490354
0.0490453
0.0490529
0.0490568
0.0490563
0.0490517
0.0490442
0.0490363
0.0490299
0.0490261
0.0490262
0.0490305
0.0490387
0.0490499
0.0490623
0.0490743
0.0490861
0.0491025
0.0491294
0.0491669
0.0492066
0.0492348
0.0490742
0.0492208
0.0492464
0.0492636
0.0492718
0.0492738
0.0492718
0.049265
0.0492556
0.0492491
0.0492473
0.0492473
0.0492402
0.0492187
0.0491883
0.0491616
0.0491449
0.0491364
0.0491319
0.0491277
0.0491219
0.0491144
0.0491056
0.0490961
0.0490866
0.0490776
0.0490697
0.0490631
0.0490582
0.0490554
0.0490555
0.0490602
0.0490675
0.0490735
0.0490772
0.0490788
0.049079
0.0490787
0.0490786
0.0490796
0.049082
0.0490863
0.0490921
0.0490988
0.0491058
0.0491126
0.0491189