/*--------------------------------*- C++ -*----------------------------------*\
| =========                 |                                                 |
| \\      /  F ield         | OpenFOAM: The Open Source CFD Toolbox           |
|  \\    /   O peration     | Version:  4.1                                   |
|   \\  /    A nd           | Web:      www.OpenFOAM.org                      |
|    \\/     M anipulation  |                                                 |
\*---------------------------------------------------------------------------*/
FoamFile
{
    version     2.0;
    format      ascii;
    class       volVectorField;
    location    "600";
    object      U;
}
// * * * * * * * * * * * * * * * * * * * * * * * * * * * * * * * * * * * * * //

dimensions      [0 1 -1 0 0 0 0];

internalField   nonuniform List<vector> 
5000
(
(-0.00210405 0.000973844 0)
(-0.00168312 -0.00125072 0)
(-0.000381218 -0.00127937 0)
(0.000932086 -0.000773625 0)
(0.0013939 -0.000532801 0)
(0.0017123 -0.000294802 0)
(0.00173413 -1.16069e-05 0)
(0.00139283 0.000240518 0)
(0.000846667 0.000387127 0)
(0.000193632 0.000549374 0)
(-0.000652589 0.000685768 0)
(-0.000932305 0.000142637 0)
(0.000224462 -0.000625268 0)
(0.00169917 -0.000836926 0)
(0.00321337 -0.000890266 0)
(0.00473385 -0.000886539 0)
(0.00621916 -0.000856072 0)
(0.00764234 -0.000810489 0)
(0.00898758 -0.000756179 0)
(0.0102453 -0.000697086 0)
(0.0114095 -0.00063544 0)
(0.012476 -0.000572038 0)
(0.0134403 -0.000506397 0)
(0.0142959 -0.000436921 0)
(0.0150325 -0.000361428 0)
(0.0156351 -0.000278448 0)
(0.0160869 -0.000189052 0)
(0.0163745 -9.82739e-05 0)
(0.0164949 -1.52537e-05 0)
(0.016467 5.1826e-05 0)
(0.0163144 9.87528e-05 0)
(0.0160701 0.000122356 0)
(0.0157702 0.00012549 0)
(0.0154319 0.000128539 0)
(0.0150105 0.000179957 0)
(0.0143496 0.00035789 0)
(0.0131383 0.000822517 0)
(0.0111097 0.00202476 0)
(0.00584916 0.00424981 0)
(-0.00310067 0.00149385 0)
(-0.00263461 -0.000825027 0)
(-0.00176772 -0.0011204 0)
(-0.000443039 -0.000855106 0)
(0.00070568 -0.000620709 0)
(0.00144271 -0.000493695 0)
(0.00211514 -0.000396424 0)
(0.00263944 -0.000267169 0)
(0.00302564 -0.000198831 0)
(0.0032962 -0.000316112 0)
(0.00336857 0.00135713 0)
(-0.00402259 0.00353714 0)
(-0.0076786 0.00164567 0)
(-0.00917851 0.000742496 0)
(-0.0102071 0.000437497 0)
(-0.0109238 0.000319307 0)
(-0.0114996 0.000269597 0)
(-0.0120108 0.000250515 0)
(-0.0124962 0.000246386 0)
(-0.0129756 0.000249503 0)
(-0.0134585 0.000255476 0)
(-0.0139472 0.000261455 0)
(-0.0144398 0.000265452 0)
(-0.0149315 0.000266066 0)
(-0.0154153 0.000262339 0)
(-0.0158823 0.000253641 0)
(-0.0163222 0.000239618 0)
(-0.0167246 0.000220155 0)
(-0.0170786 0.000195336 0)
(-0.0173738 0.0001654 0)
(-0.0176006 0.000130589 0)
(-0.0177496 9.09874e-05 0)
(-0.0178125 4.60346e-05 0)
(-0.0177819 -5.21679e-06 0)
(-0.0176486 -6.23716e-05 0)
(-0.0174055 -0.000122973 0)
(-0.0170516 -0.000184892 0)
(-0.0165881 -0.000246783 0)
(-0.0160179 -0.00030774 0)
(-0.0153457 -0.00036718 0)
(-0.0145766 -0.000424804 0)
(-0.0137163 -0.000480585 0)
(-0.0127704 -0.000534778 0)
(-0.0117438 -0.000587941 0)
(-0.010641 -0.000640959 0)
(-0.00946483 -0.000695067 0)
(-0.00821692 -0.000751824 0)
(-0.00689542 -0.000813234 0)
(-0.00549269 -0.000882829 0)
(-0.00399967 -0.000968997 0)
(-0.0024408 -0.00108799 0)
(-0.000947962 -0.00124741 0)
(0.00123866 -0.00134664 0)
(0.00288531 -0.00119033 0)
(0.00441367 -0.000979254 0)
(0.00565307 -0.000721545 0)
(0.00646867 -0.000474026 0)
(0.00685316 -0.000254533 0)
(0.00673426 5.14441e-05 0)
(0.00573963 0.000796332 0)
(0.00428962 0.00270925 0)
(-0.00175879 0.00297113 0)
(-0.00170591 -0.00129261 0)
(-0.00212229 -0.00115648 0)
(-0.00228983 -0.000647851 0)
(-0.00238767 -0.000334597 0)
(-0.00242381 -6.87994e-05 0)
(-0.00231566 0.000220897 0)
(-0.00205615 0.000491503 0)
(-0.00174511 0.000603896 0)
(-0.00125351 0.000689688 0)
(-0.00036906 0.000366325 0)
(0.00122309 -0.0010982 0)
(0.00240355 -0.00182546 0)
(0.00356682 -0.00212148 0)
(0.00481259 -0.0022102 0)
(0.00612578 -0.00220146 0)
(0.0074585 -0.00213969 0)
(0.00877085 -0.00204488 0)
(0.0100366 -0.00192887 0)
(0.0112395 -0.00179967 0)
(0.0123697 -0.00166206 0)
(0.0134208 -0.0015177 0)
(0.0143875 -0.00136506 0)
(0.0152627 -0.0011995 0)
(0.0160357 -0.00101426 0)
(0.0166897 -0.000803726 0)
(0.0172035 -0.000568686 0)
(0.017557 -0.00032021 0)
(0.0177398 -7.90524e-05 0)
(0.0177406 0.000136351 0)
(0.0175687 0.000313068 0)
(0.0172396 0.000443662 0)
(0.016764 0.000541358 0)
(0.0161254 0.00066768 0)
(0.0152474 0.000950819 0)
(0.0139697 0.00155607 0)
(0.0120918 0.00273819 0)
(0.00985014 0.00505399 0)
(0.00590828 0.0084328 0)
(0.000912558 0.00648506 0)
(-0.000156503 -0.00082668 0)
(-0.000581948 -0.00197152 0)
(0.000147702 -0.00170298 0)
(0.000855943 -0.00132993 0)
(0.00148566 -0.0010789 0)
(0.00203457 -0.000884212 0)
(0.00249942 -0.000656811 0)
(0.00288147 -0.00047628 0)
(0.00235007 0.000140835 0)
(-0.001537 0.00625517 0)
(-0.00635029 0.00664219 0)
(-0.00891142 0.00373207 0)
(-0.010475 0.00208021 0)
(-0.011687 0.00135392 0)
(-0.0125847 0.00101656 0)
(-0.0133076 0.000852721 0)
(-0.013931 0.000774799 0)
(-0.014499 0.000741751 0)
(-0.0150369 0.00073184 0)
(-0.0155584 0.000732164 0)
(-0.0160697 0.000734284 0)
(-0.0165713 0.000732291 0)
(-0.0170602 0.000721879 0)
(-0.0175303 0.000699869 0)
(-0.0179732 0.000663987 0)
(-0.0183786 0.000612771 0)
(-0.0187355 0.000545523 0)
(-0.0190322 0.000462265 0)
(-0.0192573 0.000363649 0)
(-0.0194003 0.000250737 0)
(-0.0194516 0.000124594 0)
(-0.0194023 -1.40675e-05 0)
(-0.0192456 -0.000164256 0)
(-0.0189817 -0.000322527 0)
(-0.0186119 -0.000484601 0)
(-0.0181369 -0.000646157 0)
(-0.0175593 -0.000804081 0)
(-0.0168831 -0.000956166 0)
(-0.0161132 -0.00110095 0)
(-0.015255 -0.00123763 0)
(-0.0143142 -0.00136604 0)
(-0.0132964 -0.00148661 0)
(-0.0122067 -0.00160041 0)
(-0.0110495 -0.0017091 0)
(-0.00982801 -0.00181495 0)
(-0.0085441 -0.0019206 0)
(-0.00719714 -0.00202895 0)
(-0.00578346 -0.00214425 0)
(-0.0043002 -0.00227571 0)
(-0.00276317 -0.00243962 0)
(-0.00123733 -0.00263762 0)
(0.000409133 -0.00275 0)
(0.00211549 -0.00254596 0)
(0.00351473 -0.00208131 0)
(0.00463297 -0.00141067 0)
(0.00528986 -0.000711257 0)
(0.00543455 -9.31429e-05 0)
(0.00506996 0.0007407 0)
(0.00398428 0.00250892 0)
(0.00321193 0.00591215 0)
(-0.00137135 0.00459859 0)
(-0.00133854 -0.000850622 0)
(-0.0022004 -0.00080304 0)
(-0.00260637 -0.00049599 0)
(-0.00292591 -0.000304224 0)
(-0.00311885 -0.000197402 0)
(-0.00309765 -0.000116909 0)
(-0.00277472 -6.26467e-05 0)
(-0.00215419 -0.00019158 0)
(-0.00125744 -0.000513078 0)
(0.00026292 -0.00149954 0)
(0.00165357 -0.00254472 0)
(0.00278624 -0.00306847 0)
(0.00394001 -0.00335678 0)
(0.00513883 -0.00348179 0)
(0.00637245 -0.00349388 0)
(0.00761327 -0.00342637 0)
(0.00883206 -0.00330207 0)
(0.0100067 -0.00313869 0)
(0.0111235 -0.00294985 0)
(0.0121748 -0.00274455 0)
(0.013157 -0.00252663 0)
(0.0140674 -0.0022944 0)
(0.0149018 -0.0020401 0)
(0.0156503 -0.00175051 0)
(0.0162931 -0.00141277 0)
(0.0168005 -0.00102472 0)
(0.0171404 -0.000601954 0)
(0.0172896 -0.000174011 0)
(0.0172271 0.000234748 0)
(0.0169507 0.00060368 0)
(0.0164634 0.000921583 0)
(0.015766 0.00121379 0)
(0.0148454 0.00157996 0)
(0.0136525 0.00220396 0)
(0.0120835 0.00325802 0)
(0.0100715 0.00495143 0)
(0.00816895 0.0079946 0)
(0.00525013 0.0118158 0)
(0.00290906 0.00906296 0)
(0.00245067 0.00194356 0)
(0.00095998 -0.00175299 0)
(0.000801968 -0.00207299 0)
(0.00109705 -0.00176495 0)
(0.00149059 -0.00153906 0)
(0.00190421 -0.00131127 0)
(0.00223611 -0.000994392 0)
(0.00246955 -0.000288885 0)
(-0.00111548 0.00459391 0)
(-0.00489029 0.0101171 0)
(-0.00763976 0.00918715 0)
(-0.00919173 0.00561202 0)
(-0.010316 0.00344317 0)
(-0.01134 0.00238556 0)
(-0.012195 0.00184258 0)
(-0.0129367 0.00155398 0)
(-0.0136021 0.00140129 0)
(-0.0142187 0.00132376 0)
(-0.0148047 0.00128708 0)
(-0.0153708 0.00126992 0)
(-0.0159215 0.00125785 0)
(-0.0164568 0.00124047 0)
(-0.0169733 0.00120995 0)
(-0.0174645 0.00116035 0)
(-0.0179216 0.00108729 0)
(-0.0183341 0.000987864 0)
(-0.0186905 0.00086061 0)
(-0.0189789 0.000705481 0)
(-0.0191881 0.000523667 0)
(-0.0193081 0.00031738 0)
(-0.0193301 8.9409e-05 0)
(-0.0192469 -0.000156784 0)
(-0.0190556 -0.000416223 0)
(-0.0187567 -0.000683313 0)
(-0.0183519 -0.000952618 0)
(-0.017845 -0.00121876 0)
(-0.0172405 -0.0014774 0)
(-0.0165438 -0.00172536 0)
(-0.0157606 -0.00196047 0)
(-0.0148971 -0.0021816 0)
(-0.0139593 -0.00238851 0)
(-0.0129533 -0.00258187 0)
(-0.0118844 -0.00276324 0)
(-0.0107576 -0.0029351 0)
(-0.00957663 -0.00310069 0)
(-0.008344 -0.00326375 0)
(-0.00706045 -0.00342816 0)
(-0.00572541 -0.00359802 0)
(-0.00434012 -0.00377829 0)
(-0.00291631 -0.00397281 0)
(-0.00149124 -0.00416866 0)
(-9.38244e-05 -0.00428934 0)
(0.00146519 -0.004097 0)
(0.00275228 -0.00340921 0)
(0.00380076 -0.00229304 0)
(0.00439309 -0.00103641 0)
(0.00435922 8.45162e-05 0)
(0.00381464 0.00137252 0)
(0.00269908 0.00389859 0)
(0.00243026 0.00873716 0)
(-0.0011006 0.00575408 0)
(-0.00116844 -0.000137518 0)
(-0.00213731 -0.000216306 0)
(-0.00262063 -2.95393e-05 0)
(-0.00296295 4.04784e-05 0)
(-0.00309005 -2.85515e-05 0)
(-0.00293346 -0.000233077 0)
(-0.00245572 -0.000569653 0)
(-0.00169272 -0.00103999 0)
(-0.000716289 -0.00172691 0)
(0.000787027 -0.0029611 0)
(0.001867 -0.00367849 0)
(0.00296164 -0.00417667 0)
(0.00407305 -0.00449909 0)
(0.00521151 -0.004663 0)
(0.00636726 -0.00469074 0)
(0.00751799 -0.00460996 0)
(0.00864026 -0.00444892 0)
(0.00971659 -0.00423325 0)
(0.0107373 -0.00398366 0)
(0.011699 -0.00371402 0)
(0.0126021 -0.00343064 0)
(0.0134485 -0.0031318 0)
(0.0142385 -0.00280566 0)
(0.0149648 -0.00242846 0)
(0.0156037 -0.00197332 0)
(0.0161139 -0.00142989 0)
(0.0164494 -0.000816816 0)
(0.0165734 -0.000173108 0)
(0.0164525 0.000465195 0)
(0.016077 0.00106826 0)
(0.015443 0.00161958 0)
(0.0145474 0.00215095 0)
(0.0133814 0.00278714 0)
(0.0119172 0.00374311 0)
(0.0101013 0.0051339 0)
(0.00797189 0.00701405 0)
(0.00631442 0.0103221 0)
(0.00422715 0.0138673 0)
(0.00337549 0.00982558 0)
(0.00341149 0.00290295 0)
(0.00232762 -0.000946161 0)
(0.00148684 -0.00184208 0)
(0.00132765 -0.00189002 0)
(0.0015345 -0.00187151 0)
(0.00183313 -0.00167216 0)
(0.00219197 -0.00109464 0)
(0.000907278 0.00169024 0)
(-0.00417368 0.00926954 0)
(-0.00667085 0.0125596 0)
(-0.00830319 0.0107293 0)
(-0.00916419 0.00682162 0)
(-0.00993913 0.0044704 0)
(-0.0107611 0.00327554 0)
(-0.0115335 0.00262653 0)
(-0.0122608 0.00226226 0)
(-0.0129476 0.00205815 0)
(-0.013603 0.00194644 0)
(-0.0142353 0.00188662 0)
(-0.0148499 0.00185222 0)
(-0.0154482 0.00182441 0)
(-0.016028 0.00178899 0)
(-0.0165839 0.00173491 0)
(-0.0171078 0.00165363 0)
(-0.0175896 0.00153881 0)
(-0.0180174 0.00138632 0)
(-0.0183786 0.00119417 0)
(-0.0186612 0.000962517 0)
(-0.0188539 0.000693456 0)
(-0.0189481 0.000390583 0)
(-0.0189367 5.88508e-05 0)
(-0.018815 -0.000295615 0)
(-0.0185856 -0.00066413 0)
(-0.0182512 -0.00103768 0)
(-0.017816 -0.00140902 0)
(-0.0172854 -0.001772 0)
(-0.016665 -0.00212177 0)
(-0.0159607 -0.00245484 0)
(-0.0151786 -0.00276891 0)
(-0.0143247 -0.00306282 0)
(-0.0134049 -0.00333648 0)
(-0.0124254 -0.00359083 0)
(-0.0113918 -0.00382795 0)
(-0.0103097 -0.00405103 0)
(-0.00918366 -0.00426433 0)
(-0.00801739 -0.00447285 0)
(-0.00681309 -0.00468171 0)
(-0.00557212 -0.00489523 0)
(-0.00429712 -0.00511501 0)
(-0.0029961 -0.0053353 0)
(-0.00169028 -0.00553217 0)
(-0.000434813 -0.00564119 0)
(0.000917202 -0.00543857 0)
(0.00211503 -0.00459756 0)
(0.003104 -0.00308542 0)
(0.00369847 -0.00121637 0)
(0.00366625 0.00048962 0)
(0.00310983 0.00212104 0)
(0.00198205 0.00495724 0)
(0.00193045 0.0108328 0)
(-0.000900604 0.00666605 0)
(-0.00107538 0.000690914 0)
(-0.00207041 0.000417475 0)
(-0.00253376 0.000383817 0)
(-0.002793 0.000205603 0)
(-0.00278171 -0.000140443 0)
(-0.00247329 -0.000645335 0)
(-0.00189392 -0.00126315 0)
(-0.00111765 -0.00197266 0)
(-8.41757e-05 -0.00296803 0)
(0.00103582 -0.00404294 0)
(0.0019807 -0.00471395 0)
(0.00298836 -0.00523235 0)
(0.0040327 -0.00558884 0)
(0.00510197 -0.00577607 0)
(0.00617818 -0.00580462 0)
(0.00723818 -0.0057006 0)
(0.00826156 -0.00549786 0)
(0.00923543 -0.00523006 0)
(0.0101553 -0.0049251 0)
(0.0110232 -0.00460169 0)
(0.0118446 -0.00426846 0)
(0.0126264 -0.00392399 0)
(0.0133746 -0.00355187 0)
(0.0140861 -0.00311259 0)
(0.0147326 -0.00255544 0)
(0.0152567 -0.00185634 0)
(0.0155948 -0.00103948 0)
(0.0156958 -0.000157749 0)
(0.0155214 0.000743697 0)
(0.0150564 0.00162354 0)
(0.0142945 0.00245591 0)
(0.0132327 0.00327473 0)
(0.0118626 0.00422275 0)
(0.0101645 0.00552275 0)
(0.00812513 0.0071603 0)
(0.00588048 0.00893325 0)
(0.00439287 0.0121124 0)
(0.00308678 0.0147294 0)
(0.00324456 0.00964081 0)
(0.00340506 0.00340978 0)
(0.00259915 -6.82159e-05 0)
(0.00167863 -0.00129397 0)
(0.00135141 -0.00182639 0)
(0.00150669 -0.00214781 0)
(0.00172645 -0.00198381 0)
(0.00182948 -0.000700244 0)
(-0.00243914 0.00684072 0)
(-0.00588665 0.0122748 0)
(-0.00763684 0.0141097 0)
(-0.00850874 0.0115105 0)
(-0.00894977 0.00751943 0)
(-0.00951095 0.00521547 0)
(-0.0101938 0.00402996 0)
(-0.0108959 0.00336147 0)
(-0.0115985 0.00296973 0)
(-0.0122893 0.00273984 0)
(-0.0129655 0.00260671 0)
(-0.0136276 0.00252901 0)
(-0.0142759 0.0024779 0)
(-0.0149081 0.00243153 0)
(-0.0155192 0.00237255 0)
(-0.0161016 0.00228702 0)
(-0.0166451 0.00216398 0)
(-0.0171378 0.00199541 0)
(-0.0175667 0.00177636 0)
(-0.0179186 0.00150498 0)
(-0.0181814 0.00118258 0)
(-0.0183456 0.000813434 0)
(-0.0184046 0.000403973 0)
(-0.0183546 -3.69672e-05 0)
(-0.0181945 -0.000499337 0)
(-0.0179331 -0.000971681 0)
(-0.0175737 -0.00144435 0)
(-0.0171221 -0.00190927 0)
(-0.016584 -0.00235998 0)
(-0.0159649 -0.00279161 0)
(-0.0152701 -0.00320069 0)
(-0.014505 -0.00358496 0)
(-0.0136747 -0.00394321 0)
(-0.0127848 -0.00427526 0)
(-0.011841 -0.00458198 0)
(-0.0108496 -0.00486548 0)
(-0.00981675 -0.00512925 0)
(-0.00874858 -0.00537822 0)
(-0.00765039 -0.00561843 0)
(-0.00652637 -0.00585624 0)
(-0.00537963 -0.00609661 0)
(-0.00421324 -0.00633959 0)
(-0.00303244 -0.00657403 0)
(-0.00184973 -0.00676762 0)
(-0.00070168 -0.00685101 0)
(0.000447264 -0.00663085 0)
(0.00156034 -0.00570294 0)
(0.00248322 -0.00389028 0)
(0.00310867 -0.00141992 0)
(0.00312096 0.000836542 0)
(0.00262654 0.00281153 0)
(0.00153216 0.0057727 0)
(0.00158398 0.012385 0)
(-0.000749438 0.0074634 0)
(-0.000994509 0.00145773 0)
(-0.00190416 0.00098365 0)
(-0.00228486 0.000711983 0)
(-0.00244932 0.000281381 0)
(-0.002335 -0.000335795 0)
(-0.00196104 -0.00110725 0)
(-0.00137049 -0.0019556 0)
(-0.000658165 -0.00283301 0)
(0.000285589 -0.00398738 0)
(0.00112835 -0.00493913 0)
(0.00198095 -0.00565102 0)
(0.00290145 -0.00621443 0)
(0.00387139 -0.00660766 0)
(0.00486724 -0.00681127 0)
(0.00586243 -0.00683054 0)
(0.00683136 -0.00669425 0)
(0.00775573 -0.00644424 0)
(0.00862743 -0.00612351 0)
(0.00944779 -0.00576781 0)
(0.0102246 -0.00540059 0)
(0.0109686 -0.00503254 0)
(0.0116909 -0.00466312 0)
(0.012403 -0.00427207 0)
(0.0131075 -0.00379794 0)
(0.0137715 -0.00315171 0)
(0.0143163 -0.00228866 0)
(0.0146583 -0.00124441 0)
(0.0147323 -9.31838e-05 0)
(0.0144994 0.00110442 0)
(0.013944 0.00229316 0)
(0.0130643 0.00343653 0)
(0.0118605 0.00457185 0)
(0.0103233 0.00586029 0)
(0.00843322 0.00751254 0)
(0.00622322 0.0093134 0)
(0.00394093 0.0107427 0)
(0.00263391 0.0134715 0)
(0.002081 0.014706 0)
(0.00277958 0.00908396 0)
(0.00282325 0.0037429 0)
(0.00204456 0.000816104 0)
(0.00134462 -0.000747004 0)
(0.00107825 -0.00176647 0)
(0.00122341 -0.00240575 0)
(0.00132665 -0.00195482 0)
(-0.000689755 0.0028152 0)
(-0.00435557 0.0101208 0)
(-0.00683575 0.0144054 0)
(-0.00801342 0.0150389 0)
(-0.00841175 0.0118648 0)
(-0.00861711 0.0079437 0)
(-0.00906157 0.00579225 0)
(-0.00965588 0.00468651 0)
(-0.0103033 0.00404755 0)
(-0.0109765 0.00366077 0)
(-0.0116568 0.00342552 0)
(-0.0123356 0.00328323 0)
(-0.0130085 0.00319443 0)
(-0.0136716 0.00312944 0)
(-0.0143199 0.00306433 0)
(-0.0149455 0.00297919 0)
(-0.0155385 0.00285756 0)
(-0.0160866 0.00268652 0)
(-0.0165766 0.00245684 0)
(-0.0169945 0.00216335 0)
(-0.0173271 0.00180515 0)
(-0.0175636 0.00138555 0)
(-0.0176965 0.000911904 0)
(-0.0177222 0.000394324 0)
(-0.017641 -0.000153928 0)
(-0.0174581 -0.00071896 0)
(-0.0171828 -0.0012881 0)
(-0.0168193 -0.00185157 0)
(-0.0163732 -0.00240146 0)
(-0.0158493 -0.00293171 0)
(-0.015252 -0.00343787 0)
(-0.014585 -0.00391677 0)
(-0.0138522 -0.00436616 0)
(-0.0130576 -0.00478459 0)
(-0.0122061 -0.00517134 0)
(-0.0113031 -0.00552669 0)
(-0.0103553 -0.0058522 0)
(-0.00936986 -0.00615107 0)
(-0.00835462 -0.00642837 0)
(-0.00731708 -0.00669088 0)
(-0.00626389 -0.00694621 0)
(-0.00520033 -0.00720059 0)
(-0.00413037 -0.00745438 0)
(-0.00305773 -0.00769436 0)
(-0.00198956 -0.00788203 0)
(-0.000945722 -0.00793663 0)
(5.7415e-05 -0.00768574 0)
(0.001062 -0.00671151 0)
(0.00191628 -0.0046943 0)
(0.00257812 -0.00165636 0)
(0.00265972 0.00113496 0)
(0.00224421 0.00343508 0)
(0.00120697 0.00645064 0)
(0.00132329 0.0136136 0)
(-0.000632376 0.00818821 0)
(-0.000894394 0.00215318 0)
(-0.00167894 0.00146776 0)
(-0.00197391 0.000964188 0)
(-0.00206821 0.000286559 0)
(-0.00190476 -0.00058068 0)
(-0.00152601 -0.00157673 0)
(-0.000977548 -0.00260048 0)
(-0.000348974 -0.00359413 0)
(0.000430056 -0.00478866 0)
(0.00111992 -0.00571865 0)
(0.00189007 -0.00649746 0)
(0.00273298 -0.00712138 0)
(0.00362987 -0.00755406 0)
(0.00455147 -0.00776872 0)
(0.00546535 -0.00776966 0)
(0.00634411 -0.00759254 0)
(0.00717186 -0.00729045 0)
(0.00794565 -0.00691752 0)
(0.00867294 -0.00651787 0)
(0.00936699 -0.00611891 0)
(0.0100422 -0.00573225 0)
(0.0107123 -0.00535879 0)
(0.0113919 -0.00497681 0)
(0.0120904 -0.00449772 0)
(0.0127725 -0.00377454 0)
(0.0133348 -0.00273429 0)
(0.0136723 -0.00143594 0)
(0.0137071 1.52722e-05 0)
(0.0134033 0.00153917 0)
(0.0127538 0.00306157 0)
(0.0117684 0.0045348 0)
(0.0104529 0.00600422 0)
(0.00879488 0.00765206 0)
(0.00677427 0.00965088 0)
(0.00449141 0.0115133 0)
(0.00231191 0.0124111 0)
(0.0012446 0.0144034 0)
(0.00130016 0.0141271 0)
(0.00206817 0.00859282 0)
(0.00184957 0.0041657 0)
(0.00114841 0.0015019 0)
(0.000689943 -0.0003693 0)
(0.000540618 -0.00178365 0)
(0.000593025 -0.00251013 0)
(-5.23874e-05 -0.000661397 0)
(-0.00275537 0.0063291 0)
(-0.0053657 0.0125123 0)
(-0.00721869 0.0159124 0)
(-0.00798585 0.0155847 0)
(-0.00811335 0.0120006 0)
(-0.00821002 0.00823912 0)
(-0.00859449 0.0062786 0)
(-0.00912943 0.00527775 0)
(-0.00973177 0.0046904 0)
(-0.0103728 0.00432681 0)
(-0.0110327 0.00409995 0)
(-0.0117004 0.003958 0)
(-0.0123689 0.00386386 0)
(-0.0130318 0.00378759 0)
(-0.0136814 0.00370356 0)
(-0.0143078 0.00358961 0)
(-0.014899 0.00342716 0)
(-0.0154413 0.00320172 0)
(-0.0159202 0.00290347 0)
(-0.0163216 0.00252786 0)
(-0.016633 0.00207596 0)
(-0.0168451 0.00155435 0)
(-0.0169537 0.000974642 0)
(-0.0169588 0.00035209 0)
(-0.0168644 -0.000295284 0)
(-0.0166805 -0.000951744 0)
(-0.0164146 -0.00160631 0)
(-0.0160703 -0.00224995 0)
(-0.0156518 -0.0028755 0)
(-0.0151622 -0.00347767 0)
(-0.014604 -0.00405259 0)
(-0.0139792 -0.00459728 0)
(-0.01329 -0.00510927 0)
(-0.0125393 -0.0055864 0)
(-0.0117311 -0.00602697 0)
(-0.0108707 -0.00643002 0)
(-0.00996508 -0.00679588 0)
(-0.0090225 -0.00712681 0)
(-0.00805234 -0.00742742 0)
(-0.00706441 -0.00770475 0)
(-0.00606806 -0.00796756 0)
(-0.00507125 -0.00822391 0)
(-0.00407972 -0.00847612 0)
(-0.00309709 -0.00871153 0)
(-0.00212709 -0.00888813 0)
(-0.00117951 -0.0089146 0)
(-0.000281366 -0.00862257 0)
(0.000603931 -0.00762265 0)
(0.00139484 -0.00547826 0)
(0.00206974 -0.00196803 0)
(0.00225654 0.0013608 0)
(0.00192134 0.00397982 0)
(0.000956005 0.00703272 0)
(0.00111957 0.0146288 0)
(-0.000539928 0.00883882 0)
(-0.000793549 0.00276299 0)
(-0.00145813 0.00187703 0)
(-0.00168454 0.00115904 0)
(-0.00173397 0.000254938 0)
(-0.001556 -0.000834861 0)
(-0.00119995 -0.00201739 0)
(-0.000720076 -0.00316693 0)
(-0.000178295 -0.00424618 0)
(0.0004402 -0.00542793 0)
(0.00104073 -0.00641094 0)
(0.00173673 -0.00726697 0)
(0.00250984 -0.00795697 0)
(0.00333706 -0.00842891 0)
(0.0041855 -0.00864897 0)
(0.00501927 -0.00862327 0)
(0.00581048 -0.00839822 0)
(0.00654651 -0.0080414 0)
(0.00723006 -0.00761957 0)
(0.00787436 -0.00718493 0)
(0.00849669 -0.00676698 0)
(0.00911275 -0.0063761 0)
(0.00973538 -0.00601467 0)
(0.0103793 -0.00566385 0)
(0.0110591 -0.00520757 0)
(0.0117448 -0.00441627 0)
(0.0123092 -0.00317892 0)
(0.0126245 -0.00159557 0)
(0.0125998 0.000186541 0)
(0.0122109 0.00205934 0)
(0.0114699 0.00392407 0)
(0.0104033 0.00572617 0)
(0.00902138 0.00752897 0)
(0.0073045 0.00953679 0)
(0.00523709 0.0118443 0)
(0.00301635 0.0136305 0)
(0.00109561 0.0138659 0)
(0.000319533 0.0149178 0)
(0.000727479 0.0133942 0)
(0.0012327 0.00840261 0)
(0.000773839 0.00466958 0)
(0.000172254 0.00201811 0)
(-0.000130732 -0.000126957 0)
(-0.000248091 -0.00175998 0)
(-0.000543213 -0.00202604 0)
(-0.00182431 0.00158914 0)
(-0.00376412 0.00857381 0)
(-0.00576948 0.014342 0)
(-0.00717109 0.0170013 0)
(-0.00767738 0.0158979 0)
(-0.00767712 0.0120382 0)
(-0.00774515 0.00847878 0)
(-0.00810145 0.00671367 0)
(-0.00859403 0.00582214 0)
(-0.00915751 0.00529456 0)
(-0.00976535 0.00496356 0)
(-0.0103987 0.00475382 0)
(-0.0110464 0.00461931 0)
(-0.0117 0.00452492 0)
(-0.0123517 0.00444037 0)
(-0.0129923 0.00433842 0)
(-0.0136102 0.00419487 0)
(-0.0141921 0.00398937 0)
(-0.0147232 0.00370635 0)
(-0.0151888 0.00333606 0)
(-0.0155748 0.00287545 0)
(-0.0158701 0.00232859 0)
(-0.0160677 0.00170633 0)
(-0.0161663 0.00102534 0)
(-0.0161693 0.000306276 0)
(-0.0160835 -0.000429427 0)
(-0.0159203 -0.00116682 0)
(-0.0156842 -0.00189742 0)
(-0.0153778 -0.00261334 0)
(-0.0150032 -0.00330849 0)
(-0.0145615 -0.00397848 0)
(-0.0140534 -0.00461991 0)
(-0.0134793 -0.00522977 0)
(-0.0128401 -0.00580502 0)
(-0.0121376 -0.00634247 0)
(-0.0113753 -0.00683891 0)
(-0.0105582 -0.00729168 0)
(-0.00969347 -0.00769933 0)
(-0.00879008 -0.00806254 0)
(-0.00785865 -0.00838482 0)
(-0.00691084 -0.00867293 0)
(-0.00595846 -0.00893633 0)
(-0.00501224 -0.0091851 0)
(-0.00408047 -0.00942456 0)
(-0.00316801 -0.00964482 0)
(-0.00227719 -0.00980353 0)
(-0.0014125 -0.00980171 0)
(-0.000591225 -0.0094571 0)
(0.000179169 -0.00844174 0)
(0.000914825 -0.00622003 0)
(0.00156224 -0.00239863 0)
(0.00189357 0.00151224 0)
(0.00162387 0.00444003 0)
(0.000748952 0.00752505 0)
(0.000956575 0.0154747 0)
(-0.000465065 0.00941473 0)
(-0.000704321 0.00328696 0)
(-0.00127145 0.00221814 0)
(-0.00145017 0.00130911 0)
(-0.00147201 0.000202515 0)
(-0.00129503 -0.00108167 0)
(-0.000977412 -0.00240944 0)
(-0.000576957 -0.00364275 0)
(-0.000128751 -0.00477712 0)
(0.000379055 -0.00597076 0)
(0.000914443 -0.00703169 0)
(0.00154411 -0.00796914 0)
(0.00225255 -0.00872556 0)
(0.00301325 -0.00923414 0)
(0.00379052 -0.00945368 0)
(0.00454658 -0.00939413 0)
(0.00525441 -0.00911617 0)
(0.00590559 -0.00870475 0)
(0.00650859 -0.00823995 0)
(0.00708136 -0.00778059 0)
(0.00764268 -0.00735511 0)
(0.00820641 -0.00696947 0)
(0.00878052 -0.00662728 0)
(0.00937648 -0.00631782 0)
(0.010009 -0.00590685 0)
(0.0106675 -0.00505537 0)
(0.0112081 -0.00359738 0)
(0.0114762 -0.00169854 0)
(0.0113664 0.000439031 0)
(0.0108836 0.00266731 0)
(0.0100693 0.00486006 0)
(0.00896622 0.00696829 0)
(0.00757935 0.00908727 0)
(0.00587663 0.0114358 0)
(0.0038612 0.0139731 0)
(0.0018538 0.0155167 0)
(0.000316783 0.0150389 0)
(-0.000166487 0.0150966 0)
(0.000337465 0.0128128 0)
(0.000506606 0.00855428 0)
(-8.99552e-05 0.00520246 0)
(-0.00064615 0.00249052 0)
(-0.000965956 0.000100806 0)
(-0.00120809 -0.00153556 0)
(-0.00180477 -0.00114875 0)
(-0.00288085 0.00326728 0)
(-0.00414533 0.0101765 0)
(-0.0057015 0.0157379 0)
(-0.00679664 0.017816 0)
(-0.00716541 0.0160987 0)
(-0.00713892 0.0120558 0)
(-0.00722594 0.00870215 0)
(-0.00757231 0.00711776 0)
(-0.00803411 0.0063301 0)
(-0.00856412 0.0058634 0)
(-0.00913942 0.00556909 0)
(-0.00974351 0.00538155 0)
(-0.0103659 0.00525935 0)
(-0.010998 0.00516876 0)
(-0.0116315 0.00507887 0)
(-0.0122564 0.00496075 0)
(-0.0128604 0.00478827 0)
(-0.0134296 0.00453948 0)
(-0.0139489 0.00419819 0)
(-0.0144034 0.00375535 0)
(-0.0147799 0.00321022 0)
(-0.0150688 0.0025707 0)
(-0.0152653 0.00185272 0)
(-0.0153705 0.00107835 0)
(-0.01539 0.000273057 0)
(-0.0153316 -0.000539922 0)
(-0.0152047 -0.00134843 0)
(-0.0150123 -0.00214719 0)
(-0.0147549 -0.0029296 0)
(-0.0144327 -0.00369062 0)
(-0.0140453 -0.00442651 0)
(-0.0135918 -0.00513405 0)
(-0.0130717 -0.00580996 0)
(-0.012485 -0.00645035 0)
(-0.0118329 -0.00705071 0)
(-0.0111181 -0.00760607 0)
(-0.0103456 -0.00811167 0)
(-0.00952235 -0.00856396 0)
(-0.00865759 -0.00896161 0)
(-0.00776258 -0.00930652 0)
(-0.00685005 -0.00960449 0)
(-0.00593357 -0.00986514 0)
(-0.00502625 -0.0101001 0)
(-0.00413914 -0.0103181 0)
(-0.00327942 -0.0105134 0)
(-0.00245003 -0.0106463 0)
(-0.00165266 -0.0106139 0)
(-0.000896257 -0.0102201 0)
(-0.000205508 -0.00915986 0)
(0.000468024 -0.00690993 0)
(0.00105083 -0.00294914 0)
(0.00154348 0.00158475 0)
(0.00131067 0.00480756 0)
(0.000561271 0.0079218 0)
(0.000822836 0.0161731 0)
(-0.000402975 0.00992379 0)
(-0.000629714 0.00373967 0)
(-0.00112356 0.00250681 0)
(-0.00127207 0.00142793 0)
(-0.00127731 0.000139863 0)
(-0.00111172 -0.00130904 0)
(-0.000844891 -0.00273995 0)
(-0.000524568 -0.00403009 0)
(-0.000156972 -0.00521673 0)
(0.00027353 -0.00644288 0)
(0.000756843 -0.00759056 0)
(0.0013276 -0.0086102 0)
(0.00197547 -0.00943087 0)
(0.00267241 -0.0099721 0)
(0.00338094 -0.0101853 0)
(0.00406256 -0.0100861 0)
(0.00469229 -0.00975264 0)
(0.00526658 -0.00928951 0)
(0.0057993 -0.0087896 0)
(0.0063112 -0.00831544 0)
(0.00681949 -0.00789021 0)
(0.00733297 -0.00751186 0)
(0.00785141 -0.00718488 0)
(0.00838076 -0.00691077 0)
(0.00892624 -0.00655842 0)
(0.00951181 -0.00565826 0)
(0.00999905 -0.00395463 0)
(0.0101905 -0.00171235 0)
(0.00996897 0.000791713 0)
(0.00939699 0.00335359 0)
(0.00855111 0.00582973 0)
(0.00747515 0.00820196 0)
(0.00615216 0.0106098 0)
(0.00453704 0.0132609 0)
(0.00267846 0.0159075 0)
(0.00102477 0.0170439 0)
(-6.45241e-05 0.015895 0)
(-0.000305488 0.0150668 0)
(0.00013875 0.0124747 0)
(7.65485e-05 0.00890336 0)
(-0.000519529 0.00585279 0)
(-0.00111399 0.00302339 0)
(-0.00163432 0.000440271 0)
(-0.00207428 -0.00111531 0)
(-0.00275377 -0.000309441 0)
(-0.00338437 0.0043043 0)
(-0.00407515 0.0112536 0)
(-0.00526419 0.0168301 0)
(-0.0061724 0.0184855 0)
(-0.00650442 0.0162807 0)
(-0.00652078 0.0121061 0)
(-0.006654 0.0089332 0)
(-0.00700141 0.00750387 0)
(-0.00744112 0.00680927 0)
(-0.00794281 0.00640043 0)
(-0.00848753 0.00614348 0)
(-0.00906165 0.00598053 0)
(-0.00965603 0.00587373 0)
(-0.0102628 0.00579012 0)
(-0.0108739 0.00569787 0)
(-0.0114794 0.00556624 0)
(-0.0120671 0.00536714 0)
(-0.012623 0.00507722 0)
(-0.0131324 0.00467997 0)
(-0.0135808 0.00416753 0)
(-0.013956 0.00354203 0)
(-0.0142497 0.00281579 0)
(-0.0144587 0.00200999 0)
(-0.0145852 0.00115174 0)
(-0.0146354 0.000270029 0)
(-0.0146165 -0.000611612 0)
(-0.0145349 -0.00148451 0)
(-0.0143923 -0.00234663 0)
(-0.0141874 -0.00319253 0)
(-0.0139192 -0.00401788 0)
(-0.0135863 -0.00481927 0)
(-0.0131873 -0.00559343 0)
(-0.0127211 -0.00633658 0)
(-0.0121873 -0.00704392 0)
(-0.0115867 -0.00770952 0)
(-0.0109214 -0.00832652 0)
(-0.0101959 -0.008888 0)
(-0.00941701 -0.00938806 0)
(-0.00859363 -0.00982316 0)
(-0.00773698 -0.0101933 0)
(-0.00686008 -0.0105027 0)
(-0.00597727 -0.0107605 0)
(-0.00510325 -0.0109793 0)
(-0.00425146 -0.0111705 0)
(-0.00343185 -0.0113334 0)
(-0.00264927 -0.0114326 0)
(-0.00190471 -0.0113653 0)
(-0.00120238 -0.0109252 0)
(-0.000560551 -0.00978995 0)
(4.7078e-05 -0.0075387 0)
(0.000539741 -0.00356654 0)
(0.0011826 0.00168338 0)
(0.000973732 0.00508758 0)
(0.00038745 0.00821362 0)
(0.000710903 0.0167379 0)
(-0.00035055 0.0103768 0)
(-0.000569259 0.0041401 0)
(-0.0010102 0.00276004 0)
(-0.0011412 0.00152713 0)
(-0.00113805 7.51485e-05 0)
(-0.000994324 -0.00150611 0)
(-0.000785186 -0.00300389 0)
(-0.000537023 -0.00433981 0)
(-0.000232336 -0.00559195 0)
(0.000139116 -0.00685841 0)
(0.000580529 -0.00809537 0)
(0.00109832 -0.00919506 0)
(0.00168878 -0.0100761 0)
(0.00232436 -0.0106452 0)
(0.00296673 -0.0108468 0)
(0.00357768 -0.0107037 0)
(0.0041352 -0.0103146 0)
(0.00464086 -0.00980498 0)
(0.00511292 -0.0092786 0)
(0.00557257 -0.00879746 0)
(0.00603222 -0.0083749 0)
(0.00649341 -0.00799773 0)
(0.00694582 -0.00767078 0)
(0.00738806 -0.00740928 0)
(0.00780649 -0.0071128 0)
(0.00826168 -0.00618502 0)
(0.0086708 -0.00421015 0)
(0.00875779 -0.0016001 0)
(0.00840844 0.00125458 0)
(0.00777532 0.00408661 0)
(0.00696063 0.00677316 0)
(0.00597964 0.00936035 0)
(0.00477981 0.0120287 0)
(0.00331657 0.0149242 0)
(0.00171831 0.0175261 0)
(0.000520669 0.0181336 0)
(-0.000125419 0.0164402 0)
(-0.000194767 0.0149395 0)
(0.00013675 0.012317 0)
(-6.40935e-06 0.00930282 0)
(-0.000511596 0.00651244 0)
(-0.00111252 0.00371555 0)
(-0.0018584 0.00105766 0)
(-0.00261365 -0.000551467 0)
(-0.00331409 0.000336292 0)
(-0.00355748 0.00479482 0)
(-0.00367083 0.0118283 0)
(-0.00453746 0.0177082 0)
(-0.00535515 0.0191098 0)
(-0.0057316 0.0165168 0)
(-0.00583864 0.0122244 0)
(-0.00603309 0.00918661 0)
(-0.00638866 0.00788126 0)
(-0.00681299 0.00726606 0)
(-0.00729096 0.00690939 0)
(-0.00780762 0.00668802 0)
(-0.00835221 0.00654998 0)
(-0.00891745 0.00646018 0)
(-0.00949673 0.00638603 0)
(-0.0100829 0.00629447 0)
(-0.010667 0.00615283 0)
(-0.0112375 0.00593102 0)
(-0.0117813 0.00560432 0)
(-0.012284 0.00515602 0)
(-0.012732 0.00457968 0)
(-0.0131141 0.00388057 0)
(-0.0134226 0.00307548 0)
(-0.0136551 0.00219058 0)
(-0.0138136 0.00125722 0)
(-0.013903 0.000306591 0)
(-0.0139289 -0.000638191 0)
(-0.0138943 -0.00157158 0)
(-0.013801 -0.00249464 0)
(-0.0136465 -0.00340278 0)
(-0.0134292 -0.00429195 0)
(-0.0131476 -0.00515871 0)
(-0.0128004 -0.00599957 0)
(-0.0123865 -0.00681027 0)
(-0.0119054 -0.00758522 0)
(-0.0113573 -0.00831716 0)
(-0.0107441 -0.00899745 0)
(-0.0100695 -0.00961692 0)
(-0.00933962 -0.0101673 0)
(-0.00856284 -0.0106429 0)
(-0.00774973 -0.0110415 0)
(-0.00691284 -0.0113656 0)
(-0.00606642 -0.0116232 0)
(-0.0052258 -0.0118267 0)
(-0.00440601 -0.0119897 0)
(-0.00361955 -0.0121158 0)