/*--------------------------------*- C++ -*----------------------------------*\
| =========                 |                                                 |
| \\      /  F ield         | OpenFOAM: The Open Source CFD Toolbox           |
|  \\    /   O peration     | Version:  4.1                                   |
|   \\  /    A nd           | Web:      www.OpenFOAM.org                      |
|    \\/     M anipulation  |                                                 |
\*---------------------------------------------------------------------------*/
FoamFile
{
    version     2.0;
    format      ascii;
    class       volScalarField;
    location    "240";
    object      T;
}
// * * * * * * * * * * * * * * * * * * * * * * * * * * * * * * * * * * * * * //

dimensions      [0 0 0 1 0 0 0];

internalField   nonuniform List<scalar> 
5000
(
284.806
284.511
284.319
284.16
284.018
283.886
283.76
283.638
283.52
283.405
283.291
283.178
283.066
282.953
282.838
282.721
282.605
282.503
282.416
282.342
282.281
282.231
282.191
282.16
282.138
282.124
282.117
282.117
282.122
282.134
282.15
282.172
282.199
282.232
282.273
282.332
282.418
282.619
282.895
283.077
283.133
283.109
283.048
282.972
282.875
282.736
282.539
282.419
282.374
282.369
282.372
282.371
282.361
282.346
282.33
282.316
282.306
282.302
282.305
282.314
282.33
282.353
282.381
282.414
282.451
282.49
282.531
282.573
282.614
282.653
282.691
282.726
282.761
282.795
282.832
282.874
282.923
282.983
283.054
283.138
283.223
283.309
283.396
283.486
283.578
283.676
283.785
283.913
284.061
283.879
283.033
282.697
282.441
282.265
282.154
282.095
282.072
282.025
282.51
283.054
283.877
282.915
282.33
281.954
281.686
281.479
281.31
281.164
281.037
280.925
280.826
280.742
280.671
280.617
280.578
280.557
280.55
280.545
280.54
280.537
280.534
280.532
280.531
280.53
280.53
280.531
280.531
280.532
280.534
280.536
280.538
280.54
280.542
280.545
280.548
280.553
280.558
280.569
280.582
280.592
280.601
280.606
280.604
280.6
280.596
280.593
280.589
280.585
280.58
280.575
280.57
280.565
280.56
280.556
280.551
280.547
280.544
280.54
280.537
280.534
280.531
280.529
280.527
280.525
280.523
280.521
280.52
280.518
280.517
280.515
280.514
280.512
280.511
280.509
280.508
280.507
280.505
280.504
280.504
280.507
280.523
280.558
280.614
280.697
280.815
280.986
281.256
281.736
282.492
283.018
282.36
280.687
280.614
280.605
280.596
280.589
280.587
280.59
280.723
282.234
283.401
282.235
281.603
281.249
281.03
280.883
280.778
280.701
280.642
280.597
280.564
280.54
280.523
280.511
280.504
280.499
280.496
280.494
280.493
280.492
280.492
280.492
280.493
280.494
280.495
280.497
280.498
280.499
280.501
280.502
280.504
280.505
280.507
280.509
280.511
280.514
280.517
280.524
280.537
280.553
280.568
280.582
280.593
280.6
280.604
280.605
280.604
280.602
280.598
280.592
280.586
280.579
280.572
280.565
280.559
280.553
280.547
280.542
280.537
280.533
280.53
280.527
280.524
280.521
280.519
280.516
280.514
280.512
280.51
280.508
280.505
280.503
280.501
280.498
280.496
280.493
280.49
280.487
280.484
280.481
280.479
280.479
280.484
280.499
280.532
280.6
280.747
281.078
281.731
282.4
282.196
281.216
280.618
280.608
280.595
280.58
280.571
280.571
280.666
281.984
283.101
281.865
281.258
280.953
280.785
280.684
280.618
280.574
280.543
280.521
280.505
280.494
280.487
280.482
280.48
280.479
280.48
280.481
280.483
280.485
280.487
280.489
280.491
280.493
280.495
280.497
280.499
280.501
280.502
280.504
280.505
280.506
280.507
280.508
280.508
280.509
280.51
280.512
280.518
280.527
280.538
280.551
280.564
280.577
280.588
280.597
280.604
280.607
280.608
280.606
280.602
280.595
280.588
280.58
280.572
280.564
280.557
280.551
280.545
280.54
280.536
280.533
280.53
280.528
280.526
280.524
280.522
280.52
280.518
280.516
280.514
280.512
280.51
280.507
280.504
280.501
280.498
280.494
280.491
280.487
280.483
280.479
280.477
280.477
280.486
280.513
280.592
280.807
281.306
281.946
282.023
281.472
280.881
280.645
280.624
280.593
280.572
280.567
280.629
281.852
282.891
281.635
281.067
280.806
280.674
280.599
280.554
280.524
280.505
280.491
280.482
280.477
280.475
280.474
280.476
280.479
280.482
280.485
280.488
280.491
280.494
280.497
280.5
280.503
280.506
280.509
280.512
280.514
280.516
280.518
280.52
280.521
280.521
280.522
280.522
280.521
280.52
280.519
280.52
280.521
280.524
280.529
280.535
280.543
280.551
280.56
280.568
280.576
280.582
280.586
280.588
280.587
280.584
280.578
280.572
280.565
280.558
280.552
280.547
280.542
280.538
280.535
280.533
280.531
280.53
280.529
280.528
280.527
280.525
280.524
280.522
280.52
280.518
280.515
280.512
280.508
280.504
280.5
280.496
280.491
280.486
280.482
280.477
280.474
280.475
280.487
280.531
280.676
281.053
281.615
281.842
281.562
281.14
280.812
280.679
280.62
280.579
280.566
280.603
281.773
282.735
281.478
280.948
280.722
280.614
280.556
280.522
280.5
280.487
280.479
280.474
280.473
280.475
280.478
280.482
280.486
280.49
280.494
280.498
280.501
280.504
280.508
280.511
280.515
280.519
280.523
280.527
280.531
280.534
280.536
280.538
280.54
280.541
280.541
280.541
280.54
280.538
280.536
280.534
280.531
280.529
280.528
280.528
280.528
280.531
280.534
280.538
280.544
280.549
280.555
280.559
280.562
280.563
280.562
280.559
280.556
280.552
280.547
280.543
280.54
280.537
280.535
280.534
280.533
280.533
280.533
280.533
280.532
280.532
280.531
280.529
280.528
280.525
280.522
280.519
280.514
280.51
280.505
280.499
280.494
280.488
280.483
280.478
280.473
280.471
280.476
280.504
280.606
280.896
281.377
281.673
281.57
281.274
281.013
280.795
280.667
280.596
280.568
280.589
281.724
282.613
281.365
280.868
280.669
280.578
280.531
280.504
280.487
280.478
280.474
280.474
280.476
280.48
280.485
280.49
280.495
280.499
280.503
280.506
280.509
280.512
280.516
280.52
280.525
280.53
280.536
280.542
280.547
280.551
280.555
280.558
280.559
280.561
280.561
280.561
280.56
280.558
280.556
280.552
280.549
280.545
280.541
280.537
280.534
280.531
280.53
280.53
280.531
280.532
280.535
280.538
280.541
280.543
280.544
280.544
280.544
280.542
280.54
280.538
280.536
280.535
280.534
280.534
280.534
280.535
280.536
280.537
280.537
280.537
280.537
280.536
280.534
280.532
280.528
280.524
280.519
280.514
280.508
280.501
280.495
280.489
280.483
280.477
280.471
280.468
280.47
280.489
280.567
280.797
281.207
281.529
281.538
281.341
281.119
280.915
280.736
280.624
280.574
280.582
281.689
282.514
281.279
280.812
280.634
280.555
280.515
280.493
280.481
280.475
280.474
280.477
280.481
280.487
280.493
280.498
280.502
280.506
280.509
280.512
280.514
280.517
280.521
280.526
280.533
280.54
280.548
280.556
280.563
280.569
280.573
280.576
280.579
280.58
280.581
280.58
280.579
280.578
280.575
280.572
280.568
280.564
280.559
280.554
280.549
280.544
280.54
280.536
280.533
280.532
280.531
280.531
280.532
280.533
280.534
280.535
280.535
280.535
280.534
280.534
280.533
280.533
280.533
280.534
280.535
280.537
280.539
280.541
280.542
280.543
280.543
280.542
280.541
280.538
280.534
280.529
280.523
280.516
280.509
280.502
280.495
280.488
280.481
280.475
280.469
280.465
280.465
280.481
280.544
280.734
281.091
281.416
281.494
281.367
281.178
280.987
280.795
280.655
280.584
280.578
281.66
282.432
281.211
280.77
280.609
280.539
280.505
280.486
280.477
280.475
280.477
280.481
280.487
280.494
280.5
280.505
280.508
280.511
280.514
280.516
280.518
280.52
280.524
280.531
280.539
280.55
280.561
280.571
280.58
280.587
280.591
280.595
280.597
280.599
280.599
280.599
280.598
280.597
280.594
280.591
280.588
280.583
280.578
280.572
280.567
280.561
280.555
280.549
280.544
280.54
280.536
280.534
280.532
280.532
280.531
280.531
280.531
280.531
280.531
280.531
280.532
280.532
280.533
280.535
280.537
280.539
280.542
280.544
280.547
280.548
280.549
280.548
280.546
280.543
280.538
280.532
280.525
280.517
280.509
280.501
280.493
280.485
280.478
280.471
280.466
280.462
280.462
280.475
280.531
280.697
281.016
281.334
281.451
281.37
281.204
281.017
280.828
280.679
280.594
280.577
281.633
282.362
281.156
280.738
280.591
280.528
280.497
280.482
280.476
280.476
280.48
280.486
280.493
280.499
280.505
280.509
280.513
280.515
280.517
280.518
280.52
280.522
280.526
280.534
280.546
280.56
280.575
280.587
280.597
280.604
280.609
280.613
280.615
280.617
280.617
280.617
280.616
280.614
280.612
280.609
280.605
280.601
280.595
280.59
280.584
280.577
280.571
280.564
280.558
280.552
280.546
280.542
280.538
280.536
280.534
280.533
280.532
280.531
280.531
280.531
280.532
280.532
280.534
280.536
280.539
280.542
280.545
280.548
280.551
280.553
280.554
280.554
280.551
280.547
280.542
280.534
280.526
280.517
280.507
280.498
280.489
280.481
280.474
280.467
280.462
280.458
280.459
280.473
280.526
280.68
280.975
281.284
281.417
281.36
281.206
281.02
280.837
280.689
280.601
280.576
281.604
282.301
281.111
280.713
280.577
280.52
280.492
280.48
280.476
280.478
280.484
280.491
280.498
280.504
280.509
280.513
280.515
280.517
280.519
280.52
280.52
280.522
280.527
280.538
280.554
280.573
280.59
280.605
280.615
280.622
280.627
280.63
280.632
280.633
280.633
280.632
280.631
280.629
280.626
280.623
280.619
280.615
280.61
280.605
280.598
280.592
280.585
280.578
280.571
280.564
280.557
280.552
280.547
280.543
280.539
280.537
280.535
280.534
280.533
280.533
280.533
280.534
280.535
280.538
280.541
280.545
280.549
280.553
280.556
280.559
280.56
280.559
280.556
280.551
280.544
280.535
280.525
280.514
280.504
280.494
280.484
280.476
280.469
280.463
280.458
280.455
280.457
280.473
280.529
280.681
280.965
281.263
281.395
281.342
281.189
281.001
280.824
280.686
280.602
280.575
281.573
282.249
281.074
280.693
280.566
280.513
280.489
280.479
280.477
280.481
280.487
280.494
280.501
280.507
280.511
280.514
280.517
280.519
280.521
280.521
280.52
280.521
280.528
280.543
280.564
280.587
280.608
280.623
280.633
280.639
280.643
280.645
280.646
280.646
280.645
280.644
280.642
280.64
280.637
280.634
280.63
280.626
280.621
280.616
280.61
280.603
280.596
280.589
280.582
280.574
280.567
280.561
280.555
280.55
280.546
280.542
280.539
280.537
280.536
280.535
280.535
280.536
280.538
280.541
280.544
280.549
280.553
280.558
280.562
280.564
280.565
280.564
280.56
280.554
280.545
280.534
280.523
280.511
280.499
280.488
280.479
280.471
280.464
280.458
280.454
280.452
280.456
280.476
280.541
280.701
280.985
281.27
281.382
281.313
281.151
280.963
280.795
280.672
280.597
280.572
281.538
282.202
281.042
280.677
280.557
280.509
280.486
280.478
280.478
280.483
280.49
280.497
280.504
280.509
280.512
280.515
280.518
280.521
280.522
280.522
280.519
280.52
280.529
280.549
280.577
280.604
280.627
280.641
280.65
280.654
280.656
280.656
280.656
280.655
280.653
280.651
280.649
280.647
280.644
280.64
280.637
280.632
280.628
280.622
280.617
280.61
280.604
280.596
280.589
280.582
280.575
280.568
280.562
280.556
280.551
280.547
280.543
280.541
280.539
280.538
280.538
280.539
280.541
280.545
280.549
280.554
280.559
280.563
280.567
280.57
280.57
280.568
280.563
280.555
280.544
280.532
280.519
280.505
280.493
280.482
280.473
280.465
280.458
280.454
280.45
280.45
280.458
280.487
280.566
280.746
281.036
281.298
281.367
281.268
281.093
280.907
280.754
280.65
280.588
280.569
281.501
282.16
281.015
280.664
280.551
280.505
280.485
280.478
280.479
280.485
280.492
280.499
280.505
280.509
280.512
280.514
280.518
280.522
280.524
280.522
280.517
280.518
280.532
280.559
280.592
280.623
280.646
280.659
280.665
280.666
280.665
280.663
280.661
280.659
280.657
280.654
280.652
280.649
280.646
280.643
280.639
280.635
280.63
280.625
280.62
280.614
280.607
280.601
280.594
280.586
280.579
280.573
280.566
280.561
280.555
280.551
280.547
280.544
280.542
280.541
280.542
280.543
280.546
280.549
280.554
280.559
280.565
280.57
280.574
280.576
280.576
280.572
280.565
280.555
280.542
280.528
280.513
280.499
280.486
280.475
280.466
280.459
280.454
280.45
280.448
280.451
280.466
280.51
280.616
280.829
281.115
281.325
281.336
281.198
281.012
280.838
280.706
280.622
280.577
280.566
281.464
282.123
280.991
280.653
280.545
280.502
280.484
280.478
280.48
280.486
280.494
280.5
280.505
280.508
280.511
280.514
280.519
280.524
280.526
280.521
280.515
280.517
280.536
280.571
280.61
280.643
280.665
280.675
280.676
280.673
280.669
280.665
280.662
280.659
280.656
280.654
280.651
280.648
280.645
280.642
280.639
280.635
280.631
280.626
280.621
280.615
280.609
280.602
280.596
280.589
280.582
280.576
280.57
280.564
280.559
280.554
280.551
280.548
280.546
280.546
280.547
280.549
280.552
280.556
280.561
280.567
280.572
280.577
280.581
280.582
280.581
280.576
280.566
280.554
280.538
280.522
280.506
280.492
280.479
280.468
280.46
280.454
280.449
280.447
280.448
280.458
280.49
280.567
280.722
280.943
281.185
281.329
281.272
281.097
280.913
280.762
280.661
280.601
280.57
280.564
281.427
282.089
280.971
280.644
280.541
280.5
280.483
280.478
280.481
280.487
280.495
280.501
280.505
280.507
280.509
280.513
280.52
280.527
280.527
280.519
280.511
280.517
280.544
280.587
280.63
280.663
280.681
280.686
280.682
280.675
280.669
280.664
280.659
280.656
280.653
280.65
280.648
280.645
280.643
280.641
280.638
280.635
280.631
280.626
280.621
280.616
280.61
280.604
280.598
280.591
280.585
280.579
280.573
280.568
280.563
280.559
280.556
280.553
280.552
280.552
280.554
280.556
280.56
280.564
280.57
280.575
280.581
280.586
280.589
280.589
280.586
280.578
280.566
280.55
280.532
280.514
280.498
280.483
280.471
280.462
280.455
280.45
280.447
280.447
280.458
280.489
280.561
280.679
280.847
281.047
281.23
281.298
281.166
280.969
280.806
280.693
280.625
280.587
280.565
280.562
281.393
282.058
280.953
280.636
280.537
280.498
280.482
280.478
280.482
280.488
280.495
280.501
280.504
280.506
280.508
280.513
280.522
280.53
280.528
280.516
280.508
280.519
280.555
280.605
280.651
280.681
280.694
280.692
280.683
280.673
280.665
280.659
280.655
280.652
280.649
280.647
280.646
280.644
280.643
280.642
280.64
280.638
280.634
280.63
280.625
280.62
280.615
280.609
280.603
280.597
280.59
280.585
280.579
280.574
280.57
280.566
280.563
280.562
280.561
280.562
280.564
280.566
280.57
280.575
280.58
280.586
280.591
280.595
280.596
280.595
280.589
280.578
280.563
280.544
280.524
280.506
280.489
280.475
280.464
280.456
280.45
280.447
280.449
280.463
280.502
280.571
280.672
280.804
280.961
281.121
281.234
281.221
281.015
280.832
280.713
280.643
280.604
280.58
280.563
280.562
281.361
282.031
280.938
280.629
280.534
280.497
280.482
280.478
280.482
280.489
280.496
280.501
280.503
280.504
280.507
280.513
280.525
280.533
280.527
280.512
280.505
280.524
280.569
280.624
280.671
280.696
280.701
280.693
280.679
280.667
280.659
280.654
280.65
280.648
280.647
280.647
280.646
280.647
280.648
280.648
280.647
280.646
280.643
280.639
280.635
280.63
280.625
280.619
280.613
280.607
280.601
280.596
280.59
280.586
280.582
280.578
280.576
280.575
280.574
280.575
280.577
280.58
280.584
280.588
280.593
280.598
280.602
280.604
280.604
280.6
280.591
280.577
280.558
280.536
280.515
280.495
280.479
280.467
280.458
280.451
280.449
280.453
280.476
280.522
280.59
280.68
280.79
280.915
281.044
281.15
281.189
281.092
280.847
280.719
280.652
280.618
280.597
280.579
280.563
280.562
281.333
282.005
280.924
280.624
280.532
280.496
280.481
280.478
280.482
280.489
280.496
280.5
280.502
280.503
280.506
280.514
280.529
280.537
280.525
280.506
280.503
280.531
280.585
280.644
280.688
280.706
280.704
280.69
280.673
280.661
280.653
280.65
280.648
280.648
280.648
280.65
280.652
280.655
280.658
280.66
280.66
280.66
280.657
280.654
280.65
280.646
280.64
280.635
280.629
280.624
280.618
280.613
280.608
280.603
280.599
280.596
280.594
280.592
280.592
280.593
280.594
280.596
280.6
280.603
280.607
280.61
280.613
280.614
280.611
280.604
280.591
280.572
280.549
280.526
280.504
280.485
280.47
280.46
280.453
280.451
280.462
280.494
280.543
280.611
280.694
280.789
280.892
280.994
281.082
281.129
281.094
280.924
280.717
280.656
280.63
280.615
280.6
280.582
280.565
280.562
281.308
281.982
280.912
280.619
280.53
280.495
280.481
280.478
280.482
280.489
280.495
280.5
280.502
280.502
280.505
280.516
280.535
280.539
280.521
280.5
280.503
280.541
280.602
280.662
280.701
280.712
280.703
280.684
280.667
280.656
280.65
280.648
280.649
280.651
280.653
280.657
280.662
280.667
280.672
280.676
280.678
280.678
280.676
280.674
280.67
280.666
280.661
280.656
280.651
280.645
280.64
280.635
280.63
280.625
280.621
280.618
280.616
280.614
280.613
280.613
280.614
280.615
280.617
280.619
280.622
280.624
280.624
280.623
280.617
280.605
280.587
280.564
280.538
280.513
280.491
280.474
280.462
280.455
280.456
280.475
280.512
280.564
280.631
280.708
280.792
280.879
280.962
281.03
281.07
281.058
280.964
280.766
280.657
280.64
280.633
280.623
280.607
280.586
280.567
280.563
281.286
281.96
280.901
280.615
280.529
280.494
280.481
280.478
280.482
280.489
280.495
280.499
280.501
280.501
280.504
280.52
280.541
280.54
280.515
280.494
280.504
280.552
280.618
280.678
280.711
280.715
280.7
280.68
280.663
280.654
280.651
280.651
280.653
280.657
280.662
280.668
280.674
280.682
280.689
280.695
280.698
280.698
280.697
280.695
280.692
280.688
280.683
280.679
280.674
280.668
280.663
280.658
280.654
280.649
280.646
280.642
280.639
280.637
280.635
280.634
280.634
280.634
280.635
280.635
280.636
280.636
280.634
280.629
280.619
280.603
280.58
280.552
280.524
280.499
280.479
280.465
280.457
280.462
280.488
280.528
280.582
280.647
280.72
280.795
280.869
280.936
280.989
281.018
281.01
280.949
280.825
280.679
280.65
280.648
280.644
280.633
280.615
280.59
280.569
280.563
281.267
281.941
280.892
280.612
280.527
280.494
280.48
280.478
280.482
280.488
280.494
280.498
280.499
280.499
280.505
280.525
280.547
280.538
280.508
280.489
280.508
280.563
280.633
280.69
280.717
280.715
280.697
280.677
280.662
280.655
280.654
280.657
280.661
280.667
280.673
280.681
280.689
280.698
280.706
280.714
280.717
280.718
280.718
280.716
280.713
280.709
280.705
280.7
280.695
280.69
280.686
280.681
280.677
280.672
280.668
280.665
280.662
280.659
280.657
280.655
280.653
280.652
280.651
280.65
280.649
280.646
280.642
280.633
280.618
280.596
280.567
280.537
280.508
280.484
280.468
280.46
280.469
280.498
280.541
280.596
280.659
280.727
280.795
280.859
280.914
280.954
280.972
280.962
280.915
280.829
280.721
280.661
280.662
280.661
280.653
280.641
280.621
280.594
280.571
280.564
281.251
281.922
280.883
280.609
280.527
280.494
280.48
280.478
280.482
280.488
280.494
280.497
280.498
280.498
280.506
280.533
280.553
280.535
280.499
280.485
280.511
280.573
280.644
280.698
280.721
280.716
280.696
280.677
280.665
280.66
280.661
280.666
280.671
280.678
280.686
280.694
280.703
280.713
280.723
280.731
280.735
280.736
280.736
280.733
280.73
280.727
280.722
280.718
280.713
280.708
280.704
280.699
280.695
280.691
280.687
280.683
280.68
280.677
280.674
280.671
280.669
280.667
280.664
280.662
280.658
280.653
280.645
280.632
280.612
280.583
280.551
280.518
280.49
280.471
280.462
280.476
280.506
280.55
280.604
280.665
280.729
280.791
280.847
280.892
280.922
280.932
280.919
280.878
280.813
280.736
280.681
280.671
280.674
280.669
280.66
280.647
280.626
280.597
280.572
280.565
281.237
281.905
280.876
280.607
280.526
280.493
280.48
280.478
280.481
280.487
280.493
280.496
280.496
280.496
280.508
280.543
280.557
280.529
280.491
280.481
280.515
280.581
280.652
280.704
280.724
280.717
280.699
280.681
280.671
280.669
280.671
280.677
280.683
280.69
280.698
280.706
280.716
280.727
280.737
280.746
280.75
280.751
280.75
280.748
280.744
280.74
280.735
280.73
280.725
280.72
280.715
280.71
280.706
280.702
280.698
280.695
280.692
280.689
280.686
280.683
280.68
280.677
280.673
280.669
280.664
280.657
280.645
280.626
280.599
280.565
280.53
280.498
280.475
280.465
280.481
280.512
280.555
280.608
280.667
280.727
280.784
280.833
280.871
280.894
280.898
280.882
280.845
280.793
280.737
280.695
280.682
280.684
280.682
280.675
280.664
280.65
280.63
280.599
280.572
280.565
281.226
281.889
280.869
280.605
280.525
280.493
280.48
280.477
280.481
280.486
280.491
280.494
280.494
280.495
280.513
280.553
280.56
280.523
280.483
280.478
280.517
280.585
280.656
280.707
280.726
280.721
280.704
280.689
280.681
280.68
280.683
280.689
280.695
280.702
280.709
280.717
280.727
280.739
280.75
280.758
280.762
280.763
280.761
280.758
280.753
280.748
280.742
280.736
280.73
280.724
280.719
280.714
280.709
280.705
280.702
280.699
280.696
280.693
280.691
280.688
280.685
280.682
280.677
280.672
280.665
280.655
280.639
280.614
280.58
280.542
280.506
280.479
280.468
280.484
280.515
280.557
280.608
280.664
280.721
280.774
280.819
280.851
280.869
280.869
280.852
280.819
280.776
280.733
280.703
280.692
280.693
280.694
280.688
280.679
280.667
280.652
280.632
280.599
280.572
280.565
281.217
281.874
280.863
280.603
280.525
280.493
280.48
280.477
280.48
280.485
280.49
280.492
280.492
280.495
280.522
280.564
280.56
280.515
280.476
280.475
280.517
280.586
280.657
280.708
280.729
280.726
280.713
280.7
280.694
280.694
280.698
280.703
280.708
280.713
280.719
280.727
280.737
280.749
280.76
280.768
280.771
280.771
280.768
280.764
280.758
280.751
280.743
280.736
280.728
280.721
280.715
280.709
280.704
280.7
280.697
280.695
280.693
280.691
280.689
280.687
280.685
280.681
280.677
280.671
280.662
280.649
280.627
280.594
280.554
280.515
280.483
280.471
280.485
280.515
280.556
280.605
280.659
280.713
280.762
280.803
280.833
280.847
280.846
280.829
280.8
280.764
280.731
280.708
280.701
280.703
280.705
280.701
280.694
280.683
280.67
280.653
280.633
280.598
280.571
280.566
281.211
281.86
280.857
280.601
280.525
280.494
280.48
280.477
280.479
280.484
280.488
280.49
280.49
280.497
280.533
280.574
280.559
280.508
280.47
280.472
280.515
280.584
280.654
280.706
280.731
280.733
280.724
280.715
280.71
280.711
280.714
280.718
280.721
280.724
280.728
280.735
280.745
280.758
280.769
280.776
280.778
280.777
280.772
280.766
280.758
280.749
280.74
280.73
280.721
280.712
280.704
280.698
280.692
280.688
280.685
280.683
280.682
280.681
280.681
280.68
280.678
280.676
280.671
280.665
280.655
280.637
280.607
280.567
280.523
280.488
280.472
280.485
280.514
280.553
280.6
280.651
280.702
280.749
280.788
280.816
280.829
280.827
280.812
280.787
280.757
280.73
280.713
280.709
280.712
280.715
280.714
280.709
280.7
280.688
280.672
280.655
280.633
280.596
280.571
280.566
281.206
281.847
280.852
280.6
280.525
280.494
280.48
280.476
280.478
280.483
280.487
280.488
280.489
280.5
280.547
280.584
280.558
280.502
280.465
280.468
280.51
280.577
280.648
280.703
280.733
280.741
280.737
280.732
280.729
280.73
280.732
280.734
280.735
280.735
280.737
280.742
280.752
280.765
280.775
280.782
280.783
280.78
280.774
280.765
280.755
280.744
280.732
280.72
280.708
280.697
280.688
280.68
280.673
280.669
280.666
280.665
280.665
280.666
280.667
280.668
280.667
280.666
280.662
280.655
280.642
280.617
280.578
280.531
280.491
280.473
280.485
280.511
280.548
280.592
280.641
280.69
280.736
280.773
280.8
280.813
280.813
280.8
280.778
280.753
280.731
280.718
280.716
280.719
280.724
280.726
280.723
280.717
280.707
280.693
280.676
280.657
280.634
280.596
280.57
280.566
281.202
281.835
280.848
280.599
280.525
280.494
280.48
280.476
280.478
280.481
280.485
280.486
280.488
280.506
280.562
280.593
280.557
280.498
280.461
280.463
280.503
280.568
280.639
280.697
280.733
280.749
280.752
280.75
280.75
280.751
280.752
280.752
280.749
280.746
280.745
280.748
280.757
280.77
280.781
280.786
280.785
280.781
280.773
280.762
280.75
280.735
280.721
280.706
280.692
280.679
280.667
280.657
280.65
280.645
280.642
280.642
280.643
280.645
280.649
280.652
280.653
280.652
280.649
280.641
280.623
280.586
280.535
280.491
280.473
280.484
280.508
280.543
280.584
280.63
280.677
280.722
280.759
280.786
280.8
280.802
280.791
280.773
280.752
280.733
280.723
280.722
280.726
280.732
280.736
280.736
280.733
280.727
280.715
280.7
280.681
280.66
280.634
280.598
280.569
280.566
281.2
281.823
280.844
280.599
280.525
280.495
280.48
280.476
280.477
280.48
280.483
280.485
280.488
280.514
280.579
280.601
280.557
280.497
280.459
280.458
280.494
280.556
280.626
280.688
280.731
280.755
280.766
280.77
280.772
280.774
280.774
280.771
280.766
280.759
280.753
280.754
280.762
280.774
280.784
280.789
280.787
280.78
280.77
280.757
280.742
280.725
280.708
280.69
280.673
280.657
280.643
280.632
280.623
280.617
280.615
280.615
280.617
280.622
280.627
280.632
280.635
280.636
280.633
280.622
280.593
280.536
280.485
280.472
280.482
280.505
280.537
280.576
280.619
280.664
280.707
280.744
280.772
280.788
280.792
280.785
280.77
280.752
280.736
280.727
280.726
280.731
280.737
280.743
280.746
280.746
280.744
280.737
280.725
280.708
280.687
280.664
280.637
280.602
280.568
280.566
281.198
281.813
280.84
280.598
280.526
280.495
280.481
280.476
280.476
280.479
280.481
280.483
280.489
280.523
280.595
280.61
280.56
280.499
280.46
280.454
280.485
280.542
280.612
280.677
280.727
280.76
280.779
280.79
280.796
280.799
280.799
280.794
280.785
280.773
280.762
280.759
280.766
280.777
280.787
280.79
280.787
280.778
280.765
280.75
280.732
280.713
280.693
280.672
280.652
280.634
280.618
280.604
280.594
280.588
280.585
280.586
280.59
280.596
280.604
280.611
280.616
280.618
280.613
280.595
280.537
280.475
280.468
280.479
280.501
280.531
280.567
280.608
280.651
280.693
280.73
280.758
280.777
280.784
280.78
280.768
280.752
280.738
280.73
280.729
280.734
280.74
280.747
280.752
280.755
280.756
280.755
280.748
280.735
280.717
280.695
280.67
280.643
280.607
280.568
280.566
281.196
281.803
280.837
280.598
280.527
280.496
280.481
280.475
280.475
280.477
280.48
280.483
280.492
280.53
280.61
280.621
280.567
280.505
280.463
280.452
280.476
280.528
280.595
280.664
280.721
280.763
280.791
280.809
280.82
280.826
280.826
280.82
280.806
280.789
280.773
280.765
280.769
280.78
280.789
280.791
280.786
280.775
280.76
280.742
280.722
280.7
280.678
280.655
280.632
280.611
280.592
280.577
280.565
280.558
280.555
280.556
280.562
280.57
280.581
280.589
280.594
280.591
280.576
280.538
280.479
280.46
280.475
280.498
280.526
280.559
280.598
280.638
280.679
280.715
280.745
280.766
280.775
280.775
280.766
280.753
280.741
280.733
280.731
280.735
280.741
280.748
280.754
280.76
280.764
280.767
280.767
280.761
280.747
280.727
280.703
280.678
280.65
280.612
280.569
280.566
281.194
281.794
280.835
280.598
280.527
280.497
280.482
280.476
280.475
280.477
280.479
280.484
280.498
280.541
280.617
280.633
280.578
280.516
280.471
280.454
280.469
280.514
280.579
280.649
280.712
280.763
280.801
280.827
280.845
280.855
280.857
280.849
280.832
280.809
280.786
280.772
280.772
280.781
280.79
280.792
280.785
280.772
280.755
280.735
280.712
280.688
280.662
280.637
280.612
280.588
280.567
280.55
280.537
280.529
280.526
280.528
280.534
280.544
280.554
280.559
280.558
280.547
280.521
280.485
280.461
280.47
280.494
280.521
280.552
280.588
280.626
280.665
280.701
280.732
280.754
280.767
280.77
280.765
280.754
280.743
280.735
280.732
280.734
280.74
280.747
280.754
280.761
280.768
280.774
280.779
280.781
280.775
280.759
280.738
280.712
280.685
280.658
280.621
280.574
280.568
281.193
281.785
280.833
280.599
280.528
280.498
280.482
280.476
280.475
280.476
280.479
280.486
280.505
280.552
280.622
280.644
280.594
280.533
280.484
280.46
280.466
280.503
280.562
280.633
280.702
280.761
280.808
280.844
280.87
280.885
280.89
280.882
280.862
280.833
280.803
280.781
280.775
280.782
280.79
280.791
280.784
280.769
280.75
280.728
280.703
280.676
280.649
280.621
280.593
280.568
280.545
280.526
280.512
280.503
280.499
280.501
280.506
280.513
280.517
280.518
280.512
280.497
280.477
280.464
280.468
280.489
280.516
280.546
280.579
280.615
280.652
280.687
280.718
280.743
280.758
280.765
280.763
280.755
280.745
280.736
280.732
280.733
280.738
280.745
280.752
280.761
280.769
280.776
280.784
280.791
280.795
280.79
280.772
280.75
280.723
280.694
280.666
280.632
280.581
280.573
281.191
281.777
280.832
280.6
280.529
280.499
280.483
280.477
280.475
280.476
280.48
280.489
280.514
280.563
280.625
280.646
280.616
280.556
280.504
280.473
280.469
280.496
280.548
280.617
280.689
280.756
280.813
280.858
280.893
280.916
280.925
280.919
280.898
280.863
280.824
280.793
280.78
280.783
280.79
280.791
280.782
280.766
280.746
280.721
280.695
280.666
280.637
280.607
280.578
280.55
280.526
280.505
280.49
280.48
280.475
280.474
280.476
280.478
280.479
280.477
280.472
280.466
280.462
280.469
280.486
280.512
280.54
280.572
280.605
280.64
280.674
280.705
280.731
280.749
280.759
280.76
280.755
280.747
280.738
280.733
280.732
280.736
280.742
280.749
280.758
280.766
280.774
280.781
280.79
280.801
280.809
280.805
280.786
280.761
280.733
280.702
280.674
280.643
280.593
280.585
281.188
281.771
280.831
280.6
280.531
280.501
280.485
280.478
280.475
280.477
280.482
280.494
280.522
280.571
280.627
280.648
280.628
280.584
280.532
280.494
280.48
280.496
280.539
280.603
280.676
280.749
280.814
280.869
280.913
280.945
280.961
280.96
280.939
280.9
280.852
280.809
280.785
280.784
280.79
280.791
280.781
280.764
280.742
280.716
280.688
280.658
280.627
280.596
280.565
280.537
280.511
280.49
280.473
280.462
280.455
280.451
280.45
280.45
280.451
280.453
280.455
280.459
280.469
280.486
280.509
280.536
280.565
280.597
280.629
280.662
280.692
280.719
280.739
280.752
280.757
280.755
280.748
280.74
280.733
280.731
280.732
280.738
280.745
280.753
280.761
280.768
280.775
280.782
280.793
280.807
280.821
280.82
280.798
280.772
280.744
280.711
280.681
280.655
280.609
280.601
281.184
281.765
280.83
280.602
280.533
280.503
280.487
280.479
280.477
280.478
280.485
280.5
280.53
280.578
280.627
280.65
280.639
280.606
280.564
280.525
280.501
280.505
280.537
280.593
280.663
280.739
280.811
280.875
280.93
280.971
280.997
281.002
280.985
280.944
280.887
280.831
280.794
280.785
280.789
280.79
280.781
280.763
280.74
280.713
280.684
280.653
280.621
280.589
280.558
280.528
280.502
280.48
280.463
280.45
280.442
280.437
280.436
280.437
280.441
280.448
280.457
280.47
280.487
280.508
280.533
280.56
280.59
280.62
280.651
280.68
280.707
280.729
280.744
280.752
280.753
280.749
280.741
280.734
280.73
280.729
280.733
280.739
280.746
280.754
280.761
280.766
280.771
280.779
280.791
280.809
280.831