/*--------------------------------*- C++ -*----------------------------------*\
| =========                 |                                                 |
| \\      /  F ield         | OpenFOAM: The Open Source CFD Toolbox           |
|  \\    /   O peration     | Version:  4.1                                   |
|   \\  /    A nd           | Web:      www.OpenFOAM.org                      |
|    \\/     M anipulation  |                                                 |
\*---------------------------------------------------------------------------*/
FoamFile
{
    version     2.0;
    format      ascii;
    class       volScalarField;
    location    "20";
    object      mag(U);
}
// * * * * * * * * * * * * * * * * * * * * * * * * * * * * * * * * * * * * * //

dimensions      [0 1 -1 0 0 0 0];

internalField   nonuniform List<scalar> 
5000
(
3.96764e-06
4.50725e-06
4.66964e-06
1.6568e-06
9.20572e-07
5.09059e-07
3.29173e-07
2.67008e-07
2.50681e-07
2.21783e-07
1.97414e-07
1.84388e-07
1.72844e-07
1.63315e-07
1.47475e-07
1.33655e-07
1.3199e-07
1.26106e-07
1.19865e-07
1.14193e-07
1.04633e-07
9.90129e-08
9.75964e-08
9.80367e-08
9.55774e-08
8.94016e-08
8.67497e-08
8.31334e-08
7.76104e-08
7.74544e-08
8.05616e-08
8.0073e-08
7.68575e-08
7.54217e-08
7.49557e-08
7.17658e-08
6.73681e-08
6.67178e-08
6.93099e-08
7.03023e-08
6.92776e-08
6.89036e-08
6.92937e-08
6.75766e-08
6.19028e-08
5.44893e-08
4.85947e-08
4.38458e-08
3.75518e-08
2.93892e-08
2.2205e-08
1.85849e-08
1.68618e-08
1.39451e-08
9.66106e-09
5.91912e-09
4.96511e-09
5.28101e-09
4.17348e-09
1.85823e-09
8.69019e-10
1.44964e-09
4.03985e-09
5.83552e-09
5.90692e-09
5.07271e-09
4.78338e-09
5.15014e-09
4.85277e-09
3.17073e-09
1.3198e-09
1.61077e-09
1.73141e-09
3.83485e-09
4.91534e-09
3.80887e-09
1.61555e-09
8.92403e-10
9.85953e-10
5.43249e-10
1.71934e-09
3.67121e-09
5.80556e-09
6.68979e-09
4.22312e-09
9.03146e-10
8.27046e-10
4.93617e-09
1.14051e-08
1.09788e-08
6.83763e-09
6.83131e-09
5.26416e-09
1.44567e-08
1.68045e-08
1.0189e-08
6.79276e-09
1.19972e-08
1.01808e-08
8.10981e-09
3.6924e-06
8.49139e-06
2.18468e-06
1.44174e-06
7.41077e-07
4.09097e-07
2.33658e-07
1.20501e-07
7.46598e-08
6.30027e-08
4.38969e-08
3.19508e-08
2.79499e-08
1.96667e-08
3.02013e-08
2.08831e-08
1.34218e-08
1.55985e-08
1.25185e-08
1.49741e-08
1.47503e-08
1.28015e-08
1.09804e-08
6.33958e-09
9.29718e-09
1.05735e-08
7.9069e-09
9.45153e-09
9.37882e-09
8.96839e-09
5.28647e-09
4.98769e-09
5.60261e-09
5.42532e-09
4.56519e-09
6.59207e-09
6.46272e-09
6.39374e-09
5.04988e-09
3.03435e-09
2.32809e-09
1.73413e-09
9.2864e-10
5.65494e-09
8.94568e-09
7.77514e-09
5.75333e-09
6.55485e-09
9.29671e-09
9.3403e-09
6.43335e-09
4.22823e-09
3.83384e-09
5.05928e-09
5.13866e-09
4.19358e-09
4.04398e-09
3.2789e-09
3.68707e-09
3.97113e-09
3.85708e-09
5.05493e-09
5.6089e-09
4.12023e-09
3.71811e-09
4.00106e-09
4.49943e-09
4.28969e-09
3.68827e-09
4.02331e-09
3.73521e-09
3.05507e-09
4.48713e-09
4.3773e-09
2.03027e-09
2.65734e-09
2.6782e-09
1.09682e-09
1.0889e-09
1.97054e-09
3.12193e-09
3.09422e-09
2.58373e-09
1.83791e-09
6.18084e-09
2.47349e-09
4.64075e-09
7.42974e-09
7.72146e-09
1.04102e-08
1.26326e-08
6.79576e-09
1.03988e-08
1.11702e-08
4.06491e-09
9.04406e-09
1.40299e-08
3.22194e-09
1.64991e-08
7.80598e-09
3.02473e-06
5.66774e-06
2.87402e-06
9.43321e-07
5.22299e-07
2.76554e-07
1.59663e-07
8.81918e-08
5.78666e-08
4.10186e-08
2.94905e-08
1.8525e-08
1.61164e-08
1.25948e-08
1.35784e-08
9.14674e-09
6.87388e-09
6.30032e-09
5.03966e-09
1.01867e-08
3.44137e-09
4.78549e-09
4.63099e-09
3.03652e-09
2.82986e-09
3.55749e-09
5.18692e-09
3.97844e-09
1.98347e-09
3.65618e-10
3.55097e-09
3.71191e-09
1.57212e-09
2.25554e-09
4.60096e-09
3.90126e-09
8.4991e-10
8.05901e-10
3.27533e-09
5.13245e-09
4.32027e-09
4.58313e-09
6.86663e-09
9.34114e-09
8.8041e-09
6.37875e-09
5.54378e-09
7.07486e-09
7.85144e-09
5.85096e-09
3.16784e-09
2.49582e-09
3.55491e-09
3.91906e-09
2.59419e-09
2.78077e-09
3.3134e-09
3.28921e-09
3.85235e-09
4.37045e-09
5.3216e-09
5.54518e-09
3.94019e-09
1.81334e-09
1.90521e-09
2.73552e-09
3.5112e-09
3.575e-09
4.07474e-09
4.48355e-09
4.33098e-09
4.61576e-09
4.33025e-09
1.77916e-09
2.18551e-09
3.07147e-09
2.44716e-09
1.57026e-09
8.71463e-10
2.28458e-09
2.68023e-09
2.3057e-09
9.70268e-10
7.70501e-10
3.56978e-09
4.44238e-09
5.45452e-09
5.8791e-09
3.77918e-09
6.39854e-09
9.79285e-09
7.68732e-09
5.79262e-09
5.89091e-09
5.06669e-09
7.2554e-09
1.04021e-08
7.38791e-09
7.54573e-09
5.40756e-09
1.15123e-06
2.12065e-06
1.3223e-06
4.94199e-07
3.60481e-07
2.1876e-07
1.36067e-07
8.26518e-08
5.9814e-08
4.09012e-08
2.97227e-08
2.42985e-08
1.70434e-08
1.34201e-08
1.51765e-08
1.00177e-08
7.91191e-09
7.04891e-09
8.72479e-09
7.73873e-09
2.32346e-09
6.06517e-09
6.1917e-09
2.16606e-09
3.12438e-09
5.89923e-09
4.972e-09
1.8815e-09
1.67425e-09
3.51705e-09
3.68754e-09
1.96926e-09
2.10197e-09
4.22508e-09
4.62408e-09
2.44521e-09
1.40953e-09
2.89503e-09
4.58679e-09
4.33876e-09
3.78172e-09
5.20455e-09
7.82988e-09
8.52244e-09
6.80917e-09
5.56941e-09
6.45942e-09
7.73135e-09
6.79596e-09
4.21266e-09
2.79021e-09
3.33227e-09
4.07726e-09
2.88051e-09
1.4906e-09
2.58754e-09
2.69586e-09
2.88245e-09
3.37147e-09
4.14748e-09
4.75803e-09
4.03907e-09
2.46643e-09
1.62186e-09
1.90467e-09
2.98379e-09
3.29031e-09
3.1334e-09
3.76482e-09
4.16143e-09
4.10551e-09
3.99753e-09
2.86925e-09
1.41453e-09
2.95169e-09
3.1138e-09
1.98071e-09
1.13216e-09
1.2835e-09
2.01814e-09
2.02721e-09
1.66354e-09
5.25164e-10
3.46842e-10
1.81673e-09
4.0797e-09
4.9778e-09
4.4585e-09
1.24188e-09
3.83607e-09
5.05051e-09
3.35607e-09
2.46624e-09
1.74516e-09
2.23986e-09
3.59285e-09
5.66794e-09
4.30595e-09
1.92764e-09
1.84998e-09
4.44143e-07
9.59095e-07
6.22011e-07
3.25767e-07
2.45578e-07
1.66915e-07
1.10404e-07
7.52285e-08
5.4578e-08
3.71601e-08
3.0236e-08
2.49833e-08
1.51365e-08
1.54009e-08
1.45222e-08
8.6078e-09
9.16077e-09
7.92557e-09
8.42356e-09
4.54629e-09
5.15537e-09
6.29301e-09
4.76304e-09
2.08323e-09
4.70666e-09
5.82701e-09
2.82293e-09
1.45201e-09
3.54823e-09
4.26292e-09
2.16691e-09
1.40689e-09
3.30347e-09
4.65101e-09
3.08041e-09
1.54111e-09
2.39266e-09
4.19403e-09
4.09038e-09
3.0186e-09
3.56492e-09
6.05858e-09
7.72976e-09
6.77265e-09
5.24827e-09
5.57411e-09
7.1099e-09
7.18292e-09
4.98795e-09
2.82008e-09
2.71986e-09
3.70102e-09
3.33192e-09
1.24136e-09
1.89297e-09
2.28178e-09
1.75055e-09
1.92177e-09
2.50651e-09
3.54095e-09
3.65413e-09
2.81786e-09
2.19227e-09
1.98416e-09
2.89813e-09
3.70709e-09
3.26098e-09
2.74366e-09
3.04619e-09
3.25746e-09
3.30464e-09
2.99682e-09
2.38505e-09
2.78023e-09
3.307e-09
2.66541e-09
1.4784e-09
8.49828e-10
1.43362e-09
2.12941e-09
1.75679e-09
1.29722e-09
8.48097e-10
1.10702e-09
2.66297e-09
4.15077e-09
4.06021e-09
2.94115e-09
1.30352e-09
3.20301e-09
3.28754e-09
1.84907e-09
1.4329e-09
5.43788e-10
1.10986e-09
3.05977e-09
4.2267e-09
2.99938e-09
1.22965e-09
1.08145e-09
2.46685e-07
4.60386e-07
3.41227e-07
2.27664e-07
1.77793e-07
1.28211e-07
9.36186e-08
6.79932e-08
4.91813e-08
3.70082e-08
3.08316e-08
2.22588e-08
1.69979e-08
1.71592e-08
1.1614e-08
9.8783e-09
1.09631e-08
7.53571e-09
6.4737e-09
5.60242e-09
6.43959e-09
4.93433e-09
3.34956e-09
4.31937e-09
5.72372e-09
3.75235e-09
1.68016e-09
3.14495e-09
4.62734e-09
2.9796e-09
1.18754e-09
2.4375e-09
4.38435e-09
3.64681e-09
1.73541e-09
1.88922e-09
3.78216e-09
4.28492e-09
2.91376e-09
2.5538e-09
4.55265e-09
6.89067e-09
6.82131e-09
5.20379e-09
4.87705e-09
6.40047e-09
7.37267e-09
5.92159e-09
3.3741e-09
2.25675e-09
3.02839e-09
3.45132e-09
1.9545e-09
1.05218e-09
1.99414e-09
1.17825e-09
7.61115e-10
8.40159e-10
1.99903e-09
2.9075e-09
2.57529e-09
2.28358e-09
2.37159e-09
2.84557e-09
3.89357e-09
3.86285e-09
2.78604e-09
2.33434e-09
2.31232e-09
2.25534e-09
2.31991e-09
2.30906e-09
2.95096e-09
3.60133e-09
3.21806e-09
2.26112e-09
1.63221e-09
1.23175e-09
1.79696e-09
2.45991e-09
1.80917e-09
1.18611e-09
1.41556e-09
1.9866e-09
3.43684e-09
4.24411e-09
3.05908e-09
1.57926e-09
1.88303e-09
2.91644e-09
2.26904e-09
1.34367e-09
1.28595e-09
6.4275e-10
1.53089e-09
2.27689e-09
3.30622e-09
2.86674e-09
2.16284e-09
9.12464e-10
1.88859e-07
2.51098e-07
2.14497e-07
1.63962e-07
1.31282e-07
1.01158e-07
7.72131e-08
5.7648e-08
4.60787e-08
3.51666e-08
2.80306e-08
2.21257e-08
1.9015e-08
1.51836e-08
1.10032e-08
1.26705e-08
1.03971e-08
6.33582e-09
6.33719e-09
8.36732e-09
5.09572e-09
3.86841e-09
4.25257e-09
5.94368e-09
4.70278e-09
2.10474e-09
2.71769e-09
4.69711e-09
3.81263e-09
1.50173e-09
1.83163e-09
3.95402e-09
4.11659e-09
2.15903e-09
1.60064e-09
3.3393e-09
4.54549e-09
3.44207e-09
2.25885e-09
3.46082e-09
6.06886e-09
6.94247e-09
5.52223e-09
4.49979e-09
5.59044e-09
7.18806e-09
6.67796e-09
4.19137e-09
2.3234e-09
2.43696e-09
3.34217e-09
2.71455e-09
5.89234e-10
1.32135e-09
1.02325e-09
5.30135e-10
8.42324e-10
5.55194e-10
2.19644e-09
2.44338e-09
1.82016e-09
2.04285e-09
2.65772e-09
3.68099e-09
4.11545e-09
3.11065e-09
2.11086e-09
2.20258e-09
1.84381e-09
1.57744e-09
1.7428e-09
2.42715e-09
3.56914e-09
3.95255e-09
3.17499e-09
2.33227e-09
2.23326e-09
2.30118e-09
2.67693e-09
2.96325e-09
2.0482e-09
1.26746e-09
1.76815e-09
2.60172e-09
3.56047e-09
3.83202e-09
1.95393e-09
9.04205e-10
2.14999e-09
2.50033e-09
1.45567e-09
1.12144e-09
1.66264e-09
1.28266e-09
1.64814e-09
1.99527e-09
3.11609e-09
2.52435e-09
2.63748e-09
1.22083e-09
1.74327e-07
1.51662e-07
1.46047e-07
1.21186e-07
1.00538e-07
8.08675e-08
6.32403e-08
5.11015e-08
4.17745e-08
3.1396e-08
2.69858e-08
2.26382e-08
1.75168e-08
1.41573e-08
1.31687e-08
1.27514e-08
8.4547e-09
6.58853e-09
8.2487e-09
7.52229e-09
3.81944e-09
4.57438e-09
6.24088e-09
5.32714e-09
2.71386e-09
2.47675e-09
4.48638e-09
4.38134e-09
2.03007e-09
1.42922e-09
3.36809e-09
4.2747e-09
2.66931e-09
1.45911e-09
2.76542e-09
4.54947e-09
4.05751e-09
2.459e-09
2.68323e-09
5.06823e-09
6.76488e-09
5.85981e-09
4.26766e-09
4.57207e-09
6.3577e-09
6.85629e-09
4.89327e-09
2.55419e-09
2.05533e-09
3.04379e-09
3.33416e-09
1.74135e-09
4.87247e-10
8.16938e-10
4.48732e-10
1.39489e-09
6.25744e-10
1.51867e-09
2.65098e-09
2.07219e-09
1.34943e-09
1.78205e-09
2.84312e-09
3.77703e-09
3.33575e-09
2.12845e-09
2.1613e-09
2.1964e-09
1.47147e-09
1.26061e-09
1.63038e-09
2.71863e-09
3.61809e-09
3.76053e-09
3.18042e-09
2.57122e-09
2.88613e-09
3.60126e-09
3.6081e-09
3.15313e-09
2.10641e-09
1.3062e-09
1.98539e-09
3.08199e-09
3.28918e-09
2.8578e-09
6.08321e-10
1.59153e-09
2.49097e-09
2.34303e-09
1.23697e-09
1.52362e-09
1.17332e-09
1.02079e-09
1.77801e-09
2.54128e-09
2.74346e-09
2.89121e-09
3.07575e-09
1.3135e-09
1.68394e-07
9.79093e-08
1.07236e-07
9.02989e-08
8.03025e-08
6.4407e-08
5.35083e-08
4.42876e-08
3.5695e-08
2.90784e-08
2.6209e-08
2.02126e-08
1.61693e-08
1.54201e-08
1.32648e-08
1.04028e-08
8.12586e-09
7.81834e-09
8.36579e-09
4.76517e-09
4.36221e-09
5.67577e-09
5.92992e-09
3.35358e-09
2.10332e-09
3.82634e-09
4.43437e-09
2.3342e-09
9.94524e-10
2.46704e-09
3.90461e-09
2.85902e-09
1.28756e-09
1.98242e-09
4.0402e-09
4.33046e-09
2.74527e-09
2.18546e-09
3.87727e-09
6.00596e-09
5.88434e-09
4.09516e-09
3.47578e-09
4.95279e-09
6.29894e-09
5.30135e-09
2.87899e-09
1.7397e-09
2.58387e-09
3.56622e-09
2.87577e-09
1.38043e-09
1.43598e-09
9.16999e-10
1.31956e-09
1.05149e-09
1.16083e-09
2.92279e-09
3.09268e-09
1.86547e-09
1.09032e-09
1.75078e-09
2.94981e-09
3.12477e-09
1.97459e-09
1.66681e-09
2.07343e-09
1.60501e-09
1.16554e-09
1.23094e-09
1.47768e-09
2.52753e-09
2.91443e-09
2.85034e-09
2.78418e-09
2.61626e-09
3.32914e-09
4.34301e-09
3.70789e-09
2.29679e-09
1.25138e-09
7.894e-10
1.70355e-09
3.22787e-09
3.04501e-09
2.09019e-09
1.24876e-10
1.86285e-09
2.06763e-09
1.97926e-09
9.09752e-10
1.60166e-09
1.5494e-09
8.38142e-10
1.85528e-09
2.4942e-09
3.22201e-09
3.23281e-09
3.09096e-09
9.49342e-10
1.61867e-07
6.53556e-08
8.25741e-08
6.90637e-08
6.41614e-08
5.25075e-08
4.59492e-08
3.71132e-08
3.15122e-08
2.76459e-08
2.30858e-08
1.81607e-08
1.7455e-08
1.55584e-08
1.1519e-08
1.00241e-08
9.4583e-09
8.36595e-09
6.26603e-09
4.99079e-09
6.46561e-09
6.29944e-09
4.18179e-09
2.84638e-09
3.91497e-09
4.86156e-09
3.0946e-09
1.2793e-09
2.20724e-09
3.92079e-09
3.39888e-09
1.70341e-09
1.85973e-09
3.89675e-09
4.86364e-09
3.52014e-09
2.24947e-09
3.3163e-09
5.5419e-09
6.14985e-09
4.57028e-09
3.30724e-09
4.18972e-09
5.94267e-09
5.9976e-09
4.02856e-09
2.34284e-09
2.65223e-09
4.03005e-09
4.09676e-09
2.54178e-09
1.80509e-09
1.65764e-09
1.47934e-09
1.45244e-09
5.38416e-10
2.3361e-09
3.22565e-09
2.30894e-09
9.78126e-10
7.50181e-10
1.69328e-09
2.40714e-09
1.64294e-09
9.13934e-10
2.19939e-09
2.25263e-09
1.73791e-09
1.73237e-09
1.61511e-09
2.20336e-09
3.11528e-09
2.99675e-09
2.59578e-09
2.98084e-09
3.75532e-09
4.69686e-09
5.39435e-09
4.07346e-09
1.73711e-09
7.15301e-10
6.4752e-10
1.726e-09
3.33586e-09
2.89349e-09
1.61273e-09
3.45534e-10
1.49304e-09
1.17123e-09
1.37329e-09
1.31007e-09
9.51143e-10
1.13074e-09
1.40357e-09
2.52401e-09
2.61636e-09
3.07152e-09
2.98376e-09
2.83271e-09
6.09588e-10
1.56047e-07
4.79583e-08
6.34406e-08
5.72994e-08
5.10697e-08
4.39639e-08
3.88146e-08
3.25993e-08
2.84025e-08
2.42873e-08
2.0289e-08
1.78767e-08
1.72735e-08
1.33585e-08
1.08314e-08
1.10067e-08
9.48279e-09
7.5653e-09
5.87483e-09
6.83568e-09
6.82155e-09
5.31452e-09
3.47282e-09
3.94112e-09
5.25062e-09
4.03789e-09
1.90506e-09
2.07753e-09
3.79954e-09
3.82729e-09
2.08139e-09
1.6641e-09
3.43054e-09
4.94396e-09
4.1038e-09
2.47342e-09
2.71686e-09
4.79736e-09
5.97467e-09
4.86493e-09
3.24609e-09
3.4304e-09
5.17156e-09
6.02991e-09
4.74241e-09
2.93483e-09
2.68083e-09
4.02618e-09
4.80867e-09
3.64977e-09
2.01374e-09
1.94483e-09
1.88946e-09
1.82371e-09
9.51549e-10
1.86387e-09
3.15812e-09
2.62515e-09
9.41334e-10
4.06095e-10
8.29919e-10
1.78675e-09
1.85546e-09
5.61187e-10
1.20852e-09
1.97527e-09
1.89447e-09
2.08866e-09
2.21555e-09
2.2636e-09
2.99341e-09
3.46928e-09
3.02523e-09
2.42465e-09
3.1919e-09
4.74588e-09
5.46759e-09
5.42879e-09
3.94964e-09
1.53404e-09
9.59043e-10
1.48647e-09
2.24019e-09
3.30059e-09
2.44102e-09
8.58261e-10
6.34474e-10
1.40246e-09
1.11932e-09
1.1975e-09
1.39736e-09
8.34316e-10
1.34805e-09
2.05544e-09
2.76646e-09
2.63482e-09
2.70398e-09
2.72902e-09
2.66172e-09
7.35255e-10
1.50668e-07
3.8285e-08
5.05835e-08
4.7777e-08
4.08563e-08
3.76865e-08
3.42213e-08
2.88003e-08
2.49858e-08
2.06e-08
1.94375e-08
1.74339e-08
1.45324e-08
1.22171e-08
1.17122e-08
1.04927e-08
8.06158e-09
6.58926e-09
7.26382e-09
7.58215e-09
5.37158e-09
4.23542e-09
4.21292e-09
5.11382e-09
4.33818e-09
2.44775e-09
2.08949e-09
3.2426e-09
3.57441e-09
1.94434e-09
8.92214e-10
2.13114e-09
3.97146e-09
3.66397e-09
1.91138e-09
1.57272e-09
3.37006e-09
4.98098e-09
4.39909e-09
2.71329e-09
2.36461e-09
3.85708e-09
5.20725e-09
4.56411e-09
2.68514e-09
1.90566e-09
2.99477e-09
4.31671e-09
3.81844e-09
1.90814e-09
1.61691e-09
2.11033e-09
2.22431e-09
2.07843e-09
2.64802e-09
3.98919e-09
3.87943e-09
2.02671e-09
5.90112e-10
8.91353e-10
1.80282e-09
2.71868e-09
2.3583e-09
1.25025e-09
6.60155e-10
5.33082e-10
1.7925e-09
2.38861e-09
1.97187e-09
2.23308e-09
2.88731e-09
2.74251e-09
2.16219e-09
1.70835e-09
2.49747e-09
4.15631e-09
4.43374e-09
3.5531e-09
2.45604e-09
1.15934e-09
7.07276e-10
1.67766e-09
2.38772e-09
2.77976e-09
1.73358e-09
4.77591e-11
7.47622e-10
1.06679e-09
6.99089e-10
9.87255e-10
7.29464e-10
9.28324e-10
1.89547e-09
2.51288e-09
2.81422e-09
2.57731e-09
2.3705e-09
2.52374e-09
2.41733e-09
1.00497e-09
1.42459e-07
2.70403e-08
4.07156e-08
3.76435e-08
3.35849e-08
3.14379e-08
2.95589e-08
2.3559e-08
2.18555e-08
1.92202e-08
1.7923e-08
1.51926e-08
1.26649e-08
1.21118e-08
1.17256e-08
9.20861e-09
7.63072e-09
7.49994e-09
7.90169e-09
6.77576e-09
4.9485e-09
4.53763e-09
5.48985e-09
5.08937e-09
3.1761e-09
2.61436e-09
3.58258e-09
4.0958e-09
2.57315e-09
1.32149e-09
2.0066e-09
4.02116e-09
4.2897e-09
2.6297e-09
1.78577e-09
3.26878e-09
5.27079e-09
5.24348e-09
3.44151e-09
2.55157e-09
3.80311e-09
5.57441e-09
5.56589e-09
3.78427e-09
2.44147e-09
3.05189e-09
4.61268e-09
4.82151e-09
2.9905e-09
7.00987e-10
7.75794e-10
1.6282e-09
2.20571e-09
2.46207e-09
3.57906e-09
4.02682e-09
2.65684e-09
6.21655e-10
9.6687e-10
8.41181e-10
1.66539e-09
2.23371e-09
1.76958e-09
1.14981e-09
5.70167e-10
1.03936e-09
1.92826e-09
1.77197e-09
2.39763e-09
4.06309e-09
4.45514e-09
3.53943e-09
2.80157e-09
2.68707e-09
3.3305e-09
4.61564e-09
4.58085e-09
3.19098e-09
2.58015e-09
1.92702e-09
1.52048e-09
2.93136e-09
3.25027e-09
2.90204e-09
1.56226e-09
3.27822e-10
5.91921e-10
5.36859e-10
2.10946e-10
6.06345e-10
4.20523e-10
1.82882e-09
2.61798e-09
2.97662e-09
2.85368e-09
2.29556e-09
1.89728e-09
2.15875e-09
2.02984e-09
1.20048e-09
1.36011e-07
1.86311e-08
3.41241e-08
3.14281e-08
2.95235e-08
2.67616e-08
2.50371e-08
2.08532e-08
1.88977e-08
1.79036e-08
1.58181e-08
1.34238e-08
1.24181e-08
1.19007e-08
9.84842e-09
8.38012e-09
8.04606e-09
8.71197e-09
7.17686e-09
5.08332e-09
5.46373e-09
5.94442e-09
5.70157e-09
3.98064e-09
2.99229e-09
3.6356e-09
4.45161e-09
3.35429e-09
1.82552e-09
1.85075e-09
3.79192e-09
4.77596e-09
3.55293e-09
2.28793e-09
3.1467e-09
5.3014e-09
6.10735e-09
4.70775e-09
3.30384e-09
3.83128e-09
5.68317e-09
6.41037e-09
5.02578e-09
3.22118e-09
3.04972e-09
4.4285e-09
5.34586e-09
4.35087e-09
2.38752e-09
1.1591e-09
1.15454e-09
1.81385e-09
1.77885e-09
2.48587e-09
3.6109e-09
3.08514e-09
1.42039e-09
1.2906e-09
1.10243e-09
2.83493e-10
1.09735e-09
1.18728e-09
1.15061e-09
1.09126e-09
1.00075e-09
1.52838e-09
1.35535e-09
1.82604e-09
4.10224e-09
5.72288e-09
5.59417e-09
4.14483e-09
3.2994e-09
3.57974e-09
4.0215e-09
4.66304e-09
4.61733e-09
3.28865e-09
2.95206e-09
3.0744e-09
3.14065e-09
4.20488e-09
3.77438e-09
2.49171e-09
8.20386e-10
7.34527e-10
5.73846e-10
2.36202e-10
1.06867e-10
1.62689e-10
1.10796e-09
2.6308e-09
3.12501e-09
2.98986e-09
2.41194e-09
1.69455e-09
1.32878e-09
1.85525e-09
1.79724e-09
1.35791e-09
1.30686e-07
1.75244e-08
3.03762e-08
2.83572e-08
2.68564e-08
2.44131e-08
2.22816e-08
2.03803e-08
1.74909e-08
1.55298e-08
1.49479e-08
1.36388e-08
1.18247e-08
1.04517e-08
9.55932e-09
8.96238e-09
8.66651e-09
7.28665e-09
7.11339e-09
5.74749e-09
5.93384e-09
5.70808e-09
4.35678e-09
3.57498e-09
3.80824e-09
4.43107e-09
3.55893e-09
2.38906e-09
1.98233e-09
2.92542e-09
3.88589e-09
2.96778e-09
1.56271e-09
1.85683e-09
3.77597e-09
4.92785e-09
3.95646e-09
2.34521e-09
2.3554e-09
4.02022e-09
5.22818e-09
4.37001e-09
2.51837e-09
1.80089e-09
2.7482e-09
3.84692e-09
3.38225e-09
1.70182e-09
9.04958e-10
8.94595e-10
1.65051e-09
1.77602e-09
2.11713e-09
4.17217e-09
5.04137e-09
4.04477e-09
2.55833e-09
1.52579e-09
1.07405e-09
1.74923e-09
1.74e-09
1.17989e-09
1.3134e-09
1.8562e-09
2.60771e-09
2.68063e-09
1.05267e-09
1.7264e-09
3.93691e-09
4.65416e-09
4.0064e-09
2.59774e-09
1.85411e-09
2.4336e-09
2.7016e-09
2.47005e-09
2.45879e-09
1.84562e-09
1.84269e-09
2.88543e-09
3.4418e-09
3.77172e-09
2.95182e-09
9.30271e-10
5.96485e-10
1.59486e-09
9.96595e-10
4.77467e-10
3.35813e-10
4.75196e-10
1.60284e-09
2.59083e-09
2.72644e-09
2.26691e-09
1.67564e-09
1.3148e-09
1.18502e-09
1.9391e-09
1.92404e-09
1.52464e-09
1.23382e-07
1.39284e-08
2.51768e-08
2.47064e-08
2.2975e-08
2.0827e-08
1.9211e-08
1.76416e-08
1.61597e-08
1.3361e-08
1.35792e-08
1.25378e-08
1.03274e-08
9.28192e-09
9.22886e-09
9.05971e-09
8.64689e-09
6.40155e-09
5.91404e-09
6.64105e-09
6.00448e-09
4.82286e-09
4.06382e-09
3.95173e-09
4.59173e-09
4.07644e-09
2.94439e-09
2.45868e-09
2.87306e-09
3.91058e-09
3.20026e-09
1.78703e-09
1.79502e-09
3.53552e-09
4.91504e-09
4.34149e-09
2.62071e-09
2.0548e-09
3.32922e-09
4.80716e-09
4.56213e-09
2.84813e-09
1.67136e-09
2.16416e-09
3.40565e-09
3.45112e-09
1.94087e-09
5.95536e-10
7.92806e-10
1.88275e-09
2.48718e-09
1.57143e-09
2.42879e-09
4.42205e-09
4.7851e-09
3.91338e-09
2.84609e-09
2.11919e-09
2.33725e-09
2.33646e-09
1.32058e-09
4.30092e-10
1.15198e-09
2.25936e-09
3.08543e-09
2.6501e-09
1.438e-09
2.99851e-09
4.31839e-09
4.01566e-09
3.14557e-09
2.35123e-09
1.86056e-09
2.43483e-09
2.61742e-09
1.65846e-09
1.47679e-09
1.49279e-09
1.76962e-09
3.5834e-09
4.16724e-09
3.61272e-09
2.34683e-09
3.48896e-10
1.29498e-09
1.84196e-09
1.22717e-09
1.02974e-09
8.15678e-10
1.10516e-09
1.6491e-09
2.01857e-09
2.03725e-09
1.59201e-09
1.40537e-09
1.55604e-09
1.62344e-09
2.31224e-09
2.12058e-09
1.53101e-09
1.17012e-07
7.47097e-09
2.10567e-08
2.08988e-08
1.83793e-08
1.62618e-08
1.59374e-08
1.47738e-08
1.31864e-08
1.15078e-08
1.14588e-08
1.00242e-08
9.03578e-09
8.61439e-09
8.97282e-09
7.81593e-09
6.35308e-09
7.05933e-09
6.30829e-09
6.21116e-09
5.22117e-09
4.20018e-09
4.21372e-09
5.00118e-09
4.65085e-09
3.2316e-09
2.6082e-09
2.97916e-09
4.11439e-09
3.59332e-09
2.10951e-09
1.97623e-09
3.89632e-09
5.693e-09
5.42353e-09
3.72104e-09
2.8907e-09
3.88345e-09
5.43466e-09
5.64654e-09
4.35959e-09
3.3297e-09
3.41307e-09
4.46566e-09
4.8404e-09
3.50369e-09
1.69928e-09
1.33384e-09
2.6119e-09
3.94478e-09
3.47789e-09
1.24278e-09
1.54282e-09
2.79088e-09
3.00382e-09
2.83715e-09
2.46039e-09
2.37809e-09
2.32039e-09
1.35838e-09
6.30551e-10
1.21945e-09
8.51153e-10
1.61782e-09
2.16384e-09
1.83486e-09
2.65712e-09
4.26698e-09
4.83619e-09
4.04995e-09
3.54662e-09
3.72488e-09
3.70127e-09
3.91423e-09
3.903e-09
2.55668e-09
2.16206e-09
2.87595e-09
3.68335e-09
5.38882e-09
5.32292e-09
3.80737e-09
1.8415e-09
9.52748e-10
1.69588e-09
1.58178e-09
1.24117e-09
1.32841e-09
9.67706e-10
1.28123e-09
1.64134e-09
1.67828e-09
1.77143e-09
1.51907e-09
1.56477e-09
2.04325e-09
2.19371e-09
2.61699e-09
2.07939e-09
1.25819e-09
1.13254e-07
7.96024e-09
1.92788e-08
1.85811e-08
1.606e-08
1.52078e-08
1.42428e-08
1.51587e-08
1.17061e-08
1.06405e-08
1.02753e-08
9.37914e-09
8.78027e-09
8.88166e-09
8.07593e-09
7.75137e-09
6.16298e-09
6.68628e-09
7.08618e-09
5.40466e-09
4.71809e-09
4.77967e-09
5.26112e-09
4.97127e-09
3.70187e-09
3.2368e-09
3.38964e-09
4.09967e-09
3.74723e-09
2.2901e-09
1.49526e-09
2.70989e-09
4.95486e-09
5.33522e-09
3.77903e-09
2.44739e-09
2.94994e-09
4.46641e-09
5.01185e-09
3.96104e-09
2.93355e-09
3.12448e-09
4.20943e-09
5.09791e-09
4.32088e-09
2.39853e-09
1.26295e-09
1.92026e-09
3.42833e-09
3.84955e-09
2.3409e-09
7.25127e-11
1.6632e-09
2.22794e-09
2.58678e-09
2.99893e-09
3.48758e-09
3.59071e-09
2.45018e-09
4.20443e-10
1.28789e-09
1.49989e-09
7.76963e-10
1.60757e-09
2.01712e-09
2.08183e-09
2.97099e-09
3.48106e-09
3.26151e-09
2.63721e-09
2.71221e-09
3.70468e-09
4.18733e-09
3.89123e-09
3.53431e-09
2.40404e-09
2.06334e-09
3.40782e-09
4.6444e-09
5.46257e-09
4.82978e-09
2.56682e-09
5.97496e-10
1.50408e-09
1.97249e-09
1.12972e-09
9.40917e-10
9.55342e-10
7.95664e-10
1.3127e-09
1.64155e-09
1.38837e-09
1.53076e-09
1.56834e-09
1.80451e-09
2.5502e-09
2.54194e-09
2.58654e-09
1.72915e-09
8.14811e-10
1.08976e-07
1.09978e-08
1.62233e-08
1.7794e-08
1.62432e-08
1.63488e-08
1.38406e-08
1.45018e-08
1.20915e-08
1.09641e-08
1.0101e-08
1.01143e-08
9.19581e-09
8.52216e-09
8.20878e-09
7.30887e-09
8.38417e-09
6.59614e-09
6.50309e-09
5.85419e-09
5.36515e-09
5.44106e-09
5.17335e-09
4.34167e-09
4.062e-09
4.02911e-09
4.31073e-09
3.87217e-09
2.728e-09
2.12729e-09
2.0971e-09
3.69978e-09
4.40543e-09
3.13825e-09
1.70812e-09
1.91362e-09
3.34747e-09
4.04045e-09
3.02487e-09
1.502e-09
1.55711e-09
2.83115e-09
4.27212e-09
4.19354e-09
2.5984e-09
1.19179e-09
1.42508e-09
2.64096e-09
3.27183e-09
2.2592e-09
1.91375e-10
1.46433e-09
1.94756e-09
2.17535e-09
2.97665e-09
4.222e-09
5.23273e-09
4.84272e-09
2.85925e-09
1.24022e-09
1.57709e-09
1.05919e-09
9.38857e-10
1.73669e-09
1.84777e-09
2.09726e-09
2.53719e-09
2.03412e-09
1.0921e-09
1.11437e-09
1.68838e-09
3.05445e-09
3.92141e-09
3.09949e-09
2.25846e-09
1.68672e-09
1.47419e-09
3.0378e-09
4.37214e-09
4.14279e-09
3.20669e-09
7.35007e-10
1.45027e-09
2.17019e-09
1.92919e-09
7.04159e-10
6.11508e-10
6.96096e-10
7.97598e-10
1.16174e-09
1.46256e-09
1.05593e-09
1.08951e-09
1.46093e-09
2.03765e-09
2.91837e-09
2.63117e-09
2.23073e-09
1.18219e-09
4.06244e-10
1.03885e-07
7.89403e-09
1.23012e-08
1.71002e-08
1.55398e-08
1.40648e-08
1.27871e-08
1.20049e-08
1.17295e-08
1.00271e-08
9.08316e-09
9.00337e-09
8.472e-09
8.10395e-09
8.0359e-09
6.82325e-09
7.48059e-09
6.91705e-09
5.77888e-09
5.60012e-09
5.57459e-09
5.32472e-09
4.65448e-09
4.31162e-09
4.02923e-09
4.38291e-09
4.324e-09
3.46686e-09
2.7865e-09
2.3033e-09
3.2721e-09
4.0891e-09
3.15346e-09
1.63885e-09
1.51923e-09
2.91576e-09
3.98304e-09
3.3096e-09
1.65322e-09
9.29422e-10
2.06203e-09
3.85516e-09
4.51366e-09
3.45668e-09
1.96404e-09
1.41362e-09
2.32839e-09
3.13444e-09
2.50194e-09
6.09679e-10
1.1682e-09
1.5566e-09
1.13038e-09
1.4908e-09
2.90527e-09
4.59726e-09
5.32815e-09
4.36299e-09
2.57143e-09
2.03752e-09
1.69125e-09
8.13313e-10
1.13511e-09
1.10365e-09
1.17171e-09
1.83868e-09
1.9373e-09
1.24423e-09
5.49626e-10
9.61009e-10
2.22025e-09
3.55204e-09
4.34021e-09
3.078e-09
1.76853e-09
1.66931e-09
1.63632e-09
3.1137e-09
3.99573e-09
3.09879e-09
1.85343e-09
9.34977e-10
1.80779e-09
1.94145e-09
1.06506e-09
2.50992e-10
2.44606e-10
5.8751e-10
8.51727e-10
1.00233e-09
1.14447e-09
8.93516e-10
9.7929e-10
1.69082e-09
2.40932e-09
3.09868e-09
2.44537e-09
1.62228e-09
6.55094e-10
3.96488e-10
9.96933e-08
4.42159e-09
1.13385e-08
1.44835e-08
1.25128e-08
1.04349e-08
1.03616e-08
1.0284e-08
9.63526e-09
7.83151e-09
8.01512e-09
7.25571e-09
7.0611e-09
6.74592e-09
6.78571e-09
7.41776e-09
5.21479e-09
6.15363e-09
5.46161e-09
5.50296e-09
5.28187e-09
4.48575e-09
4.04116e-09
3.81774e-09
4.26648e-09
4.38864e-09
3.60037e-09
3.04652e-09
2.45158e-09
3.19093e-09
3.96964e-09
3.23564e-09
1.89695e-09
1.75952e-09
3.11743e-09
4.47102e-09
4.17371e-09
2.53367e-09
1.47834e-09
2.22094e-09
4.0201e-09
5.08285e-09
4.56543e-09
3.38451e-09
2.80423e-09
3.11714e-09
3.72367e-09
3.1591e-09
1.25741e-09
6.80392e-10
1.35568e-09
7.44134e-10
6.90791e-11
7.76901e-10
2.35265e-09
3.75182e-09
3.83867e-09
2.97001e-09
2.57501e-09
2.3334e-09
1.42147e-09
9.76575e-10
9.61891e-10
1.9362e-10
1.24594e-09
1.61855e-09
1.25941e-09
7.52607e-10
7.97642e-10
2.04289e-09
3.93859e-09
4.82425e-09
4.94834e-09
3.62961e-09
2.21697e-09
2.4323e-09
2.90685e-09
3.94936e-09
4.22949e-09
2.92398e-09
1.55725e-09
1.13929e-09
1.30158e-09
1.00264e-09
1.26144e-10
6.62217e-10
4.71671e-10
4.25804e-10
9.07243e-10
1.02615e-09
1.11415e-09
1.05462e-09
1.27618e-09
2.15077e-09
2.69485e-09
3.01454e-09
2.01199e-09
8.93655e-10
6.0498e-10
8.95462e-10
9.58595e-08
4.03512e-09
1.14793e-08
1.13307e-08
1.06283e-08
1.00152e-08
8.53813e-09
9.16287e-09
7.64506e-09
6.79382e-09
6.58392e-09
6.37401e-09
6.22953e-09
6.3287e-09
5.60236e-09
6.09978e-09
5.55142e-09
4.91406e-09
5.71307e-09
5.39323e-09
4.41967e-09
3.8764e-09
3.81324e-09
4.27342e-09
4.37386e-09
3.35524e-09
2.96151e-09
2.72218e-09
3.29145e-09
4.05277e-09
3.36397e-09
2.01171e-09
1.57576e-09
2.88737e-09
4.53489e-09
4.7648e-09
3.43743e-09
2.17881e-09
2.3834e-09
3.9189e-09
5.12712e-09
4.84139e-09
3.77619e-09
3.4572e-09
3.96479e-09
4.74986e-09
4.44709e-09
2.54302e-09
1.813e-10
1.02944e-09
5.85312e-10
4.39305e-10
6.16948e-10
4.85431e-10
1.92433e-09
2.68153e-09
2.54879e-09
2.68115e-09
2.83819e-09
2.14036e-09
1.33783e-09
1.16949e-09
5.10191e-10
9.37204e-10
1.98177e-09
1.71416e-09
1.01425e-09
8.23181e-10
1.43809e-09
3.18617e-09
5.10297e-09
5.30392e-09
4.50757e-09
3.65721e-09
2.7458e-09
3.18014e-09
4.30716e-09
4.51455e-09
4.24332e-09
2.67078e-09
1.16694e-09
8.04775e-10
4.19399e-10
3.54525e-10
9.19118e-10
9.61711e-10
6.70327e-10
8.23772e-10
1.06158e-09
9.69035e-10
1.11616e-09
1.29222e-09
1.77011e-09
2.61173e-09
2.69537e-09
2.5525e-09
1.38947e-09
4.95782e-10
9.83289e-10
1.70175e-09
9.17714e-08
3.90377e-09
1.07332e-08
1.09945e-08
1.14768e-08
1.1165e-08
8.84193e-09
8.54234e-09
7.72414e-09
7.78628e-09
6.80684e-09
6.61096e-09
6.2746e-09
6.36398e-09
6.50559e-09
4.80341e-09
6.61534e-09
5.87669e-09
5.68961e-09
5.24924e-09
4.82899e-09
4.59478e-09
4.73496e-09
4.61979e-09
3.7223e-09
3.4596e-09
3.50662e-09
3.65609e-09
4.15627e-09
3.56309e-09
2.46249e-09
1.7714e-09
2.08695e-09
3.4578e-09
3.84715e-09
2.77389e-09
1.67324e-09
1.68707e-09
2.92488e-09
4.1254e-09
3.91608e-09
2.6274e-09
1.98391e-09
2.70197e-09
3.95254e-09
4.38559e-09
3.10192e-09
7.81339e-10
1.02657e-09
1.08087e-09
5.3943e-10
7.95323e-10
3.87836e-10
1.46631e-09
2.37576e-09
2.44151e-09
2.40827e-09
2.66065e-09
2.55316e-09
2.54601e-09
2.62782e-09
1.9208e-09
6.3377e-10
1.0149e-09
1.65643e-09
1.11498e-09
6.18151e-10
9.68081e-10
2.07453e-09
3.31906e-09
4.41597e-09
3.85127e-09
2.3915e-09
2.31277e-09
2.17151e-09
2.79923e-09
4.05229e-09
3.5766e-09
2.70884e-09
1.4836e-09
7.80879e-10
5.60828e-10
3.53094e-10
1.11766e-09
1.17671e-09
8.41643e-10
1.07667e-09
1.59292e-09
1.64856e-09
1.16765e-09
1.11829e-09
1.41407e-09
2.05242e-09
2.71596e-09
2.27659e-09
1.72656e-09
8.11003e-10
1.01526e-09
1.291e-09
2.63477e-09
8.8779e-08
4.40051e-09
1.05684e-08
1.1587e-08
1.23781e-08
9.85759e-09
9.27568e-09
8.44175e-09
8.72048e-09
8.32641e-09
7.08463e-09
6.60573e-09
6.24944e-09
5.68149e-09
6.9513e-09
6.28059e-09
5.86377e-09
6.28715e-09
6.02638e-09
5.86571e-09
5.47761e-09
5.25934e-09
5.15511e-09
4.61731e-09
4.28808e-09
4.02898e-09
3.86528e-09
4.0708e-09
3.69995e-09
3.0193e-09
2.68303e-09
2.50988e-09
3.24066e-09
3.46895e-09
2.3105e-09
9.25486e-10
1.08846e-09
2.1066e-09
3.36465e-09
3.35714e-09
2.08848e-09
1.00621e-09
1.34861e-09
2.74458e-09
3.83301e-09
3.35106e-09
1.60126e-09
6.59578e-10
8.50674e-10
4.7676e-10
8.63881e-10
7.46376e-10
1.28363e-09
2.27731e-09
2.30084e-09
1.81189e-09
1.9448e-09
2.29465e-09
2.90659e-09
3.71105e-09
3.58883e-09
2.21527e-09
1.00634e-09
1.19578e-09
1.16138e-09
6.8183e-10
6.11487e-10
1.43474e-09
2.70719e-09
3.24539e-09
3.27632e-09
2.16612e-09
7.62764e-10
1.42744e-09
1.93518e-09
2.62735e-09
3.45967e-09
2.65712e-09
1.53394e-09
6.92809e-10
6.07804e-10
5.58516e-10
8.76848e-10
1.23467e-09
8.4467e-10
1.00307e-09
1.8113e-09
2.23659e-09
2.08997e-09
1.46033e-09
1.38201e-09
1.66211e-09
2.06409e-09
2.35056e-09
1.41425e-09
7.28233e-10
9.9547e-10
1.45341e-09
1.24321e-09
3.50595e-09
8.633e-08
5.7308e-09
1.03817e-08
9.78653e-09
1.01501e-08
8.53603e-09
8.74458e-09
8.42635e-09
8.54093e-09
6.58441e-09
6.17844e-09
5.70415e-09
5.87925e-09
6.24237e-09
4.64236e-09
6.66432e-09
5.46206e-09
5.8825e-09
5.94595e-09
5.63256e-09
5.37911e-09
5.26281e-09
5.00936e-09
4.90812e-09
4.36504e-09
3.96254e-09
4.09572e-09
3.75271e-09
3.12687e-09
2.84614e-09
2.63264e-09
3.28299e-09
3.63345e-09
2.55681e-09
9.54769e-10
4.03788e-10
1.58396e-09
3.06844e-09
3.45794e-09
2.46068e-09
1.25988e-09
1.08463e-09
2.2842e-09
3.63193e-09
3.71727e-09
2.4018e-09
1.03273e-09
6.90994e-10
6.61721e-11
8.58514e-10
8.55209e-10