/*--------------------------------*- C++ -*----------------------------------*\
| =========                 |                                                 |
| \\      /  F ield         | OpenFOAM: The Open Source CFD Toolbox           |
|  \\    /   O peration     | Version:  4.1                                   |
|   \\  /    A nd           | Web:      www.OpenFOAM.org                      |
|    \\/     M anipulation  |                                                 |
\*---------------------------------------------------------------------------*/
FoamFile
{
    version     2.0;
    format      ascii;
    class       surfaceScalarField;
    location    "20";
    object      phi;
}
// * * * * * * * * * * * * * * * * * * * * * * * * * * * * * * * * * * * * * //

dimensions      [0 3 -1 0 0 0 0];

internalField   nonuniform List<scalar> 
760
(
-2.96338e-12
2.93895e-12
-1.55001e-12
-1.41239e-12
-7.13352e-13
-8.35852e-13
-3.85552e-13
-3.28175e-13
-2.41984e-13
-1.43375e-13
-1.64014e-13
-7.74903e-14
-1.08248e-13
-5.5937e-14
-5.22656e-14
-5.54425e-14
1.59781e-14
-6.74863e-14
4.52913e-14
-2.8582e-14
1.45524e-14
3.12352e-14
-3.22851e-14
4.71148e-14
-6.91117e-14
3.71216e-14
-7.60947e-14
7.2417e-15
-4.1053e-14
-3.49976e-14
3.29571e-15
-4.43156e-14
4.12276e-14
-3.76279e-14
4.70163e-14
-5.19931e-15
5.4669e-15
4.25578e-14
6.43711e-15
1.39756e-12
1.54055e-12
5.83548e-13
-5.99131e-13
1.08841e-13
-3.62326e-13
-8.74829e-16
-2.18086e-13
-4.98792e-14
-9.47851e-14
-6.26074e-14
-6.41222e-14
-1.23864e-14
-1.05805e-13
1.50014e-14
-8.31625e-14
4.65492e-14
-9.8822e-14
1.16983e-14
6.00667e-15
-3.60019e-14
7.83629e-14
-5.46313e-14
6.53083e-14
-7.04638e-14
5.26925e-14
-5.91722e-14
-4.04055e-15
-1.32252e-14
-8.06051e-14
2.32982e-14
-8.05733e-14
4.70747e-14
-6.16297e-14
5.1677e-14
-1.05694e-14
1.7645e-14
7.54633e-14
2.39581e-14
8.82551e-13
6.58391e-13
3.71513e-13
-8.78713e-14
1.39862e-13
-1.30438e-13
2.39048e-14
-1.02582e-13
4.9762e-15
-7.60034e-14
2.24558e-14
-8.15936e-14
1.88088e-14
-1.01582e-13
4.52992e-14
-1.08972e-13
4.57014e-15
-5.79496e-14
-4.88959e-14
5.91328e-14
-6.93899e-14
9.85009e-14
-6.76492e-14
6.32392e-14
-4.20369e-14
2.65499e-14
-9.11969e-15
-3.74248e-14
8.39135e-15
-9.81087e-14
1.45413e-14
-8.64146e-14
7.78431e-15
-5.42424e-14
2.0322e-14
-2.28128e-14
2.17193e-14
7.38721e-14
4.56449e-14
3.24366e-13
3.33628e-13
2.02901e-13
3.39243e-14
1.27212e-13
-5.31714e-14
4.58242e-14
-2.12092e-14
5.06938e-14
-8.04802e-14
7.97958e-14
-1.10031e-13
5.99148e-14
-8.19657e-14
3.66537e-14
-8.51151e-14
-4.20729e-14
2.08732e-14
-7.2985e-14
8.97911e-14
-7.46365e-14
1.00072e-13
-6.96342e-14
5.83768e-14
-2.04767e-14
-2.24882e-14
1.73138e-14
-7.51696e-14
2.31028e-14
-1.03917e-13
8.57537e-15
-7.18745e-14
-2.40839e-14
-2.13603e-14
-2.8879e-14
-1.75502e-14
-8.54912e-15
5.33067e-14
3.70898e-14
1.96436e-13
1.37715e-13
1.27957e-13
1.01866e-13
6.60741e-14
8.96694e-15
7.3261e-14
-2.84407e-14
8.63383e-14
-9.32523e-14
6.12659e-14
-8.44562e-14
8.45192e-14
-1.05058e-13
6.46063e-15
-7.33808e-15
-6.6348e-14
9.32451e-14
-7.25866e-14
9.56338e-14
-6.35259e-14
9.05887e-14
-4.65818e-14
4.11693e-14
-6.12717e-15
-6.28027e-14
1.77832e-14
-9.88121e-14
1.69402e-14
-1.02835e-13
-8.28067e-15
-4.66021e-14
-2.9652e-14
-2.29779e-16
-3.97019e-14
-7.419e-15
-8.83985e-15
2.25023e-14
2.82937e-14
6.59107e-14
7.25326e-14
5.5997e-14
1.11187e-13
6.46133e-14
2.89652e-16
1.04361e-13
-6.80142e-14
9.64651e-14
-8.50033e-14
6.85808e-14
-5.68387e-14
4.773e-14
-8.36158e-14
-3.14064e-14
7.14826e-14
-6.36922e-14
1.25205e-13
-6.7304e-14
9.92131e-14
-4.64198e-14
6.94938e-14
-1.19333e-14
6.45158e-15
7.53587e-15
-8.21829e-14
1.4628e-14
-1.05702e-13
-1.08115e-14
-7.70382e-14
-2.19062e-14
-3.5576e-14
-2.3614e-14
1.26176e-15
-1.77407e-14
-1.33672e-14
1.01137e-15
3.71466e-15
2.93718e-14
3.57876e-15
6.88885e-14
4.6088e-14
6.8236e-14
7.70399e-14
-3.0596e-14
8.79043e-14
-7.89598e-14
6.79239e-14
-6.47813e-14
7.93867e-14
-6.82385e-14
-1.54296e-14
1.09674e-14
-5.00192e-14
1.05663e-13
-4.91969e-14
1.24016e-13
-5.82953e-14
1.08116e-13
-2.8188e-14
3.91683e-14
9.82659e-15
-3.17569e-14
2.64279e-14
-9.88969e-14
1.67905e-14
-9.60339e-14
-1.97545e-14
-4.04434e-14
-2.33658e-14
-3.18588e-14
-1.47355e-14
-7.52221e-15
2.35302e-15
-3.05961e-14
1.60737e-14
-9.95666e-15
4.5479e-14
1.30391e-14
5.59065e-14
5.86014e-14
2.27761e-14
5.99611e-14
-3.15824e-14
5.61457e-14
-7.5031e-14
5.49584e-14
-6.37383e-14
2.762e-14
-4.02997e-14
-5.89197e-14
9.71375e-14
-5.02648e-14
9.69844e-14
-3.67369e-14
1.10414e-13
-3.11801e-14
1.02369e-13
-4.48849e-16
8.49773e-15
2.0494e-14
-5.24057e-14
2.56671e-14
-1.03817e-13
1.47381e-14
-8.51393e-14
-7.54169e-15
-1.8324e-14
-1.00703e-14
-2.95481e-14
5.06261e-15
-2.2815e-14
2.04292e-14
-4.58648e-14
1.96913e-14
-9.08696e-15
6.51603e-14
8.23682e-15
4.77469e-14
4.40078e-14
-1.256e-14
3.39596e-14
-2.13456e-14
2.48479e-14
-6.54777e-14
3.32387e-14
-7.19462e-14
-3.86691e-14
3.146e-14
-4.1828e-14
1.00125e-13
-4.0074e-14
9.53166e-14
-3.16634e-14
1.01936e-13
1.22904e-15
6.91791e-14
2.99024e-14
-2.02662e-14
4.67604e-14
-6.92641e-14
1.37397e-14
-7.03886e-14
-7.32894e-15
-6.38447e-14
-1.17764e-14
-1.40199e-14
9.38693e-15
-5.07235e-14
2.80605e-14
-4.1425e-14
1.89903e-14
-3.66341e-14
1.0673e-14
-6.46108e-16
7.58615e-14
-8.1901e-15
5.58631e-14
1.46304e-14
-3.49544e-14
2.66312e-14
-3.33647e-14
1.82156e-14
-5.72097e-14
-1.58323e-14
-3.74617e-14
-5.48176e-14
6.99841e-14
-1.74479e-14
6.2864e-14
-3.25291e-14
1.10367e-13
-2.23858e-14
9.17031e-14
2.39113e-14
2.2838e-14
4.03851e-14
-3.65269e-14
5.30775e-14
-8.17164e-14
2.15994e-14
-3.89504e-14
-5.10197e-15
-3.68961e-14
-4.31877e-15
-1.46052e-14
9.67399e-15
-6.44193e-14
1.80985e-14
-4.96493e-14
6.64316e-15
-2.49996e-14
6.5578e-15
-3.90523e-16
8.25278e-14
-3.34155e-16
5.62421e-14
8.37191e-16
-3.58831e-14
1.58839e-14
-4.80368e-14
1.25276e-14
-5.38589e-14
-5.09097e-14
2.58184e-14
-2.47092e-14
4.37709e-14
-1.82663e-14
5.65067e-14
-2.81153e-14
1.199e-13
7.60909e-15
5.58453e-14
4.19868e-14
-1.14077e-14
5.22175e-14
-4.66662e-14
4.14942e-14
-7.06294e-14
3.18091e-14
-2.90476e-14
9.95883e-15
-1.47488e-14
1.77159e-16
-4.5696e-15
-3.85779e-15
-6e-14
-4.82344e-16
-5.27088e-14
-1.37658e-15
-2.38857e-14
5.93902e-15
-7.45864e-15
8.86219e-14
8.76562e-15
4.7676e-14
1.27058e-14
-3.98335e-14
1.11878e-14
-4.64513e-14
-1.37559e-14
-2.84558e-14
-3.62163e-14
4.80514e-14
-2.08636e-14
2.8889e-14
-5.59694e-14
9.16085e-14
-2.69531e-14
9.05805e-14
3.48364e-14
-6.19896e-15
6.42624e-14
-4.08828e-14
7.03031e-14
-5.25174e-14
4.73203e-14
-4.73807e-14
2.74229e-14
-8.87843e-15
1.08919e-14
2.08586e-15
3.46216e-15
3.14132e-15
-6.77006e-15
-4.93558e-14
-7.98923e-15
-5.11233e-14
-6.40728e-15
-2.52275e-14
1.9636e-15
-1.55721e-14
9.07284e-14
2.82268e-15
4.50095e-14
1.14767e-14
-4.80678e-14
-3.52477e-15
-3.1378e-14
-4.49298e-14
1.28678e-14
-1.51954e-14
1.81945e-14
-4.59544e-14
5.94064e-14
-5.98576e-14
1.04996e-13
3.44284e-16
3.02736e-14
4.15124e-14
-4.70629e-14
6.90243e-14
-6.83253e-14
6.7875e-14
-5.12516e-14
4.99988e-14
-2.93583e-14
2.84544e-14
1.29228e-14
1.60857e-14
1.48538e-14
7.57568e-15
1.19836e-14
-7.90869e-15
-3.3549e-14
-1.21975e-14
-4.65934e-14
-5.91105e-15
-3.13317e-14
-1.1913e-15
-2.00667e-14
8.96409e-14
4.31411e-15
4.05537e-14
2.04368e-15
-4.58892e-14
-1.74107e-14
-1.17922e-14
-2.59404e-14
2.10947e-14
-1.7381e-14
9.89402e-15
-5.67545e-14
9.85618e-14
-2.18851e-14
7.00776e-14
4.01722e-14
-3.1695e-14
4.08638e-14
-4.7598e-14
5.06057e-14
-7.78803e-14
5.50417e-14
-5.54517e-14
4.62563e-14
-2.02256e-14
2.86446e-14
3.08537e-14
1.43148e-14
2.95234e-14
1.98269e-15
2.45089e-14
-1.17157e-14
-1.97262e-14
-8.93811e-15
-4.92488e-14
3.81855e-16
-4.05251e-14
-9.42796e-16
-1.8571e-14
8.87345e-14
6.05417e-15
3.47983e-14
4.79715e-15
-4.45724e-14
-7.922e-15
9.09298e-16
4.7929e-15
8.51771e-15
-3.28289e-14
4.74454e-14
-2.67304e-14
9.21192e-14
1.90515e-14
2.45104e-14
3.95136e-14
-5.17121e-14
3.35546e-14
-4.15047e-14
3.91791e-14
-8.32156e-14
4.40366e-14
-6.00221e-14
3.06859e-14
-6.5125e-15
7.81605e-15
5.39734e-14
-3.92836e-15
4.14227e-14
-3.93599e-15
2.45163e-14
-4.60723e-15
-1.90655e-14
3.57193e-15
-5.73502e-14
9.81045e-15
-4.66517e-14
-7.15992e-16
-7.96894e-15
8.79734e-14
8.53148e-15
2.62218e-14
8.04063e-15
-4.40017e-14
7.93156e-15
7.5663e-16
-4.9363e-15
2.15835e-14
-3.0626e-14
7.29653e-14
2.38187e-14
3.78101e-14
5.31462e-14
-4.62714e-15
2.89694e-14
-2.72388e-14
2.30353e-14
-3.54628e-14
1.88177e-14
-7.85981e-14
1.7451e-14
-5.83451e-14
5.46928e-15
5.62146e-15
-1.26041e-14
7.20334e-14
-1.66717e-14
4.55185e-14
-9.16629e-16
8.71382e-15
1.17615e-14
-3.17698e-14
1.66013e-14
-6.21202e-14
1.11356e-14
-4.11259e-14
-6.05071e-15
9.17524e-15
8.18193e-14
7.71418e-15
1.85034e-14
1.61176e-15
-3.78059e-14
1.19315e-14
-9.52398e-15
-7.21744e-15
4.05471e-14
1.24967e-14
5.33062e-14
4.81915e-14
2.60008e-15
4.42314e-14
-5.00144e-16
1.72023e-14
-1.82963e-16
1.51063e-14
-3.34148e-14
3.60685e-16
-6.36614e-14
-1.16353e-14
-4.60806e-14
-1.33216e-14
7.39168e-15
-1.32188e-14
7.17547e-14
-1.07288e-14
4.29404e-14
7.33742e-15
-9.33574e-15
2.20486e-14
-4.64591e-14
1.83721e-14
-5.84024e-14
2.67885e-15
-2.54448e-14
-1.45102e-14
2.62328e-14
6.71878e-14
-3.34638e-15
2.19132e-14
3.06224e-15
-4.40971e-14
1.04785e-15
-7.35305e-15
1.2759e-14
2.87592e-14
4.28461e-14
2.33745e-14
3.34429e-14
1.21434e-14
1.253e-14
2.03235e-14
5.2264e-15
7.03206e-15
1.50172e-14
-4.30901e-14
9.40126e-16
-4.94789e-14
-2.1974e-14
-2.30991e-14
-2.4453e-14
9.90313e-15
-7.22486e-15
5.43476e-14
3.02101e-15
3.25776e-14
1.353e-14
-1.98115e-14
1.75743e-14
-5.04272e-14
5.16845e-15
-4.5968e-14
-1.22088e-14
-8.14182e-15
-2.26842e-14
3.65228e-14
4.43751e-14
1.32766e-14
8.39178e-15
-5.8564e-16
-2.9714e-14
-1.26349e-14
4.88428e-15
1.2165e-14
4.3214e-15
2.6402e-14
9.29287e-15
1.52406e-14
2.31115e-14
1.53852e-14
2.01009e-14
2.17197e-14
6.93192e-16
1.52733e-14
-3.64121e-14
-3.54731e-15
-3.0534e-14
-2.38216e-14
-2.96126e-15
-2.65287e-14
1.25041e-14
-1.09774e-15
2.87902e-14
1.77108e-14
1.36959e-14
1.61541e-14
-1.82012e-14
-1.09149e-16
-3.40684e-14
-2.21751e-14
-2.38833e-14
-3.40513e-14
3.61781e-15
-2.73211e-14
2.95827e-14
1.69289e-14
8.49214e-15
-2.12573e-14
-1.63483e-14
-1.18663e-14
-2.51866e-15
2.04146e-14
4.05311e-14
4.1286e-14
4.9536e-15
-2.55694e-14
-2.86727e-14
-1.62763e-14
1.25063e-14
2.62514e-14
8.12238e-15
-2.59162e-14
-4.98568e-14
-4.63654e-14
-1.69291e-14
)
;

boundaryField
{
    floor
    {
        type            calculated;
        value           uniform 0;
    }
    ceiling
    {
        type            calculated;
        value           uniform 0;
    }
    fixedWalls
    {
        type            calculated;
        value           uniform 0;
    }
    frontAndBack
    {
        type            empty;
        value           nonuniform 0();
    }
}


// ************************************************************************* //
