/*--------------------------------*- C++ -*----------------------------------*\
| =========                 |                                                 |
| \\      /  F ield         | OpenFOAM: The Open Source CFD Toolbox           |
|  \\    /   O peration     | Version:  4.1                                   |
|   \\  /    A nd           | Web:      www.OpenFOAM.org                      |
|    \\/     M anipulation  |                                                 |
\*---------------------------------------------------------------------------*/
FoamFile
{
    version     2.0;
    format      ascii;
    class       volVectorField;
    location    "20";
    object      U;
}
// * * * * * * * * * * * * * * * * * * * * * * * * * * * * * * * * * * * * * //

dimensions      [0 1 -1 0 0 0 0];

internalField   nonuniform List<vector> 
400
(
(-4.7047e-10 4.67368e-10 0)
(-5.50236e-10 -2.33587e-10 0)
(-1.52334e-10 -1.39214e-10 0)
(-1.12152e-10 -4.84252e-11 0)
(-5.50959e-11 -2.16601e-11 0)
(-3.87257e-11 -1.09541e-11 0)
(-2.93757e-11 -5.92109e-12 0)
(-1.51923e-11 -6.92981e-12 0)
(-3.36171e-12 -6.32874e-12 0)
(8.36781e-12 -5.04832e-12 0)
(8.06522e-12 2.05175e-12 0)
(-1.82554e-12 4.88117e-12 0)
(-1.06028e-11 3.7334e-12 0)
(-1.57113e-11 1.25545e-12 0)
(-1.25758e-11 -2.9001e-12 0)
(-3.79153e-12 -4.32163e-12 0)
(4.92257e-12 -3.94738e-12 0)
(1.0469e-11 -7.71679e-13 0)
(4.9297e-12 4.82009e-12 0)
(-1.00765e-12 5.7157e-13 0)
(2.33765e-10 5.46717e-10 0)
(2.45216e-10 -2.50861e-10 0)
(2.6717e-11 -1.45683e-10 0)
(9.34799e-12 -6.62842e-11 0)
(-8.63072e-12 -2.81327e-11 0)
(-1.41657e-11 -1.52278e-11 0)
(-6.70444e-12 -1.70576e-11 0)
(1.77291e-13 -1.48395e-11 0)
(6.51587e-12 -1.82233e-11 0)
(9.37198e-12 -4.29425e-12 0)
(-3.81413e-12 1.08226e-11 0)
(-9.44811e-12 1.21652e-11 0)
(-1.31676e-11 1.03465e-11 0)
(-1.43039e-11 1.84725e-12 0)
(-7.39836e-12 -1.14305e-11 0)
(1.84185e-12 -1.28244e-11 0)
(7.61919e-12 -1.10595e-11 0)
(1.05444e-11 -1.67808e-12 0)
(7.05044e-12 1.22914e-11 0)
(1.8137e-12 2.94454e-12 0)
(1.46315e-10 1.48508e-10 0)
(1.52543e-10 -2.57747e-11 0)
(2.58074e-11 -2.43837e-11 0)
(1.7407e-11 -2.85042e-11 0)
(-3.23577e-12 -1.44405e-11 0)
(4.02307e-12 -1.27242e-11 0)
(3.76505e-12 -2.1654e-11 0)
(6.33585e-12 -1.90452e-11 0)
(7.75535e-12 -1.83886e-11 0)
(-5.15071e-12 6.6587e-12 0)
(-1.27731e-11 1.86158e-11 0)
(-1.43147e-11 1.30694e-11 0)
(-1.17681e-11 8.85595e-12 0)
(-4.92798e-12 -4.10776e-12 0)
(5.8982e-13 -1.88472e-11 0)
(2.83647e-12 -1.7095e-11 0)
(2.26311e-12 -1.18494e-11 0)
(2.17218e-12 -3.45004e-12 0)
(4.58625e-12 1.52316e-11 0)
(2.85785e-12 7.6563e-12 0)
(4.63478e-11 9.84439e-11 0)
(6.3754e-11 -4.02189e-12 0)
(2.91882e-11 -2.07272e-11 0)
(1.645e-11 -1.0208e-11 0)
(5.13983e-12 -1.5729e-11 0)
(1.49055e-11 -2.04596e-11 0)
(1.4438e-11 -1.81595e-11 0)
(1.09138e-11 -2.08384e-11 0)
(1.43137e-12 -4.03843e-12 0)
(-1.53522e-11 1.52039e-11 0)
(-1.47755e-11 2.00851e-11 0)
(-1.56442e-11 1.25839e-11 0)
(-9.65894e-12 7.8682e-13 0)
(9.88852e-13 -1.16264e-11 0)
(4.84669e-12 -2.07067e-11 0)
(3.9107e-12 -1.66973e-11 0)
(-1.54615e-12 -7.67867e-12 0)
(-6.27598e-12 -4.35628e-12 0)
(-3.79946e-12 1.32532e-11 0)
(-7.98331e-13 8.66858e-12 0)
(2.81617e-11 4.25357e-11 0)
(3.85997e-11 1.52901e-11 0)
(1.67445e-11 -6.30956e-13 0)
(1.3503e-11 -6.8936e-13 0)
(1.55964e-11 -1.75181e-11 0)
(1.40899e-11 -2.04253e-11 0)
(1.58195e-11 -1.79808e-11 0)
(1.14195e-11 -1.09855e-11 0)
(-7.4909e-12 1.22307e-11 0)
(-1.62011e-11 1.90004e-11 0)
(-1.42052e-11 1.90348e-11 0)
(-1.18115e-11 1.03532e-11 0)
(-5.14028e-12 -8.92534e-12 0)
(2.34818e-12 -1.74351e-11 0)
(4.7211e-12 -2.09366e-11 0)
(9.44737e-13 -1.16898e-11 0)
(-4.33824e-12 -1.5394e-12 0)
(-8.04861e-12 -1.87875e-12 0)
(-4.95934e-12 7.53773e-12 0)
(1.2335e-13 6.40777e-12 0)
(1.09165e-11 1.81683e-11 0)
(1.31055e-11 2.25899e-11 0)
(9.30349e-12 2.80434e-12 0)
(1.85434e-11 -9.71405e-12 0)
(2.11206e-11 -1.7746e-11 0)
(1.52476e-11 -1.34662e-11 0)
(1.43172e-11 -2.07157e-11 0)
(2.02656e-12 7.189e-12 0)
(-1.24317e-11 2.28448e-11 0)
(-1.32633e-11 1.98663e-11 0)
(-1.24515e-11 1.61875e-11 0)
(-5.48224e-12 4.92046e-12 0)
(-1.39054e-13 -1.49856e-11 0)
(3.64862e-12 -2.05933e-11 0)
(1.00894e-12 -1.81355e-11 0)
(-4.29775e-12 -7.79859e-12 0)
(-5.22391e-12 9.59707e-13 0)
(-4.84446e-12 -1.6053e-12 0)
(-7.8639e-13 2.45146e-12 0)
(6.75198e-13 5.46792e-12 0)
(-1.24936e-14 1.3538e-11 0)
(2.91646e-12 1.8853e-11 0)
(1.23648e-11 -3.25242e-12 0)
(1.77211e-11 -1.57311e-11 0)
(1.42612e-11 -1.43392e-11 0)
(1.77719e-11 -1.19094e-11 0)
(7.35055e-12 -9.42053e-12 0)
(-1.09154e-11 1.94172e-11 0)
(-1.03522e-11 2.52696e-11 0)
(-1.12722e-11 2.09293e-11 0)
(-9.58231e-12 1.10918e-11 0)
(-1.1349e-12 -2.81519e-12 0)
(4.35221e-12 -1.84148e-11 0)
(5.83847e-12 -2.04757e-11 0)
(-5.61076e-13 -1.13592e-11 0)
(-5.62176e-12 -6.74343e-12 0)
(-4.09944e-12 -5.16794e-13 0)
(-1.6884e-12 -4.36679e-12 0)
(2.95124e-12 -1.01904e-12 0)
(2.26415e-12 7.21307e-12 0)
(1.66965e-12 1.25104e-11 0)
(6.01784e-12 9.06199e-12 0)
(1.3133e-11 -7.38835e-12 0)
(1.2131e-11 -1.54767e-11 0)
(9.47023e-12 -1.29076e-11 0)
(1.32743e-11 -1.2567e-11 0)
(-4.49553e-12 1.28709e-11 0)
(-1.49328e-11 2.09257e-11 0)
(-7.4622e-12 2.35461e-11 0)
(-7.98357e-12 2.14713e-11 0)
(-2.9931e-12 4.70727e-12 0)
(2.65097e-12 -8.62809e-12 0)
(5.32455e-12 -2.08813e-11 0)
(4.40768e-12 -1.84843e-11 0)
(3.71858e-13 -5.49368e-12 0)
(-2.5344e-12 -5.58132e-12 0)
(-9.68131e-13 -2.92548e-12 0)
(2.67441e-12 -8.20997e-12 0)
(4.79039e-12 -2.43865e-12 0)
(2.36265e-12 1.11175e-11 0)
(-6.96645e-14 9.3449e-12 0)
(5.04856e-12 1.05304e-12 0)
(9.09981e-12 -4.76394e-12 0)
(4.37875e-12 -1.36469e-11 0)
(8.20248e-12 -1.42232e-11 0)
(7.6977e-13 -1.70213e-12 0)
(-1.17782e-11 2.27278e-11 0)
(-7.85971e-12 1.91651e-11 0)
(-7.81877e-12 2.13804e-11 0)
(-3.65038e-12 1.75676e-11 0)
(3.85502e-12 -1.5338e-12 0)
(8.87432e-12 -1.23859e-11 0)
(7.2837e-12 -1.79077e-11 0)
(-3.55828e-13 -1.50894e-11 0)
(-3.07536e-12 -3.00594e-12 0)
(-7.54579e-13 -7.71034e-12 0)
(4.49524e-12 -6.51999e-12 0)
(5.26024e-12 -8.71957e-12 0)
(2.87104e-12 -8.292e-13 0)
(1.29677e-12 1.41978e-11 0)
(-2.79517e-12 1.0169e-11 0)
(1.42328e-13 -5.33274e-12 0)
(5.37123e-12 -4.94075e-12 0)
(4.13743e-12 -1.26148e-11 0)
(3.24467e-12 -1.22874e-11 0)
(-1.04587e-11 1.23218e-11 0)
(-7.53867e-12 1.6301e-11 0)
(-2.05801e-12 2.02393e-11 0)
(-8.57259e-12 1.96984e-11 0)
(7.12734e-13 8.854e-12 0)
(7.32519e-12 -5.92448e-12 0)
(1.01164e-11 -1.55741e-11 0)
(8.61118e-12 -1.05371e-11 0)
(7.91878e-13 -1.00115e-11 0)
(-2.26779e-12 -3.1377e-12 0)
(3.80388e-13 -1.193e-11 0)
(3.59488e-12 -9.30934e-12 0)
(2.3905e-12 -5.98953e-12 0)
(9.38e-13 3.9812e-13 0)
(1.2492e-12 1.57993e-11 0)
(-6.93935e-14 1.14801e-11 0)
(-6.03051e-13 -7.72818e-12 0)
(1.41033e-12 -8.15153e-12 0)
(6.47616e-12 -1.16505e-11 0)
(-4.03473e-12 -1.12155e-12 0)
(-1.09645e-11 1.31219e-11 0)
(-1.83338e-12 1.03539e-11 0)
(-5.77094e-12 2.32815e-11 0)
(-3.71898e-12 1.56176e-11 0)
(6.25878e-12 9.49143e-13 0)
(9.97793e-12 -8.46574e-12 0)
(9.82233e-12 -1.54738e-11 0)
(7.64349e-12 -6.75838e-12 0)
(4.06056e-12 -5.02067e-12 0)
(6.50401e-13 -2.0344e-12 0)
(-7.79973e-13 -1.26787e-11 0)
(-1.96437e-13 -1.03894e-11 0)
(-4.36215e-13 -4.79757e-12 0)
(3.84148e-13 -6.55668e-13 0)
(1.38807e-12 1.70637e-11 0)
(1.08212e-12 1.04787e-11 0)
(1.94318e-12 -7.52222e-12 0)
(2.79286e-12 -9.99654e-12 0)
(1.62009e-12 -8.76131e-12 0)
(-7.81178e-12 9.79359e-12 0)
(-4.35836e-12 6.06405e-12 0)
(-6.47713e-12 1.41719e-11 0)
(-1.20984e-11 2.20253e-11 0)
(1.36353e-12 4.81778e-12 0)
(1.10075e-11 -5.16855e-12 0)
(1.42046e-11 -1.0019e-11 0)
(1.22989e-11 -1.20258e-11 0)
(7.60852e-12 -4.12933e-12 0)
(3.3886e-12 -1.22226e-12 0)
(1.38389e-12 -3.00442e-14 0)
(-4.02863e-13 -1.09737e-11 0)
(-1.70743e-12 -1.05801e-11 0)
(-1.78822e-12 -4.9952e-12 0)
(-2.63004e-13 -2.52272e-12 0)
(7.21533e-13 1.78965e-11 0)
(-3.04608e-13 9.25657e-12 0)
(1.54309e-12 -8.51316e-12 0)
(3.93269e-12 -8.32953e-12 0)
(-6.49402e-12 -1.0937e-12 0)
(-6.87089e-12 7.65725e-12 0)
(-1.95591e-12 6.95044e-12 0)
(-1.38763e-11 2.05196e-11 0)
(-6.88393e-12 1.25875e-11 0)
(6.50827e-12 -6.70101e-12 0)
(1.12609e-11 -1.15492e-11 0)
(1.45684e-11 -1.05325e-11 0)
(1.21837e-11 -7.69544e-12 0)
(7.63757e-12 5.05569e-13 0)
(4.02965e-12 1.84226e-12 0)
(2.52646e-12 1.42465e-12 0)
(-6.5336e-14 -8.43265e-12 0)
(-2.44522e-12 -9.83615e-12 0)
(-1.95548e-12 -5.69552e-12 0)
(-5.87416e-13 -3.80203e-12 0)
(-6.94043e-14 1.78993e-11 0)
(1.13019e-13 8.46867e-12 0)
(1.05308e-12 -9.84816e-12 0)
(-1.75363e-13 -4.14931e-12 0)
(-6.65486e-12 4.97751e-12 0)
(-2.23009e-12 4.90211e-13 0)
(-6.80062e-12 1.59648e-11 0)
(-1.19953e-11 1.85039e-11 0)
(3.55794e-12 -1.17397e-12 0)
(9.70717e-12 -1.01252e-11 0)
(8.8245e-12 -1.4957e-11 0)
(1.07333e-11 -1.0713e-11 0)
(1.06435e-11 -4.83601e-12 0)
(7.14343e-12 4.46602e-12 0)
(4.05304e-12 4.62607e-12 0)
(1.85166e-12 3.82372e-12 0)
(-1.26638e-12 -5.17155e-12 0)
(-2.66759e-12 -9.5722e-12 0)
(-4.12264e-13 -7.30554e-12 0)
(2.79613e-13 -4.12751e-12 0)
(-4.02238e-13 1.76216e-11 0)
(5.75043e-13 7.74673e-12 0)
(2.55931e-12 -9.46079e-12 0)
(-1.84075e-12 -6.98524e-13 0)
(4.36166e-13 2.65863e-12 0)
(-1.89292e-13 4.21818e-12 0)
(-9.80766e-12 2.06346e-11 0)
(-7.46151e-13 9.8026e-12 0)
(7.47904e-12 -9.99608e-12 0)
(7.20856e-12 -8.82559e-12 0)
(7.51739e-12 -1.59664e-11 0)
(8.35888e-12 -1.15646e-11 0)
(8.01464e-12 -2.62775e-12 0)
(3.57883e-12 8.71942e-12 0)
(-2.70565e-13 7.29439e-12 0)
(-8.32881e-13 5.3857e-12 0)
(-9.7222e-13 -3.4613e-12 0)
(-4.82402e-13 -1.07729e-11 0)
(2.09344e-12 -8.96618e-12 0)
(9.0943e-13 -2.93859e-12 0)
(-8.35267e-13 1.75348e-11 0)
(1.56239e-12 6.31203e-12 0)
(2.2008e-12 -8.94359e-12 0)
(7.39498e-13 8.02379e-13 0)
(2.67362e-12 1.66402e-12 0)
(-5.40545e-12 1.35282e-11 0)
(-3.58676e-12 1.4065e-11 0)
(1.07923e-11 8.44966e-13 0)
(8.76009e-12 -8.53025e-12 0)
(4.43912e-12 -7.69173e-12 0)
(4.29789e-12 -1.61667e-11 0)
(3.72099e-12 -1.18375e-11 0)
(2.54878e-12 2.56502e-13 0)
(-7.6156e-13 1.29801e-11 0)
(-3.67536e-12 8.79073e-12 0)
(-1.984e-12 3.53918e-12 0)
(1.45077e-12 -4.9263e-12 0)
(2.89946e-12 -1.21086e-11 0)
(3.53191e-12 -9.04295e-12 0)
(4.92566e-14 -1.38432e-14 0)
(-1.66144e-12 1.7046e-11 0)
(2.35827e-12 3.91182e-12 0)
(-8.7131e-14 -7.87527e-12 0)
(1.47754e-12 -6.82983e-13 0)
(1.43277e-12 6.66771e-12 0)
(-2.84667e-12 1.39804e-11 0)
(7.02645e-12 2.46935e-12 0)
(1.06683e-11 -2.00038e-12 0)
(5.53292e-12 -1.98438e-12 0)
(3.0538e-12 -6.76728e-12 0)
(1.68872e-12 -1.43589e-11 0)
(-1.35389e-12 -1.04225e-11 0)
(-2.87371e-12 1.51724e-12 0)
(-2.6396e-12 1.46464e-11 0)
(-2.76311e-12 8.84761e-12 0)
(-7.35422e-13 -2.32108e-13 0)
(3.44016e-12 -7.92126e-12 0)
(4.42705e-12 -1.21393e-11 0)
(2.70459e-12 -6.72801e-12 0)
(-2.00585e-12 3.63588e-12 0)
(-2.6205e-12 1.51246e-11 0)
(-8.16094e-13 4.24545e-12 0)
(7.19939e-14 -8.23489e-12 0)
(5.4237e-13 -2.58869e-12 0)
(3.05645e-13 7.9744e-12 0)
(5.26356e-12 7.27678e-12 0)
(9.60879e-12 -5.74045e-13 0)
(4.53675e-12 1.90855e-12 0)
(4.78151e-13 1.54283e-12 0)
(2.47739e-12 -7.63386e-12 0)
(2.32713e-12 -1.15662e-11 0)
(-2.20608e-12 -7.2038e-12 0)
(-5.48115e-12 1.53182e-12 0)
(-3.25025e-12 1.26465e-11 0)
(-1.50562e-13 7.58646e-12 0)
(1.64726e-12 -3.1805e-12 0)
(3.56352e-12 -1.00149e-11 0)
(2.64738e-12 -1.05583e-11 0)
(-5.24499e-13 -3.25953e-12 0)
(-4.56754e-12 6.58953e-12 0)
(-3.27332e-12 1.13901e-11 0)
(1.9901e-12 3.32862e-12 0)
(2.40528e-12 -7.98526e-12 0)
(-2.59064e-12 1.82149e-13 0)
(-1.212e-12 2.9895e-12 0)
(5.15049e-12 3.00624e-12 0)
(4.35767e-12 4.63105e-12 0)
(2.7418e-12 5.19991e-12 0)
(3.6852e-12 9.13402e-13 0)
(4.20757e-12 -8.56668e-12 0)
(1.3894e-12 -8.09217e-12 0)
(-3.02392e-12 -1.98943e-12 0)
(-5.98674e-12 2.66209e-12 0)
(-3.13362e-12 8.47572e-12 0)
(2.4114e-12 4.743e-12 0)
(3.95189e-12 -4.22856e-12 0)
(2.06802e-12 -8.95107e-12 0)
(-2.25729e-12 -7.01022e-12 0)
(-5.94077e-12 1.73006e-13 0)
(-6.92216e-12 7.39916e-12 0)
(-3.24557e-12 6.07029e-12 0)
(3.17651e-12 -1.14818e-13 0)
(-1.2554e-12 -3.10953e-12 0)
(-4.93411e-12 1.38913e-12 0)
(-2.92933e-12 -4.56789e-13 0)
(-1.57597e-12 6.75659e-13 0)
(1.07359e-12 3.00651e-12 0)
(6.23813e-12 2.22216e-12 0)
(9.48461e-12 -4.8324e-13 0)
(5.022e-12 -4.53213e-12 0)
(-2.64797e-12 -3.39418e-12 0)
(-6.30396e-12 2.24276e-13 0)
(-5.12324e-12 1.56064e-12 0)
(-4.9604e-13 2.85633e-12 0)
(4.86148e-12 1.22412e-12 0)
(4.45853e-12 -2.27223e-12 0)
(-1.60114e-12 -3.75007e-12 0)
(-8.17698e-12 -2.37806e-12 0)
(-1.05072e-11 8.83346e-13 0)
(-6.53648e-12 3.44633e-12 0)
(-1.31392e-12 1.37903e-12 0)
)
;

boundaryField
{
    floor
    {
        type            noSlip;
    }
    ceiling
    {
        type            noSlip;
    }
    fixedWalls
    {
        type            noSlip;
    }
    frontAndBack
    {
        type            empty;
    }
}


// ************************************************************************* //
