/*--------------------------------*- C++ -*----------------------------------*\
| =========                 |                                                 |
| \\      /  F ield         | OpenFOAM: The Open Source CFD Toolbox           |
|  \\    /   O peration     | Version:  4.1                                   |
|   \\  /    A nd           | Web:      www.OpenFOAM.org                      |
|    \\/     M anipulation  |                                                 |
\*---------------------------------------------------------------------------*/
FoamFile
{
    version     2.0;
    format      ascii;
    class       surfaceScalarField;
    location    "1680";
    object      phi;
}
// * * * * * * * * * * * * * * * * * * * * * * * * * * * * * * * * * * * * * //

dimensions      [0 3 -1 0 0 0 0];

internalField   nonuniform List<scalar> 
9850
(
-4.61682e-06
4.61682e-06
-7.93609e-06
3.31927e-06
-1.05197e-05
2.58365e-06
-1.2614e-05
2.09422e-06
-1.4292e-05
1.67802e-06
-1.55751e-05
1.28307e-06
-1.64643e-05
8.89248e-07
-1.69542e-05
4.89878e-07
-1.70314e-05
7.7208e-08
-1.6692e-05
-3.39382e-07
-1.59292e-05
-7.62807e-07
-1.4751e-05
-1.17818e-06
-1.31765e-05
-1.57449e-06
-1.1241e-05
-1.93556e-06
-9.00547e-06
-2.2355e-06
-6.55812e-06
-2.44734e-06
-3.99588e-06
-2.56224e-06
-1.38957e-06
-2.60631e-06
1.27244e-06
-2.66202e-06
3.82734e-06
-2.5549e-06
6.07748e-06
-2.25013e-06
8.06614e-06
-1.98867e-06
9.84647e-06
-1.78033e-06
1.14499e-05
-1.60344e-06
1.28973e-05
-1.44739e-06
1.42056e-05
-1.3083e-06
1.53901e-05
-1.18453e-06
1.64647e-05
-1.07459e-06
1.74416e-05
-9.76892e-07
1.83315e-05
-8.8985e-07
1.91434e-05
-8.11946e-07
1.98852e-05
-7.41765e-07
2.05632e-05
-6.78006e-07
2.11827e-05
-6.19476e-07
2.17477e-05
-5.65091e-07
2.22616e-05
-5.13877e-07
2.27266e-05
-4.64968e-07
2.31442e-05
-4.17598e-07
2.35153e-05
-3.71086e-07
2.38401e-05
-3.24828e-07
2.41184e-05
-2.78277e-07
2.43493e-05
-2.30934e-07
2.45317e-05
-1.82346e-07
2.46638e-05
-1.32132e-07
2.47439e-05
-8.01123e-08
2.47707e-05
-2.67928e-08
2.47431e-05
2.75775e-08
2.46597e-05
8.34407e-08
2.45178e-05
1.41839e-07
2.43138e-05
2.04028e-07
2.40431e-05
2.70746e-07
2.37005e-05
3.42572e-07
2.32805e-05
4.19956e-07
2.27774e-05
5.03179e-07
2.21851e-05
5.92261e-07
2.14982e-05
6.86869e-07
2.0712e-05
7.86206e-07
1.98231e-05
8.8894e-07
1.883e-05
9.93135e-07
1.77337e-05
1.09625e-06
1.65386e-05
1.19513e-06
1.52525e-05
1.28605e-06
1.38881e-05
1.36446e-06
1.24639e-05
1.42419e-06
1.10081e-05
1.45574e-06
9.55576e-06
1.45238e-06
8.07432e-06
1.48145e-06
6.13674e-06
1.93757e-06
2.56961e-06
3.56714e-06
-1.5308e-06
4.10041e-06
-3.50884e-06
1.97804e-06
-4.66826e-06
1.15942e-06
-5.50665e-06
8.38389e-07
-6.22932e-06
7.22668e-07
-6.9162e-06
6.86881e-07
-7.59283e-06
6.76624e-07
-8.26033e-06
6.67503e-07
-8.90873e-06
6.48397e-07
-9.52325e-06
6.14523e-07
-1.00876e-05
5.64386e-07
-1.05858e-05
4.98214e-07
-1.10029e-05
4.17095e-07
-1.13254e-05
3.22471e-07
-1.15411e-05
2.15697e-07
-1.16381e-05
9.69954e-08
-1.16023e-05
-3.57913e-08
-1.14224e-05
-1.79923e-07
-1.10839e-05
-3.38515e-07
-1.05745e-05
-5.09343e-07
-9.88071e-06
-6.93824e-07
-8.98577e-06
-8.94938e-07
-7.86913e-06
-1.11664e-06
-6.5043e-06
-1.36483e-06
-4.85091e-06
-1.65339e-06
-2.8343e-06
-2.01662e-06
-3.54234e-07
-2.48006e-06
2.35912e-06
-2.71335e-06
4.11918e-06
-1.76006e-06
3.59531e-06
5.23866e-07
3.59531e-06
-4.02179e-06
8.63861e-06
-7.26554e-06
6.56302e-06
-9.85528e-06
5.17339e-06
-1.19287e-05
4.16763e-06
-1.35474e-05
3.29676e-06
-1.4736e-05
2.47166e-06
-1.55012e-05
1.65446e-06
-1.58414e-05
8.30052e-07
-1.57593e-05
-4.90383e-09
-1.52727e-05
-8.25962e-07
-1.44004e-05
-1.63515e-06
-1.31542e-05
-2.42433e-06
-1.1545e-05
-3.18369e-06
-9.59884e-06
-3.88173e-06
-7.37204e-06
-4.46231e-06
-4.94965e-06
-4.86973e-06
-2.41378e-06
-5.09811e-06
1.98637e-07
-5.21872e-06
2.64533e-06
-5.10871e-06
4.82512e-06
-4.73469e-06
6.87231e-06
-4.29733e-06
8.76736e-06
-3.88371e-06
1.05042e-05
-3.51716e-06
1.20922e-05
-3.19145e-06
1.3544e-05
-2.89917e-06
1.48723e-05
-2.63667e-06
1.60895e-05
-2.40166e-06
1.72067e-05
-2.19183e-06
1.82345e-05
-2.00464e-06
1.9182e-05
-1.8374e-06
2.00575e-05
-1.6874e-06
2.08678e-05
-1.55207e-06
2.16187e-05
-1.42895e-06
2.2315e-05
-1.31578e-06
2.29604e-05
-1.2105e-06
2.35578e-05
-1.11125e-06
2.41092e-05
-1.0164e-06
2.46161e-05
-9.24522e-07
2.50794e-05
-8.34363e-07
2.54994e-05
-7.44842e-07
2.58762e-05
-6.55007e-07
2.62092e-05
-5.64014e-07
2.6498e-05
-4.71101e-07
2.67414e-05
-3.75567e-07
2.69381e-05
-2.7676e-07
2.70853e-05
-1.7398e-07
2.71791e-05
-6.62274e-08
2.72156e-05
4.69183e-08
2.71908e-05
1.666e-07
2.71005e-05
2.94318e-07
2.69395e-05
4.31756e-07
2.67019e-05
5.80251e-07
2.63809e-05
7.40881e-07
2.59697e-05
9.14443e-07
2.54607e-05
1.10125e-06
2.48466e-05
1.30092e-06
2.41207e-05
1.51217e-06
2.3277e-05
1.73265e-06
2.23112e-05
1.95888e-06
2.12212e-05
2.18624e-06
2.00071e-05
2.40926e-06
1.86711e-05
2.622e-06
1.72169e-05
2.81868e-06
1.56462e-05
2.99492e-06
1.39503e-05
3.15163e-06
1.2089e-05
3.31369e-06
9.95092e-06
3.61951e-06
7.3047e-06
4.58379e-06
3.90408e-06
6.96776e-06
-7.85759e-08
8.08306e-06
-2.6498e-06
4.54927e-06
-4.12773e-06
2.63735e-06
-5.22153e-06
1.93218e-06
-6.1441e-06
1.64524e-06
-6.98403e-06
1.52681e-06
-7.7741e-06
1.4667e-06
-8.52123e-06
1.41463e-06
-9.21999e-06
1.34716e-06
-9.85942e-06
1.25396e-06
-1.04267e-05
1.13165e-06
-1.09088e-05
9.80379e-07
-1.12938e-05
8.02021e-07
-1.15705e-05
5.99194e-07
-1.17292e-05
3.74379e-07
-1.17617e-05
1.29513e-07
-1.16638e-05
-1.3367e-07
-1.1428e-05
-4.15713e-07
-1.10485e-05
-7.18083e-07
-1.0517e-05
-1.04081e-06
-9.82399e-06
-1.38682e-06
-8.95776e-06
-1.76117e-06
-7.90377e-06
-2.17064e-06
-6.64378e-06
-2.62482e-06
-5.15865e-06
-3.13852e-06
-3.45285e-06
-3.72241e-06
-1.61306e-06
-4.31985e-06
3.50251e-07
-4.67667e-06
2.30224e-06
-3.71205e-06
2.09134e-06
7.34771e-07
5.68665e-06
-3.30713e-06
1.19457e-05
-6.10148e-06
9.35737e-06
-8.3927e-06
7.46461e-06
-1.02393e-05
6.01422e-06
-1.16729e-05
4.73036e-06
-1.27082e-05
3.50696e-06
-1.33494e-05
2.29567e-06
-1.36009e-05
1.08152e-06
-1.34594e-05
-1.46378e-07
-1.29612e-05
-1.32415e-06
-1.21137e-05
-2.48269e-06
-1.09257e-05
-3.61233e-06
-9.39659e-06
-4.71278e-06
-7.54401e-06
-5.73431e-06
-5.42615e-06
-6.58017e-06
-3.13036e-06
-7.16552e-06
-7.40317e-07
-7.48816e-06
1.54937e-06
-7.50841e-06
3.6366e-06
-7.19593e-06
5.59859e-06
-6.69669e-06
7.45996e-06
-6.15869e-06
9.20609e-06
-5.62984e-06
1.08228e-05
-5.13386e-06
1.23098e-05
-4.67851e-06
1.36747e-05
-4.26406e-06
1.49273e-05
-3.88926e-06
1.60779e-05
-3.55225e-06
1.71365e-05
-3.25041e-06
1.81124e-05
-2.98053e-06
1.9014e-05
-2.73898e-06
1.98486e-05
-2.52203e-06
2.06225e-05
-2.32597e-06
2.13408e-05
-2.14727e-06
2.20077e-05
-1.98264e-06
2.26263e-05
-1.82908e-06
2.31989e-05
-1.6839e-06
2.37273e-05
-1.54475e-06
2.42123e-05
-1.40958e-06
2.46546e-05
-1.27664e-06
2.50542e-05
-1.14443e-06
2.54108e-05
-1.01167e-06
2.57241e-05
-8.77242e-07
2.59931e-05
-7.40134e-07
2.62169e-05
-5.99414e-07
2.63944e-05
-4.54177e-07
2.65239e-05
-3.03495e-07
2.6604e-05
-1.4639e-07
2.66331e-05
1.7839e-08
2.66072e-05
1.92473e-07
2.65236e-05
3.78007e-07
2.63783e-05
5.77057e-07
2.6167e-05
7.91518e-07
2.58846e-05
1.02322e-06
2.55253e-05
1.27377e-06
2.50823e-05
1.54427e-06
2.45482e-05
1.83501e-06
2.39152e-05
2.14515e-06
2.31755e-05
2.47239e-06
2.23215e-05
2.81285e-06
2.13466e-05
3.16114e-06
2.0245e-05
3.51087e-06
1.90115e-05
3.85554e-06
1.76398e-05
4.19035e-06
1.61192e-05
4.51551e-06
1.44274e-05
4.84345e-06
1.25197e-05
5.22141e-06
1.03217e-05
5.81752e-06
7.74627e-06
7.15919e-06
4.76448e-06
9.94955e-06
1.42735e-06
1.14202e-05
-1.28746e-06
7.26408e-06
-2.81037e-06
4.16026e-06
-4.00754e-06
3.12935e-06
-5.04193e-06
2.67963e-06
-5.98271e-06
2.46759e-06
-6.85581e-06
2.3398e-06
-7.66672e-06
2.22554e-06
-8.41146e-06
2.09189e-06
-9.08175e-06
1.92425e-06
-9.66784e-06
1.71774e-06
-1.016e-05
1.47257e-06
-1.05495e-05
1.19145e-06
-1.08284e-05
8.78103e-07
-1.09906e-05
5.36617e-07
-1.10296e-05
1.68524e-07
-1.09444e-05
-2.18844e-07
-1.07311e-05
-6.29094e-07
-1.03876e-05
-1.0615e-06
-9.91059e-06
-1.51787e-06
-9.29489e-06
-2.00252e-06
-8.53422e-06
-2.52183e-06
-7.6208e-06
-3.08406e-06
-6.54647e-06
-3.69916e-06
-5.30964e-06
-4.37535e-06
-3.93183e-06
-5.10022e-06
-2.46586e-06
-5.78582e-06
-9.8623e-07
-6.1563e-06
7.15107e-07
-5.41339e-06
1.23726e-06
2.12622e-07
6.92391e-06
-2.71192e-06
1.46577e-05
-5.01709e-06
1.16625e-05
-6.93919e-06
9.38671e-06
-8.50883e-06
7.58386e-06
-9.73234e-06
5.95388e-06
-1.06073e-05
4.38188e-06
-1.11275e-05
2.81588e-06
-1.12906e-05
1.24464e-06
-1.11142e-05
-3.22783e-07
-1.0608e-05
-1.83033e-06
-9.80301e-06
-3.28769e-06
-8.69936e-06
-4.71598e-06
-7.27554e-06
-6.13661e-06
-5.54038e-06
-7.46946e-06
-3.56056e-06
-8.55998e-06
-1.4393e-06
-9.28678e-06
6.86225e-07
-9.61369e-06
2.66114e-06
-9.48332e-06
4.50742e-06
-9.04222e-06
6.28452e-06
-8.47378e-06
7.97408e-06
-7.84826e-06
9.55989e-06
-7.21565e-06
1.1033e-05
-6.60693e-06
1.23926e-05
-6.0381e-06
1.36441e-05
-5.51559e-06
1.47957e-05
-5.04091e-06
1.58565e-05
-4.61298e-06
1.68351e-05
-4.22904e-06
1.77398e-05
-3.88524e-06
1.85779e-05
-3.57713e-06
1.93559e-05
-3.29996e-06
2.00789e-05
-3.04901e-06
2.07514e-05
-2.81971e-06
2.13765e-05
-2.60781e-06
2.19569e-05
-2.40946e-06
2.24942e-05
-2.22119e-06
2.29894e-05
-2.03999e-06
2.34432e-05
-1.8633e-06
2.38555e-05
-1.68893e-06
2.42261e-05
-1.51505e-06
2.45545e-05
-1.34014e-06
2.48402e-05
-1.16286e-06
2.50821e-05
-9.82061e-07
2.52793e-05
-7.96642e-07
2.54307e-05
-6.05537e-07
2.55348e-05
-4.07665e-07
2.55904e-05
-2.01952e-07
2.55951e-05
1.31872e-08
2.55471e-05
2.40467e-07
2.54435e-05
4.81534e-07
2.52819e-05
7.38649e-07
2.50593e-05
1.01413e-06
2.47722e-05
1.31036e-06
2.44164e-05
1.6296e-06
2.39869e-05
1.97375e-06
2.34779e-05
2.34398e-06
2.28828e-05
2.74028e-06
2.21941e-05
3.16109e-06
2.14039e-05
3.60301e-06
2.05041e-05
4.0609e-06
1.94865e-05
4.52847e-06
1.83425e-05
4.99959e-06
1.7062e-05
5.47082e-06
1.56318e-05
5.94573e-06
1.40319e-05
6.44338e-06
1.22318e-05
7.02145e-06
1.01883e-05
7.86105e-06
7.84828e-06
9.49922e-06
5.21007e-06
1.25878e-05
2.46426e-06
1.4166e-05
-1.29091e-07
9.85743e-06
-1.64262e-06
5.67379e-06
-2.85207e-06
4.3388e-06
-3.94115e-06
3.76872e-06
-4.94621e-06
3.47265e-06
-5.87764e-06
3.27123e-06
-6.73438e-06
3.08229e-06
-7.51045e-06
2.86795e-06
-8.19825e-06
2.61206e-06
-8.79035e-06
2.30984e-06
-9.28031e-06
1.96252e-06
-9.66293e-06
1.57407e-06
-9.93418e-06
1.14936e-06
-1.00908e-05
6.93257e-07
-1.01322e-05
2.09894e-07
-1.00558e-05
-2.95257e-07
-9.86335e-06
-8.21522e-07
-9.55567e-06
-1.36918e-06
-9.13256e-06
-1.94099e-06
-8.59343e-06
-2.54165e-06
-7.93746e-06
-3.1778e-06
-7.16376e-06
-3.85775e-06
-6.27265e-06
-4.59026e-06
-5.26955e-06
-5.37846e-06
-4.16947e-06
-6.2003e-06
-2.9944e-06
-6.96089e-06
-1.75908e-06
-7.39162e-06
-3.70458e-07
-6.80201e-06
9.18002e-07
-1.07584e-06
7.84191e-06
-2.20829e-06
1.68659e-05
-4.07693e-06
1.35312e-05
-5.63881e-06
1.09486e-05
-6.92034e-06
8.86539e-06
-7.91544e-06
6.94898e-06
-8.60956e-06
5.07601e-06
-8.99026e-06
3.19657e-06
-9.05686e-06
1.31125e-06
-8.82768e-06
-5.51966e-07
-8.32139e-06
-2.33663e-06
-7.568e-06
-4.04108e-06
-6.56067e-06
-5.7233e-06
-5.2487e-06
-7.44859e-06
-3.64017e-06
-9.07799e-06
-1.82162e-06
-1.03785e-05
8.4353e-08
-1.11928e-05
1.89705e-06
-1.14264e-05
3.60622e-06
-1.11925e-05
5.26684e-06
-1.07028e-05
6.85742e-06
-1.00644e-05
8.36299e-06
-9.35382e-06
9.77374e-06
-8.6264e-06
1.10854e-05
-7.91861e-06
1.22991e-05
-7.25177e-06
1.34198e-05
-6.63628e-06
1.44546e-05
-6.07574e-06
1.54113e-05
-5.56968e-06
1.62974e-05
-5.11514e-06
1.71198e-05
-4.70767e-06
1.78847e-05
-4.34201e-06
1.85973e-05
-4.01251e-06
1.92618e-05
-3.71349e-06
1.98815e-05
-3.43945e-06
2.0459e-05
-3.18528e-06
2.09958e-05
-2.94631e-06
2.14931e-05
-2.71842e-06
2.19511e-05
-2.49805e-06
2.237e-05
-2.28219e-06
2.27494e-05
-2.06833e-06
2.30888e-05
-1.85443e-06
2.33875e-05
-1.6388e-06
2.36446e-05
-1.42002e-06
2.38594e-05
-1.19685e-06
2.40309e-05
-9.68101e-07
2.41579e-05
-7.32583e-07
2.42393e-05
-4.89035e-07
2.42735e-05
-2.36136e-07
2.42587e-05
2.7906e-08
2.41929e-05
3.06316e-07
2.40739e-05
6.00477e-07
2.38998e-05
9.12747e-07
2.36684e-05
1.24559e-06
2.3377e-05
1.60177e-06
2.30225e-05
1.98411e-06
2.2601e-05
2.39521e-06
2.21079e-05
2.83707e-06
2.15376e-05
3.31061e-06
2.08835e-05
3.81518e-06
2.01384e-05
4.34817e-06
1.92943e-05
4.90501e-06
1.83429e-05
5.47977e-06
1.72759e-05
6.06667e-06
1.60838e-05
6.66289e-06
1.47561e-05
7.27345e-06
1.32791e-05
7.92041e-06
1.16331e-05
8.66738e-06
9.78522e-06
9.70895e-06
7.68128e-06
1.16032e-05
5.33954e-06
1.49295e-05
3.01109e-06
1.64944e-05
7.67709e-07
1.21008e-05
-7.60217e-07
7.20171e-06
-1.92627e-06
5.50485e-06
-3.02085e-06
4.8633e-06
-4.04774e-06
4.49954e-06
-5.00054e-06
4.22402e-06
-5.87056e-06
3.95231e-06
-6.64939e-06
3.64678e-06
-7.32994e-06
3.29261e-06
-7.907e-06
2.8869e-06
-8.37719e-06
2.43271e-06
-8.73866e-06
1.93555e-06
-8.99071e-06
1.4014e-06
-9.13351e-06
8.36055e-07
-9.16749e-06
2.43874e-07
-9.09375e-06
-3.68998e-07
-8.9143e-06
-1.00097e-06
-8.6319e-06
-1.65157e-06
-8.24941e-06
-2.32348e-06
-7.77011e-06
-3.02095e-06
-7.19803e-06
-3.74988e-06
-6.53823e-06
-4.51756e-06
-5.79735e-06
-5.33114e-06
-4.98373e-06
-6.19208e-06
-4.10283e-06
-7.0812e-06
-3.14355e-06
-7.92017e-06
-2.07952e-06
-8.45565e-06
-9.49567e-07
-7.93196e-06
7.02607e-07
-2.72801e-06
8.54451e-06
-1.77562e-06
1.86416e-05
-3.26684e-06
1.50224e-05
-4.50166e-06
1.21834e-05
-5.50714e-06
9.87087e-06
-6.27454e-06
7.71637e-06
-6.78622e-06
5.58769e-06
-7.0292e-06
3.43955e-06
-7.00362e-06
1.28567e-06
-6.72425e-06
-8.31337e-07
-6.21071e-06
-2.85016e-06
-5.50408e-06
-4.74771e-06
-4.58833e-06
-6.63904e-06
-3.37612e-06
-8.6608e-06
-1.89125e-06
-1.05629e-05
-2.48744e-07
-1.2021e-05
1.36964e-06
-1.28111e-05
2.91588e-06
-1.29726e-05
4.43114e-06
-1.27078e-05
5.89412e-06
-1.21658e-05
7.28612e-06
-1.14564e-05
8.59676e-06
-1.06645e-05
9.82181e-06
-9.85145e-06
1.09613e-05
-9.05806e-06
1.20182e-05
-8.30871e-06
1.29979e-05
-7.61594e-06
1.39065e-05
-6.98441e-06
1.47507e-05
-6.41386e-06
1.55366e-05
-5.90104e-06
1.62698e-05
-5.44091e-06
1.69553e-05
-5.02744e-06
1.75969e-05
-4.65417e-06
1.8198e-05
-4.31455e-06
1.87608e-05
-4.00225e-06
1.92869e-05
-3.71135e-06
1.9777e-05
-3.43649e-06
2.02316e-05
-3.17298e-06
2.06503e-05
-2.91679e-06
2.10327e-05
-2.66458e-06
2.1378e-05
-2.41365e-06
2.16855e-05
-2.16186e-06
2.19542e-05
-1.90748e-06
2.21833e-05
-1.64914e-06
2.2372e-05
-1.3856e-06
2.25196e-05
-1.11569e-06
2.26252e-05
-8.38142e-07
2.26876e-05
-5.51503e-07
2.27056e-05
-2.54115e-07
2.26771e-05
5.64433e-08
2.26005e-05
3.82935e-07
2.24739e-05
7.27064e-07
2.22957e-05
1.0909e-06
2.20642e-05
1.47707e-06
2.17774e-05
1.88862e-06
2.14327e-05
2.32884e-06
2.10269e-05
2.80098e-06
2.05561e-05
3.30785e-06
2.00154e-05
3.85132e-06
1.93988e-05
4.43172e-06
1.86997e-05
5.04726e-06
1.79108e-05
5.69392e-06
1.70247e-05
6.36593e-06
1.6034e-05
7.05731e-06
1.49319e-05
7.76498e-06
1.37114e-05
8.49405e-06
1.23638e-05
9.268e-06
1.08746e-05
1.01565e-05
9.21035e-06
1.13732e-05
7.30747e-06
1.3506e-05
5.20347e-06
1.70335e-05
3.20563e-06
1.84923e-05
1.36176e-06
1.39447e-05
-1.11754e-07
8.67523e-06
-1.2249e-06
6.618e-06
-2.29238e-06
5.93078e-06
-3.30651e-06
5.51366e-06
-4.2489e-06
5.16642e-06
-5.10517e-06
4.80858e-06
-5.86514e-06
4.40675e-06
-6.52231e-06
3.94978e-06
-7.07319e-06
3.43779e-06
-7.51659e-06
2.87611e-06
-7.85282e-06
2.27178e-06
-8.08315e-06
1.63172e-06
-8.20925e-06
9.62153e-07
-8.23286e-06
2.67489e-07
-8.15563e-06
-4.46228e-07
-7.98117e-06
-1.17544e-06
-7.71348e-06
-1.91926e-06
-7.35727e-06
-2.67969e-06
-6.9183e-06
-3.45992e-06
-6.40382e-06
-4.26436e-06
-5.82287e-06
-5.09851e-06
-5.18603e-06
-5.96798e-06
-4.50307e-06
-6.87504e-06
-3.77454e-06
-7.80972e-06
-2.97445e-06
-8.72026e-06
-2.03878e-06
-9.39132e-06
-8.05427e-07
-9.16531e-06
5.80459e-07
-4.1139e-06
9.12497e-06
-1.40936e-06
2.00509e-05
-2.57652e-06
1.61896e-05
-3.52247e-06
1.31294e-05
-4.27723e-06
1.06256e-05
-4.83469e-06
8.27382e-06
-5.17938e-06
5.93238e-06
-5.30018e-06
3.56035e-06
-5.19628e-06
1.18177e-06
-4.87234e-06
-1.15528e-06
-4.34421e-06
-3.37829e-06
-3.67507e-06
-5.41686e-06
-2.83084e-06
-7.48326e-06
-1.69478e-06
-9.79686e-06
-3.34062e-07
-1.19236e-05
1.07031e-06
-1.34254e-05
2.43825e-06
-1.41791e-05
3.79006e-06
-1.43244e-05
5.10668e-06
-1.40244e-05
6.36353e-06
-1.34227e-05
7.54847e-06
-1.26413e-05
8.65771e-06
-1.17737e-05
9.69219e-06
-1.08859e-05
1.06554e-05
-1.00212e-05
1.15519e-05
-9.20523e-06
1.23871e-05
-8.45112e-06
1.31664e-05
-7.76372e-06
1.38951e-05
-7.14259e-06
1.45781e-05
-6.58407e-06
1.52198e-05
-6.08258e-06
1.58238e-05
-5.63143e-06
1.6393e-05
-5.2234e-06
1.69296e-05
-4.85118e-06
1.7435e-05
-4.50763e-06
1.79098e-05
-4.18611e-06
1.83539e-05
-3.88061e-06
1.87668e-05
-3.58589e-06
1.91476e-05
-3.29757e-06
1.94951e-05
-3.01207e-06
1.9808e-05
-2.72661e-06
2.00853e-05
-2.4391e-06
2.03257e-05
-2.14794e-06
2.05285e-05
-1.85195e-06
2.0693e-05
-1.5501e-06
2.08187e-05
-1.24134e-06
2.0905e-05
-9.2444e-07
2.09513e-05
-5.97797e-07
2.09565e-05
-2.59346e-07
2.09191e-05
9.38565e-08
2.08375e-05
4.64508e-07
2.07103e-05
8.5426e-07
2.05361e-05
1.2651e-06
2.03134e-05
1.69979e-06
2.00404e-05
2.16163e-06
1.9715e-05
2.65431e-06
1.93342e-05
3.18169e-06
1.88947e-05
3.7474e-06
1.83917e-05
4.35428e-06
1.78199e-05
5.00358e-06
1.71728e-05
5.69428e-06
1.6444e-05
6.42273e-06
1.5627e-05
7.18298e-06
1.47159e-05
7.96837e-06
1.37061e-05
8.77484e-06
1.25932e-05
9.60689e-06
1.13719e-05
1.04893e-05
1.00287e-05
1.14998e-05
8.52382e-06
1.28781e-05
6.78195e-06
1.52479e-05
4.86432e-06
1.89511e-05
3.15403e-06
2.02026e-05
1.67535e-06
1.54234e-05
3.56294e-07
9.99428e-06
-7.13905e-07
7.6882e-06
-1.73607e-06
6.95295e-06
-2.71593e-06
6.49352e-06
-3.62765e-06
6.07813e-06
-4.45352e-06
5.63445e-06
-5.18243e-06
5.13566e-06
-5.80823e-06
4.57557e-06
-6.32834e-06
3.9579e-06
-6.74264e-06
3.29041e-06
-7.05252e-06
2.58166e-06
-7.26024e-06
1.83945e-06
-7.36846e-06
1.07037e-06
-7.37976e-06
2.78786e-07
-7.29639e-06
-5.29595e-07
-7.12274e-06
-1.34909e-06
-6.86364e-06
-2.17836e-06
-6.5247e-06
-3.01863e-06
-6.11277e-06
-3.87185e-06
-5.63646e-06
-4.74067e-06
-5.10647e-06
-5.6285e-06
-4.53519e-06
-6.53926e-06
-3.93406e-06
-7.47618e-06
-3.30574e-06
-8.43804e-06
-2.62187e-06
-9.40414e-06
-1.79288e-06
-1.02203e-05
-6.43015e-07
-1.03152e-05
5.01236e-07
-5.25815e-06
9.62621e-06
-1.10553e-06
2.11565e-05
-1.99848e-06
1.70825e-05
-2.69427e-06
1.38251e-05
-3.22853e-06
1.11599e-05
-3.60093e-06
8.64622e-06
-3.80101e-06
6.13246e-06
-3.82102e-06
3.58037e-06
-3.6581e-06
1.01885e-06
-3.29832e-06
-1.51506e-06
-2.74963e-06
-3.92698e-06
-2.11231e-06
-6.05417e-06
-1.30639e-06
-8.28919e-06
-2.27254e-07
-1.0876e-05
9.53778e-07
-1.31046e-05
2.14119e-06
-1.46128e-05
3.33151e-06
-1.53694e-05
4.49818e-06
-1.54911e-05
5.61165e-06
-1.51379e-05
6.65784e-06
-1.44688e-05
7.63355e-06
-1.3617e-05
8.54178e-06
-1.26819e-05
9.38803e-06
-1.17322e-05
1.01782e-05
-1.08114e-05
1.09179e-05
-9.94492e-06
1.16121e-05
-9.14526e-06
1.22652e-05
-8.41681e-06
1.28813e-05
-7.75874e-06
1.34643e-05
-7.16703e-06
1.40174e-05
-6.63565e-06
1.45433e-05
-6.15735e-06
1.50441e-05
-5.72422e-06
1.55211e-05
-5.32815e-06
1.59746e-05
-4.96118e-06
1.64044e-05
-4.61587e-06
1.68093e-05
-4.2855e-06
1.71877e-05
-3.96433e-06
1.75377e-05
-3.64759e-06
1.78573e-05
-3.3316e-06
1.81443e-05
-3.0136e-06
1.83969e-05
-2.69173e-06
1.86137e-05
-2.36478e-06
1.87937e-05
-2.03196e-06
1.89364e-05
-1.69273e-06
1.90415e-05
-1.34645e-06
1.91092e-05
-9.9212e-07
1.91395e-05
-6.28178e-07
1.91324e-05
-2.52201e-07
1.90868e-05
1.39405e-07
1.90019e-05
5.49441e-07
1.88766e-05
9.79616e-07
1.87096e-05
1.43203e-06
1.84997e-05
1.90968e-06
1.82452e-05
2.41612e-06
1.79441e-05
2.95547e-06
1.75936e-05
3.53217e-06
1.71904e-05
4.15065e-06
1.673e-05
4.81464e-06
1.62073e-05
5.52628e-06
1.56164e-05
6.28522e-06
1.49511e-05
7.08801e-06
1.42058e-05
7.92825e-06
1.3376e-05
8.79819e-06
1.24584e-05
9.69238e-06
1.14508e-05
1.06146e-05
1.03486e-05
1.15915e-05
9.13624e-06
1.27121e-05
7.764e-06
1.42503e-05
6.14348e-06
1.68684e-05
4.37072e-06
2.07239e-05
2.91768e-06
2.16556e-05
1.76486e-06
1.65762e-05
6.53384e-07
1.11058e-05
-3.58407e-07
8.69999e-06
-1.32896e-06
7.92351e-06
-2.26341e-06
7.42797e-06
-3.1329e-06
6.94763e-06
-3.91861e-06
6.42016e-06
-4.60909e-06
5.82614e-06
-5.19833e-06
5.16481e-06
-5.68419e-06
4.44375e-06
-6.06704e-06
3.67327e-06
-6.34888e-06
2.86349e-06
-6.53258e-06
2.02314e-06
-6.62136e-06
1.15915e-06
-6.61792e-06
2.75344e-07
-6.52608e-06
-6.21426e-07
-6.351e-06
-1.52417e-06
-6.09803e-06
-2.43133e-06
-5.77299e-06
-3.34367e-06
-5.3827e-06
-4.26213e-06
-4.93562e-06
-5.18776e-06
-4.4422e-06
-6.12191e-06
-3.91482e-06
-7.06665e-06
-3.36592e-06
-8.02508e-06
-2.80292e-06
-9.00103e-06
-2.20649e-06
-1.00006e-05
-1.49145e-06
-1.09353e-05
-5.16272e-07
-1.12904e-05
4.33828e-07
-6.20825e-06
1.006e-05
-8.57661e-07
2.20141e-05
-1.52308e-06
1.77479e-05
-2.00688e-06
1.43089e-05
-2.35185e-06
1.15049e-05
-2.56518e-06
8.85955e-06
-2.64262e-06
6.2099e-06
-2.57952e-06
3.51726e-06
-2.37353e-06
8.12865e-07
-1.97443e-06
-1.91416e-06
-1.4135e-06
-4.48791e-06
-8.13471e-07
-6.6542e-06
-6.88532e-09
-9.09578e-06
9.51666e-07
-1.18345e-05
1.96868e-06
-1.41216e-05
3.01472e-06
-1.56589e-05
4.04551e-06
-1.64002e-05
5.02405e-06
-1.64696e-05
5.93316e-06
-1.6047e-05
6.77047e-06
-1.53062e-05
7.54214e-06
-1.43887e-05
8.25742e-06
-1.33972e-05
8.92532e-06
-1.24001e-05
9.55313e-06
-1.14393e-05
1.01464e-05
-1.05382e-05
1.07092e-05
-9.70812e-06
1.12452e-05
-8.95283e-06
1.17577e-05
-8.27116e-06
1.22495e-05
-7.65889e-06
1.27236e-05
-7.1097e-06
1.3182e-05
-6.61579e-06
1.36262e-05
-6.16844e-06
1.40567e-05
-5.75856e-06
1.44726e-05
-5.37712e-06
1.48724e-05
-5.01566e-06
1.52535e-05
-4.66662e-06
1.56128e-05
-4.3236e-06
1.59467e-05
-3.98153e-06
1.62518e-05
-3.63666e-06
1.65247e-05
-3.28649e-06
1.67626e-05
-2.92963e-06
1.69633e-05
-2.56553e-06
1.71256e-05
-2.19425e-06
1.72489e-05
-1.81605e-06
1.73335e-05
-1.43108e-06
1.73805e-05
-1.03902e-06
1.73909e-05
-6.38669e-07
1.73662e-05
-2.27504e-07
1.73069e-05
1.98739e-07
1.72132e-05
6.43149e-07
1.70849e-05
1.10789e-06
1.69213e-05
1.59566e-06
1.6721e-05
2.10995e-06
1.64824e-05
2.65475e-06
1.62033e-05
3.23458e-06
1.5881e-05
3.85443e-06
1.55122e-05
4.51944e-06
1.50927e-05
5.23414e-06
1.46175e-05
6.0015e-06
1.4081e-05
6.82171e-06
1.34776e-05
7.69141e-06
1.28023e-05
8.60358e-06
1.20513e-05
9.54917e-06
1.12224e-05
1.05212e-05
1.0314e-05
1.1523e-05
9.32101e-06
1.25845e-05
8.22251e-06
1.38106e-05
6.95507e-06
1.55178e-05
5.41866e-06
1.84048e-05
3.7611e-06
2.23815e-05
2.55415e-06
2.28626e-05
1.70307e-06
1.74273e-05
7.95768e-07
1.20131e-05
-1.36556e-07
9.63231e-06
-1.05194e-06
8.83889e-06
-1.9345e-06
8.31053e-06
-2.75469e-06
7.76782e-06
-3.49343e-06
7.1589e-06
-4.13919e-06
6.4719e-06
-4.68598e-06
5.71161e-06
-5.13188e-06
4.88965e-06
-5.47771e-06
4.0191e-06
-5.72611e-06
3.1119e-06
-5.88077e-06
2.1778e-06
-5.9457e-06
1.22408e-06
-5.92425e-06
2.53892e-07
-5.82185e-06
-7.23825e-07
-5.64456e-06
-1.70146e-06
-5.39781e-06
-2.67808e-06
-5.08704e-06
-3.65444e-06
-4.71846e-06
-4.63072e-06
-4.29959e-06
-5.60664e-06
-3.83959e-06
-6.58191e-06
-3.34947e-06
-7.55676e-06
-2.84122e-06
-8.53333e-06
-2.3256e-06
-9.51664e-06
-1.79837e-06
-1.05278e-05
-1.19437e-06
-1.15393e-05
-4.02668e-07
-1.20821e-05
3.74798e-07
-6.98571e-06
1.04348e-05
-6.58555e-07
2.26727e-05
-1.1391e-06
1.82285e-05
-1.44745e-06
1.46173e-05
-1.63372e-06
1.16911e-05
-1.71262e-06
8.93845e-06
-1.68622e-06
6.1835e-06
-1.5505e-06
3.38154e-06
-1.30777e-06
5.70133e-07
-8.38042e-07
-2.38388e-06
-3.065e-07
-5.01945e-06
2.49142e-07
-7.20985e-06
9.96186e-07
-9.84282e-06
1.84904e-06
-1.26874e-05
2.77653e-06
-1.50491e-05
3.69981e-06
-1.65821e-05
4.56879e-06
-1.72692e-05
5.35926e-06
-1.72601e-05
6.06814e-06
-1.67558e-05
6.70533e-06
-1.59434e-05
7.28575e-06
-1.49691e-05
7.82364e-06
-1.39351e-05
8.33001e-06
-1.29065e-05
8.81227e-06
-1.19215e-05
9.2752e-06
-1.10011e-05
9.72216e-06
-1.01551e-05
1.01561e-05
-9.38678e-06
1.05801e-05
-8.69511e-06
1.09971e-05
-8.07589e-06
1.14099e-05
-7.52249e-06
1.18204e-05
-7.02631e-06
1.22294e-05
-6.57742e-06
1.2636e-05
-6.16525e-06
1.30381e-05
-5.77923e-06
1.3432e-05
-5.40951e-06
1.38128e-05
-5.04747e-06
1.41753e-05
-4.68602e-06
1.45136e-05
-4.31984e-06
1.48223e-05
-3.94536e-06
1.50964e-05
-3.56063e-06
1.53319e-05
-3.16508e-06
1.55256e-05
-2.75928e-06
1.56759e-05
-2.34449e-06
1.57821e-05
-1.9223e-06
1.58452e-05
-1.49416e-06
1.5867e-05
-1.06087e-06
1.58505e-05
-6.22127e-07
1.57985e-05
-1.75504e-07
1.57137e-05
2.8351e-07
1.55986e-05
7.58307e-07
1.54544e-05
1.25211e-06
1.52811e-05
1.76894e-06
1.50778e-05
2.31324e-06
1.48429e-05
2.88964e-06
1.45743e-05
3.5032e-06
1.42693e-05
4.15942e-06
1.39247e-05
4.86406e-06
1.35364e-05
5.62238e-06
1.30999e-05
6.43807e-06
1.26097e-05
7.31188e-06
1.20607e-05
8.24042e-06
1.14483e-05
9.21599e-06
1.07692e-05
1.02282e-05
1.00216e-05
1.12688e-05
9.20345e-06
1.23411e-05
8.30718e-06
1.34808e-05
7.30386e-06
1.4814e-05
6.11291e-06
1.67087e-05
4.62689e-06
1.98909e-05
3.06837e-06
2.394e-05
2.11276e-06
2.38182e-05
1.54013e-06
1.79999e-05
8.14528e-07
1.27387e-05
-3.03681e-08
1.04772e-05
-8.87564e-07
9.69608e-06
-1.71382e-06
9.13678e-06
-2.47934e-06
8.53334e-06
-3.16496e-06
7.84453e-06
-3.75907e-06
7.066e-06
-4.2557e-06
6.20824e-06
-4.6533e-06
5.28724e-06
-4.95354e-06
4.31934e-06
-5.16033e-06
3.31868e-06
-5.27877e-06
2.29625e-06
-5.3146e-06
1.25991e-06
-5.27095e-06
2.1024e-07
-5.15704e-06
-8.37739e-07
-4.9779e-06
-1.88059e-06
-4.7386e-06
-2.91738e-06
-4.44381e-06
-3.94922e-06
-4.09895e-06
-4.97557e-06
-3.71051e-06
-5.99508e-06
-3.28616e-06
-7.00627e-06
-2.83517e-06
-8.00775e-06
-2.36805e-06
-9.00044e-06
-1.89602e-06
-9.98867e-06
-1.42849e-06
-1.09953e-05
-9.24199e-07
-1.20436e-05
-3.02816e-07
-1.27034e-05
3.21207e-07
-7.60974e-06
1.0756e-05
-5.01461e-07
2.31741e-05
-8.35252e-07
1.85623e-05
-1.00219e-06
1.47842e-05
-1.05904e-06
1.1748e-05
-1.02742e-06
8.90683e-06
-9.15672e-07
6.07175e-06
-7.40175e-07
3.20604e-06
-3.68098e-07
1.98057e-07
1.46463e-07
-2.89845e-06
5.55422e-07
-5.42841e-06
1.04922e-06
-7.70364e-06
1.73292e-06
-1.05265e-05
2.54887e-06
-1.35033e-05
3.39489e-06
-1.58951e-05
4.19162e-06
-1.73789e-05
4.89775e-06
-1.79753e-05
5.50416e-06
-1.78665e-05
6.02294e-06
-1.72746e-05
6.47581e-06
-1.63962e-05
6.88482e-06
-1.53781e-05
7.26723e-06
-1.43175e-05
7.63435e-06
-1.32736e-05
7.99269e-06
-1.22799e-05
8.34607e-06
-1.13545e-05
8.6975e-06
-1.05065e-05
9.05016e-06
-9.73945e-06
9.40773e-06
-9.05267e-06
9.77389e-06
-8.44206e-06
1.01516e-05
-7.90021e-06
1.05424e-05
-7.41706e-06
1.09456e-05
-6.98063e-06
1.13584e-05
-6.5781e-06
1.1776e-05
-6.1968e-06
1.21917e-05
-5.8252e-06
1.25978e-05
-5.45355e-06
1.2986e-05
-5.0743e-06
1.33484e-05
-4.6822e-06
1.36773e-05
-4.27426e-06
1.39661e-05
-3.84947e-06
1.42096e-05
-3.40856e-06
1.44039e-05
-2.95354e-06
1.45467e-05
-2.48733e-06
1.46377e-05
-2.01325e-06
1.4678e-05
-1.53446e-06
1.46706e-05
-1.05346e-06
1.462e-05
-5.71515e-07
1.45303e-05
-8.58199e-08
1.44069e-05
4.06837e-07
1.4255e-05
9.10288e-07
1.40776e-05
1.42951e-06
1.3876e-05
1.97047e-06
1.36504e-05
2.53883e-06
1.33999e-05
3.14018e-06
1.31228e-05
3.78034e-06
1.28167e-05
4.46545e-06
1.24789e-05
5.2019e-06
1.21056e-05
5.99565e-06
1.16926e-05
6.85111e-06
1.1235e-05
7.76951e-06
1.07279e-05
8.74752e-06
1.0167e-05
9.77684e-06
9.54928e-06
1.0846e-05
8.87247e-06
1.19456e-05
8.13315e-06
1.30804e-05
7.31942e-06
1.42945e-05
6.39118e-06
1.57422e-05
5.24816e-06
1.78517e-05
3.78309e-06
2.13559e-05
2.32236e-06
2.54007e-05
1.63462e-06
2.45059e-05
1.31352e-06
1.8321e-05
7.41063e-07
1.33111e-05
-2.12661e-08
1.12395e-05
-8.18891e-07
1.04937e-05
-1.58558e-06
9.90347e-06
-2.2917e-06
9.23946e-06
-2.91805e-06
8.47088e-06
-3.45295e-06
7.6009e-06
-3.89066e-06
6.64595e-06
-4.23044e-06
5.62703e-06
-4.47553e-06
4.56443e-06
-4.63191e-06
3.47506e-06
-4.70701e-06
2.37135e-06
-4.70797e-06
1.26087e-06
-4.64312e-06
1.45393e-07
-4.51703e-06
-9.63834e-07
-4.33714e-06
-2.06048e-06
-4.10671e-06
-3.14781e-06
-3.82936e-06
-4.22657e-06
-3.50978e-06
-5.29515e-06
-3.15378e-06
-6.35108e-06
-2.76789e-06
-7.39216e-06
-2.35992e-06
-8.41572e-06
-1.939e-06
-9.42137e-06
-1.51453e-06
-1.04131e-05
-1.10409e-06
-1.14058e-05
-6.87417e-07
-1.24603e-05
-2.16011e-07
-1.31748e-05
2.75876e-07
-8.10162e-06
1.10319e-05
-3.80255e-07
2.35544e-05
-6.00767e-07
1.87828e-05
-6.57281e-07
1.48407e-05
-6.12277e-07
1.1703e-05
-4.93092e-07
8.78765e-06
-2.98008e-07
5.87666e-06
-2.67457e-08
2.93478e-06
4.26107e-07
-2.54796e-07
8.46135e-07
-3.31847e-06
1.1711e-06
-5.75338e-06
1.62297e-06
-8.15551e-06
2.29003e-06
-1.11936e-05
3.06706e-06
-1.42804e-05
3.82656e-06
-1.66546e-05
4.49196e-06
-1.80443e-05
5.03616e-06
-1.85195e-05
5.46719e-06
-1.82976e-05
5.81217e-06
-1.76196e-05
6.10285e-06
-1.66869e-05
6.36589e-06
-1.56411e-05
6.61918e-06
-1.45708e-05
6.8728e-06
-1.35272e-05
7.13196e-06
-1.2539e-05
7.40004e-06
-1.16225e-05
7.68058e-06
-1.07871e-05
7.97803e-06
-1.00369e-05
8.29731e-06
-9.37195e-06
8.6428e-06
-8.78755e-06
9.0171e-06
-8.27451e-06
9.42009e-06
-7.82005e-06
9.84855e-06
-7.40909e-06
1.02963e-05
-7.02584e-06
1.07548e-05
-6.65526e-06
1.12138e-05
-6.28427e-06
1.16627e-05
-5.90244e-06
1.20907e-05
-5.50229e-06
1.24878e-05
-5.07926e-06
1.28449e-05
-4.63144e-06
1.31547e-05
-4.15922e-06
1.3411e-05
-3.66485e-06
1.36095e-05
-3.15208e-06
1.37478e-05
-2.62564e-06
1.38254e-05
-2.09078e-06
1.38436e-05
-1.5527e-06
1.3806e-05
-1.01585e-06
1.37177e-05
-4.83216e-07
1.35853e-05
4.6572e-08
1.34161e-05
5.76052e-07
1.32163e-05
1.11004e-06
1.2991e-05
1.65487e-06
1.27436e-05
2.21787e-06
1.24762e-05
2.80617e-06
1.21896e-05
3.42683e-06
1.18831e-05
4.08684e-06
1.15553e-05
4.79329e-06
1.12039e-05
5.55326e-06
1.08261e-05
6.37342e-06
1.04184e-05
7.25887e-06
9.97642e-06
8.21144e-06
9.49591e-06
9.22803e-06
8.97278e-06
1.03e-05
8.40371e-06
1.1415e-05
7.78553e-06
1.25638e-05
7.11227e-06
1.37537e-05
6.36566e-06
1.50411e-05
5.49118e-06
1.66167e-05
4.36734e-06
1.89756e-05
2.89923e-06
2.2824e-05
1.55315e-06
2.67468e-05
1.154e-06
2.49051e-05
1.05057e-06
1.84244e-05
5.98531e-07
1.37632e-05
-9.22943e-08
1.19304e-05
-8.29727e-07
1.12311e-05
-1.5343e-06
1.0608e-05
-2.17683e-06
9.88198e-06
-2.73816e-06
9.03221e-06
-3.20665e-06
8.06939e-06
-3.57716e-06
7.01647e-06
-3.85041e-06
5.90028e-06
-4.03207e-06
4.74609e-06
-4.13128e-06
3.57427e-06
-4.15856e-06
2.39863e-06
-4.12375e-06
1.22606e-06