/*--------------------------------*- C++ -*----------------------------------*\
| =========                 |                                                 |
| \\      /  F ield         | OpenFOAM: The Open Source CFD Toolbox           |
|  \\    /   O peration     | Version:  4.1                                   |
|   \\  /    A nd           | Web:      www.OpenFOAM.org                      |
|    \\/     M anipulation  |                                                 |
\*---------------------------------------------------------------------------*/
FoamFile
{
    version     2.0;
    format      ascii;
    class       volScalarField;
    location    "1680";
    object      T;
}
// * * * * * * * * * * * * * * * * * * * * * * * * * * * * * * * * * * * * * //

dimensions      [0 0 0 1 0 0 0];

internalField   nonuniform List<scalar> 
5000
(
286.317
286.079
285.936
285.826
285.733
285.649
285.571
285.497
285.423
285.348
285.285
285.234
285.195
285.164
285.142
285.126
285.117
285.112
285.106
285.108
285.128
285.152
285.177
285.203
285.228
285.253
285.278
285.303
285.328
285.353
285.377
285.402
285.427
285.451
285.476
285.501
285.526
285.551
285.577
285.603
285.63
285.658
285.687
285.718
285.75
285.785
285.82
285.856
285.892
285.928
285.964
286
286.037
286.075
286.114
286.154
286.196
286.24
286.287
286.337
286.392
286.453
286.521
286.601
286.695
286.813
286.97
287.212
287.643
287.929
287.655
287.416
287.214
287.033
286.869
286.717
286.576
286.444
286.321
286.205
286.094
285.987
285.884
285.784
285.685
285.587
285.493
285.41
285.334
285.266
285.203
285.145
285.089
285.036
284.984
284.931
284.908
285.029
285.354
285.726
285.877
285.445
285.183
285.001
284.864
284.761
284.686
284.637
284.612
284.61
284.614
284.618
284.62
284.623
284.624
284.626
284.628
284.63
284.632
284.632
284.631
284.63
284.629
284.627
284.625
284.623
284.62
284.618
284.615
284.612
284.608
284.605
284.601
284.597
284.593
284.589
284.585
284.58
284.576
284.571
284.566
284.561
284.556
284.55
284.545
284.539
284.534
284.531
284.532
284.536
284.544
284.556
284.574
284.597
284.626
284.663
284.707
284.76
284.822
284.893
284.975
285.068
285.172
285.288
285.417
285.563
285.758
286.133
286.851
287.118
286.204
285.721
285.437
285.245
285.098
284.975
284.867
284.772
284.687
284.615
284.554
284.505
284.469
284.446
284.436
284.438
284.447
284.454
284.459
284.462
284.463
284.463
284.46
284.454
284.445
284.432
284.41
284.364
284.537
285.274
285.66
285.176
284.918
284.77
284.685
284.64
284.622
284.62
284.624
284.629
284.632
284.634
284.636
284.637
284.638
284.64
284.642
284.645
284.647
284.649
284.65
284.65
284.65
284.65
284.649
284.648
284.646
284.644
284.642
284.639
284.636
284.633
284.63
284.626
284.623
284.619
284.614
284.61
284.606
284.601
284.596
284.591
284.585
284.58
284.574
284.568
284.561
284.554
284.548
284.54
284.533
284.527
284.521
284.516
284.514
284.514
284.519
284.53
284.548
284.575
284.614
284.667
284.735
284.821
284.929
285.065
285.264
285.652
286.399
286.728
285.698
285.134
284.881
284.734
284.638
284.571
284.524
284.491
284.471
284.462
284.461
284.466
284.476
284.488
284.499
284.51
284.519
284.524
284.528
284.528
284.526
284.522
284.514
284.504
284.489
284.469
284.44
284.395
284.421
285.112
285.526
285.032
284.798
284.687
284.639
284.625
284.627
284.633
284.639
284.643
284.644
284.645
284.646
284.646
284.647
284.649
284.651
284.655
284.658
284.661
284.663
284.665
284.666
284.666
284.666
284.666
284.665
284.663
284.661
284.659
284.657
284.654
284.651
284.648
284.644
284.64
284.636
284.632
284.627
284.623
284.618
284.613
284.607
284.602
284.596
284.59
284.583
284.576
284.569
284.562
284.554
284.545
284.537
284.528
284.519
284.511
284.503
284.498
284.496
284.5
284.511
284.533
284.57
284.624
284.703
284.817
285.001
285.372
286.094
286.454
285.527
284.863
284.654
284.551
284.498
284.472
284.463
284.465
284.475
284.49
284.508
284.526
284.543
284.558
284.57
284.58
284.587
284.591
284.592
284.59
284.585
284.577
284.566
284.55
284.531
284.506
284.473
284.428
284.358
285.019
285.434
284.945
284.735
284.652
284.627
284.628
284.637
284.646
284.651
284.652
284.652
284.652
284.652
284.653
284.653
284.655
284.659
284.663
284.667
284.671
284.674
284.677
284.679
284.68
284.681
284.681
284.68
284.679
284.677
284.675
284.673
284.67
284.667
284.664
284.66
284.657
284.653
284.648
284.644
284.639
284.634
284.629
284.624
284.618
284.612
284.606
284.599
284.592
284.585
284.577
284.569
284.56
284.551
284.542
284.531
284.521
284.51
284.5
284.491
284.484
284.481
284.486
284.502
284.534
284.589
284.681
284.845
285.195
285.879
286.245
285.448
284.733
284.547
284.481
284.46
284.461
284.474
284.495
284.519
284.544
284.567
284.589
284.607
284.622
284.634
284.643
284.648
284.651
284.65
284.645
284.638
284.627
284.612
284.594
284.571
284.542
284.506
284.457
284.361
284.961
285.369
284.887
284.698
284.635
284.625
284.634
284.646
284.656
284.66
284.658
284.655
284.655
284.656
284.657
284.658
284.661
284.665
284.669
284.675
284.68
284.684
284.688
284.691
284.693
284.694
284.694
284.693
284.692
284.691
284.689
284.686
284.684
284.681
284.678
284.674
284.67
284.666
284.662
284.658
284.653
284.648
284.643
284.638
284.632
284.626
284.62
284.613
284.606
284.599
284.591
284.582
284.573
284.564
284.554
284.543
284.532
284.52
284.507
284.495
284.483
284.474
284.469
284.472
284.489
284.527
284.6
284.747
285.078
285.726
286.082
285.384
284.682
284.493
284.456
284.458
284.478
284.506
284.537
284.568
284.597
284.624
284.646
284.665
284.68
284.691
284.699
284.702
284.703
284.7
284.694
284.684
284.671
284.654
284.633
284.607
284.576
284.538
284.492
284.422
284.924
285.32
284.847
284.675
284.626
284.625
284.639
284.654
284.663
284.665
284.66
284.654
284.655
284.659
284.662
284.663
284.666
284.67
284.676
284.682
284.688
284.694
284.698
284.702
284.704
284.705
284.706
284.705
284.704
284.703
284.701
284.699
284.696
284.693
284.69
284.687
284.683
284.679
284.675
284.671
284.666
284.662
284.657
284.652
284.646
284.64
284.634
284.627
284.62
284.613
284.605
284.596
284.587
284.577
284.566
284.555
284.543
284.53
284.516
284.502
284.488
284.474
284.464
284.459
284.465
284.491
284.55
284.684
285.001
285.617
285.951
285.323
284.659
284.465
284.451
284.471
284.504
284.542
284.58
284.615
284.647
284.675
284.697
284.716
284.73
284.739
284.745
284.747
284.746
284.742
284.734
284.723
284.708
284.69
284.667
284.638
284.605
284.564
284.516
284.462
284.899
285.282
284.818
284.658
284.619
284.624
284.642
284.658
284.668
284.667
284.656
284.649
284.654
284.662
284.666
284.668
284.671
284.676
284.682
284.69
284.697
284.703
284.708
284.712
284.715
284.716
284.717
284.717
284.716
284.714
284.712
284.71
284.708
284.705
284.702
284.698
284.695
284.691
284.687
284.683
284.678
284.674
284.669
284.664
284.659
284.654
284.648
284.642
284.635
284.628
284.62
284.611
284.602
284.591
284.58
284.568
284.555
284.541
284.526
284.51
284.494
284.477
284.463
284.453
284.452
284.468
284.518
284.643
284.952
285.542
285.846
285.259
284.64
284.454
284.456
284.49
284.533
284.578
284.62
284.658
284.691
284.719
284.741
284.758
284.77
284.779
284.783
284.784
284.781
284.776
284.767
284.755
284.739
284.719
284.694
284.664
284.628
284.585
284.531
284.487
284.882
285.253
284.795
284.645
284.613
284.622
284.642
284.66
284.669
284.665
284.648
284.642
284.653
284.665
284.67
284.672
284.675
284.681
284.689
284.697
284.706
284.713
284.718
284.722
284.725
284.727
284.727
284.727
284.726
284.725
284.723
284.721
284.718
284.715
284.712
284.708
284.704
284.7
284.696
284.692
284.687
284.683
284.678
284.674
284.669
284.664
284.659
284.654
284.648
284.642
284.634
284.626
284.617
284.607
284.595
284.583
284.569
284.554
284.537
284.519
284.501
284.482
284.464
284.45
284.444
284.454
284.497
284.617
284.923
285.493
285.758
285.193
284.621
284.452
284.467
284.512
284.563
284.612
284.657
284.696
284.729
284.756
284.777
284.792
284.803
284.809
284.812
284.812
284.809
284.802
284.793
284.78
284.764
284.742
284.717
284.685
284.648
284.602
284.542
284.506
284.87
285.229
284.777
284.634
284.606
284.618
284.639
284.657
284.667
284.659
284.637
284.636
284.655
284.67
284.675
284.676
284.68
284.686
284.695
284.705
284.714
284.722
284.728
284.732
284.735
284.737
284.737
284.737
284.736
284.735
284.733
284.73
284.727
284.723
284.719
284.715
284.71
284.705
284.7
284.696
284.691
284.686
284.682
284.678
284.674
284.67
284.666
284.662
284.657
284.652
284.646
284.639
284.631
284.622
284.611
284.598
284.583
284.567
284.549
284.53
284.509
284.488
284.467
284.449
284.439
284.445
284.484
284.603
284.91
285.465
285.683
285.123
284.598
284.453
284.481
284.535
284.592
284.644
284.691
284.73
284.761
284.786
284.805
284.819
284.828
284.833
284.834
284.833
284.83
284.823
284.814
284.801
284.783
284.761
284.734
284.702
284.663
284.615
284.551
284.521
284.862
285.209
284.763
284.624
284.599
284.612
284.634
284.651
284.66
284.647
284.625
284.634
284.659
284.675
284.679
284.68
284.684
284.692
284.702
284.713
284.723
284.731
284.737
284.741
284.744
284.746
284.747
284.746
284.745
284.743
284.741
284.737
284.733
284.728
284.722
284.716
284.71
284.704
284.698
284.692
284.686
284.681
284.677
284.673
284.669
284.666
284.664
284.662
284.659
284.656
284.653
284.648
284.642
284.634
284.624
284.612
284.597
284.58
284.561
284.54
284.517
284.493
284.47
284.449
284.436
284.438
284.475
284.596
284.911
285.454
285.613
285.049
284.574
284.457
284.498
284.559
284.619
284.674
284.72
284.758
284.788
284.81
284.827
284.838
284.845
284.849
284.85
284.848
284.845
284.839
284.83
284.817
284.799
284.777
284.749
284.715
284.675
284.626
284.557
284.534
284.857
285.192
284.75
284.615
284.592
284.605
284.626
284.643
284.651
284.629
284.617
284.636
284.666
284.682
284.684
284.684
284.688
284.697
284.709
284.721
284.732
284.74
284.746
284.75
284.753
284.755
284.755
284.754
284.753
284.75
284.746
284.74
284.734
284.727
284.719
284.711
284.703
284.695
284.687
284.68
284.674
284.668
284.663
284.659
284.656
284.654
284.653
284.653
284.652
284.652
284.651
284.649
284.646
284.641
284.633
284.623
284.609
284.593
284.573
284.55
284.525
284.499
284.473
284.449
284.433
284.433
284.47
284.597
284.925
285.456
285.545
284.972
284.549
284.464
284.517
284.583
284.645
284.7
284.745
284.781
284.808
284.828
284.841
284.851
284.856
284.859
284.859
284.858
284.855
284.85
284.842
284.829
284.812
284.789
284.761
284.726
284.684
284.634
284.563
284.544
284.854
285.178
284.739
284.607
284.584
284.597
284.617
284.632
284.633
284.614
284.61
284.641
284.676
284.689
284.688
284.687
284.693
284.703
284.716
284.729
284.74
284.748
284.754
284.758
284.761
284.763
284.763
284.761
284.758
284.753
284.747
284.74
284.731
284.721
284.711
284.7
284.69
284.68
284.67
284.662
284.654
284.648
284.643
284.639
284.636
284.634
284.634
284.635
284.636
284.638
284.64
284.642
284.642
284.641
284.637
284.629
284.618
284.603
284.583
284.559
284.533
284.504
284.475
284.449
284.431
284.43
284.469
284.605
284.949
285.469
285.473
284.892
284.525
284.474
284.536
284.606
284.67
284.724
284.767
284.799
284.823
284.839
284.85
284.856
284.86
284.862
284.863
284.862
284.861
284.857
284.85
284.838
284.822
284.799
284.77
284.734
284.691
284.64
284.567
284.554
284.853
285.165
284.73
284.599
284.576
284.588
284.607
284.619
284.615
284.6
284.608
284.652
284.687
284.695
284.691
284.69
284.697
284.709
284.724
284.737
284.748
284.756
284.762
284.766
284.769
284.769
284.769
284.766
284.761
284.754
284.745
284.734
284.722
284.709
284.696
284.684
284.671
284.659
284.649
284.639
284.631
284.624
284.618
284.614
284.611
284.61
284.61
284.612
284.614
284.618
284.623
284.627
284.632
284.634
284.634
284.631
284.623
284.61
284.591
284.567
284.539
284.508
284.477
284.449
284.429
284.428
284.471
284.62
284.984
285.487
285.392
284.811
284.504
284.487
284.557
284.629
284.692
284.744
284.784
284.812
284.832
284.844
284.851
284.855
284.858
284.859
284.861
284.862
284.862
284.86
284.855
284.845
284.829
284.807
284.777
284.741
284.697
284.645
284.571
284.562
284.852
285.154
284.721
284.591
284.568
284.579
284.596
284.605
284.598
284.588
284.611
284.667
284.699
284.7
284.693
284.693
284.701
284.716
284.731
284.745
284.756
284.764
284.769
284.773
284.775
284.775
284.773
284.768
284.76
284.75
284.738
284.725
284.71
284.694
284.679
284.664
284.65
284.637
284.625
284.615
284.606
284.599
284.593
284.588
284.585
284.584
284.584
284.586
284.589
284.594
284.601
284.608
284.615
284.622
284.627
284.628
284.624
284.614
284.597
284.574
284.545
284.512
284.479
284.448
284.427
284.427
284.476
284.641
285.031
285.502
285.303
284.733
284.489
284.503
284.578
284.65
284.712
284.761
284.797
284.82
284.835
284.842
284.846
284.848
284.849
284.851
284.854
284.857
284.86
284.86
284.857
284.848
284.834
284.812
284.783
284.745
284.701
284.648
284.575
284.568
284.852
285.143
284.713
284.583
284.56
284.57
284.585
284.591
284.583
284.58
284.621
284.686
284.71
284.704
284.695
284.695
284.706
284.722
284.739
284.752
284.763
284.771
284.776
284.779
284.78
284.779
284.775
284.767
284.757
284.744
284.729
284.712
284.695
284.677
284.659
284.643
284.628
284.614
284.602
284.592
284.583
284.575
284.569
284.564
284.561
284.559
284.559
284.56
284.564
284.569
284.577
284.586
284.596
284.607
284.616
284.621
284.622
284.616
284.601
284.578
284.549
284.514
284.479
284.447
284.425
284.427
284.484
284.669
285.098
285.497
285.205
284.665
284.482
284.521
284.598
284.671
284.73
284.775
284.805
284.823
284.832
284.834
284.834
284.834
284.835
284.838
284.844
284.849
284.854
284.857
284.856
284.85
284.836
284.815
284.786
284.749
284.704
284.65
284.578
284.574
284.853
285.133
284.705
284.576
284.552
284.561
284.573
284.578
284.571
284.577
284.639
284.707
284.719
284.705
284.695
284.698
284.711
284.729
284.746
284.759
284.77
284.777
284.782
284.784
284.784
284.781
284.774
284.764
284.751
284.735
284.717
284.698
284.678
284.658
284.639
284.622
284.606
284.593
284.581
284.571
284.562
284.555
284.549
284.544
284.54
284.537
284.536
284.537
284.54
284.546
284.553
284.564
284.576
284.589
284.602
284.612
284.617
284.615
284.603
284.582
284.552
284.516
284.478
284.445
284.423
284.428
284.496
284.717
285.166
285.472
285.101
284.608
284.484
284.539
284.619
284.689
284.745
284.785
284.809
284.821
284.823
284.82
284.817
284.815
284.818
284.823
284.831
284.84
284.848
284.853
284.854
284.849
284.837
284.816
284.788
284.75
284.705
284.652
284.581
284.579
284.857
285.124
284.698
284.569
284.545
284.553
284.563
284.566
284.561
284.579
284.666
284.727
284.724
284.705
284.696
284.701
284.717
284.735
284.752
284.766
284.776
284.782
284.787
284.788
284.787
284.781
284.773
284.76
284.744
284.725
284.705
284.683
284.661
284.64
284.62
284.602
284.587
284.574
284.563
284.554
284.546
284.539
284.534
284.528
284.524
284.52
284.518
284.518
284.52
284.524
284.532
284.543
284.556
284.571
284.587
284.601
284.61
284.612
284.603
284.583
284.553
284.516
284.477
284.442
284.421
284.43
284.513
284.787
285.222
285.428
284.996
284.565
284.492
284.559
284.638
284.706
284.758
284.791
284.809
284.813
284.809
284.801
284.795
284.794
284.798
284.807
284.817
284.829
284.84
284.848
284.851
284.847
284.836
284.816
284.788
284.751
284.706
284.654
284.583
284.583
284.864
285.115
284.691
284.562
284.538
284.544
284.553
284.556
284.555
284.588
284.698
284.742
284.726
284.705
284.697
284.705
284.722
284.741
284.758
284.771
284.781
284.787
284.791
284.791
284.788
284.781
284.769
284.754
284.736
284.715
284.692
284.668
284.645
284.622
284.602
284.585
284.57
284.559
284.549
284.542
284.535
284.53
284.524
284.519
284.513
284.509
284.505
284.503
284.503
284.507
284.513
284.524
284.537
284.554
284.572
284.59
284.603
284.608
284.603
284.584
284.554
284.515
284.475
284.439
284.419
284.435
284.549
284.863
285.262
285.366
284.895
284.534
284.504
284.578
284.656
284.721
284.767
284.795
284.805
284.802
284.792
284.781
284.773
284.773
284.779
284.79
284.804
284.819
284.832
284.842
284.847
284.845
284.834
284.815
284.787
284.751
284.706
284.654
284.585
284.586
284.872
285.107
284.685
284.556
284.531
284.537
284.545
284.547
284.552
284.606
284.731
284.752
284.726
284.704
284.699
284.709
284.727
284.747
284.763
284.776
284.785
284.791
284.794
284.793
284.788
284.779
284.765
284.748
284.727
284.704
284.679
284.654
284.629
284.607
284.587
284.57
284.557
284.548
284.541
284.535
284.53
284.525
284.52
284.514
284.508
284.502
284.497
284.493
284.491
284.493
284.498
284.507
284.521
284.538
284.558
284.579
284.595
284.604
284.601
284.584
284.553
284.513
284.471
284.435
284.418
284.445
284.602
284.936
285.285
285.29
284.804
284.516
284.519
284.596
284.672
284.733
284.774
284.795
284.798
284.789
284.774
284.76
284.752
284.753
284.761
284.775
284.792
284.81
284.825
284.837
284.843
284.841
284.832
284.813
284.785
284.749
284.705
284.654
284.586
284.584
284.881
285.099
284.678
284.549
284.525
284.53
284.538
284.54
284.553
284.634
284.761
284.757
284.725
284.703
284.701
284.713
284.732
284.751
284.768
284.78
284.789
284.795
284.796
284.794
284.787
284.776
284.761
284.742
284.719
284.694
284.668
284.641
284.615
284.593
284.574
284.559
284.549
284.542
284.537
284.533
284.529
284.525
284.52
284.513
284.506
284.499
284.492
284.486
284.482
284.482
284.485
284.493
284.507
284.525
284.546
284.569
284.589
284.6
284.599
284.583
284.551
284.51
284.467
284.431
284.417
284.467
284.665
285.002
285.29
285.204
284.724
284.507
284.534
284.614
284.687
284.743
284.778
284.793
284.79
284.776
284.757
284.741
284.734
284.736
284.746
284.762
284.782
284.802
284.819
284.832
284.839
284.838
284.828
284.81
284.782
284.746
284.703
284.653
284.588
284.577
284.89
285.091
284.672
284.544
284.519
284.524
284.532
284.536
284.56
284.675
284.782
284.758
284.723
284.704
284.703
284.716
284.736
284.755
284.771
284.784
284.793
284.797
284.798
284.794
284.787
284.774
284.757
284.736
284.712
284.685
284.657
284.63
284.604
284.582
284.564
284.551
284.543
284.539
284.537
284.534
284.532
284.527
284.521
284.513
284.505
284.497
284.488
284.481
284.475
284.473
284.475
284.482
284.495
284.513
284.536
284.561
284.583
284.597
284.597
284.581
284.548
284.506
284.462
284.427
284.421
284.502
284.731
285.058
285.278
285.11
284.659
284.505
284.55
284.629
284.699
284.751
284.78
284.79
284.782
284.764
284.743
284.726
284.719
284.721
284.733
284.752
284.774
284.795
284.814
284.828
284.835
284.834
284.824
284.805
284.778
284.742
284.699
284.651
284.589
284.569
284.9
285.083
284.667
284.538
284.514
284.52
284.527
284.535
284.576
284.729
284.792
284.757
284.722
284.706
284.707
284.72
284.739
284.758
284.774
284.787
284.795
284.799
284.799
284.795
284.786
284.772
284.754
284.731
284.705
284.678
284.649
284.62
284.595
284.573
284.557
284.547
284.542
284.54
284.539
284.538
284.534
284.529
284.521
284.512
284.502
284.492
284.483
284.474
284.468
284.464
284.465
284.472
284.485
284.504
284.528
284.555
284.579
284.594
284.595
284.578
284.544
284.5
284.456
284.424
284.433
284.547
284.798
285.1
285.249
285.014
284.608
284.509
284.566
284.644
284.71
284.756
284.781
284.786
284.774
284.754
284.732
284.715
284.707
284.71
284.723
284.744
284.767
284.79
284.81
284.825
284.832
284.831
284.82
284.8
284.772
284.737
284.695
284.648
284.59
284.559
284.912
285.076
284.661
284.533
284.51
284.516
284.524
284.537
284.612
284.78
284.793
284.755
284.723
284.708
284.71
284.722
284.741
284.76
284.777
284.789
284.798
284.801
284.8
284.795
284.785
284.77
284.751
284.727
284.701
284.672
284.642
284.613
284.588
284.568
284.553
284.545
284.542
284.542
284.542
284.541
284.537
284.529
284.519
284.507
284.493
284.482
284.473
284.465
284.458
284.455
284.456
284.464
284.477
284.498
284.523
284.551
284.577
284.593
284.593
284.575
284.539
284.493
284.45
284.424
284.453
284.598
284.861
285.129
285.206
284.921
284.571
284.516
284.581
284.656
284.718
284.76
284.781
284.782
284.768
284.746
284.724
284.706
284.698
284.701
284.716
284.738
284.763
284.787
284.808
284.822
284.829
284.827
284.815
284.794
284.765
284.73
284.689
284.644
284.59
284.548
284.923
285.069
284.656
284.529
284.507
284.513
284.523
284.551
284.676
284.802
284.792
284.755
284.726
284.711
284.712
284.724
284.742
284.761
284.778
284.791
284.8
284.803
284.802
284.796
284.785
284.769
284.749
284.725
284.697
284.668
284.638
284.609
284.584
284.565
284.552
284.545
284.543
284.544
284.545
284.543
284.537
284.528
284.515
284.499
284.482
284.466
284.457
284.451
284.447
284.446
284.449
284.457
284.472
284.494
284.521
284.551
284.577
284.593
284.591
284.57
284.532
284.485
284.444
284.428
284.482
284.654
284.916
285.144
285.152
284.834
284.546
284.526
284.594
284.667
284.725
284.763
284.78
284.779
284.764
284.741
284.718
284.7
284.691
284.695
284.711
284.734
284.761
284.786
284.807
284.821
284.826
284.822
284.809
284.787
284.757
284.722
284.682
284.638
284.588
284.538
284.936
285.062
284.651
284.525
284.504
284.511
284.526
284.595
284.741
284.808
284.791
284.757
284.729
284.715
284.714
284.725
284.742
284.762
284.779
284.793
284.801
284.805
284.804
284.797
284.786
284.769
284.748
284.724
284.696
284.666
284.636
284.608
284.583
284.564
284.552
284.546
284.545
284.546
284.546
284.544
284.538
284.527
284.512
284.493
284.472
284.45
284.44
284.437
284.436
284.438
284.443
284.454
284.471
284.495
284.523
284.553
284.579
284.592
284.588
284.563
284.523
284.477
284.44
284.438
284.518
284.71
284.963
285.144
285.089
284.757
284.53
284.537
284.606
284.675
284.729
284.764
284.779
284.776
284.76
284.736
284.713
284.694
284.686
284.691
284.709
284.734
284.761
284.787
284.807
284.82
284.823
284.817
284.802
284.778
284.748
284.712
284.673
284.631
284.585
284.53
284.948
285.056
284.647
284.522
284.503
284.511
284.538
284.648
284.779
284.812
284.793
284.76
284.733
284.718
284.716
284.725
284.742
284.761
284.779
284.793
284.803
284.807
284.806
284.799
284.787
284.771
284.75
284.725
284.697
284.667
284.636
284.608
284.583
284.565
284.553
284.547
284.546
284.547
284.547
284.545
284.538
284.527
284.512
284.492
284.471
284.449
284.434
284.431
284.431
284.435
284.442
284.456
284.475
284.5
284.529
284.559
284.582
284.591
284.582
284.554
284.514
284.47
284.44
284.454
284.559
284.764
285
285.132
285.02
284.692
284.523
284.548
284.617
284.683
284.733
284.764
284.777
284.772
284.755
284.731
284.707
284.69
284.682
284.689
284.709
284.736
284.764
284.789
284.808
284.819
284.82
284.811
284.793
284.768
284.736
284.7
284.662
284.623
284.58
284.523
284.962
285.05
284.643
284.519
284.501
284.513
284.56
284.691
284.799
284.818
284.798
284.766
284.739
284.722
284.718
284.725
284.741
284.76
284.778
284.794
284.804
284.809
284.808
284.802
284.79
284.774
284.753
284.728
284.7
284.67
284.639
284.611
284.586
284.567
284.554
284.548
284.547
284.548
284.548
284.546
284.54
284.53
284.516
284.497
284.477
284.457
284.442
284.436
284.436
284.44
284.449
284.464
284.485
284.51
284.538
284.565
284.583
284.588
284.575
284.545
284.504
284.464
284.443
284.476
284.603
284.814
285.026
285.108
284.948
284.639
284.521
284.56
284.627
284.688
284.734
284.763
284.773
284.767
284.749
284.724
284.701
284.684
284.679
284.689
284.712
284.74
284.769
284.793
284.81
284.818
284.815
284.803
284.782
284.755
284.722
284.686
284.649
284.612
284.573
284.517
284.975
285.044
284.639
284.517
284.501
284.517
284.587
284.725
284.814
284.825
284.805
284.774
284.746
284.727
284.719
284.724
284.738
284.757
284.777
284.793
284.805
284.811
284.811
284.805
284.794
284.778
284.758
284.733
284.705
284.676
284.645
284.616
284.59
284.57
284.556
284.549
284.547
284.548
284.549
284.548
284.544
284.535
284.523
284.508
284.491
284.474
284.459
284.452
284.45
284.454
284.464
284.479
284.5
284.524
284.549
284.57
284.583
284.583
284.566
284.534
284.495
284.459
284.45
284.503
284.647
284.857
285.041
285.074
284.877
284.599
284.524
284.571
284.635
284.692
284.734
284.76
284.768
284.76
284.74
284.716
284.694
284.679
284.678
284.693
284.718
284.748
284.776
284.798
284.812
284.815
284.809
284.793
284.769
284.739
284.705
284.669
284.634
284.6
284.565
284.512
284.988
285.039
284.635
284.515
284.501
284.524
284.614
284.751
284.827
284.835
284.815
284.785
284.755
284.733
284.722
284.723
284.735
284.754
284.774
284.792
284.805
284.813
284.814
284.809
284.799
284.784
284.765
284.741
284.713
284.684
284.653
284.624
284.597
284.575
284.559
284.55
284.547
284.547
284.549
284.549
284.547
284.542
284.534
284.522
284.509
284.495
284.482
284.474
284.472
284.476
284.485
284.499
284.517
284.538
284.558
284.574
284.581
284.576
284.556
284.523
284.486
284.458
284.461
284.533
284.69
284.894
285.047
285.032
284.81
284.571
284.53
284.581
284.642
284.695
284.733
284.755
284.76
284.75
284.729
284.705
284.685
284.674
284.679
284.7
284.728
284.758
284.784
284.803
284.813
284.812
284.8
284.78
284.753
284.72
284.685
284.65
284.617
284.586
284.556
284.508
284.998
285.034
284.633
284.514
284.502
284.532
284.638
284.773
284.839
284.847
284.829
284.798
284.767
284.741
284.726
284.723
284.732
284.749
284.77
284.789
284.804
284.814
284.817
284.814
284.805
284.791
284.773
284.75
284.724
284.695
284.664
284.634
284.606
284.582
284.564
284.552
284.547
284.546
284.548
284.55
284.55
284.548
284.543
284.536
284.527
284.517
284.507
284.5
284.498
284.5
284.508
284.519
284.534
284.55
284.565
284.575
284.577
284.567
284.544
284.513
284.479
284.459
284.477
284.565
284.73
284.923
285.043
284.986
284.749
284.553
284.539
284.591
284.648
284.695
284.729
284.748
284.75
284.736
284.715
284.693
284.677
284.672
284.685
284.71
284.741
284.77
284.793
284.807
284.811
284.805
284.788
284.763
284.732
284.697
284.662
284.627
284.597
284.57
284.544
284.502
285.003
285.03
284.63
284.513
284.503
284.541
284.658
284.79
284.853
284.862
284.846
284.816
284.782
284.752
284.731
284.723
284.728
284.743
284.764
284.785
284.802
284.814
284.819
284.818
284.811
284.799
284.782
284.761
284.736
284.708
284.678
284.648
284.618
284.592
284.571
284.556
284.548
284.545
284.546
284.548
284.551
284.552
284.55
284.547
284.542
284.536
284.53
284.524
284.522
284.524
284.529
284.538
284.548
284.56
284.569
284.573
284.569
284.556
284.532
284.503
284.474
284.463
284.495
284.597
284.767
284.946
285.032
284.936
284.698
284.543
284.548
284.6
284.652
284.694
284.723
284.738
284.737
284.721
284.7
284.682
284.671
284.675
284.696
284.725
284.756
284.782
284.801
284.81
284.807
284.793
284.771
284.741
284.706
284.669
284.634
284.601
284.574
284.552
284.531
284.495
285.002
285.027
284.628
284.513
284.504
284.547
284.673
284.804
284.867
284.879
284.866
284.837
284.802
284.767
284.74
284.726
284.725
284.736
284.756
284.778
284.798
284.813
284.821
284.822
284.817
284.807
284.792
284.773
284.749
284.723
284.694
284.664
284.634
284.606
284.581
284.563
284.55
284.544
284.542
284.544
284.548
284.551
284.553
284.553
284.552
284.549
284.546
284.543
284.541
284.542
284.545
284.551
284.558
284.564
284.568
284.567
284.56
284.544
284.521
284.494
284.472
284.471
284.516
284.629
284.799
284.961
285.014
284.888
284.657
284.54
284.557
284.607
284.653
284.69
284.714
284.725
284.72
284.703
284.685
284.672
284.669
284.685
284.712
284.743
284.772
284.795
284.807
284.808
284.797
284.776
284.747
284.712
284.674
284.637
284.602
284.572
284.549
284.532
284.517
284.487
284.993
285.024
284.627
284.513
284.504
284.551
284.682
284.814
284.881
284.901
284.891
284.863
284.826
284.787
284.754
284.731
284.723
284.73
284.747
284.77
284.792
284.809
284.82
284.825
284.823
284.815
284.802
284.785
284.764
284.74
284.712
284.683
284.653
284.623
284.596
284.573
284.556
284.545
284.54
284.539
284.542
284.546
284.55
284.553
284.555
284.555
284.554
284.553
284.553
284.553
284.555
284.558
284.561
284.563
284.563
284.559
284.548
284.532
284.51
284.487
284.472
284.481
284.538
284.659
284.826
284.971
284.994
284.843
284.626
284.541
284.566
284.611
284.652
284.684
284.703
284.71
284.701
284.686
284.673
284.668
284.676
284.701
284.733
284.764
284.789
284.804
284.808
284.8
284.78
284.751
284.716
284.676
284.636
284.598
284.565
284.539
284.521
284.51
284.501
284.476
284.979
285.022
284.626
284.513
284.506
284.553
284.682
284.819
284.894
284.925
284.918
284.893
284.856
284.813
284.773
284.741
284.724
284.724
284.737
284.759
284.783
284.804
284.818
284.826
284.827
284.822
284.812
284.797
284.779
284.757
284.732
284.705
284.675
284.645
284.616
284.589
284.567
284.55
284.54
284.535
284.535
284.538
284.542
284.547
284.55
284.553
284.555
284.555
284.555
284.556
284.557
284.558
284.558
284.557
284.554
284.547
284.535
284.519
284.5
284.482
284.475
284.494
284.561
284.687
284.849
284.976
284.972
284.805
284.605
284.545
284.573
284.614
284.649
284.675
284.69
284.693
284.684
284.673
284.667
284.671
284.694
284.725
284.757
284.784
284.802
284.808
284.802
284.783
284.754
284.717
284.675
284.632
284.591
284.555
284.525
284.504
284.491
284.487
284.483
284.459
284.96
285.021
284.626
284.513
284.508
284.556
284.679
284.812
284.899
284.948
284.948
284.928
284.891
284.845
284.799
284.758
284.731
284.72
284.726
284.745
284.77
284.794
284.813
284.824
284.829
284.827
284.82
284.809
284.794
284.775
284.753
284.728
284.7
284.671
284.641
284.612
284.585
284.563
284.546
284.535
284.53
284.529
284.531
284.536
284.54
284.544
284.547
284.549
284.55
284.551
284.551
284.551
284.55
284.547
284.542
284.534
284.522
284.508
284.492
284.48
284.481
284.51
284.585
284.713
284.868
284.978
284.952
284.774
284.593
284.55
284.578
284.614
284.644
284.665
284.676
284.677
284.67
284.666
284.67
284.688
284.719
284.752
284.781
284.801
284.809
284.804
284.786
284.756
284.717
284.672
284.626
284.581
284.54
284.506
284.482
284.466
284.461
284.463
284.464
284.445
284.941
285.02
284.626
284.515
284.51
284.56
284.675
284.802
284.892
284.958
284.98
284.964
284.93
284.884
284.832
284.783
284.744
284.721
284.718
284.731
284.755
284.782
284.804
284.82
284.828
284.83
284.826
284.818
284.806
284.791
284.773
284.751
284.726
284.699
284.67
284.64
284.611
284.584
284.561
284.543
284.531
284.524
284.522
284.523
284.526
284.53
284.533
284.536
284.538
284.539
284.539
284.539
284.537
284.533
284.528
284.52
284.509
284.498
284.486
284.481
284.49
284.528
284.61
284.738
284.884
284.979
284.935
284.753
284.588
284.556
284.582
284.612
284.637
284.654
284.664
284.665
284.665
284.67
284.685
284.716
284.75
284.78
284.801
284.811
284.806
284.787
284.755
284.714
284.666
284.616
284.567
284.522