/*--------------------------------*- C++ -*----------------------------------*\
| =========                 |                                                 |
| \\      /  F ield         | OpenFOAM: The Open Source CFD Toolbox           |
|  \\    /   O peration     | Version:  4.1                                   |
|   \\  /    A nd           | Web:      www.OpenFOAM.org                      |
|    \\/     M anipulation  |                                                 |
\*---------------------------------------------------------------------------*/
FoamFile
{
    version     2.0;
    format      ascii;
    class       volScalarField;
    location    "1700";
    object      mag(U);
}
// * * * * * * * * * * * * * * * * * * * * * * * * * * * * * * * * * * * * * //

dimensions      [0 1 -1 0 0 0 0];

internalField   nonuniform List<scalar> 
5000
(
0.00484953
0.00608467
0.0078631
0.00899182
0.00968353
0.0100233
0.0100503
0.0097873
0.00926511
0.00849896
0.007498
0.00626065
0.00480463
0.00323488
0.00186841
0.00171562
0.00307597
0.00456341
0.00601791
0.00736958
0.00860471
0.00973402
0.0107731
0.011734
0.0126257
0.0134558
0.0142305
0.014955
0.0156336
0.0162694
0.0168647
0.0174212
0.01794
0.0184213
0.0188653
0.0192713
0.0196386
0.0199661
0.0202525
0.0204962
0.0206957
0.0208494
0.0209558
0.0210136
0.0210228
0.020985
0.0208992
0.020765
0.020582
0.0203495
0.0200666
0.0197322
0.019345
0.0189036
0.0184067
0.0178526
0.0172399
0.016567
0.0158327
0.0150359
0.0141756
0.0132516
0.0122634
0.0112107
0.0100925
0.00890572
0.00764309
0.00628745
0.0047928
0.00357594
0.00261373
0.00522507
0.00631052
0.00696198
0.00731688
0.00763445
0.00798149
0.0083665
0.00878129
0.00921291
0.00964663
0.0100665
0.0104556
0.0107966
0.0110717
0.0112631
0.0113506
0.011311
0.0111213
0.0107576
0.010196
0.00941053
0.00836961
0.00703599
0.00539946
0.00361084
0.00236274
0.00312549
0.00364356
0.00391148
0.00681406
0.00609164
0.0072192
0.00816582
0.00879325
0.00908487
0.00905584
0.00874313
0.00820394
0.00746684
0.00655617
0.00549161
0.0043496
0.0033736
0.00298371
0.00336634
0.00412175
0.00522521
0.00644887
0.00766646
0.00883062
0.00992926
0.0109635
0.0119378
0.0128571
0.0137261
0.0145491
0.0153299
0.0160715
0.0167765
0.0174465
0.0180828
0.0186862
0.0192569
0.0197948
0.0202996
0.0207706
0.0212069
0.0216075
0.0219712
0.0222968
0.0225832
0.0228289
0.0230326
0.0231916
0.0233022
0.0233612
0.0233676
0.0233206
0.0232191
0.023062
0.0228477
0.0225746
0.0222411
0.0218453
0.0213849
0.0208579
0.0202619
0.0195946
0.0188537
0.0180371
0.0171426
0.0161679
0.0151101
0.0139651
0.0127261
0.0113821
0.00991946
0.00833161
0.00692323
0.00641987
0.00545302
0.00503407
0.00603738
0.00671805
0.00722994
0.00770201
0.00817255
0.00864722
0.00911896
0.00957516
0.0100003
0.0103774
0.0106893
0.0109189
0.0110503
0.0110668
0.0109481
0.0106917
0.0102797
0.00969845
0.00893503
0.00798008
0.00684006
0.00558992
0.00451461
0.00415285
0.0040078
0.00212776
0.0050928
0.00951624
0.00692141
0.00660356
0.00692956
0.00732562
0.00754799
0.00753024
0.00727784
0.00684639
0.00629751
0.0056938
0.00510673
0.00466554
0.00452586
0.00466508
0.00487533
0.0053042
0.0060104
0.006886
0.00783113
0.00878706
0.00972489
0.0106323
0.0115049
0.0123417
0.0131433
0.0139111
0.0146466
0.0153511
0.0160258
0.0166715
0.0172888
0.0178777
0.0184381
0.0189698
0.0194719
0.0199437
0.0203842
0.0207921
0.0211664
0.0215058
0.021809
0.0220748
0.022302
0.0224893
0.0226353
0.0227411
0.0228002
0.022812
0.0227759
0.0226906
0.0225545
0.0223658
0.0221228
0.0218233
0.021465
0.0210454
0.0205617
0.0200109
0.0193902
0.0186965
0.0179269
0.0170787
0.0161488
0.0151343
0.0140328
0.0128448
0.0115848
0.0103156
0.00934868
0.0096287
0.00956587
0.00588219
0.0044816
0.00517212
0.0058214
0.00640643
0.00696354
0.00750585
0.0080303
0.00852613
0.00897893
0.00937278
0.00969202
0.00992259
0.0100519
0.0100667
0.00995983
0.00973256
0.00938014
0.00890448
0.00831379
0.00763136
0.00691445
0.00628924
0.00596135
0.00600762
0.00555643
0.00121333
0.00649611
0.0119319
0.00817631
0.00663632
0.00620368
0.00621266
0.00625787
0.00619748
0.00601623
0.00574515
0.00545664
0.00525718
0.0052557
0.00548308
0.00582711
0.0060385
0.00613721
0.00636371
0.006769
0.00732801
0.00799036
0.00871054
0.00945656
0.0102085
0.0109547
0.0116881
0.0124048
0.0131024
0.0137795
0.0144355
0.0150695
0.0156813
0.0162701
0.0168355
0.0173765
0.0178923
0.0183818
0.0188439
0.0192772
0.0196805
0.0200524
0.0203916
0.0206968
0.020967
0.021201
0.0213981
0.0215572
0.0216775
0.02176
0.0218002
0.0217975
0.0217509
0.021659
0.0215203
0.0213331
0.0210956
0.0208057
0.0204609
0.0200585
0.0195956
0.0190696
0.0184776
0.0178173
0.017087
0.0162862
0.0154168
0.0144852
0.0135083
0.0125284
0.0116492
0.0111511
0.0118728
0.0128253
0.010336
0.00484294
0.00413034
0.00462013
0.00523407
0.00583868
0.00642486
0.00698187
0.00749597
0.00795276
0.00833853
0.00864138
0.00885264
0.00896679
0.00897925
0.00889067
0.00871119
0.00844912
0.00812106
0.00775615
0.00740408
0.00714282
0.00707068
0.00724119
0.00746922
0.00684649
0.00062606
0.00753548
0.0138741
0.00937217
0.00701889
0.00590219
0.00543174
0.00522627
0.00513164
0.00509453
0.0050668
0.00507321
0.00527166
0.00579436
0.00647477
0.00699168
0.00715741
0.00719897
0.00727284
0.00744602
0.00773908
0.00814182
0.00863045
0.00917983
0.00976887
0.0103815
0.011006
0.0116337
0.0122585
0.012876
0.0134826
0.0140758
0.0146535
0.0152138
0.0157552
0.016276
0.0167746
0.0172493
0.0176985
0.0181205
0.0185138
0.0188767
0.0192077
0.0195058
0.0197697
0.0199986
0.0201921
0.0203497
0.0204709
0.0205592
0.0206096
0.0206227
0.0205979
0.0205344
0.0204308
0.0202859
0.020098
0.0198652
0.0195851
0.0192551
0.0188725
0.0184346
0.0179391
0.0173845
0.0167708
0.0161002
0.0153798
0.0146239
0.0138615
0.013149
0.0125984
0.0124419
0.0133686
0.0149617
0.0138736
0.00875807
0.00406438
0.00395205
0.00443107
0.00499455
0.00556103
0.00609694
0.00658171
0.00700072
0.00734368
0.00760418
0.00778004
0.00787273
0.0078853
0.00782671
0.00771426
0.00756697
0.00741573
0.00730483
0.00729315
0.00744516
0.0077994
0.0082997
0.00864289
0.0078223
0.00132711
0.0082184
0.0154529
0.0104192
0.00752466
0.00587157
0.00491918
0.00443117
0.00434254
0.00455474
0.00484959
0.00510223
0.00559786
0.00650702
0.00742644
0.00793172
0.008072
0.00806074
0.00801302
0.00800822
0.00809142
0.00827835
0.00856473
0.00893592
0.009374
0.00986178
0.0103844
0.0109296
0.0114879
0.0120515
0.0126146
0.0131724
0.0137212
0.0142576
0.0147791
0.0152829
0.0157667
0.0162281
0.0166649
0.0170749
0.017456
0.0178063
0.0181242
0.0184083
0.0186574
0.0188709
0.0190485
0.0191904
0.0192968
0.0193701
0.0194112
0.0194198
0.0193963
0.0193411
0.0192538
0.019134
0.0189805
0.018792
0.0185666
0.0183019
0.0179953
0.0176443
0.0172468
0.0168019
0.0163105
0.0157769
0.015211
0.0146316
0.0140723
0.0135914
0.0132927
0.0133674
0.0143791
0.0163255
0.0163905
0.0125915
0.00628669
0.00391374
0.00406223
0.00450675
0.00498313
0.00543694
0.00584101
0.00618082
0.00644951
0.00664565
0.0067724
0.00683675
0.00684861
0.00682448
0.00678968
0.00677303
0.00681414
0.00696091
0.00726248
0.00775197
0.00841617
0.00914334
0.0095923
0.0087133
0.00235356
0.00873014
0.0167786
0.0113339
0.00805127
0.00598719
0.00459098
0.00380227
0.00377722
0.00435877
0.00500333
0.00538828
0.0060844
0.00725211
0.0082296
0.00867828
0.00879946
0.00873452
0.00859332
0.00846067
0.00839282
0.00841952
0.00854956
0.0087777
0.00909095
0.00947337
0.00990906
0.0103837
0.0108851
0.0114032
0.0119298
0.0124585
0.0129839
0.0135014
0.0140072
0.0144977
0.0149697
0.0154202
0.0158462
0.0162449
0.0166139
0.0169507
0.0172533
0.01752
0.0177497
0.0179414
0.0180952
0.0182112
0.0182905
0.0183345
0.0183476
0.0183306
0.018286
0.0182156
0.0181208
0.0180025
0.0178613
0.0176969
0.0175085
0.0172946
0.0170531
0.016782
0.0164793
0.0161443
0.0157781
0.0153855
0.0149769
0.0145712
0.0142006
0.0139183
0.0138144
0.014049
0.0150897
0.017199
0.0181391
0.0155757
0.00982024
0.00459502
0.00413577
0.00439874
0.00473002
0.00504871
0.00532361
0.00554204
0.00570138
0.0058054
0.00586284
0.00588664
0.00589424
0.00590985
0.00596459
0.00609227
0.00633257
0.00672423
0.00729459
0.00804465
0.0089287
0.00981509
0.0103695
0.00955375
0.00329872
0.00916751
0.0179139
0.0121345
0.00855218
0.00616752
0.00437727
0.0032695
0.00337306
0.00442443
0.00536077
0.0057663
0.00662609
0.0079443
0.00885299
0.0092654
0.00935519
0.00924427
0.00904092
0.00882976
0.0086693
0.00859418
0.00861965
0.00874662
0.0089668
0.0092669
0.00963195
0.0100473
0.0104996
0.0109775
0.0114715
0.0119737
0.0124775
0.0129773
0.0134683
0.0139462
0.014407
0.0148469
0.0152624
0.0156502
0.0160072
0.0163307
0.0166183
0.0168678
0.0170777
0.0172471
0.0173756
0.0174634
0.0175117
0.0175224
0.017499
0.0174449
0.0173638
0.0172594
0.0171354
0.0169951
0.0168413
0.0166762
0.0165011
0.0163163
0.0161212
0.0159147
0.0156954
0.0154626
0.0152171
0.0149626
0.0147077
0.0144683
0.0142716
0.0141617
0.014214
0.014565
0.0156095
0.0177678
0.0193414
0.0178461
0.0128894
0.00668062
0.00452773
0.00459411
0.00477885
0.00494071
0.00505517
0.00511727
0.00513222
0.0051119
0.00507349
0.00503884
0.00503521
0.00509513
0.00525106
0.00553344
0.00597115
0.00658446
0.00737651
0.00832391
0.00936406
0.0103638
0.0110193
0.0103102
0.00413039
0.0095504
0.0188948
0.0128317
0.0090025
0.00636101
0.0042282
0.00278437
0.00309701
0.00467163
0.0057614
0.00613058
0.00715801
0.00851335
0.00933347
0.00970472
0.00976118
0.00962289
0.00939342
0.00915179
0.00895243
0.00882868
0.0087971
0.00886173
0.00901796
0.00925588
0.00956294
0.00992587
0.010332
0.0107698
0.0112294
0.0117022
0.0121809
0.0126592
0.0131315
0.0135929
0.0140388
0.0144648
0.014867
0.0152417
0.0155854
0.015895
0.0161679
0.0164016
0.0165943
0.0167446
0.0168516
0.0169155
0.0169369
0.0169177
0.0168603
0.0167691
0.0166484
0.0165033
0.0163395
0.0161627
0.0159785
0.0157922
0.0156081
0.0154296
0.0152589
0.0150968
0.0149433
0.0147981
0.0146612
0.0145346
0.0144235
0.0143388
0.0143
0.0143411
0.0145234
0.014964
0.0160041
0.0181514
0.0201738
0.0195695
0.0154142
0.0091719
0.00529851
0.00498839
0.00505547
0.00507352
0.00502402
0.0049131
0.00475721
0.00458058
0.00441485
0.00429805
0.00427346
0.00438309
0.00465176
0.00509421
0.00571892
0.00652522
0.00749678
0.00859443
0.00974753
0.0108279
0.011572
0.0109683
0.00482643
0.00987963
0.0197467
0.0134341
0.00938907
0.00653581
0.00411228
0.00232655
0.00294661
0.00502569
0.00608754
0.00643388
0.00763327
0.00894189
0.0096862
0.0100115
0.0100473
0.00990935
0.00969158
0.00946254
0.00926844
0.00913779
0.00908567
0.00911731
0.00923103
0.00942055
0.00967677
0.00998923
0.0103472
0.0107403
0.0111591
0.0115951
0.0120408
0.0124894
0.012935
0.013372
0.0137955
0.0142006
0.0145833
0.0149394
0.0152656
0.0155585
0.0158153
0.0160336
0.0162112
0.0163466
0.0164383
0.0164859
0.0164895
0.0164496
0.0163685
0.0162496
0.0160974
0.0159173
0.0157161
0.0155013
0.0152809
0.0150633
0.0148564
0.0146673
0.0145021
0.0143647
0.0142578
0.0141821
0.0141374
0.0141235
0.0141415
0.0141961
0.0142984
0.0144721
0.014765
0.0152792
0.0163162
0.0184281
0.0207651
0.0208867
0.0174505
0.0114099
0.00656198
0.00549216
0.00547201
0.00537887
0.00518488
0.00490632
0.00457029
0.00421457
0.0038907
0.00366403
0.00360648
0.00377228
0.00416357
0.00476437
0.00555834
0.00652806
0.00764467
0.00885908
0.0100962
0.0112326
0.0120449
0.0115179
0.00538365
0.0101581
0.0204902
0.0139514
0.00970789
0.0066748
0.00401259
0.00190448
0.00292541
0.00539005
0.00627385
0.00666541
0.00801301
0.00923921
0.00991631
0.0102076
0.010248
0.0101429
0.00997165
0.0097892
0.0096319
0.00952252
0.00947371
0.00949108
0.00957541
0.00972408
0.00993195
0.0101923
0.0104971
0.0108383
0.0112077
0.0115973
0.0119999
0.0124086
0.0128171
0.0132196
0.0136106
0.0139854
0.0143395
0.0146689
0.0149702
0.0152405
0.015477
0.0156775
0.0158399
0.0159625
0.0160437
0.0160822
0.0160778
0.0160292
0.0159378
0.0158058
0.0156369
0.0154361
0.0152103
0.0149677
0.0147178
0.0144714
0.0142393
0.0140328
0.0138619
0.0137351
0.0136583
0.0136348
0.0136648
0.0137463
0.0138763
0.014053
0.0142793
0.0145686
0.0149572
0.015535
0.0165746
0.0186491
0.0212103
0.021916
0.0190874
0.0132989
0.00794086
0.00612961
0.00596139
0.00578911
0.00547876
0.00505231
0.00454427
0.00400246
0.00349796
0.00313333
0.00302954
0.00325914
0.00377902
0.00452859
0.00546975
0.00657583
0.00781073
0.00911812
0.0104192
0.0115931
0.0124497
0.0119582
0.00581101
0.0103925
0.0211431
0.014395
0.00996282
0.00677279
0.00392069
0.0015407
0.00305861
0.0056491
0.00630565
0.00683093
0.00828101
0.00941355
0.0100368
0.0103219
0.0103981
0.0103566
0.0102593
0.0101467
0.0100456
0.00997405
0.00994227
0.00995593
0.0100178
0.0101289
0.0102881
0.0104928
0.0107387
0.0110203
0.0113312
0.0116648
0.012014
0.0123722
0.0127328
0.0130897
0.0134374
0.0137709
0.0140857
0.0143782
0.0146453
0.0148844
0.0150934
0.0152706
0.0154144
0.015523
0.0155951
0.0156288
0.0156236
0.0155765
0.0154873
0.0153572
0.0151885
0.0149852
0.0147533
0.0145006
0.0142372
0.0139748
0.0137265
0.0135065
0.0133289
0.0132066
0.0131499
0.0131653
0.0132545
0.0134148
0.0136396
0.0139212
0.0142546
0.0146441
0.0151161
0.0157504
0.0168005
0.018849
0.0215795
0.0227523
0.0204068
0.0148295
0.00921754
0.0068459
0.00648672
0.00625448
0.00585245
0.00530076
0.00463847
0.00391847
0.00322504
0.00269959
0.0025368
0.00283854
0.0034868
0.00436901
0.0054347
0.00665442
0.00798722
0.00937015
0.0107206
0.0119178
0.012795
0.0122949
0.00612727
0.0105916
0.0217217
0.0147778
0.0101634
0.00683261
0.003825
0.00123924
0.00340679
0.00572319
0.00620783
0.00694018
0.00843636
0.00947986
0.0100728
0.0103842
0.0105272
0.0105734
0.010568
0.0105391
0.0105054
0.0104804
0.0104728
0.0104884
0.0105313
0.0106056
0.0107146
0.0108601
0.0110416
0.0112566
0.0115011
0.0117698
0.0120564
0.0123543
0.0126567
0.0129575
0.0132508
0.0135317
0.013796
0.0140404
0.0142624
0.0144603
0.0146327
0.0147787
0.0148974
0.0149878
0.0150485
0.0150779
0.0150753
0.0150361
0.0149588
0.0148434
0.0146907
0.014503
0.0142846
0.0140425
0.0137858
0.0135264
0.0132783
0.0130574
0.012881
0.0127657
0.0127262
0.0127731
0.0129104
0.0131357
0.0134399
0.0138104
0.0142353
0.0147109
0.0152554
0.0159413
0.0170102
0.0190524
0.0219248
0.0234699
0.0214751
0.0160211
0.0102897
0.00756255
0.00703134
0.00674347
0.00626624
0.00560775
0.00480988
0.00392768
0.00305147
0.0023534
0.002122
0.00250347
0.00327241
0.00426781
0.00543778
0.00675314
0.00816804
0.00961282
0.0110009
0.012211
0.013088
0.0125397
0.00635813
0.0107648
0.0222411
0.0151136
0.0103222
0.00686277
0.00372813
0.00101009
0.00382518
0.00560202
0.0060271
0.00700067
0.00848314
0.00945783
0.0100556
0.010426
0.0106582
0.0108052
0.0109
0.0109627
0.0110041
0.0110313
0.0110518
0.0110721
0.0110978
0.0111357
0.0111928
0.0112758
0.0113883
0.0115312
0.0117029
0.0118996
0.0121156
0.0123446
0.0125797
0.0128144
0.0130429
0.0132603
0.0134629
0.0136479
0.0138137
0.0139597
0.0140854
0.0141911
0.0142768
0.0143422
0.0143867
0.0144091
0.0144087
0.0143803
0.0143211
0.0142301
0.0141061
0.0139495
0.0137628
0.0135511
0.0133221
0.0130866
0.0128585
0.0126542
0.0124926
0.0123934
0.0123751
0.012452
0.0126313
0.0129116
0.0132827
0.0137282
0.0142306
0.0147797
0.0153874
0.0161208
0.0172175
0.0192783
0.0222866
0.0241262
0.0223409
0.0168956
0.0111215
0.00822335
0.00757266
0.00723816
0.00669287
0.0059396
0.00502096
0.00399368
0.00295056
0.00208245
0.00177887
0.00224453
0.00311989
0.00420939
0.00546732
0.0068642
0.0083482
0.00984304
0.0112585
0.0124743
0.0133347
0.012712
0.00653257
0.0109168
0.0227151
0.0154158
0.0104526
0.00687343
0.00362666
0.000789583
0.00406857
0.00532359
0.00580878
0.00701064
0.00843558
0.00937641
0.0100152
0.0104703
0.0108065
0.0110611
0.0112579
0.011412
0.0115315
0.0116181
0.0116711
0.011698
0.0117076
0.0117091
0.0117135
0.0117317
0.011772
0.0118385
0.0119325
0.0120515
0.0121905
0.0123433
0.0125028
0.0126625
0.0128165
0.0129602
0.0130905
0.0132055
0.0133047
0.0133885
0.0134579
0.0135141
0.0135583
0.0135913
0.0136133
0.0136238
0.0136227
0.0136047
0.0135664
0.0135057
0.0134197
0.0133067
0.0131669
0.013003
0.0128209
0.0126294
0.0124411
0.0122722
0.012142
0.0120719
0.012083
0.0121932
0.0124127
0.0127421
0.0131708
0.01368
0.0142482
0.01486
0.0155224
0.0163005
0.017435
0.0195441
0.022698
0.0247648
0.0230325
0.017467
0.011711
0.00879969
0.00809635
0.00772527
0.00711409
0.00627187
0.00524209
0.00408424
0.00289421
0.00187273
0.00150146
0.00205006
0.00301414
0.00418178
0.00551516
0.00698188
0.00852311
0.0100567
0.01149
0.0127056
0.0135368
0.0128253
0.00668308
0.0110475
0.0231561
0.0156972
0.0105689
0.00687746
0.00352631
0.000641785
0.00405865
0.00492788
0.00558693
0.00696416
0.00832
0.00926655
0.00997532
0.0105317
0.01098
0.0113459
0.0116454
0.0118891
0.0120834
0.0122296
0.0123237
0.012362
0.0123567
0.0123225
0.0122738
0.0122262
0.0121921
0.0121795
0.0121922
0.0122292
0.0122858
0.012356
0.0124327
0.0125092
0.0125799
0.0126406
0.0126891
0.0127247
0.012748
0.0127609
0.0127655
0.0127643
0.0127595
0.012753
0.0127459
0.0127388
0.0127323
0.0127222
0.0127048
0.0126772
0.0126352
0.0125748
0.0124939
0.0123924
0.0122735
0.0121436
0.0120133
0.0118974
0.0118149
0.0117877
0.0118388
0.0119885
0.0122499
0.0126256
0.0131056
0.0136699
0.0142939
0.014959
0.0156693
0.0164908
0.0176749
0.0198673
0.0231884
0.0254147
0.0235554
0.0177409
0.0120752
0.00928805
0.00859847
0.008194
0.00751658
0.00658645
0.00545072
0.00417355
0.0028576
0.00171051
0.00128401
0.00190744
0.00294313
0.00417705
0.00557607
0.00710188
0.00868829
0.0102487
0.0116898
0.0128982
0.0136892
0.0128924
0.00682057
0.0111534
0.0235746
0.015969
0.0106842
0.00688831
0.00343991
0.000743553
0.00379723
0.00447898
0.00538275
0.00686254
0.00816836
0.00915479
0.00995262
0.010619
0.0111829
0.0116611
0.0120635
0.0123963
0.012663
0.012865
0.0129997
0.0130595
0.0130447
0.0129761
0.0128749
0.0127611
0.0126519
0.0125582
0.0124871
0.0124386
0.0124085
0.0123905
0.0123778
0.0123637
0.0123431
0.0123127
0.0122713
0.0122197
0.0121599
0.012095
0.0120283
0.0119634
0.0119034
0.0118514
0.0118095
0.0117792
0.0117625
0.0117565
0.0117581
0.0117641
0.0117694
0.011768
0.0117549
0.0117272
0.0116846
0.0116308
0.0115735
0.0115259
0.0115054
0.0115341
0.0116357
0.011832
0.0121387
0.0125601
0.0130874
0.0137
0.0143721
0.0150828
0.0158357
0.0167012
0.0179511
0.020269
0.0237852
0.0260847
0.0238904
0.0177205
0.0122456
0.00970325
0.0090806
0.00863673
0.00788919
0.00686904
0.00562955
0.00424231
0.00282201
0.00158456
0.00112048
0.00180531
0.00289906
0.00419096
0.00564708
0.0072209
0.00883949
0.0104137
0.0118511
0.0130428
0.0137845
0.0129224
0.00689023
0.0111825
0.0239791
0.01624
0.0108085
0.00691366
0.00336217
0.000937371
0.00335448
0.0040555
0.00520401
0.00672133
0.00801038
0.00906012
0.00995685
0.0107363
0.0114163
0.0120064
0.0125115
0.0129337
0.013273
0.0135287
0.0136999
0.0137826
0.0137696
0.0136718
0.0135195
0.0133401
0.0131554
0.0129797
0.0128229
0.0126862
0.0125651
0.0124539
0.0123457
0.0122344
0.0121157
0.0119874
0.01185
0.0117055
0.0115574
0.0114098
0.0112672
0.011134
0.0110143
0.010912
0.0108303
0.0107721
0.0107408
0.0107349
0.010753
0.0107921
0.0108463
0.0109082
0.0109698
0.0110246
0.0110687
0.0111021
0.0111297
0.011162
0.011215
0.0113101
0.0114709
0.0117207
0.0120763
0.0125439
0.0131158
0.0137718
0.0144855
0.0152358
0.0160278
0.0169416
0.0182803
0.0207776
0.024511
0.0267597
0.0239958
0.017412
0.0122631
0.0100711
0.00954172
0.00904899
0.00822178
0.00710751
0.00576509
0.00427706
0.00277602
0.00148717
0.001004
0.00173549
0.00287836
0.00422221
0.00572683
0.00733648
0.00897308
0.0105471
0.0119683
0.0131311
0.0138184
0.0129161
0.00691863
0.0110589
0.024376
0.0165162
0.0109475
0.00695732
0.00329653
0.00104353
0.00285182
0.00371951
0.00505071
0.00656609
0.00786861
0.00899372
0.00999206
0.010884
0.0116786
0.0123798
0.0129875
0.0134998
0.0139133
0.0142243
0.0144304
0.0145308
0.0145246
0.0144091
0.0142103
0.0139662
0.0137063
0.0134478
0.0132038
0.0129764
0.0127606
0.0125516
0.0123426
0.0121284
0.011906
0.0116751
0.0114375
0.0111967
0.0109574
0.0107244
0.0105029
0.0102978
0.0101142
0.00995702
0.00983104
0.00974056
0.00969082
0.00968216
0.0097148
0.00978674
0.00989188
0.0100209
0.0101629
0.0103073
0.010446
0.0105749
0.0106955
0.0108159
0.0109503
0.0111191
0.0113458
0.011654
0.0120616
0.0125758
0.01319
0.0138851
0.0146352
0.0154205
0.0162507
0.0172218
0.0186841
0.0214259
0.0254056
0.0273039
0.0238562
0.0168851
0.0121813
0.0104187
0.00997888
0.0094217
0.00850449
0.00729111
0.00584695
0.00426993
0.00271545
0.0014138
0.000926704
0.00169376
0.00288098
0.00427157
0.00581505
0.00744699
0.0090864
0.0106458
0.0120379
0.0131596
0.0137905
0.0128746
0.00703168
0.0108131
0.0247697
0.0168016
0.0111045
0.00702101
0.00326207
0.00106777
0.00245946
0.00350693
0.00492701
0.00642346
0.00775679
0.00895962
0.0100572
0.0110585
0.0119657
0.0127769
0.0134876
0.0140917
0.0145818
0.0149513
0.0151952
0.0153122
0.0153058
0.0151818
0.0149466
0.0146411
0.0143062
0.0139644
0.0136318
0.0133116
0.0129976
0.0126866
0.0123722
0.0120508
0.0117212
0.0113851
0.0110459
0.0107083
0.0103771
0.0100574
0.0097545
0.00947374
0.00922123
0.00900353
0.00882747
0.00869972
0.00862828
0.00861492
0.0086623
0.00876933
0.00892952
0.00913137
0.00936022
0.00960082
0.00984016
0.01007
0.0102885
0.0105012
0.0107211
0.0109675
0.0112638
0.0116334
0.0120943
0.0126547
0.0133088
0.0140389
0.0148208
0.0156379
0.0165078
0.0175516
0.0191911
0.0223633
0.0263779
0.0275912
0.0233956
0.0162766
0.0120606
0.0107636
0.0103865
0.00974246
0.0087273
0.00741044
0.00586811
0.00421866
0.00264169
0.0013587
0.000880196
0.00167947
0.00290932
0.00434109
0.00591205
0.00755148
0.009178
0.0107089
0.0120597
0.0131301
0.0137048
0.0128053
0.00719241
0.0104829
0.0251635
0.0170988
0.0112812
0.00710651
0.00329148
0.00120581
0.00234725
0.00343424
0.00484514
0.00631329
0.00767995
0.00895539
0.0101464
0.0112527
0.0122698
0.0131906
0.0140055
0.0147038
0.0152742
0.0157065
0.0159928
0.0161302
0.0161222
0.0159806
0.0157221
0.0153629
0.0149548
0.0145291
0.0141064
0.0136913
0.0132761
0.0128597
0.0124365
0.0120052
0.0115673
0.0111266
0.0106876
0.0102552
0.00983368
0.00942713
0.00904009
0.00867841
0.00834959
0.00806272
0.00782791
0.00765566
0.00755861
0.00753998
0.00760555
0.00775466
0.00797916
0.00826373
0.00858834
0.00893198
0.00927654
0.00960978
0.00992721
0.0102327
0.0105384
0.0108631
0.0112296
0.0116608
0.0121746
0.0127791
0.0134699
0.0142309
0.0150404
0.0158872
0.0168005
0.0179486
0.0199752
0.0235714
0.0272397
0.0275671
0.0226304
0.0155706
0.0120231
0.0111296
0.0107465
0.0100012
0.00888074
0.0074582
0.00582562
0.00412624
0.00255805
0.00131307
0.000855306
0.00169462
0.00296743
0.00443343
0.00601823
0.00764954
0.00924752
0.0107373
0.0120364
0.0130474
0.0135678
0.012713
0.00739468
0.0100949
0.0255592
0.0174092
0.011479
0.00721991
0.00343762
0.00170481
0.00255612
0.00350077
0.00481854
0.00624426
0.00763473
0.00897248
0.010249
0.0114551
0.0125798
0.0136101
0.0145312
0.0153275
0.0159831
0.0164838
0.0168184
0.0169816
0.016976
0.0168146
0.0165213
0.0161247
0.015648
0.015139
0.0146244
0.0141124
0.0135937
0.0130698
0.0125356
0.0119942
0.0114499
0.0109084
0.0103748
0.00985287
0.00934458
0.00885161
0.00837708
0.00792701
0.00751096
0.00714181
0.00683475
0.00660658
0.00647803
0.0064549
0.00654731
0.00675333
0.00705956
0.00744296
0.00787532
0.00832889
0.00878093
0.00921655
0.00963
0.0100248
0.0104131
0.0108133
0.0112477
0.0117383
0.012302
0.0129469
0.01367
0.0144574
0.0152901
0.0161651
0.0171441
0.0185643
0.0211038
0.0248587
0.0278679
0.0272045
0.0215924
0.0148702
0.0120983
0.0114918
0.0110472
0.0101898
0.00895731
0.00743039
0.00572136
0.00399957
0.0024661
0.00126454
0.00084503
0.0017438
0.0030603
0.00455124
0.00613367
0.00774177
0.00929619
0.0107331
0.0119717
0.0129177
0.0133854
0.0125965
0.00762024
0.00966831
0.025958
0.0177333
0.0116987
0.00737157
0.00375491
0.00250806
0.00300427
0.00367697
0.00485032
0.00621289
0.00760996
0.00899646
0.0103492
0.0116497
0.0128799
0.0140203
0.0150507
0.0159497
0.0166968
0.0172731
0.0176635
0.0178595
0.017862
0.0176841
0.0173527
0.0169045
0.0163781
0.0157884
0.0151805
0.0145701
0.0139463
0.0133136
0.0126684
0.0120195
0.0113741
0.0107393
0.0101197
0.00951621
0.00892669
0.00834878
0.00778311
0.00723548
0.00671773
0.00624776
0.00584804
0.00554567
0.00537616
0.00535095
0.00548764
0.00577812
0.00619501
0.00670001
0.00725344
0.00782133
0.00837873
0.00891083
0.00941293
0.0098898
0.0103541
0.0108242
0.0113216
0.0118666
0.012475
0.0131543
0.0139033
0.0147111
0.0155666
0.0165013
0.0176585
0.0194922
0.022476
0.0260501
0.0281821
0.0264937
0.0203496
0.0142909
0.0122777
0.0118272
0.0112815
0.0103015
0.00895244
0.00732733
0.00556198
0.00384642
0.00236238
0.0011975
0.000848805
0.00183443
0.0031936
0.0046977
0.00626057
0.00783128
0.00932679
0.0106989
0.0118688
0.0127459
0.0131616
0.0124499
0.00784839
0.00921947
0.0263597
0.0180705
0.011941
0.0075779
0.00426072
0.00338614
0.00354268
0.00393161
0.00493121
0.00620592
0.00758786
0.0090074
0.0104262
0.0118156
0.0131496
0.0144016
0.0155451
0.016553
0.0173993
0.01806
0.0185154
0.018753
0.0187709
0.0185816
0.0182142
0.0177107
0.0171166
0.0164689
0.0157682
0.0150574
0.0143283
0.0135868
0.0128328
0.0120819
0.0113435
0.0106261
0.00993222
0.00925806
0.00859533
0.00793616
0.00727753
0.00662398
0.00598869
0.00539426
0.00487188
0.00446493
0.00423759
0.0042171
0.00443391
0.00485766
0.00542698
0.00607825
0.00676086
0.00743975
0.00809301
0.00870967
0.00928858
0.00983703
0.0103682
0.0109002
0.0114523
0.0120432
0.0126874
0.0133939
0.0141671
0.0150065
0.0159063
0.0169633
0.0184348
0.0207406
0.023923
0.027008
0.0281216
0.0254558
0.019014
0.013904
0.0125256
0.0121159
0.0114415
0.0103307
0.00886483
0.00715379
0.00535698
0.00367114
0.00223636
0.00109471
0.000878892
0.00197741
0.00337675
0.00488141
0.00640611
0.00790508
0.00933912
0.0106418
0.0117362
0.0125346
0.0128978
0.0122644
0.0080583
0.00876463
0.0267628
0.0184186
0.0122049
0.00785005
0.00491924
0.00427004
0.00412787
0.00426446
0.00504509
0.00620419
0.00754541
0.00898018
0.0104541
0.0119269
0.0133633
0.014729
0.0159905
0.0171147
0.0180695
0.0188252
0.0193569
0.0196469
0.0196896
0.0194958
0.0190962
0.0185382
0.0178741
0.0171461
0.0163779
0.0155682
0.014734
0.0138835
0.0130258
0.0121806
0.0113599
0.0105732
0.00981925
0.00908779
0.00836298
0.00763043
0.00688252
0.00612088
0.00535711
0.00461419
0.00392889
0.00336462
0.0030424
0.00304755
0.00342509
0.0040622
0.0048278
0.00563562
0.00643848
0.00721137
0.0079415
0.00862476
0.00926459
0.00987073
0.0104572
0.0110403
0.0116372
0.0122677
0.0129458
0.0136754
0.0144733
0.0153494
0.016353
0.0176523
0.0195351
0.0221965
0.025267
0.0276178
0.0276679
0.0241427
0.0177304
0.0137222
0.0127954
0.0123388
0.011519
0.0102734
0.00869661
0.00691806
0.00511512
0.00347099
0.00207183
0.000938296
0.00096557
0.00219257
0.0036306
0.00508837
0.00654794
0.00798368
0.00934246
0.0105641
0.0115757
0.0122908
0.0125936
0.012031
0.00822963
0.00832046
0.0271641
0.0187734
0.0124875
0.00819051
0.00566966
0.00512497
0.00474008
0.00462885
0.00517368
0.00618427
0.0074549
0.00888475
0.0104019
0.0119526
0.0134905
0.0149727
0.0163581
0.017607
0.0186811
0.0195445
0.0201659
0.0205218
0.0206012
0.0204118
0.0199854
0.0193753
0.0186419
0.0178339
0.0169776
0.0160842
0.0151591
0.0142001
0.0132443
0.0123136
0.0114229
0.0105816
0.00978288
0.0090097
0.00823764
0.00744588
0.00662212
0.00576381
0.00487737
0.00397767
0.00309282
0.00228758
0.00176808
0.00187512
0.00259671
0.00353049
0.00449369
0.0054286
0.00631696
0.00715219
0.00793254
0.00866072
0.00934537
0.0100014
0.0106318
0.0112534
0.0118834
0.0125392
0.0132347
0.0139888
0.0148295
0.0157972
0.0170033
0.0186467
0.0209082
0.0236813
0.0263461
0.0278164
0.0268374
0.0226375
0.0166382
0.013707
0.0130421
0.0124798
0.0115067
0.0101283
0.00845319
0.00662944
0.00484009
0.00323429
0.00184674
0.000716822
0.00115984
0.00252074
0.00391663
0.00531725
0.00671453
0.00807006
0.0093396
0.0104685
0.0113884
0.0120165
0.0122493
0.0117408
0.0083425
0.00790385
0.0275586
0.0191287
0.0127822
0.0085886
0.00645265
0.00593745
0.00535459
0.00501041
0.00530141
0.00611715
0.00728406
0.00868636
0.0102341
0.0118573
0.0134964
0.0150984
0.0166141
0.0179974
0.0192032
0.0201888
0.0209158
0.0213537
0.0214847
0.0213116
0.0208663
0.020208
0.019407
0.0185201
0.017578
0.016592
0.0155705
0.0145275
0.0134871
0.0124804
0.0115321
0.01065
0.00982131
0.00902309
0.00822224
0.00739263
0.00651857
0.00559436
0.00462122
0.00360316
0.0025464
0.00146222
0.000375743
0.00114413
0.0023549
0.00347838
0.00452467
0.00550336
0.0064188
0.00727485
0.0080756
0.00882746
0.00954024
0.0102227
0.0108787
0.0115236
0.0121724
0.0128439
0.0135603
0.0143587
0.0152898
0.0164369
0.0179387
0.0199327
0.0224024
0.0250087
0.0270508
0.0275852
0.0256801
0.0210567
0.0158214
0.0137915
0.0132285
0.0125268
0.0114001
0.00989744
0.00814192
0.00629488
0.00452779
0.0029421
0.0015321
0.000489863
0.00154061
0.00290343
0.00424849
0.005593
0.00690988
0.00816948
0.00933488
0.0103579
0.0111758
0.01171
0.0118641
0.0113871
0.00837772
0.00753071
0.0279397
0.0194762
0.013079
0.00902119
0.00722089
0.00669826
0.00595306
0.0053886
0.00539323
0.00597502
0.00699877
0.00834651
0.00991161
0.0116026
0.0133434
0.0150687
0.0167216
0.0182494
0.0196006
0.0207248
0.0215757
0.0221147
0.0223155
0.022174
0.0217205
0.0210205
0.0201556
0.0191924
0.0181667
0.0170925
0.0159801
0.0148486
0.0137307
0.0126634
0.0116738
0.0107686
0.00992991
0.00912439
0.00831591
0.00747591
0.00658803
0.00564727
0.00465703
0.00362768
0.00258237
0.00160445
0.00118873
0.00182428
0.00284677
0.00388327
0.00487909
0.0058238
0.00671675
0.00756006
0.00835733
0.00911403
0.00983647
0.0105277
0.0111922
0.0118441
0.0125006
0.0131886
0.0139483
0.014839
0.015938
0.0173466
0.0191628
0.0213901
0.0238306
0.0260308
0.0273236
0.026944
0.0242758
0.0195364
0.0152844
0.0139038
0.0133275
0.0124715
0.0111977
0.00958495
0.00776955
0.00591549
0.00416558
0.0025703
0.00108821
0.000668517
0.00203714
0.00335065
0.00465214
0.00592185
0.00714112
0.00828787
0.00933287
0.0102352
0.0109387
0.0113701
0.0114378
0.0109635
0.00831833
0.00721491
0.0282995
0.0198063
0.0133641
0.00945617
0.00793747
0.00739641
0.00651448
0.00573761
0.00543535
0.00572367
0.00656417
0.00782368
0.00939387
0.0111505
0.0129945
0.0148465
0.0166422
0.0183244
0.0198352
0.0211161
0.0221115
0.0227735
0.0230658
0.022975
0.0225277
0.0217954
0.0208725
0.0198377
0.0187329