/*--------------------------------*- C++ -*----------------------------------*\
| =========                 |                                                 |
| \\      /  F ield         | OpenFOAM: The Open Source CFD Toolbox           |
|  \\    /   O peration     | Version:  4.1                                   |
|   \\  /    A nd           | Web:      www.OpenFOAM.org                      |
|    \\/     M anipulation  |                                                 |
\*---------------------------------------------------------------------------*/
FoamFile
{
    version     2.0;
    format      ascii;
    class       volScalarField;
    location    "1700";
    object      p;
}
// * * * * * * * * * * * * * * * * * * * * * * * * * * * * * * * * * * * * * //

dimensions      [0 2 -2 0 0 0 0];

internalField   nonuniform List<scalar> 
1600
(
0
-6.61941e-06
-1.4349e-05
-1.83912e-05
-2.93754e-05
-6.80146e-05
-0.00011034
-7.95638e-05
-3.5857e-05
-1.09405e-05
7.90903e-06
2.6716e-05
4.23447e-05
5.34058e-05
5.67241e-05
5.06606e-05
2.99997e-05
-1.09463e-05
-5.49747e-05
-8.11393e-05
-8.98817e-05
-8.62438e-05
-7.4963e-05
-5.34103e-05
-5.13827e-05
-6.13685e-05
-7.14557e-05
-7.69112e-05
-6.95194e-05
-6.36779e-05
-4.37554e-05
-2.93824e-05
-6.893e-06
1.32021e-05
2.8794e-05
3.86299e-05
3.81308e-05
2.46714e-05
4.41438e-07
-9.41825e-06
-0.0983788
-0.0983787
-0.0983802
-0.0983845
-0.0984003
-0.0984262
-0.0984593
-0.0984427
-0.0984121
-0.0983852
-0.0983672
-0.098351
-0.098337
-0.0983257
-0.098322
-0.0983301
-0.0983521
-0.0983865
-0.0984189
-0.0984353
-0.0984477
-0.0984678
-0.0984656
-0.0984446
-0.0984393
-0.0984437
-0.0984448
-0.0984383
-0.0984194
-0.0984081
-0.0984089
-0.0984088
-0.0983938
-0.0983775
-0.0983635
-0.0983543
-0.0983549
-0.0983669
-0.098387
-0.0983872
-0.196774
-0.196774
-0.196776
-0.196781
-0.196796
-0.196812
-0.196844
-0.196831
-0.196813
-0.196787
-0.19677
-0.196755
-0.196742
-0.19673
-0.196727
-0.196735
-0.196756
-0.196787
-0.19681
-0.196817
-0.196826
-0.196851
-0.196856
-0.196842
-0.19684
-0.196846
-0.196847
-0.196835
-0.19681
-0.196786
-0.196793
-0.196802
-0.196793
-0.196778
-0.196765
-0.196756
-0.196754
-0.196764
-0.196783
-0.196774
-0.29517
-0.29517
-0.295172
-0.295177
-0.295189
-0.295201
-0.295238
-0.295223
-0.295213
-0.295188
-0.295174
-0.29516
-0.295147
-0.295136
-0.295133
-0.29514
-0.295161
-0.295189
-0.295206
-0.295207
-0.295211
-0.295229
-0.295239
-0.295235
-0.295239
-0.295248
-0.29525
-0.29524
-0.295216
-0.295181
-0.295186
-0.295199
-0.295192
-0.29518
-0.295167
-0.295157
-0.295153
-0.295159
-0.295176
-0.295158
-0.393565
-0.393565
-0.393567
-0.393572
-0.393581
-0.39359
-0.393622
-0.393615
-0.393612
-0.39359
-0.393578
-0.393566
-0.393554
-0.393543
-0.393539
-0.393546
-0.393566
-0.39359
-0.393602
-0.393601
-0.3936
-0.393607
-0.393618
-0.393626
-0.393637
-0.39365
-0.393654
-0.393646
-0.393626
-0.393584
-0.393585
-0.393597
-0.393592
-0.393582
-0.39357
-0.393559
-0.393553
-0.393555
-0.393565
-0.393539
-0.491961
-0.491961
-0.491962
-0.491966
-0.491971
-0.491977
-0.491994
-0.492004
-0.492008
-0.491991
-0.491982
-0.491971
-0.49196
-0.49195
-0.491946
-0.491952
-0.49197
-0.491992
-0.491998
-0.491996
-0.491991
-0.491987
-0.491999
-0.492016
-0.492035
-0.492051
-0.492059
-0.492054
-0.492035
-0.49199
-0.491986
-0.491996
-0.491993
-0.491984
-0.491972
-0.491961
-0.491953
-0.491951
-0.491951
-0.491919
-0.590356
-0.590356
-0.590357
-0.59036
-0.590362
-0.590362
-0.590363
-0.590392
-0.590401
-0.590391
-0.590385
-0.590376
-0.590366
-0.590356
-0.590352
-0.590357
-0.590374
-0.590392
-0.590394
-0.590393
-0.590385
-0.59037
-0.590384
-0.590407
-0.590431
-0.590452
-0.590461
-0.590459
-0.590439
-0.590395
-0.590388
-0.590397
-0.590395
-0.590387
-0.590376
-0.590364
-0.590354
-0.590347
-0.590335
-0.590305
-0.688752
-0.688753
-0.688753
-0.688754
-0.688754
-0.688752
-0.688736
-0.688779
-0.688793
-0.68879
-0.688787
-0.688781
-0.688772
-0.688762
-0.688758
-0.688762
-0.688777
-0.688793
-0.68879
-0.688793
-0.68878
-0.688755
-0.688773
-0.688799
-0.688826
-0.688849
-0.688861
-0.688859
-0.68884
-0.688798
-0.68879
-0.688799
-0.688797
-0.68879
-0.688779
-0.688767
-0.688756
-0.688745
-0.688727
-0.688703
-0.787148
-0.78715
-0.787149
-0.787149
-0.787149
-0.787145
-0.78712
-0.78717
-0.787187
-0.787189
-0.787188
-0.787184
-0.787176
-0.787167
-0.787162
-0.787165
-0.787179
-0.787193
-0.787188
-0.787195
-0.787177
-0.787145
-0.787166
-0.787193
-0.787221
-0.787243
-0.787256
-0.787255
-0.787236
-0.787199
-0.787192
-0.7872
-0.787199
-0.787192
-0.787182
-0.78717
-0.787158
-0.787146
-0.787127
-0.787109
-0.885544
-0.885547
-0.885546
-0.885546
-0.885544
-0.885541
-0.885515
-0.885563
-0.885582
-0.885587
-0.885588
-0.885585
-0.885579
-0.885571
-0.885566
-0.885568
-0.885581
-0.885593
-0.885587
-0.8856
-0.885573
-0.88554
-0.885564
-0.885587
-0.885613
-0.885634
-0.885647
-0.885646
-0.885629
-0.885599
-0.885593
-0.885602
-0.885601
-0.885595
-0.885584
-0.885573
-0.88556
-0.885547
-0.88553
-0.885516
-0.98394
-0.983943
-0.983944
-0.983943
-0.983941
-0.983938
-0.983919
-0.983959
-0.983978
-0.983985
-0.983987
-0.983986
-0.98398
-0.983973
-0.983968
-0.983969
-0.983981
-0.983992
-0.983987
-0.984004
-0.983968
-0.98394
-0.983962
-0.983981
-0.984004
-0.984024
-0.984036
-0.984035
-0.98402
-0.983997
-0.983994
-0.984003
-0.984003
-0.983997
-0.983987
-0.983975
-0.983963
-0.983949
-0.983935
-0.983923
-1.08234
-1.08234
-1.08234
-1.08234
-1.08234
-1.08234
-1.08233
-1.08236
-1.08237
-1.08238
-1.08239
-1.08238
-1.08238
-1.08237
-1.08237
-1.08237
-1.08238
-1.08239
-1.08239
-1.0824
-1.08236
-1.08234
-1.08236
-1.08237
-1.08239
-1.08241
-1.08242
-1.08242
-1.08241
-1.08239
-1.08239
-1.0824
-1.0824
-1.0824
-1.08239
-1.08238
-1.08237
-1.08235
-1.08234
-1.08233
-1.18074
-1.18074
-1.18074
-1.18074
-1.18074
-1.18074
-1.18073
-1.18076
-1.18077
-1.18078
-1.18078
-1.18078
-1.18078
-1.18077
-1.18077
-1.18077
-1.18078
-1.18078
-1.18078
-1.1808
-1.18076
-1.18074
-1.18075
-1.18077
-1.18079
-1.1808
-1.18081
-1.18081
-1.1808
-1.18079
-1.18079
-1.18081
-1.18081
-1.1808
-1.18079
-1.18078
-1.18077
-1.18076
-1.18074
-1.18074
-1.27914
-1.27914
-1.27914
-1.27914
-1.27914
-1.27914
-1.27914
-1.27915
-1.27917
-1.27918
-1.27918
-1.27918
-1.27918
-1.27917
-1.27917
-1.27917
-1.27918
-1.27918
-1.27918
-1.27919
-1.27915
-1.27914
-1.27915
-1.27916
-1.27918
-1.27919
-1.2792
-1.2792
-1.27919
-1.27919
-1.27919
-1.27921
-1.27921
-1.2792
-1.2792
-1.27918
-1.27917
-1.27916
-1.27915
-1.27914
-1.37754
-1.37754
-1.37755
-1.37755
-1.37754
-1.37754
-1.37754
-1.37755
-1.37757
-1.37757
-1.37758
-1.37758
-1.37758
-1.37757
-1.37757
-1.37756
-1.37757
-1.37757
-1.37757
-1.37758
-1.37755
-1.37754
-1.37755
-1.37756
-1.37757
-1.37758
-1.37759
-1.37759
-1.37759
-1.37759
-1.3776
-1.37761
-1.37761
-1.37761
-1.3776
-1.37759
-1.37757
-1.37756
-1.37755
-1.37755
-1.47594
-1.47594
-1.47595
-1.47595
-1.47595
-1.47595
-1.47595
-1.47596
-1.47596
-1.47597
-1.47597
-1.47597
-1.47597
-1.47597
-1.47597
-1.47596
-1.47597
-1.47596
-1.47596
-1.47596
-1.47594
-1.47594
-1.47594
-1.47595
-1.47596
-1.47597
-1.47598
-1.47598
-1.47598
-1.47599
-1.476
-1.47601
-1.47601
-1.47601
-1.476
-1.47599
-1.47598
-1.47597
-1.47596
-1.47595
-1.57434
-1.57435
-1.57435
-1.57435
-1.57435
-1.57435
-1.57435
-1.57436
-1.57436
-1.57437
-1.57437
-1.57437
-1.57437
-1.57437
-1.57436
-1.57436
-1.57437
-1.57436
-1.57436
-1.57436
-1.57434
-1.57434
-1.57434
-1.57435
-1.57436
-1.57436
-1.57437
-1.57437
-1.57438
-1.57439
-1.5744
-1.57441
-1.57442
-1.57441
-1.5744
-1.57439
-1.57438
-1.57437
-1.57436
-1.57436
-1.67275
-1.67275
-1.67275
-1.67276
-1.67276
-1.67275
-1.67275
-1.67276
-1.67276
-1.67277
-1.67277
-1.67277
-1.67277
-1.67277
-1.67276
-1.67276
-1.67276
-1.67275
-1.67275
-1.67275
-1.67273
-1.67274
-1.67274
-1.67275
-1.67275
-1.67276
-1.67277
-1.67277
-1.67278
-1.67279
-1.6728
-1.67282
-1.67282
-1.67282
-1.67281
-1.6728
-1.67278
-1.67277
-1.67276
-1.67276
-1.77115
-1.77115
-1.77116
-1.77116
-1.77116
-1.77116
-1.77116
-1.77116
-1.77116
-1.77117
-1.77117
-1.77117
-1.77117
-1.77117
-1.77116
-1.77115
-1.77116
-1.77115
-1.77114
-1.77114
-1.77113
-1.77114
-1.77114
-1.77114
-1.77115
-1.77116
-1.77116
-1.77117
-1.77118
-1.77119
-1.77121
-1.77122
-1.77122
-1.77122
-1.77121
-1.7712
-1.77119
-1.77117
-1.77117
-1.77116
-1.86955
-1.86956
-1.86956
-1.86956
-1.86956
-1.86956
-1.86956
-1.86956
-1.86956
-1.86957
-1.86957
-1.86957
-1.86957
-1.86957
-1.86956
-1.86955
-1.86955
-1.86954
-1.86954
-1.86954
-1.86953
-1.86954
-1.86954
-1.86954
-1.86955
-1.86955
-1.86956
-1.86957
-1.86958
-1.86959
-1.86961
-1.86962
-1.86962
-1.86962
-1.86961
-1.8696
-1.86959
-1.86958
-1.86957
-1.86956
-1.96796
-1.96796
-1.96796
-1.96797
-1.96797
-1.96797
-1.96796
-1.96796
-1.96797
-1.96797
-1.96797
-1.96797
-1.96797
-1.96797
-1.96796
-1.96795
-1.96795
-1.96794
-1.96794
-1.96794
-1.96793
-1.96794
-1.96794
-1.96794
-1.96795
-1.96795
-1.96796
-1.96797
-1.96798
-1.96799
-1.96801
-1.96802
-1.96803
-1.96802
-1.96801
-1.968
-1.96799
-1.96798
-1.96797
-1.96796
-2.06636
-2.06636
-2.06637
-2.06637
-2.06637
-2.06637
-2.06637
-2.06637
-2.06637
-2.06637
-2.06637
-2.06637
-2.06637
-2.06637
-2.06637
-2.06636
-2.06635
-2.06634
-2.06634
-2.06634
-2.06633
-2.06634
-2.06634
-2.06634
-2.06635
-2.06635
-2.06636
-2.06637
-2.06638
-2.0664
-2.06641
-2.06642
-2.06643
-2.06642
-2.06642
-2.0664
-2.06639
-2.06638
-2.06637
-2.06637
-2.16476
-2.16477
-2.16477
-2.16477
-2.16477
-2.16477
-2.16477
-2.16477
-2.16477
-2.16477
-2.16477
-2.16477
-2.16478
-2.16478
-2.16477
-2.16476
-2.16476
-2.16475
-2.16474
-2.16474
-2.16473
-2.16474
-2.16474
-2.16474
-2.16475
-2.16475
-2.16476
-2.16477
-2.16478
-2.1648
-2.16481
-2.16482
-2.16483
-2.16482
-2.16482
-2.16481
-2.16479
-2.16478
-2.16477
-2.16476
-2.26316
-2.26317
-2.26317
-2.26318
-2.26318
-2.26318
-2.26317
-2.26317
-2.26317
-2.26317
-2.26317
-2.26318
-2.26318
-2.26318
-2.26318
-2.26317
-2.26316
-2.26315
-2.26314
-2.26314
-2.26313
-2.26314
-2.26314
-2.26314
-2.26315
-2.26315
-2.26316
-2.26317
-2.26319
-2.2632
-2.26321
-2.26322
-2.26323
-2.26322
-2.26322
-2.26321
-2.26319
-2.26318
-2.26317
-2.26316
-2.36156
-2.36157
-2.36158
-2.36158
-2.36158
-2.36158
-2.36158
-2.36158
-2.36158
-2.36158
-2.36158
-2.36158
-2.36159
-2.36159
-2.36159
-2.36158
-2.36157
-2.36155
-2.36154
-2.36154
-2.36154
-2.36154
-2.36154
-2.36154
-2.36155
-2.36155
-2.36156
-2.36157
-2.36159
-2.3616
-2.36161
-2.36162
-2.36163
-2.36162
-2.36162
-2.36161
-2.36159
-2.36158
-2.36157
-2.36156
-2.45997
-2.45997
-2.45998
-2.45998
-2.45998
-2.45998
-2.45998
-2.45998
-2.45998
-2.45998
-2.45998
-2.45999
-2.46
-2.46
-2.45999
-2.45999
-2.45997
-2.45995
-2.45995
-2.45994
-2.45994
-2.45994
-2.45994
-2.45994
-2.45995
-2.45996
-2.45996
-2.45997
-2.45999
-2.46
-2.46001
-2.46002
-2.46003
-2.46002
-2.46002
-2.46001
-2.45999
-2.45998
-2.45997
-2.45996
-2.55836
-2.55837
-2.55838
-2.55838
-2.55839
-2.55839
-2.55839
-2.55838
-2.55838
-2.55839
-2.55839
-2.5584
-2.5584
-2.55841
-2.5584
-2.5584
-2.55838
-2.55836
-2.55835
-2.55834
-2.55834
-2.55834
-2.55834
-2.55834
-2.55835
-2.55836
-2.55836
-2.55838
-2.55839
-2.5584
-2.55841
-2.55842
-2.55843
-2.55842
-2.55842
-2.5584
-2.55839
-2.55838
-2.55837
-2.55836
-2.65676
-2.65677
-2.65678
-2.65679
-2.65679
-2.65679
-2.65679
-2.65679
-2.65679
-2.65679
-2.6568
-2.65681
-2.65681
-2.65682
-2.65681
-2.65681
-2.65678
-2.65676
-2.65675
-2.65674
-2.65674
-2.65674
-2.65674
-2.65675
-2.65675
-2.65676
-2.65677
-2.65678
-2.65679
-2.6568
-2.65681
-2.65682
-2.65683
-2.65682
-2.65681
-2.6568
-2.65679
-2.65677
-2.65676
-2.65675
-2.75516
-2.75517
-2.75518
-2.75519
-2.75519
-2.7552
-2.7552
-2.7552
-2.7552
-2.7552
-2.75521
-2.75522
-2.75522
-2.75523
-2.75522
-2.75521
-2.75518
-2.75516
-2.75515
-2.75514
-2.75514
-2.75514
-2.75514
-2.75515
-2.75515
-2.75516
-2.75517
-2.75518
-2.75519
-2.7552
-2.75521
-2.75522
-2.75522
-2.75522
-2.75521
-2.7552
-2.75519
-2.75517
-2.75516
-2.75515
-2.85355
-2.85357
-2.85358
-2.85359
-2.8536
-2.8536
-2.8536
-2.8536
-2.85361
-2.85361
-2.85362
-2.85362
-2.85363
-2.85364
-2.85363
-2.85361
-2.85359
-2.85356
-2.85355
-2.85354
-2.85354
-2.85354
-2.85354
-2.85355
-2.85355
-2.85356
-2.85357
-2.85358
-2.85359
-2.8536
-2.85361
-2.85362
-2.85362
-2.85362
-2.85361
-2.8536
-2.85358
-2.85357
-2.85355
-2.85354
-2.95195
-2.95196
-2.95198
-2.95199
-2.952
-2.95201
-2.95201
-2.95201
-2.95201
-2.95202
-2.95203
-2.95203
-2.95204
-2.95204
-2.95204
-2.95201
-2.95198
-2.95196
-2.95195
-2.95195
-2.95194
-2.95194
-2.95194
-2.95195
-2.95195
-2.95196
-2.95197
-2.95198
-2.95199
-2.952
-2.95201
-2.95202
-2.95202
-2.95202
-2.95201
-2.952
-2.95198
-2.95196
-2.95195
-2.95193
-3.05034
-3.05036
-3.05037
-3.05039
-3.05041
-3.05041
-3.05042
-3.05042
-3.05042
-3.05043
-3.05043
-3.05044
-3.05045
-3.05045
-3.05044
-3.05041
-3.05038
-3.05037
-3.05036
-3.05035
-3.05034
-3.05034
-3.05034
-3.05035
-3.05035
-3.05036
-3.05037
-3.05038
-3.05039
-3.0504
-3.05041
-3.05042
-3.05042
-3.05042
-3.05041
-3.05039
-3.05038
-3.05036
-3.05034
-3.05033
-3.14872
-3.14875
-3.14877
-3.14879
-3.14881
-3.14882
-3.14882
-3.14883
-3.14883
-3.14884
-3.14884
-3.14885
-3.14885
-3.14885
-3.14883
-3.1488
-3.14877
-3.14877
-3.14876
-3.14875
-3.14874
-3.14874
-3.14874
-3.14875
-3.14875
-3.14876
-3.14877
-3.14878
-3.14879
-3.14881
-3.14881
-3.14882
-3.14882
-3.14882
-3.14881
-3.14879
-3.14877
-3.14875
-3.14873
-3.14872
-3.24711
-3.24714
-3.24716
-3.24719
-3.24721
-3.24722
-3.24723
-3.24724
-3.24724
-3.24724
-3.24725
-3.24725
-3.24725
-3.24725
-3.24723
-3.24719
-3.24716
-3.24717
-3.24716
-3.24715
-3.24715
-3.24715
-3.24715
-3.24715
-3.24716
-3.24716
-3.24717
-3.24718
-3.2472
-3.24721
-3.24722
-3.24722
-3.24722
-3.24722
-3.2472
-3.24719
-3.24717
-3.24715
-3.24713
-3.24711
-3.34549
-3.34552
-3.34555
-3.34558
-3.34561
-3.34562
-3.34563
-3.34564
-3.34565
-3.34565
-3.34565
-3.34566
-3.34565
-3.34564
-3.34562
-3.34558
-3.34555
-3.34556
-3.34556
-3.34555
-3.34555
-3.34555
-3.34555
-3.34555
-3.34556
-3.34557
-3.34558
-3.34559
-3.3456
-3.34561
-3.34562
-3.34562
-3.34562
-3.34561
-3.3456
-3.34559
-3.34556
-3.34554
-3.34552
-3.34551
-3.44388
-3.44391
-3.44394
-3.44398
-3.444
-3.44402
-3.44404
-3.44404
-3.44405
-3.44405
-3.44406
-3.44406
-3.44405
-3.44404
-3.444
-3.44396
-3.44393
-3.44396
-3.44397
-3.44396
-3.44395
-3.44395
-3.44395
-3.44395
-3.44396
-3.44397
-3.44398
-3.44399
-3.444
-3.44401
-3.44402
-3.44402
-3.44402
-3.44401
-3.444
-3.44398
-3.44396
-3.44394
-3.44392
-3.4439
-3.54226
-3.54229
-3.54233
-3.54237
-3.5424
-3.54242
-3.54243
-3.54244
-3.54245
-3.54246
-3.54246
-3.54246
-3.54245
-3.54243
-3.54239
-3.54234
-3.54231
-3.54234
-3.54237
-3.54236
-3.54236
-3.54235
-3.54235
-3.54236
-3.54236
-3.54237
-3.54238
-3.54239
-3.5424
-3.54241
-3.54242
-3.54242
-3.54242
-3.54241
-3.5424
-3.54238
-3.54235
-3.54233
-3.54232
-3.5423
-3.64065
-3.64068
-3.64072
-3.64075
-3.64079
-3.64081
-3.64083
-3.64084
-3.64085
-3.64085
-3.64086
-3.64085
-3.64084
-3.64082
-3.64078
-3.64072
-3.64069
-3.64072
-3.64077
-3.64076
-3.64076
-3.64076
-3.64076
-3.64076
-3.64077
-3.64077
-3.64078
-3.64079
-3.64081
-3.64081
-3.64082
-3.64082
-3.64082
-3.64081
-3.64079
-3.64077
-3.64075
-3.64073
-3.64071
-3.64071
-3.73905
-3.73907
-3.73911
-3.73914
-3.73918
-3.73921
-3.73922
-3.73924
-3.73925
-3.73925
-3.73925
-3.73925
-3.73924
-3.73921
-3.73916
-3.7391
-3.73906
-3.73909
-3.73915
-3.73916
-3.73916
-3.73915
-3.73916
-3.73916
-3.73917
-3.73917
-3.73918
-3.73919
-3.7392
-3.73921
-3.73922
-3.73922
-3.73922
-3.73921
-3.73919
-3.73917
-3.73914
-3.73913
-3.73912
-3.73911
-3.83745
-3.83747
-3.8375
-3.83754
-3.83757
-3.8376
-3.83762
-3.83763
-3.83764
-3.83765
-3.83765
-3.83764
-3.83763
-3.8376
-3.83755
-3.83748
-3.83744
-3.83746
-3.83753
-3.83755
-3.83755
-3.83755
-3.83755
-3.83756
-3.83756
-3.83757
-3.83758
-3.83759
-3.8376
-3.83761
-3.83762
-3.83762
-3.83761
-3.8376
-3.83759
-3.83757
-3.83755
-3.83753
-3.83752
-3.83752
)
;

boundaryField
{
    floor
    {
        type            calculated;
        value           nonuniform List<scalar> 
40
(
0.0491812
0.0491676
0.0491528
0.0491493
0.0491434
0.0490953
0.049047
0.0490869
0.0491399
0.0491625
0.0491814
0.0492026
0.0492195
0.0492303
0.0492329
0.049229
0.0492097
0.0491642
0.0491145
0.049084
0.0490799
0.049098
0.0491157
0.0491359
0.0491347
0.0491193
0.0491011
0.0490879
0.0490885
0.0490956
0.0491319
0.0491534
0.0491801
0.0492025
0.049219
0.0492294
0.0492295
0.0492153
0.0491868
0.0491722
)
;
    }
    ceiling
    {
        type            calculated;
        value           nonuniform List<scalar> 
40
(
-3.88665
-3.88667
-3.8867
-3.88674
-3.88677
-3.8868
-3.88682
-3.88683
-3.88684
-3.88684
-3.88684
-3.88684
-3.88683
-3.8868
-3.88675
-3.88668
-3.88664
-3.88666
-3.88673
-3.88675
-3.88675
-3.88675
-3.88675
-3.88675
-3.88676
-3.88677
-3.88678
-3.88679
-3.8868
-3.88681
-3.88681
-3.88682
-3.88681
-3.8868
-3.88679
-3.88677
-3.88675
-3.88673
-3.88673
-3.88672
)
;
    }
    fixedWalls
    {
        type            calculated;
        value           nonuniform List<scalar> 
80
(
-6.93889e-18
-0.0983788
-0.196774
-0.29517
-0.393565
-0.491961
-0.590356
-0.688752
-0.787148
-0.885544
-0.98394
-1.08234
-1.18074
-1.27914
-1.37754
-1.47594
-1.57434
-1.67275
-1.77115
-1.86955
-1.96796
-2.06636
-2.16476
-2.26316
-2.36156
-2.45997
-2.55836
-2.65676
-2.75516
-2.85355
-2.95195
-3.05034
-3.14872
-3.24711
-3.34549
-3.44388
-3.54226
-3.64065
-3.73905
-3.83745
-9.41825e-06
-0.0983872
-0.196774
-0.295158
-0.393539
-0.491919
-0.590305
-0.688703
-0.787109
-0.885516
-0.983923
-1.08233
-1.18074
-1.27914
-1.37755
-1.47595
-1.57436
-1.67276
-1.77116
-1.86956
-1.96796
-2.06637
-2.16476
-2.26316
-2.36156
-2.45996
-2.55836
-2.65675
-2.75515
-2.85354
-2.95193
-3.05033
-3.14872
-3.24711
-3.34551
-3.4439
-3.5423
-3.64071
-3.73911
-3.83752
)
;
    }
    frontAndBack
    {
        type            empty;
    }
}


// ************************************************************************* //
