/*--------------------------------*- C++ -*----------------------------------*\
| =========                 |                                                 |
| \\      /  F ield         | OpenFOAM: The Open Source CFD Toolbox           |
|  \\    /   O peration     | Version:  4.1                                   |
|   \\  /    A nd           | Web:      www.OpenFOAM.org                      |
|    \\/     M anipulation  |                                                 |
\*---------------------------------------------------------------------------*/
FoamFile
{
    version     2.0;
    format      ascii;
    class       volScalarField;
    location    "1700";
    object      p_rgh;
}
// * * * * * * * * * * * * * * * * * * * * * * * * * * * * * * * * * * * * * //

dimensions      [0 2 -2 0 0 0 0];

internalField   nonuniform List<scalar> 
5000
(
0.0491887
0.0491773
0.0491685
0.049162
0.049158
0.0491565
0.0491576
0.0491611
0.0491665
0.0491734
0.0491813
0.0491894
0.0491968
0.0492018
0.0492034
0.0492029
0.0491999
0.0491935
0.0491846
0.0491741
0.0491629
0.0491512
0.0491392
0.0491271
0.0491149
0.0491026
0.0490905
0.0490784
0.0490663
0.0490545
0.0490427
0.0490312
0.0490199
0.0490089
0.0489982
0.0489879
0.048978
0.0489685
0.0489597
0.0489514
0.0489439
0.048937
0.0489309
0.0489256
0.0489212
0.0489178
0.0489153
0.0489138
0.0489133
0.0489137
0.0489152
0.0489177
0.0489211
0.0489255
0.0489309
0.0489371
0.0489441
0.0489519
0.0489604
0.0489694
0.0489789
0.0489887
0.0489986
0.0490085
0.0490181
0.0490274
0.049036
0.0490439
0.0490509
0.0490572
0.0490583
0.0490583
0.0490583
0.0490604
0.0490628
0.049065
0.0490669
0.0490686
0.0490701
0.0490714
0.0490726
0.0490739
0.0490754
0.0490774
0.0490801
0.0490837
0.0490886
0.049095
0.049103
0.0491127
0.049124
0.0491369
0.0491509
0.0491652
0.0491785
0.049188
0.0491909
0.0491876
0.0491751
0.0491677
0.0491857
0.0491882
0.0491875
0.0491848
0.049182
0.04918
0.0491793
0.0491803
0.0491834
0.0491882
0.0491941
0.0492005
0.0492063
0.0492099
0.0492111
0.0492103
0.0492075
0.049202
0.0491943
0.0491852
0.0491752
0.0491647
0.0491539
0.0491428
0.0491317
0.0491205
0.0491092
0.0490981
0.049087
0.049076
0.0490651
0.0490544
0.0490439
0.0490338
0.0490239
0.0490144
0.0490054
0.0489969
0.0489889
0.0489816
0.048975
0.0489692
0.0489642
0.0489601
0.0489569
0.0489546
0.0489531
0.0489525
0.0489529
0.0489541
0.0489562
0.0489592
0.0489631
0.0489678
0.0489733
0.0489796
0.0489867
0.0489944
0.0490026
0.0490113
0.0490204
0.0490296
0.0490388
0.0490479
0.0490565
0.0490646
0.0490718
0.0490777
0.0490816
0.0490807
0.049067
0.0490639
0.0490946
0.0491052
0.0491085
0.0491095
0.0491099
0.0491101
0.0491102
0.0491102
0.0491101
0.04911
0.0491101
0.0491104
0.0491112
0.0491127
0.049115
0.0491185
0.0491236
0.0491306
0.0491395
0.0491499
0.0491614
0.0491733
0.0491841
0.0491915
0.0491931
0.0491904
0.0491845
0.049161
0.0491641
0.0491843
0.0491897
0.0491869
0.0491819
0.0491778
0.049176
0.0491769
0.0491797
0.0491837
0.0491886
0.049194
0.0491989
0.0492018
0.0492028
0.0492022
0.0491993
0.0491941
0.049187
0.0491786
0.0491692
0.0491593
0.0491489
0.0491383
0.0491275
0.0491167
0.0491057
0.0490948
0.0490839
0.0490731
0.0490623
0.0490518
0.0490414
0.0490313
0.0490214
0.049012
0.049003
0.0489945
0.0489865
0.0489792
0.0489726
0.0489668
0.0489618
0.0489576
0.0489545
0.0489523
0.0489512
0.0489511
0.0489521
0.0489542
0.0489572
0.0489613
0.0489665
0.0489726
0.0489796
0.0489876
0.0489963
0.0490058
0.049016
0.0490266
0.0490375
0.0490486
0.0490596
0.0490702
0.0490803
0.0490893
0.0490968
0.049102
0.0491034
0.0490965
0.0490693
0.0490436
0.0490845
0.0491222
0.0491275
0.0491283
0.0491277
0.0491263
0.0491244
0.049122
0.0491194
0.0491166
0.0491139
0.0491117
0.0491103
0.04911
0.0491111
0.0491139
0.0491186
0.0491252
0.0491335
0.0491433
0.0491541
0.0491651
0.049175
0.049182
0.0491841
0.0491821
0.049179
0.0491463
0.0491352
0.0491734
0.0491846
0.0491824
0.0491773
0.0491734
0.0491721
0.0491731
0.0491756
0.0491786
0.0491821
0.0491863
0.0491901
0.0491925
0.0491933
0.0491924
0.0491894
0.0491844
0.0491778
0.0491699
0.0491612
0.0491519
0.0491421
0.049132
0.0491217
0.0491113
0.0491007
0.0490901
0.0490794
0.0490688
0.0490583
0.0490478
0.0490376
0.0490275
0.0490177
0.0490083
0.0489993
0.0489908
0.0489829
0.0489755
0.0489689
0.048963
0.0489579
0.0489538
0.0489505
0.0489483
0.048947
0.0489469
0.0489478
0.0489499
0.048953
0.0489571
0.0489624
0.0489688
0.0489762
0.0489846
0.048994
0.0490044
0.0490156
0.0490274
0.0490399
0.0490526
0.0490654
0.049078
0.0490899
0.0491005
0.0491091
0.0491146
0.0491147
0.0491043
0.0490694
0.049024
0.0490441
0.0491161
0.049135
0.049136
0.0491345
0.0491317
0.049128
0.0491238
0.0491193
0.0491148
0.0491107
0.0491074
0.0491051
0.0491043
0.049105
0.0491075
0.0491118
0.0491179
0.0491257
0.0491349
0.049145
0.0491554
0.049165
0.0491721
0.0491753
0.0491747
0.0491749
0.0491327
0.0491065
0.0491611
0.0491771
0.0491762
0.0491721
0.0491692
0.0491687
0.0491701
0.0491721
0.0491737
0.0491755
0.0491782
0.0491809
0.0491827
0.0491832
0.0491819
0.0491787
0.0491739
0.0491677
0.0491604
0.0491524
0.0491437
0.0491345
0.0491251
0.0491153
0.0491053
0.0490952
0.0490849
0.0490746
0.0490642
0.0490538
0.0490436
0.0490334
0.0490235
0.0490138
0.0490044
0.0489955
0.0489869
0.048979
0.0489716
0.0489649
0.048959
0.0489539
0.0489496
0.0489463
0.0489439
0.0489426
0.0489423
0.0489431
0.0489449
0.0489478
0.0489518
0.0489569
0.0489631
0.0489703
0.0489787
0.048988
0.0489984
0.0490098
0.049022
0.049035
0.0490486
0.0490624
0.0490762
0.0490895
0.0491016
0.0491115
0.0491178
0.049118
0.0491068
0.0490701
0.0490119
0.049009
0.049074
0.0491365
0.0491387
0.0491365
0.0491326
0.0491276
0.049122
0.0491162
0.0491107
0.0491057
0.0491018
0.049099
0.0490978
0.0490981
0.0491003
0.0491043
0.04911
0.0491173
0.049126
0.0491356
0.0491457
0.0491552
0.049163
0.0491676
0.0491692
0.049169
0.0491212
0.0490801
0.0491493
0.0491692
0.0491698
0.049167
0.0491654
0.0491659
0.0491677
0.0491692
0.049169
0.0491687
0.04917
0.0491719
0.049173
0.0491729
0.0491712
0.0491679
0.0491632
0.0491574
0.0491507
0.0491432
0.0491352
0.0491267
0.0491179
0.0491087
0.0490992
0.0490895
0.0490796
0.0490696
0.0490595
0.0490494
0.0490393
0.0490293
0.0490195
0.0490099
0.0490006
0.0489917
0.0489832
0.0489753
0.0489679
0.0489612
0.0489552
0.04895
0.0489457
0.0489423
0.0489398
0.0489383
0.0489378
0.0489384
0.04894
0.0489427
0.0489465
0.0489513
0.0489571
0.048964
0.048972
0.048981
0.048991
0.0490021
0.0490141
0.049027
0.0490406
0.0490547
0.049069
0.049083
0.049096
0.0491069
0.0491143
0.0491156
0.0491056
0.0490708
0.0490065
0.0489818
0.0490315
0.0491117
0.0491396
0.0491367
0.0491316
0.0491254
0.0491187
0.0491119
0.0491056
0.0491
0.0490955
0.0490923
0.0490907
0.0490909
0.0490928
0.0490964
0.0491018
0.0491087
0.0491171
0.0491265
0.0491364
0.0491462
0.0491549
0.0491611
0.0491649
0.049164
0.0491109
0.0490557
0.0491384
0.0491617
0.0491637
0.0491622
0.0491618
0.0491631
0.0491654
0.0491665
0.0491642
0.0491618
0.049162
0.0491631
0.0491636
0.0491629
0.0491608
0.0491574
0.0491529
0.0491474
0.0491412
0.0491344
0.049127
0.0491192
0.0491109
0.0491023
0.0490933
0.049084
0.0490745
0.0490648
0.049055
0.0490452
0.0490354
0.0490256
0.0490159
0.0490065
0.0489973
0.0489885
0.0489801
0.0489722
0.0489648
0.0489581
0.0489521
0.0489468
0.0489424
0.0489389
0.0489363
0.0489347
0.0489341
0.0489344
0.0489358
0.0489382
0.0489416
0.048946
0.0489515
0.0489579
0.0489654
0.0489739
0.0489833
0.0489938
0.0490053
0.0490177
0.0490309
0.0490448
0.049059
0.0490731
0.0490865
0.0490981
0.0491065
0.0491092
0.0491015
0.0490704
0.049005
0.0489625
0.0489941
0.0490731
0.0491363
0.0491359
0.0491298
0.0491225
0.0491147
0.0491071
0.0491
0.0490939
0.0490889
0.0490855
0.0490836
0.0490836
0.0490853
0.0490888
0.0490939
0.0491006
0.0491087
0.049118
0.049128
0.0491382
0.0491479
0.0491557
0.0491611
0.0491591
0.049101
0.0490331
0.0491284
0.0491548
0.049158
0.0491575
0.049158
0.04916
0.0491631
0.0491638
0.0491589
0.0491547
0.0491542
0.0491548
0.0491547
0.0491535
0.0491511
0.0491476
0.0491432
0.0491382
0.0491325
0.0491262
0.0491195
0.0491122
0.0491045
0.0490964
0.0490879
0.049079
0.0490699
0.0490605
0.049051
0.0490415
0.0490319
0.0490223
0.0490129
0.0490036
0.0489946
0.0489859
0.0489776
0.0489697
0.0489624
0.0489557
0.0489497
0.0489444
0.04894
0.0489364
0.0489337
0.0489319
0.0489311
0.0489313
0.0489324
0.0489345
0.0489376
0.0489416
0.0489466
0.0489526
0.0489594
0.0489673
0.048976
0.0489858
0.0489965
0.0490081
0.0490206
0.0490339
0.0490476
0.0490615
0.0490749
0.0490869
0.0490961
0.0491003
0.049095
0.0490685
0.0490052
0.0489494
0.0489626
0.0490362
0.0491162
0.0491352
0.0491279
0.0491194
0.0491106
0.0491021
0.0490944
0.0490877
0.0490824
0.0490787
0.0490767
0.0490766
0.0490783
0.0490816
0.0490866
0.0490931
0.0491011
0.0491105
0.0491207
0.0491315
0.049142
0.049151
0.0491577
0.0491544
0.0490914
0.0490122
0.0491194
0.0491486
0.0491528
0.0491531
0.049154
0.0491567
0.049161
0.0491607
0.0491529
0.0491475
0.0491468
0.049147
0.0491465
0.0491448
0.0491422
0.0491387
0.0491346
0.0491299
0.0491247
0.0491189
0.0491127
0.049106
0.0490987
0.049091
0.0490829
0.0490744
0.0490656
0.0490565
0.0490473
0.049038
0.0490287
0.0490194
0.0490102
0.0490011
0.0489923
0.0489837
0.0489755
0.0489678
0.0489605
0.0489539
0.0489479
0.0489427
0.0489382
0.0489346
0.0489318
0.0489299
0.048929
0.048929
0.0489299
0.0489318
0.0489345
0.0489382
0.0489427
0.0489481
0.0489543
0.0489614
0.0489694
0.0489783
0.0489881
0.0489989
0.0490105
0.0490229
0.0490359
0.0490492
0.0490624
0.0490745
0.0490844
0.0490899
0.049087
0.049065
0.0490057
0.0489408
0.0489367
0.0490019
0.0490898
0.0491321
0.0491261
0.0491163
0.0491065
0.0490972
0.0490888
0.0490817
0.0490761
0.0490723
0.0490703
0.0490702
0.0490719
0.0490752
0.0490801
0.0490865
0.0490946
0.049104
0.0491147
0.049126
0.0491373
0.0491472
0.0491547
0.0491498
0.0490821
0.0489929
0.0491115
0.0491433
0.0491483
0.049149
0.0491502
0.0491536
0.0491594
0.0491571
0.0491462
0.0491405
0.04914
0.0491399
0.0491389
0.049137
0.0491343
0.0491309
0.049127
0.0491227
0.0491179
0.0491126
0.0491068
0.0491004
0.0490935
0.0490861
0.0490783
0.04907
0.0490615
0.0490527
0.0490437
0.0490347
0.0490256
0.0490165
0.0490075
0.0489987
0.04899
0.0489817
0.0489736
0.048966
0.0489589
0.0489523
0.0489464
0.0489411
0.0489367
0.0489331
0.0489303
0.0489284
0.0489274
0.0489273
0.0489281
0.0489297
0.0489322
0.0489355
0.0489396
0.0489444
0.0489501
0.0489565
0.0489637
0.0489717
0.0489805
0.0489902
0.0490009
0.0490123
0.0490244
0.0490371
0.0490497
0.0490618
0.0490721
0.0490788
0.0490781
0.0490602
0.0490057
0.0489349
0.0489154
0.0489711
0.0490634
0.0491233
0.0491247
0.0491134
0.0491025
0.0490923
0.0490833
0.0490759
0.0490701
0.0490663
0.0490644
0.0490644
0.0490663
0.0490696
0.0490745
0.0490809
0.049089
0.0490988
0.0491099
0.0491218
0.0491338
0.0491445
0.0491523
0.0491456
0.0490733
0.0489751
0.0491047
0.0491388
0.0491446
0.0491455
0.0491468
0.0491512
0.0491585
0.0491528
0.0491391
0.049134
0.0491337
0.0491334
0.0491322
0.0491301
0.0491274
0.0491242
0.0491206
0.0491166
0.0491121
0.0491072
0.0491016
0.0490955
0.0490888
0.0490815
0.0490738
0.0490657
0.0490573
0.0490487
0.04904
0.0490312
0.0490223
0.0490135
0.0490047
0.0489961
0.0489877
0.0489795
0.0489716
0.0489642
0.0489571
0.0489506
0.0489448
0.0489396
0.0489351
0.0489315
0.0489288
0.0489269
0.0489259
0.0489258
0.0489265
0.048928
0.0489302
0.0489333
0.048937
0.0489414
0.0489465
0.0489522
0.0489586
0.0489658
0.0489737
0.0489824
0.0489919
0.0490023
0.0490136
0.0490254
0.0490375
0.0490494
0.04906
0.0490676
0.0490688
0.0490544
0.0490047
0.0489305
0.0488978
0.0489439
0.0490387
0.0491118
0.0491231
0.0491108
0.0490986
0.0490876
0.049078
0.0490703
0.0490645
0.0490608
0.0490592
0.0490596
0.0490617
0.049065
0.0490698
0.0490763
0.0490846
0.0490947
0.0491063
0.0491189
0.0491316
0.0491427
0.0491506
0.0491417
0.0490652
0.0489586
0.0490988
0.0491354
0.0491419
0.0491429
0.0491444
0.0491507
0.0491577
0.0491474
0.049132
0.0491282
0.0491282
0.0491277
0.0491263
0.0491243
0.0491217
0.0491187
0.0491154
0.0491116
0.0491073
0.0491025
0.049097
0.0490909
0.0490842
0.0490769
0.0490692
0.0490612
0.0490529
0.0490444
0.0490359
0.0490273
0.0490187
0.0490101
0.0490016
0.0489933
0.0489851
0.0489771
0.0489694
0.048962
0.048955
0.0489486
0.0489428
0.0489376
0.0489332
0.0489296
0.0489269
0.0489251
0.0489241
0.048924
0.0489247
0.0489262
0.0489283
0.0489312
0.0489347
0.0489387
0.0489433
0.0489485
0.0489542
0.0489605
0.0489675
0.0489752
0.0489837
0.0489931
0.0490034
0.0490144
0.049026
0.0490375
0.0490483
0.0490566
0.0490594
0.0490481
0.0490026
0.0489263
0.0488826
0.0489201
0.0490166
0.0490998
0.0491207
0.0491086
0.0490949
0.049083
0.0490729
0.049065
0.0490593
0.049056
0.0490549
0.0490557
0.049058
0.0490614
0.0490661
0.0490726
0.0490812
0.0490917
0.049104
0.0491172
0.0491305
0.0491421
0.0491496
0.0491382
0.0490577
0.0489432
0.0490937
0.0491327
0.0491399
0.0491412
0.0491434
0.049153
0.0491561
0.0491407
0.0491252
0.0491232
0.0491234
0.0491227
0.0491213
0.0491194
0.049117
0.0491143
0.049111
0.0491074
0.0491031
0.0490983
0.0490927
0.0490864
0.0490796
0.0490722
0.0490644
0.0490563
0.049048
0.0490396
0.0490313
0.0490229
0.0490146
0.0490063
0.0489981
0.04899
0.0489821
0.0489742
0.0489667
0.0489594
0.0489525
0.0489461
0.0489403
0.0489351
0.0489307
0.0489271
0.0489244
0.0489226
0.0489218
0.0489217
0.0489225
0.0489239
0.0489261
0.0489289
0.0489322
0.048936
0.0489403
0.048945
0.0489501
0.0489557
0.0489619
0.0489687
0.0489762
0.0489847
0.048994
0.0490043
0.0490152
0.0490264
0.0490373
0.0490462
0.0490503
0.0490414
0.0489994
0.0489217
0.0488686
0.0488991
0.0489979
0.049089
0.0491177
0.0491068
0.0490912
0.0490784
0.0490679
0.04906
0.0490546
0.0490519
0.0490515
0.0490528
0.0490553
0.0490586
0.0490633
0.0490699
0.0490787
0.0490899
0.0491028
0.0491168
0.0491306
0.0491425
0.0491492
0.0491349
0.0490506
0.0489286
0.0490893
0.0491307
0.0491386
0.0491403
0.0491434
0.0491569
0.0491527
0.0491328
0.0491192
0.0491188
0.0491191
0.0491184
0.0491171
0.0491154
0.0491133
0.0491107
0.0491075
0.0491038
0.0490994
0.0490944
0.0490885
0.049082
0.0490748
0.0490671
0.0490591
0.0490509
0.0490426
0.0490343
0.0490262
0.0490181
0.0490101
0.0490021
0.0489943
0.0489865
0.0489787
0.0489711
0.0489636
0.0489563
0.0489494
0.048943
0.0489371
0.0489319
0.0489274
0.0489238
0.0489211
0.0489194
0.0489186
0.0489186
0.0489195
0.048921
0.0489232
0.048926
0.0489293
0.0489331
0.0489371
0.0489415
0.0489462
0.0489512
0.0489567
0.0489627
0.0489693
0.0489769
0.0489854
0.0489949
0.0490053
0.0490162
0.0490271
0.0490365
0.0490416
0.0490346
0.0489952
0.0489159
0.048855
0.0488805
0.0489831
0.0490805
0.0491146
0.0491048
0.0490874
0.0490737
0.0490629
0.0490552
0.0490504
0.0490485
0.049049
0.049051
0.0490535
0.0490566
0.0490612
0.0490679
0.0490773
0.0490891
0.0491028
0.0491175
0.0491319
0.0491438
0.0491495
0.0491318
0.0490438
0.0489147
0.0490853
0.0491291
0.0491378
0.0491401
0.049144
0.0491597
0.0491467
0.0491243
0.0491143
0.049115
0.0491152
0.0491147
0.0491136
0.0491121
0.0491101
0.0491076
0.0491045
0.0491006
0.0490959
0.0490905
0.0490843
0.0490773
0.0490696
0.0490615
0.0490532
0.0490449
0.0490366
0.0490285
0.0490206
0.0490128
0.0490052
0.0489977
0.0489902
0.0489826
0.0489751
0.0489675
0.0489601
0.0489528
0.0489458
0.0489392
0.0489332
0.0489278
0.0489233
0.0489196
0.0489169
0.0489152
0.0489145
0.0489146
0.0489156
0.0489173
0.0489197
0.0489226
0.048926
0.0489297
0.0489337
0.0489379
0.0489423
0.0489468
0.0489517
0.048957
0.0489629
0.0489697
0.0489774
0.0489863
0.0489962
0.0490069
0.0490178
0.0490276
0.0490336
0.0490279
0.0489899
0.0489085
0.0488407
0.048864
0.0489728
0.0490751
0.0491119
0.0491023
0.0490833
0.0490688
0.049058
0.0490507
0.0490468
0.049046
0.0490476
0.0490501
0.0490525
0.0490553
0.0490597
0.0490667
0.0490766
0.0490892
0.0491038
0.0491193
0.0491342
0.0491462
0.0491503
0.0491287
0.0490373
0.0489012
0.0490815
0.0491277
0.0491374
0.0491406
0.0491467
0.0491602
0.049138
0.0491159
0.0491102
0.0491114
0.0491117
0.0491114
0.0491106
0.0491093
0.0491074
0.049105
0.0491017
0.0490976
0.0490925
0.0490865
0.0490798
0.0490722
0.049064
0.0490555
0.0490468
0.0490384
0.0490301
0.0490223
0.0490147
0.0490073
0.0490002
0.048993
0.0489859
0.0489786
0.0489712
0.0489637
0.0489562
0.0489487
0.0489415
0.0489347
0.0489285
0.048923
0.0489183
0.0489146
0.0489118
0.0489101
0.0489094
0.0489097
0.0489108
0.0489127
0.0489153
0.0489185
0.048922
0.0489259
0.0489299
0.048934
0.0489382
0.0489425
0.0489469
0.0489516
0.0489569
0.0489629
0.0489701
0.0489784
0.0489879
0.0489984
0.0490094
0.0490196
0.0490262
0.0490214
0.0489836
0.048899
0.048825
0.0488496
0.0489674
0.0490729
0.0491099
0.0490992
0.0490787
0.0490637
0.0490531
0.0490465
0.0490438
0.0490445
0.0490472
0.04905
0.0490519
0.0490544
0.0490588
0.0490662
0.0490768
0.0490903
0.0491058
0.0491221
0.0491376
0.0491495
0.049152
0.0491257
0.0490312
0.0488878
0.0490776
0.0491262
0.049137
0.0491417
0.0491516
0.0491566
0.049127
0.0491085
0.0491065
0.0491079
0.0491084
0.0491083
0.0491077
0.0491066
0.0491048
0.0491023
0.0490989
0.0490945
0.049089
0.0490824
0.0490749
0.0490666
0.0490579
0.0490489
0.0490399
0.0490313
0.0490232
0.0490157
0.0490085
0.0490017
0.048995
0.0489884
0.0489816
0.0489745
0.0489672
0.0489596
0.0489519
0.0489442
0.0489367
0.0489297
0.0489232
0.0489175
0.0489127
0.0489088
0.048906
0.0489043
0.0489037
0.048904
0.0489053
0.0489074
0.0489103
0.0489137
0.0489176
0.0489216
0.0489258
0.04893
0.048934
0.048938
0.0489421
0.0489464
0.0489511
0.0489566
0.0489632
0.0489712
0.0489804
0.0489908
0.0490019
0.0490125
0.0490196
0.049015
0.0489761
0.0488867
0.0488072
0.0488379
0.0489678
0.0490742
0.0491082
0.0490951
0.0490733
0.0490583
0.0490482
0.0490428
0.0490417
0.0490441
0.0490478
0.0490504
0.0490518
0.0490539
0.0490584
0.0490663
0.0490777
0.0490922
0.0491087
0.049126
0.0491421
0.0491541
0.0491548
0.0491237
0.0490265
0.0488743
0.0490735
0.0491246
0.0491365
0.0491431
0.0491566
0.0491479
0.0491153
0.0491023
0.0491028
0.0491043
0.049105
0.0491051
0.0491047
0.0491037
0.0491019
0.0490993
0.0490957
0.0490909
0.049085
0.0490778
0.0490696
0.0490606
0.0490512
0.0490417
0.0490325
0.0490239
0.049016
0.0490089
0.0490023
0.048996
0.04899
0.0489838
0.0489773
0.0489705
0.0489631
0.0489553
0.0489473
0.0489393
0.0489315
0.0489241
0.0489175
0.0489116
0.0489067
0.0489028
0.0489
0.0488982
0.0488975
0.048898
0.0488994
0.0489017
0.0489049
0.0489086
0.0489127
0.0489171
0.0489214
0.0489257
0.0489298
0.0489336
0.0489374
0.0489413
0.0489456
0.0489507
0.0489569
0.0489646
0.0489737
0.0489842
0.0489955
0.0490063
0.0490136
0.0490086
0.048967
0.0488708
0.0487873
0.0488299
0.0489746
0.0490784
0.0491065
0.0490894
0.0490672
0.0490526
0.0490435
0.0490397
0.0490407
0.0490448
0.0490491
0.0490512
0.0490518
0.0490536
0.0490584
0.049067
0.0490793
0.0490948
0.0491125
0.0491307
0.0491476
0.0491598
0.0491592
0.0491245
0.0490238
0.0488605
0.049069
0.0491225
0.0491359
0.0491447
0.0491586
0.049135
0.0491042
0.0490968
0.0490986
0.0491002
0.0491011
0.0491015
0.0491012
0.0491002
0.0490984
0.0490956
0.0490918
0.0490868
0.0490804
0.0490728
0.0490639
0.0490542
0.0490441
0.0490342
0.0490247
0.0490161
0.0490086
0.049002
0.048996
0.0489905
0.048985
0.0489793
0.0489732
0.0489664
0.0489589
0.0489509
0.0489425
0.048934
0.0489259
0.0489184
0.0489116
0.0489058
0.0489009
0.0488971
0.0488942
0.0488924
0.0488917
0.0488921
0.0488935
0.048896
0.0488994
0.0489034
0.0489078
0.0489124
0.048917
0.0489214
0.0489255
0.0489292
0.0489328
0.0489364
0.0489403
0.0489451
0.0489511
0.0489586
0.0489678
0.0489784
0.04899
0.0490011
0.0490084
0.0490021
0.0489553
0.0488487
0.0487683
0.0488271
0.0489867
0.0490848
0.0491036
0.049082
0.0490605
0.0490467
0.0490392
0.0490375
0.0490408
0.0490465
0.0490509
0.0490519
0.0490519
0.0490536
0.0490588
0.0490681
0.0490814
0.0490981
0.0491169
0.0491363
0.0491541
0.0491669
0.0491657
0.0491289
0.0490229
0.0488464
0.0490639
0.0491201
0.0491351
0.0491461
0.0491552
0.0491196
0.0490942
0.0490912
0.0490936
0.0490953
0.0490964
0.0490969
0.0490967
0.0490957
0.0490939
0.049091
0.049087
0.0490818
0.0490751
0.049067
0.0490577
0.0490474
0.0490367
0.0490262
0.0490166
0.0490081
0.049001
0.048995
0.0489898
0.0489851
0.0489803
0.0489751
0.0489692
0.0489624
0.0489547
0.0489462
0.0489374
0.0489286
0.0489202
0.0489126
0.048906
0.0489004
0.0488958
0.0488922
0.0488895
0.0488876
0.0488867
0.048887
0.0488883
0.0488908
0.0488942
0.0488984
0.0489031
0.0489079
0.0489127
0.0489172
0.0489213
0.0489249
0.0489283
0.0489316
0.0489353
0.0489399
0.0489458
0.0489534
0.0489627
0.0489736
0.0489855
0.0489968
0.0490038
0.0489947
0.0489358
0.0488216
0.048754
0.0488319
0.0490017
0.0490915
0.0490981
0.0490737
0.0490533
0.049041
0.0490356
0.0490366
0.0490422
0.049049
0.0490528
0.0490526
0.049052
0.0490538
0.0490596
0.0490697
0.0490841
0.0491019
0.0491219
0.0491425
0.0491615
0.0491751
0.0491741
0.049136
0.0490234
0.0488319
0.0490584
0.0491171
0.0491341
0.0491466
0.0491454
0.0491036
0.049085
0.049085
0.0490875
0.0490893
0.0490905
0.049091
0.0490907
0.0490898
0.0490879
0.0490851
0.0490811
0.0490758
0.0490689
0.0490606
0.0490509
0.0490402
0.049029
0.049018
0.0490082
0.049
0.0489934
0.0489882
0.0489838
0.0489799
0.0489758
0.0489711
0.0489654
0.0489584
0.0489504
0.0489415
0.0489323
0.0489232
0.0489147
0.0489073
0.048901
0.0488959
0.0488919
0.0488888
0.0488863
0.0488844
0.0488833
0.0488832
0.0488843
0.0488865
0.0488898
0.0488941
0.0488988
0.0489038
0.0489087
0.0489133
0.0489173
0.0489208
0.048924
0.048927
0.0489306
0.0489351
0.0489411
0.0489489
0.0489586
0.0489699
0.0489821
0.0489935
0.0489993
0.0489817
0.0489072
0.0487949
0.0487457
0.0488449
0.04902
0.0490949
0.04909
0.0490646
0.049046
0.0490358
0.0490331
0.049037
0.0490449
0.049052
0.0490545
0.0490532
0.0490522
0.0490543
0.0490607
0.0490718
0.0490872
0.0491061
0.0491274
0.0491493
0.0491697
0.0491843
0.0491841
0.0491454
0.0490249
0.0488168
0.0490522
0.0491138
0.0491328
0.0491449
0.0491288
0.0490883
0.0490761
0.0490777
0.0490801
0.0490818
0.0490829
0.0490832
0.0490829
0.0490819
0.0490802
0.0490776
0.0490737
0.0490685
0.0490618
0.0490534
0.0490435
0.0490325
0.049021
0.0490098
0.0489998
0.0489917
0.0489858
0.0489815
0.0489781
0.048975
0.0489716
0.0489674
0.0489618
0.0489547
0.0489462
0.0489369
0.0489272
0.0489179
0.0489096
0.0489026
0.048897
0.0488928
0.0488897
0.0488873
0.0488852
0.0488833
0.0488819
0.0488812
0.0488816
0.0488834
0.0488864
0.0488905
0.0488953
0.0489003
0.0489052
0.0489098
0.0489137
0.048917
0.0489199
0.0489227
0.0489261
0.0489307
0.048937
0.0489453
0.0489555
0.0489674
0.0489799
0.048991
0.0489921
0.0489601
0.0488744
0.048771
0.0487449
0.048866
0.0490387
0.0490939
0.0490801
0.0490553
0.049039
0.0490315
0.0490321
0.049039
0.0490484
0.049055
0.0490558
0.0490536
0.0490525
0.049055
0.0490622
0.0490743
0.0490908
0.0491108
0.0491333
0.0491566
0.0491783
0.0491944
0.0491953
0.0491568
0.0490272
0.0488012
0.0490455
0.04911
0.0491308
0.049139
0.0491084
0.0490737
0.0490668
0.0490689
0.049071
0.0490724
0.0490731
0.0490732
0.0490728
0.0490718
0.0490703
0.0490681
0.0490647
0.04906
0.0490536
0.0490454
0.0490355
0.0490244
0.0490127
0.0490014
0.0489914
0.0489835
0.0489782
0.0489749
0.0489725
0.0489705
0.0489678
0.0489639
0.0489584
0.0489511
0.0489422
0.0489324
0.0489225
0.0489132
0.0489052
0.0488988
0.0488942
0.0488911
0.0488892
0.0488878
0.0488864
0.0488845
0.0488825
0.048881
0.0488805
0.0488816
0.0488841
0.0488879
0.0488926
0.0488975
0.0489023
0.0489067
0.0489104
0.0489134
0.048916
0.0489186
0.0489221
0.0489269
0.0489337
0.0489427
0.0489536
0.0489661
0.0489788
0.0489874
0.0489788
0.0489313
0.0488406
0.0487524
0.0487528
0.0488946
0.0490545
0.0490888
0.0490692
0.0490461
0.0490327
0.0490287
0.0490328
0.0490425
0.0490526
0.0490576
0.0490568
0.0490539
0.0490529
0.0490561
0.0490642
0.0490772
0.0490947
0.0491157
0.0491395
0.0491642
0.0491875
0.049205
0.0492076
0.0491698
0.04903
0.0487851
0.0490381
0.0491057
0.0491278
0.0491288
0.0490889
0.0490602
0.0490566
0.0490585
0.04906
0.0490607
0.0490608
0.0490605
0.0490599
0.0490591
0.049058
0.0490564
0.0490539
0.0490499
0.0490442
0.0490366
0.0490271
0.049016
0.0490043
0.0489929
0.0489831
0.0489757
0.0489708
0.0489685
0.0489673
0.0489662
0.0489643
0.0489609
0.0489554
0.0489479
0.0489386
0.0489284
0.0489182
0.0489091
0.0489016
0.0488961
0.0488927
0.0488909
0.0488904
0.0488903
0.0488898
0.0488879
0.0488851
0.0488823
0.0488807
0.0488808
0.0488828
0.0488863
0.0488907
0.0488955
0.0489001
0.0489041
0.0489074
0.0489101
0.0489123
0.0489149
0.0489185
0.0489239
0.0489315
0.0489414
0.0489532
0.0489661
0.0489776
0.04898
0.048958
0.0488976
0.0488089
0.0487414
0.0487699
0.0489281
0.0490648
0.0490803
0.0490578
0.0490375
0.0490277
0.0490276
0.0490354
0.0490471
0.0490567
0.0490599
0.0490575
0.0490542
0.0490536
0.0490576
0.0490667
0.0490805
0.0490987
0.0491209
0.049146
0.0491722
0.049197
0.0492162
0.0492207
0.0491843
0.0490331
0.0487685
0.0490303
0.0491009
0.0491232
0.0491147
0.0490702
0.0490469
0.0490449
0.0490461
0.0490467
0.0490464
0.0490457
0.0490447
0.0490439
0.0490433
0.0490429
0.0490423
0.0490409
0.0490383
0.0490338
0.0490271
0.0490182
0.0490075
0.0489959
0.0489845
0.0489749
0.048968
0.048964
0.0489624
0.0489623
0.0489623
0.0489613
0.0489583
0.0489529
0.0489451
0.0489354
0.0489249
0.0489147
0.0489058
0.048899
0.0488945
0.0488922
0.0488919
0.0488928
0.0488942
0.0488949
0.048893
0.048889
0.0488845
0.0488815
0.0488807
0.0488823
0.0488855
0.0488897
0.0488942
0.0488984
0.048902
0.0489048
0.0489069
0.048909
0.0489116
0.0489157
0.0489219
0.0489307
0.0489417
0.0489543
0.0489667
0.0489741
0.0489662
0.0489302
0.0488624
0.0487826
0.0487396
0.0487962
0.0489624
0.0490687
0.0490695
0.0490466
0.04903
0.0490244
0.0490286
0.0490397
0.0490524
0.0490606
0.0490616
0.0490581
0.0490547
0.0490548
0.0490597
0.0490695
0.0490839
0.0491031
0.0491264
0.0491529
0.0491806
0.0492069
0.0492277
0.0492343
0.0492
0.0490362
0.0487514
0.049022
0.0490957
0.0491168
0.0490983
0.0490524
0.0490332
0.0490317
0.0490317
0.0490309
0.0490293
0.0490273
0.0490256
0.0490245
0.0490243
0.0490248
0.0490255
0.0490259
0.049025
0.0490221
0.0490168
0.049009
0.0489989
0.0489876
0.0489764
0.048967
0.0489606
0.0489575
0.048957
0.0489579
0.0489587
0.0489586
0.0489562
0.0489509
0.0489429
0.0489329
0.0489222
0.048912
0.0489035
0.0488974
0.0488938
0.0488926
0.0488935
0.0488956
0.0488982
0.0489003
0.0488986
0.0488924
0.0488861
0.0488821
0.0488811
0.0488825
0.0488855
0.0488895
0.0488935
0.0488972
0.0489001
0.0489022
0.0489039
0.0489059
0.048909
0.0489141
0.0489217
0.0489318
0.0489438
0.0489562
0.0489657
0.0489654
0.0489453
0.0488982
0.0488295
0.0487642
0.0487481
0.0488302
0.0489927
0.0490667
0.0490576
0.0490365
0.0490243
0.0490234
0.0490317
0.0490452
0.0490577
0.0490639
0.049063
0.0490587
0.0490555
0.0490565
0.0490622
0.0490725
0.0490878
0.0491079
0.0491323
0.0491601
0.0491894
0.0492173
0.0492395
0.0492483
0.0492167
0.0490391
0.0487341
0.0490135
0.0490902
0.0491089
0.0490809
0.0490351
0.0490187
0.0490167
0.0490152
0.0490127
0.0490092
0.0490058
0.049003
0.0490017
0.0490019
0.0490035
0.0490061
0.0490086
0.04901
0.0490094
0.049006
0.0489996
0.0489905
0.0489797
0.0489686
0.0489594
0.0489536
0.0489514
0.0489521
0.0489541
0.048956
0.0489565
0.0489545
0.0489494
0.0489414
0.0489312
0.0489205
0.0489104
0.0489023
0.0488966
0.0488937
0.0488934
0.048895
0.0488978
0.0489008
0.0489034
0.0489013
0.0488925
0.0488859
0.0488825
0.0488818
0.0488834
0.0488862
0.0488897
0.0488931
0.048896
0.0488982
0.0488997
0.0489013
0.0489037
0.0489078
0.0489143
0.0489234
0.0489347
0.0489467
0.048957
0.0489607
0.0489502
0.0489186
0.0488654
0.048802
0.0487555
0.0487668
0.0488694
0.0490154
0.0490604
0.0490459
0.0490281
0.0490208
0.0490247
0.0490366
0.0490514
0.0490627
0.0490666
0.049064
0.0490594
0.0490567
0.0490587
0.049065
0.049076
0.0490921
0.0491131
0.0491387
0.0491679
0.0491986
0.049228
0.0492516
0.0492625
0.049234
0.0490416
0.0487168
0.049005
0.0490846
0.0491
0.0490637
0.0490183
0.0490033
0.0490001
0.0489967
0.0489921
0.0489864
0.048981
0.0489771
0.0489753
0.0489761
0.0489793
0.048984
0.0489892
0.0489936
0.0489957
0.0489947
0.0489902
0.0489825
0.0489723
0.0489616
0.0489525
0.0489472
0.0489459
0.0489477
0.048951
0.048954
0.0489552
0.0489537
0.0489488
0.0489407
0.0489306
0.0489198
0.04891
0.048902
0.0488967
0.0488941
0.0488941
0.0488959
0.0488985
0.0489006
0.0489005
0.0488969
0.048891
0.0488862
0.0488837
0.0488834
0.0488849
0.0488873
0.0488901
0.0488927
0.0488947
0.0488962
0.0488976
0.0488995
0.0489029
0.0489085
0.0489167
0.0489271
0.0489386
0.0489491
0.0489546
0.0489498
0.0489288
0.0488891
0.0488353
0.0487825
0.0487576
0.0487946
0.0489095
0.0490293
0.0490515
0.0490353
0.0490218
0.0490197
0.049028
0.0490427
0.0490576
0.049067
0.0490688
0.0490648
0.0490599
0.0490585
0.0490613
0.0490683
0.0490802
0.0490971
0.0491191
0.0491458
0.0491761
0.0492083
0.0492391
0.0492641
0.0492765
0.0492519
0.0490433
0.0486996
0.0489968
0.0490791
0.0490907
0.0490473
0.0490021
0.0489871
0.0489822
0.0489764
0.0489691
0.0489612
0.0489535
0.0489481
0.0489459
0.0489474
0.0489523
0.0489596
0.0489681
0.0489759
0.0489814
0.0489833
0.0489812
0.0489752
0.048966
0.0489555
0.0489466
0.0489416
0.0489411
0.0489441
0.0489485
0.0489526
0.0489548
0.0489538
0.0489492
0.0489413
0.0489311
0.0489204
0.0489105
0.0489026
0.0488973
0.0488946
0.0488944
0.0488957
0.0488976
0.0488987
0.0488979
0.0488949
0.0488907
0.0488872
0.0488854
0.0488852
0.0488864
0.0488882
0.0488901
0.0488919
0.0488933
0.0488946
0.0488963
0.0488993
0.0489041
0.0489114
0.048921
0.0489319
0.0489422
0.0489486
0.0489471
0.0489331
0.0489036
0.0488602
0.048811
0.0487727
0.0487703
0.0488293
0.0489461
0.0490352
0.0490419
0.0490266
0.0490181
0.049021
0.0490331
0.0490492
0.0490632
0.0490705
0.0490702
0.0490651
0.0490609
0.0490608
0.0490644
0.0490724
0.0490852
0.0491031
0.049126
0.0491537
0.0491852
0.0492186
0.0492507
0.0492769
0.0492904
0.0492699
0.0490441
0.048683
0.0489892
0.0490743
0.0490822
0.0490326
0.0489866
0.0489708
0.0489635
0.048955
0.0489449
0.0489342
0.048924
0.0489168
0.0489141
0.0489164
0.0489232
0.0489336
0.0489457
0.0489576
0.048967
0.0489723
0.0489729
0.0489689
0.0489609
0.0489508
0.0489418
0.048937
0.0489373
0.0489413
0.0489469
0.0489521
0.0489552
0.048955
0.0489508
0.0489431
0.048933
0.0489222
0.0489122
0.048904
0.0488983
0.0488951
0.0488942
0.0488948
0.048896
0.0488966
0.0488959
0.0488936
0.0488907
0.0488882