/*--------------------------------*- C++ -*----------------------------------*\
| =========                 |                                                 |
| \\      /  F ield         | OpenFOAM: The Open Source CFD Toolbox           |
|  \\    /   O peration     | Version:  4.1                                   |
|   \\  /    A nd           | Web:      www.OpenFOAM.org                      |
|    \\/     M anipulation  |                                                 |
\*---------------------------------------------------------------------------*/
FoamFile
{
    version     2.0;
    format      ascii;
    class       surfaceScalarField;
    location    "1700";
    object      phi;
}
// * * * * * * * * * * * * * * * * * * * * * * * * * * * * * * * * * * * * * //

dimensions      [0 3 -1 0 0 0 0];

internalField   nonuniform List<scalar> 
9850
(
-4.38582e-06
4.38582e-06
-6.89851e-06
2.51269e-06
-8.40327e-06
1.50477e-06
-9.33102e-06
9.27752e-07
-9.85129e-06
5.20265e-07
-1.00384e-05
1.87074e-07
-9.92258e-06
-1.15787e-07
-9.53173e-06
-3.9085e-07
-8.88105e-06
-6.50672e-07
-7.99057e-06
-8.90479e-07
-6.86587e-06
-1.12471e-06
-5.50177e-06
-1.3641e-06
-3.90881e-06
-1.59296e-06
-2.12551e-06
-1.7833e-06
-1.73408e-07
-1.9521e-06
1.80691e-06
-1.98031e-06
3.61822e-06
-1.81132e-06
5.22503e-06
-1.60681e-06
6.65995e-06
-1.43491e-06
7.95959e-06
-1.29964e-06
9.14686e-06
-1.18727e-06
1.02366e-05
-1.08972e-06
1.12408e-05
-1.00422e-06
1.217e-05
-9.29152e-07
1.30329e-05
-8.62908e-07
1.38368e-05
-8.03945e-07
1.45877e-05
-7.50903e-07
1.52903e-05
-7.02606e-07
1.59483e-05
-6.58029e-07
1.65646e-05
-6.16271e-07
1.71412e-05
-5.76539e-07
1.76793e-05
-5.38141e-07
1.81798e-05
-5.00472e-07
1.86428e-05
-4.63004e-07
1.90681e-05
-4.25285e-07
1.9455e-05
-3.86928e-07
1.98026e-05
-3.47613e-07
2.01097e-05
-3.07084e-07
2.03748e-05
-2.65147e-07
2.05965e-05
-2.21671e-07
2.07731e-05
-1.76596e-07
2.09031e-05
-1.29967e-07
2.09851e-05
-8.20381e-08
2.10187e-05
-3.36314e-08
2.10043e-05
1.44835e-08
2.0942e-05
6.22524e-08
2.08318e-05
1.10198e-07
2.06731e-05
1.58732e-07
2.04651e-05
2.07928e-07
2.02072e-05
2.5795e-07
1.98982e-05
3.09001e-07
1.9537e-05
3.61235e-07
1.91222e-05
4.14777e-07
1.86524e-05
4.69744e-07
1.81262e-05
5.26226e-07
1.75419e-05
5.84268e-07
1.68981e-05
6.4385e-07
1.61932e-05
7.0487e-07
1.54261e-05
7.6714e-07
1.45957e-05
8.30397e-07
1.37013e-05
8.94351e-07
1.27426e-05
9.58769e-07
1.17189e-05
1.02364e-06
1.06295e-05
1.08943e-06
9.47184e-06
1.15766e-06
8.23995e-06
1.23188e-06
6.91948e-06
1.32047e-06
5.47437e-06
1.44511e-06
3.79331e-06
1.68106e-06
1.44632e-06
2.34698e-06
-2.33863e-06
3.78496e-06
-5.5786e-06
3.23996e-06
-6.70614e-06
1.12754e-06
-7.15872e-06
4.52587e-07
-7.47906e-06
3.2034e-07
-7.80682e-06
3.27756e-07
-8.17108e-06
3.64259e-07
-8.56978e-06
3.98698e-07
-8.99192e-06
4.22144e-07
-9.42374e-06
4.31817e-07
-9.85003e-06
4.26289e-07
-1.02545e-05
4.04463e-07
-1.06199e-05
3.65373e-07
-1.09283e-05
3.08461e-07
-1.11617e-05
2.3333e-07
-1.13015e-05
1.39806e-07
-1.13256e-05
2.41012e-08
-1.12126e-05
-1.12954e-07
-1.09368e-05
-2.75794e-07
-1.04733e-05
-4.63487e-07
-9.79653e-06
-6.76796e-07
-8.87836e-06
-9.18175e-07
-7.68805e-06
-1.1903e-06
-6.19065e-06
-1.4974e-06
-4.33878e-06
-1.85187e-06
-2.06503e-06
-2.27375e-06
6.85692e-07
-2.75073e-06
3.34773e-06
-2.66203e-06
3.45747e-06
-1.09748e-07
3.45747e-06
-3.53163e-06
7.91744e-06
-5.91865e-06
4.89971e-06
-7.44602e-06
3.03214e-06
-8.39954e-06
1.88127e-06
-8.91791e-06
1.03864e-06
-9.06837e-06
3.37538e-07
-8.89997e-06
-2.84184e-07
-8.45055e-06
-8.40273e-07
-7.75998e-06
-1.34124e-06
-6.85927e-06
-1.79118e-06
-5.75175e-06
-2.23223e-06
-4.41916e-06
-2.69669e-06
-2.86445e-06
-3.14766e-06
-1.13126e-06
-3.51649e-06
6.82257e-07
-3.76563e-06
2.37334e-06
-3.67139e-06
3.93334e-06
-3.37132e-06
5.40177e-06
-3.07524e-06
6.77438e-06
-2.80752e-06
8.04843e-06
-2.5737e-06
9.23122e-06
-2.37007e-06
1.03326e-05
-2.19109e-06
1.13616e-05
-2.0332e-06
1.23262e-05
-1.89379e-06
1.32336e-05
-1.77027e-06
1.40897e-05
-1.66008e-06
1.48996e-05
-1.56079e-06
1.56673e-05
-1.47026e-06
1.63958e-05
-1.3866e-06
1.70877e-05
-1.30813e-06
1.77446e-05
-1.23341e-06
1.83676e-05
-1.16115e-06
1.89574e-05
-1.09025e-06
1.95141e-05
-1.01974e-06
2.00376e-05
-9.48803e-07
2.05274e-05
-8.76732e-07
2.09828e-05
-8.02956e-07
2.14027e-05
-7.27025e-07
2.17862e-05
-6.48602e-07
2.21319e-05
-5.67468e-07
2.24389e-05
-4.83511e-07
2.27056e-05
-3.96733e-07
2.29308e-05
-3.07234e-07
2.31123e-05
-2.15153e-07
2.32471e-05
-1.20233e-07
2.33316e-05
-2.23198e-08
2.3364e-05
7.7874e-08
2.3343e-05
1.79669e-07
2.32679e-05
2.83045e-07
2.31374e-05
3.8846e-07
2.29501e-05
4.9629e-07
2.27045e-05
6.06836e-07
2.23989e-05
7.20401e-07
2.20313e-05
8.37292e-07
2.15998e-05
9.57795e-07
2.11019e-05
1.08212e-06
2.05354e-05
1.21038e-06
1.98977e-05
1.34254e-06
1.91864e-05
1.47841e-06
1.83991e-05
1.6177e-06
1.75333e-05
1.76016e-06
1.65864e-05
1.90572e-06
1.5555e-05
2.05498e-06
1.44346e-05
2.20986e-06
1.32174e-05
2.3749e-06
1.18895e-05
2.55979e-06
1.04251e-05
2.78485e-06
8.77565e-06
3.09454e-06
6.86043e-06
3.59628e-06
4.5951e-06
4.61231e-06
1.65942e-06
6.72064e-06
-2.55064e-06
7.45002e-06
-5.42176e-06
3.99867e-06
-6.38623e-06
1.41706e-06
-6.96531e-06
8.99414e-07
-7.44803e-06
8.10485e-07
-7.9138e-06
8.30028e-07
-8.38307e-06
8.67962e-07
-8.8548e-06
8.93874e-07
-9.31905e-06
8.9607e-07
-9.76163e-06
8.68869e-07
-1.01662e-05
8.09009e-07
-1.05152e-05
7.14409e-07
-1.07909e-05
5.8417e-07
-1.09756e-05
4.1799e-07
-1.10508e-05
2.15014e-07
-1.10028e-05
-2.39349e-08
-1.08145e-05
-3.01238e-07
-1.04721e-05
-6.18146e-07
-9.95701e-06
-9.78592e-07
-9.24937e-06
-1.38444e-06
-8.32737e-06
-1.84018e-06
-7.16676e-06
-2.35092e-06
-5.74212e-06
-2.92204e-06
-4.0354e-06
-3.55859e-06
-2.05993e-06
-4.24921e-06
8.41536e-08
-4.89481e-06
2.06604e-06
-4.64392e-06
2.0385e-06
-8.22039e-08
5.49597e-06
-2.71798e-06
1.06354e-05
-4.65355e-06
6.83528e-06
-5.98247e-06
4.36107e-06
-6.86641e-06
2.76521e-06
-7.37409e-06
1.54631e-06
-7.53692e-06
5.00372e-07
-7.37764e-06
-4.4347e-07
-6.93271e-06
-1.2852e-06
-6.26509e-06
-2.00886e-06
-5.43098e-06
-2.62529e-06
-4.42886e-06
-3.23436e-06
-3.21581e-06
-3.90974e-06
-1.79544e-06
-4.56803e-06
-2.33827e-07
-5.0781e-06
1.25525e-06
-5.2547e-06
2.64545e-06
-5.0616e-06
4.00728e-06
-4.73314e-06
5.31333e-06
-4.38129e-06
6.55064e-06
-4.04482e-06
7.71352e-06
-3.73658e-06
8.80344e-06
-3.45998e-06
9.82617e-06
-3.21382e-06
1.07884e-05
-2.99548e-06
1.16966e-05
-2.80193e-06
1.25562e-05
-2.62992e-06
1.33722e-05
-2.47606e-06
1.41485e-05
-2.33712e-06
1.48884e-05
-2.21015e-06
1.55944e-05
-2.09254e-06
1.62682e-05
-1.98198e-06
1.69112e-05
-1.87645e-06
1.75243e-05
-1.77419e-06
1.81077e-05
-1.67364e-06
1.86614e-05
-1.57347e-06
1.91851e-05
-1.47252e-06
1.96782e-05
-1.36981e-06
2.01398e-05
-1.26455e-06
2.05689e-05
-1.15613e-06
2.09644e-05
-1.04408e-06
2.1325e-05
-9.28114e-07
2.16496e-05
-8.08102e-07
2.19369e-05
-6.84026e-07
2.21856e-05
-5.5596e-07
2.23945e-05
-4.23998e-07
2.25624e-05
-2.88128e-07
2.26883e-05
-1.48212e-07
2.27704e-05
-4.23686e-09
2.28048e-05
1.45214e-07
2.27912e-05
2.96704e-07
2.2728e-05
4.51656e-07
2.26137e-05
6.10526e-07
2.24468e-05
7.73785e-07
2.22252e-05
9.41961e-07
2.19469e-05
1.11562e-06
2.16094e-05
1.29534e-06
2.12098e-05
1.48163e-06
2.07454e-05
1.67485e-06
2.02127e-05
1.87522e-06
1.96084e-05
2.08272e-06
1.89288e-05
2.29724e-06
1.81703e-05
2.51868e-06
1.73287e-05
2.74729e-06
1.63994e-05
2.98433e-06
1.53762e-05
3.23306e-06
1.42505e-05
3.50057e-06
1.30093e-05
3.801e-06
1.16325e-05
4.16167e-06
1.00917e-05
4.63534e-06
8.35964e-06
5.32833e-06
6.465e-06
6.50695e-06
4.43929e-06
8.74635e-06
1.2904e-06
1.05989e-05
-2.70146e-06
7.99053e-06
-4.5886e-06
3.3042e-06
-5.39434e-06
1.70515e-06
-6.02338e-06
1.43953e-06
-6.59304e-06
1.39969e-06
-7.14222e-06
1.41714e-06
-7.67893e-06
1.43059e-06
-8.19684e-06
1.41397e-06
-8.68282e-06
1.35485e-06
-9.12068e-06
1.24687e-06
-9.49319e-06
1.08692e-06
-9.78318e-06
8.74158e-07
-9.97458e-06
6.09388e-07
-1.00539e-05
2.94332e-07
-1.00055e-05
-7.23469e-08
-9.82511e-06
-4.81608e-07
-9.49876e-06
-9.44499e-07
-9.0167e-06
-1.46065e-06
-8.36557e-06
-2.03557e-06
-7.52952e-06
-2.67623e-06
-6.49139e-06
-3.38904e-06
-5.23642e-06
-4.17701e-06
-3.76386e-06
-5.03115e-06
-2.11605e-06
-5.89702e-06
-4.51575e-07
-6.55929e-06
1.07086e-06
-6.16636e-06
1.28079e-06
-2.9213e-07
6.77676e-06
-2.16793e-06
1.28034e-05
-3.71783e-06
8.38518e-06
-4.83941e-06
5.48264e-06
-5.62604e-06
3.55184e-06
-6.0855e-06
2.00578e-06
-6.21447e-06
6.29339e-07
-6.02603e-06
-6.31915e-07
-5.55947e-06
-1.75177e-06
-4.89871e-06
-2.66962e-06
-4.1318e-06
-3.39219e-06
-3.24357e-06
-4.12259e-06
-2.15784e-06
-4.99547e-06
-8.95605e-07
-5.83026e-06
4.11628e-07
-6.38534e-06
1.62816e-06
-6.47124e-06
2.8119e-06
-6.24534e-06
3.98342e-06
-5.90466e-06
5.12166e-06
-5.51953e-06
6.21093e-06
-5.1341e-06
7.24532e-06
-4.77097e-06
8.22495e-06
-4.43961e-06
9.15334e-06
-4.14221e-06
1.00352e-05
-3.87729e-06
1.08749e-05
-3.64171e-06
1.16767e-05
-3.43164e-06
1.24437e-05
-3.24308e-06
1.31787e-05
-3.07214e-06
1.38838e-05
-2.91529e-06
1.45607e-05
-2.76936e-06
1.52103e-05
-2.63159e-06
1.58333e-05
-2.49951e-06
1.64301e-05
-2.37098e-06
1.70006e-05
-2.24409e-06
1.75443e-05
-2.11721e-06
1.80607e-05
-1.98889e-06
1.85488e-05
-1.85793e-06
1.90076e-05
-1.72337e-06
1.94359e-05
-1.58444e-06
1.98325e-05
-1.44062e-06
2.0196e-05
-1.29161e-06
2.05251e-05
-1.13728e-06
2.08188e-05
-9.77685e-07
2.10758e-05
-8.12975e-07
2.12951e-05
-6.43344e-07
2.14759e-05
-4.68926e-07
2.16174e-05
-2.89706e-07
2.17185e-05
-1.05279e-07
2.17787e-05
8.49874e-08
2.17953e-05
2.8014e-07
2.17667e-05
4.80185e-07
2.16918e-05
6.85496e-07
2.15688e-05
8.96738e-07
2.13961e-05
1.11469e-06
2.11715e-05
1.34023e-06
2.08925e-05
1.57431e-06
2.05563e-05
1.81781e-06
2.01597e-05
2.07146e-06
1.96991e-05
2.3358e-06
1.91708e-05
2.6111e-06
1.85706e-05
2.89742e-06
1.78945e-05
3.19481e-06
1.71381e-05
3.50365e-06
1.6297e-05
3.82542e-06
1.53662e-05
4.16387e-06
1.43398e-05
4.52694e-06
1.32109e-05
4.92998e-06
1.19714e-05
5.40116e-06
1.06156e-05
5.99114e-06
9.15073e-06
6.79316e-06
7.63542e-06
8.02226e-06
6.15401e-06
1.02278e-05
4.13535e-06
1.26176e-05
4.92945e-07
1.16329e-05
-2.83605e-06
6.63319e-06
-3.88233e-06
2.75144e-06
-4.61502e-06
2.17221e-06
-5.26353e-06
2.0482e-06
-5.88089e-06
2.0345e-06
-6.47557e-06
2.02527e-06
-7.04e-06
1.9784e-06
-7.5602e-06
1.87505e-06
-8.02007e-06
1.70674e-06
-8.40378e-06
1.47063e-06
-8.69696e-06
1.16733e-06
-8.88736e-06
7.99792e-07
-8.965e-06
3.71972e-07
-8.9251e-06
-1.12249e-07
-8.75844e-06
-6.48266e-07
-8.4629e-06
-1.24003e-06
-8.0317e-06
-1.89185e-06
-7.45625e-06
-2.61102e-06
-6.72655e-06
-3.40593e-06
-5.83276e-06
-4.28283e-06
-4.7699e-06
-5.23988e-06
-3.54841e-06
-6.25264e-06
-2.21526e-06
-7.23017e-06
-8.93316e-07
-7.88123e-06
2.72029e-07
-7.3317e-06
8.99086e-07
-9.19188e-07
7.67585e-06
-1.77648e-06
1.45798e-05
-3.0491e-06
9.65781e-06
-3.9952e-06
6.42874e-06
-4.67351e-06
4.23015e-06
-5.06286e-06
2.39514e-06
-5.14305e-06
7.09521e-07
-4.91616e-06
-8.588e-07
-4.41583e-06
-2.2521e-06
-3.74408e-06
-3.34137e-06
-3.03635e-06
-4.09992e-06
-2.24998e-06
-4.90896e-06
-1.28282e-06
-5.96264e-06
-1.90725e-07
-6.92235e-06
8.55796e-07
-7.43186e-06
1.85075e-06
-7.46619e-06
2.85269e-06
-7.24727e-06
3.84526e-06
-6.89724e-06
4.8156e-06
-6.48987e-06
5.75459e-06
-6.07308e-06
6.65829e-06
-5.67468e-06
7.5266e-06
-5.30792e-06
8.36141e-06
-4.97702e-06
9.16526e-06
-4.68114e-06
9.94054e-06
-4.417e-06
1.06892e-05
-4.18032e-06
1.14128e-05
-3.96665e-06
1.21123e-05
-3.77168e-06
1.27886e-05
-3.59155e-06
1.3442e-05
-3.42276e-06
1.40727e-05
-3.26227e-06
1.46805e-05
-3.10737e-06
1.52652e-05
-2.95564e-06
1.58261e-05
-2.80495e-06
1.63623e-05
-2.65341e-06
1.68727e-05
-2.49936e-06
1.73562e-05
-2.34143e-06
1.78114e-05
-2.1785e-06
1.82367e-05
-2.00974e-06
1.86307e-05
-1.8346e-06
1.89919e-05
-1.65281e-06
1.9319e-05
-1.46437e-06
1.96107e-05
-1.26947e-06
1.98662e-05
-1.06847e-06
2.00847e-05
-8.6181e-07
2.02657e-05
-6.49888e-07
2.0409e-05
-4.32994e-07
2.05149e-05
-2.11199e-07
2.05832e-05
1.66215e-08
2.06124e-05
2.50969e-07
2.06014e-05
4.91178e-07
2.05492e-05
7.37705e-07
2.04545e-05
9.91447e-07
2.03157e-05
1.25353e-06
2.01306e-05
1.52527e-06
1.98969e-05
1.80807e-06
1.96114e-05
2.10332e-06
1.92705e-05
2.41228e-06
1.88704e-05
2.73591e-06
1.84067e-05
3.07481e-06
1.78749e-05
3.42922e-06
1.72706e-05
3.79917e-06
1.65894e-05
4.18484e-06
1.58275e-05
4.58728e-06
1.49818e-05
5.00957e-06
1.40501e-05
5.45872e-06
1.30316e-05
5.94845e-06
1.19289e-05
6.50387e-06
1.07507e-05
7.16934e-06
9.51883e-06
8.02501e-06
8.29141e-06
9.24968e-06
7.17029e-06
1.13489e-05
5.76371e-06
1.40241e-05
3.19952e-06
1.41971e-05
-5.60653e-07
1.03934e-05
-2.69045e-06
4.88124e-06
-3.39928e-06
2.88104e-06
-4.06952e-06
2.71844e-06
-4.7205e-06
2.68547e-06
-5.34646e-06
2.65124e-06
-5.93452e-06
2.56647e-06
-6.46902e-06
2.40955e-06
-6.93441e-06
2.17213e-06
-7.31694e-06
1.85315e-06
-7.60546e-06
1.45586e-06
-7.79164e-06
9.85967e-07
-7.87008e-06
4.50412e-07
-7.83789e-06
-1.44442e-07
-7.69273e-06
-7.93419e-07
-7.43286e-06
-1.49991e-06
-7.05597e-06
-2.26874e-06
-6.55821e-06
-3.10878e-06
-5.93482e-06
-4.02932e-06
-5.1824e-06
-5.03525e-06
-4.30333e-06
-6.11894e-06
-3.31265e-06
-7.24333e-06
-2.24575e-06
-8.29706e-06
-1.17431e-06
-8.95267e-06
-2.47439e-07
-8.25857e-06
6.55129e-07
-1.82176e-06
8.33098e-06
-1.47951e-06
1.60593e-05
-2.54892e-06
1.07272e-05
-3.35585e-06
7.23567e-06
-3.93915e-06
4.81345e-06
-4.26825e-06
2.72423e-06
-4.31215e-06
7.53428e-07
-4.0543e-06
-1.11666e-06
-3.5151e-06
-2.7913e-06
-2.82951e-06
-4.02696e-06
-2.17969e-06
-4.74974e-06
-1.47221e-06
-5.61644e-06
-6.08488e-07
-6.82636e-06
2.91151e-07
-7.82199e-06
1.1209e-06
-8.26161e-06
1.94129e-06
-8.28658e-06
2.76692e-06
-8.0729e-06
3.58942e-06
-7.71974e-06
4.40239e-06
-7.30284e-06
5.20223e-06
-6.87293e-06
5.98735e-06
-6.45979e-06
6.75742e-06
-6.07798e-06
7.5126e-06
-5.73221e-06
8.25307e-06
-5.4216e-06
8.97866e-06
-5.14259e-06
9.68896e-06
-4.89062e-06
1.03833e-05
-4.66099e-06
1.10609e-05
-4.44932e-06
1.17211e-05
-4.25169e-06
1.23629e-05
-4.0646e-06
1.29856e-05
-3.88494e-06
1.35882e-05
-3.70994e-06
1.41696e-05
-3.53706e-06
1.47286e-05
-3.36401e-06
1.52639e-05
-3.18873e-06
1.5774e-05
-3.00939e-06
1.6257e-05
-2.82445e-06
1.67112e-05
-2.6327e-06
1.71347e-05
-2.43326e-06
1.75257e-05
-2.2256e-06
1.78825e-05
-2.00957e-06
1.82034e-05
-1.78534e-06
1.84873e-05
-1.55339e-06
1.87333e-05
-1.31441e-06
1.89407e-05
-1.0692e-06
1.91094e-05
-8.1863e-07
1.92399e-05
-5.63444e-07
1.93329e-05
-3.04203e-07
1.93898e-05
-4.03033e-08
1.94114e-05
2.29393e-07
1.93973e-05
5.0524e-07
1.93473e-05
7.87664e-07
1.9261e-05
1.07776e-06
1.91374e-05
1.37715e-06
1.89749e-05
1.68776e-06
1.87713e-05
2.0117e-06
1.85235e-05
2.3511e-06
1.82278e-05
2.70797e-06
1.78798e-05
3.08394e-06
1.74745e-05
3.48012e-06
1.70067e-05
3.89702e-06
1.64713e-05
4.33458e-06
1.58636e-05
4.79247e-06
1.51801e-05
5.27078e-06
1.44187e-05
5.771e-06
1.35796e-05
6.29781e-06
1.26665e-05
6.86159e-06
1.16878e-05
7.48255e-06
1.06593e-05
8.19778e-06
9.60817e-06
9.07618e-06
8.58761e-06
1.02702e-05
7.70372e-06
1.22328e-05
6.71727e-06
1.50106e-05
4.83917e-06
1.60752e-05
1.73794e-06
1.34946e-05
-1.3347e-06
7.95387e-06
-2.32181e-06
3.86816e-06
-3.01171e-06
3.40834e-06
-3.67146e-06
3.34522e-06
-4.3058e-06
3.28558e-06
-4.89958e-06
3.16025e-06
-5.43584e-06
2.9458e-06
-5.8995e-06
2.6358e-06
-6.27841e-06
2.23206e-06
-6.56352e-06
1.74097e-06
-6.74875e-06
1.1712e-06
-6.83079e-06
5.32451e-07
-6.80905e-06
-1.66186e-07
-6.68394e-06
-9.18524e-07
-6.45796e-06
-1.72589e-06
-6.13217e-06
-2.59453e-06
-5.70597e-06
-3.53498e-06
-5.17817e-06
-4.55712e-06
-4.54967e-06
-5.66375e-06
-3.82727e-06
-6.84134e-06
-3.02668e-06
-8.04393e-06
-2.17062e-06
-9.15312e-06
-1.28995e-06
-9.83335e-06
-4.42495e-07
-9.10602e-06
5.25982e-07
-2.79023e-06
8.85696e-06
-1.24969e-06
1.7309e-05
-2.1605e-06
1.1638e-05
-2.85267e-06
7.92784e-06
-3.35486e-06
5.31563e-06
-3.63485e-06
3.00423e-06
-3.65326e-06
7.71831e-07
-3.37252e-06
-1.39739e-06
-2.80039e-06
-3.36342e-06
-2.12753e-06
-4.69982e-06
-1.54867e-06
-5.3286e-06
-9.02306e-07
-6.2628e-06
-1.40677e-07
-7.58799e-06
5.69983e-07
-8.53265e-06
1.23015e-06
-8.92177e-06
1.89163e-06
-8.94807e-06
2.55598e-06
-8.73725e-06
3.22537e-06
-8.38912e-06
3.90122e-06
-7.9787e-06
4.58419e-06
-7.55589e-06
5.27392e-06
-7.14953e-06
5.96916e-06
-6.77323e-06
6.66781e-06
-6.43085e-06
7.36714e-06
-6.12093e-06
8.06412e-06
-5.83958e-06
8.75567e-06
-5.58216e-06
9.43887e-06
-5.34419e-06
1.01111e-05
-5.12157e-06
1.07701e-05
-4.91072e-06
1.1414e-05
-4.70843e-06
1.20409e-05
-4.51183e-06
1.26491e-05
-4.31823e-06
1.32372e-05
-4.12511e-06
1.38033e-05
-3.93009e-06
1.43455e-05
-3.73096e-06
1.48619e-05
-3.52575e-06
1.53502e-05
-3.31276e-06
1.58082e-05
-3.09067e-06
1.62335e-05
-2.85857e-06
1.66238e-05
-2.61598e-06
1.69772e-05
-2.36291e-06
1.72916e-05
-2.09978e-06
1.75656e-05
-1.8274e-06
1.77981e-05
-1.54692e-06
1.79886e-05
-1.25966e-06
1.81371e-05
-9.67074e-07
1.82441e-05
-6.70526e-07
1.83111e-05
-3.71159e-07
1.83404e-05
-6.95827e-08
1.83345e-05
2.35218e-07
1.82954e-05
5.44382e-07
1.82243e-05
8.58754e-07
1.81223e-05
1.17981e-06
1.79897e-05
1.50975e-06
1.78261e-05
1.85127e-06
1.76304e-05
2.20742e-06
1.74001e-05
2.5814e-06
1.71318e-05
2.97631e-06
1.68209e-05
3.39483e-06
1.64621e-05
3.83896e-06
1.60494e-05
4.30971e-06
1.55769e-05
4.80708e-06
1.50391e-05
5.33022e-06
1.4432e-05
5.87789e-06
1.37535e-05
6.44948e-06
1.30048e-05
7.04658e-06
1.2191e-05
7.67533e-06
1.13232e-05
8.35036e-06
1.04196e-05
9.10137e-06
9.50854e-06
9.98727e-06
8.63841e-06
1.11404e-05
7.90826e-06
1.29629e-05
7.18982e-06
1.5729e-05
5.81069e-06
1.74544e-05
3.40123e-06
1.5904e-05
2.6584e-07
1.10893e-05
-1.4597e-06
5.5937e-06
-2.10216e-06
4.0508e-06
-2.74204e-06
3.98511e-06
-3.36739e-06
3.91093e-06
-3.95564e-06
3.74849e-06
-4.48721e-06
3.47737e-06
-4.94639e-06
3.09498e-06
-5.32132e-06
2.60699e-06
-5.60369e-06
2.02334e-06
-5.78852e-06
1.35603e-06
-5.8741e-06
6.18026e-07
-5.86187e-06
-1.78416e-07
-5.75569e-06
-1.02471e-06
-5.56107e-06
-1.9205e-06
-5.28171e-06
-2.87389e-06
-4.91872e-06
-3.89797e-06
-4.47242e-06
-5.00342e-06
-3.94572e-06
-6.19045e-06
-3.34741e-06
-7.43965e-06
-2.69282e-06
-8.69852e-06
-1.99589e-06
-9.85004e-06
-1.2548e-06
-1.05744e-05
-4.57036e-07
-9.90379e-06
4.37885e-07
-3.68515e-06
9.29484e-06
-1.06889e-06
1.83779e-05
-1.84929e-06
1.24184e-05
-2.43907e-06
8.51762e-06
-2.86465e-06
5.74121e-06
-3.09699e-06
3.23658e-06
-3.09198e-06
7.66819e-07
-2.79378e-06
-1.6956e-06
-2.20267e-06
-3.95453e-06
-1.59407e-06
-5.30842e-06
-1.10368e-06
-5.81899e-06
-5.12405e-07
-6.85408e-06
1.25267e-07
-8.22566e-06
6.75668e-07
-9.08305e-06
1.19582e-06
-9.44192e-06
1.71015e-06
-9.4624e-06
2.23238e-06
-9.25948e-06
2.77351e-06
-8.93025e-06
3.34061e-06
-8.5458e-06
3.93654e-06
-8.15182e-06
4.56057e-06
-7.77356e-06
5.2093e-06
-7.42196e-06
5.87761e-06
-7.09916e-06
6.55952e-06
-6.80285e-06
7.24895e-06
-6.529e-06
7.94019e-06
-6.2734e-06
8.62822e-06
-6.03222e-06
9.30883e-06
-5.80218e-06
9.97856e-06
-5.58044e-06
1.06346e-05
-5.36443e-06
1.12745e-05
-5.15172e-06
1.18961e-05
-4.93989e-06
1.24975e-05
-4.72651e-06
1.30766e-05
-4.50915e-06
1.36311e-05
-4.28547e-06
1.41586e-05
-4.0533e-06
1.46567e-05
-3.8108e-06
1.51225e-05
-3.55649e-06
1.55533e-05
-3.28942e-06
1.59465e-05
-3.00916e-06
1.62995e-05
-2.71587e-06
1.661e-05
-2.41025e-06
1.6876e-05
-2.09349e-06
1.70963e-05
-1.76722e-06
1.72701e-05
-1.43338e-06
1.73971e-05
-1.0941e-06
1.74781e-05
-7.51581e-07
1.75148e-05
-4.07843e-07
1.75097e-05
-6.44564e-08
1.74661e-05
2.78869e-07
1.73874e-05
6.22991e-07
1.72772e-05
9.69047e-07
1.71381e-05
1.31882e-06
1.69729e-05
1.67497e-06
1.67832e-05
2.04097e-06
1.65697e-05
2.42096e-06
1.63316e-05
2.8195e-06
1.60667e-05
3.24121e-06
1.57712e-05
3.69035e-06
1.54398e-05
4.17032e-06
1.50663e-05
4.68319e-06
1.4644e-05
5.22943e-06
1.41663e-05
5.80786e-06
1.36282e-05
6.41601e-06
1.30267e-05
7.05098e-06
1.23624e-05
7.71092e-06
1.16403e-05
8.39746e-06
1.08712e-05
9.11937e-06
1.00734e-05
9.89921e-06
9.27389e-06
1.07868e-05
8.5157e-06
1.18986e-05
7.88546e-06
1.35932e-05
7.32875e-06
1.62857e-05
6.29877e-06
1.84843e-05
4.37865e-06
1.78242e-05
1.73141e-06
1.37365e-05
-5.29406e-07
7.85452e-06
-1.31657e-06
4.83795e-06
-1.93154e-06
4.60008e-06
-2.53898e-06
4.51837e-06
-3.11542e-06
4.32494e-06
-3.63875e-06
4.0007e-06
-4.09193e-06
3.54815e-06
-4.46246e-06
2.97753e-06
-4.74193e-06
2.30281e-06
-4.92584e-06
1.53994e-06
-5.01374e-06
7.05923e-07
-5.00928e-06
-1.82868e-07
-4.91955e-06
-1.11444e-06
-4.75324e-06
-2.08682e-06
-4.51541e-06
-3.11172e-06
-4.20716e-06
-4.20622e-06
-3.82847e-06
-5.38211e-06
-3.38252e-06
-6.6364e-06
-2.8787e-06
-7.94347e-06
-2.33203e-06
-9.24519e-06
-1.75255e-06
-1.04295e-05
-1.11914e-06
-1.12079e-05
-4.02187e-07
-1.06207e-05
3.69519e-07
-4.45686e-06
9.66436e-06
-9.22778e-07
1.93007e-05
-1.59169e-06
1.30873e-05
-2.08529e-06
9.01121e-06
-2.4327e-06
6.08862e-06
-2.6117e-06
3.41558e-06
-2.57762e-06
7.32739e-07
-2.26562e-06
-2.0076e-06
-1.68172e-06
-4.53843e-06
-1.19612e-06
-5.79403e-06
-8.04613e-07
-6.21049e-06
-2.8023e-07
-7.37846e-06
2.20325e-07
-8.72622e-06
6.38682e-07
-9.50141e-06
1.02749e-06
-9.83072e-06
1.41242e-06
-9.84733e-06
1.81768e-06
-9.66474e-06
2.26091e-06
-9.37348e-06
2.75175e-06
-9.03664e-06
3.29272e-06
-8.69278e-06
3.88086e-06
-8.36171e-06
4.50961e-06
-8.05071e-06
5.17037e-06
-7.75992e-06
5.85389e-06
-7.48636e-06
6.55125e-06
-7.22637e-06
7.25451e-06
-6.97666e-06
7.95699e-06
-6.7347e-06
8.6533e-06
-6.4985e-06
9.33921e-06
-6.26635e-06
1.00114e-05
-6.03662e-06
1.06672e-05
-5.80753e-06
1.13043e-05
-5.57701e-06
1.19206e-05
-5.34277e-06
1.25138e-05
-5.10235e-06
1.30816e-05
-4.85324e-06
1.36213e-05
-4.59305e-06
1.41302e-05
-4.31972e-06
1.46054e-05
-4.0316e-06
1.50436e-05
-3.72767e-06
1.5442e-05
-3.40752e-06
1.57975e-05
-3.07143e-06
1.61076e-05
-2.72035e-06
1.637e-05
-2.35583e-06
1.65827e-05
-1.97996e-06
1.67446e-05
-1.59527e-06
1.68551e-05
-1.20462e-06
1.69146e-05
-8.11089e-07
1.69246e-05
-4.17804e-07
1.68873e-05
-2.71744e-08
1.68061e-05
3.60066e-07
1.66853e-05
7.43818e-07
1.65294e-05
1.12494e-06
1.63431e-05
1.50508e-06
1.61311e-05
1.88699e-06
1.58975e-05
2.2746e-06
1.56454e-05
2.67298e-06
1.53768e-05
3.08808e-06
1.50917e-05
3.52632e-06
1.47881e-05
3.994e-06
1.44619e-05
4.49656e-06
1.41072e-05
5.03787e-06
1.3717e-05
5.61957e-06
1.32841e-05
6.24075e-06
1.28021e-05
6.89809e-06
1.22665e-05
7.58657e-06
1.16764e-05
8.301e-06
1.10354e-05
9.03841e-06
1.0353e-05
9.80186e-06
9.64512e-06
1.0607e-05
8.93635e-06
1.14956e-05
8.26379e-06
1.25711e-05
7.70021e-06
1.41568e-05
7.2357e-06
1.67502e-05
6.44175e-06
1.92783e-05
4.90963e-06
1.93563e-05
2.71568e-06
1.59305e-05
4.32122e-07
1.01381e-05
-6.54255e-07
5.92433e-06
-1.23748e-06
5.1833e-06
-1.82317e-06
5.10406e-06
-2.38485e-06
4.88662e-06
-2.89795e-06
4.5138e-06
-3.34375e-06
3.99395e-06
-3.70867e-06
3.34245e-06
-3.98371e-06
2.57785e-06
-4.16459e-06
1.72082e-06
-4.25227e-06
7.93601e-07
-4.25303e-06
-1.82113e-07
-4.17739e-06
-1.19007e-06
-4.03668e-06
-2.22754e-06
-3.83598e-06
-3.31242e-06
-3.57481e-06
-4.46738e-06
-3.25164e-06
-5.70528e-06
-2.86896e-06
-7.01908e-06
-2.43629e-06
-8.37615e-06
-1.96873e-06
-9.71275e-06
-1.47705e-06
-1.09212e-05
-9.35125e-07
-1.17498e-05
-3.22075e-07
-1.12338e-05
3.11892e-07
-5.09082e-06
9.97625e-06
-8.01829e-07
2.01025e-05
-1.37367e-06
1.36592e-05
-1.77652e-06
9.41406e-06
-2.04443e-06
6.35654e-06
-2.16429e-06
3.53544e-06
-2.09306e-06
6.61509e-07
-1.76436e-06
-2.3363e-06
-1.23563e-06
-5.06716e-06
-9.16696e-07
-6.11296e-06
-6.21139e-07
-6.50605e-06
-1.86397e-07
-7.8132e-06
1.7836e-07
-9.09097e-06
4.75164e-07
-9.79821e-06
7.43647e-07
-1.00992e-05
1.02106e-06
-1.01248e-05
1.33832e-06
-9.982e-06
1.71547e-06
-9.75062e-06
2.16128e-06
-9.48246e-06
2.67555e-06
-9.20705e-06
3.25188e-06
-8.93804e-06
3.88016e-06
-8.67898e-06
4.54848e-06
-8.42824e-06
5.24475e-06
-8.18263e-06
5.95778e-06
-7.9394e-06
6.67796e-06
-7.69684e-06
7.39748e-06
-7.45422e-06
8.11028e-06
-7.21129e-06
8.81177e-06
-6.96784e-06
9.49852e-06
-6.72338e-06
1.01679e-05
-6.47689e-06
1.08176e-05
-6.22677e-06
1.14457e-05
-5.97083e-06
1.20499e-05
-5.70656e-06
1.26279e-05
-5.43123e-06
1.3177e-05
-5.1422e-06
1.36945e-05
-4.83715e-06
1.41771e-05
-4.51424e-06
1.46218e-05
-4.17232e-06
1.50253e-05
-3.81101e-06
1.53845e-05
-3.43068e-06
1.56966e-05
-3.03247e-06
1.5959e-05
-2.6182e-06
1.61694e-05
-2.19035e-06
1.63261e-05
-1.75193e-06
1.64279e-05
-1.30643e-06
1.64745e-05
-8.57723e-07
1.64666e-05
-4.09947e-07
1.6406e-05
3.34216e-08
1.62957e-05
4.70432e-07
1.61396e-05
8.99926e-07
1.59427e-05
1.32182e-06
1.57107e-05
1.73704e-06
1.54499e-05
2.14786e-06
1.51663e-05
2.55817e-06
1.48658e-05
2.9735e-06
1.4553e-05
3.40088e-06
1.42309e-05
3.84844e-06
1.39001e-05
4.32471e-06
1.3559e-05
4.8377e-06
1.32031e-05
5.3938e-06
1.28259e-05
5.99671e-06
1.242e-05
6.64666e-06
1.19779e-05
7.34019e-06
1.14938e-05
8.07073e-06
1.09647e-05
8.83008e-06
1.03922e-05
9.6109e-06
9.78325e-06
1.04108e-05
9.15125e-06
1.1239e-05
8.51701e-06
1.21298e-05
7.91171e-06
1.31764e-05
7.39448e-06
1.4674e-05
6.97829e-06
1.71664e-05
6.33498e-06
1.99216e-05
5.08875e-06
2.06025e-05
3.25591e-06
1.77633e-05
1.25097e-06
1.2143e-05
-3.34887e-08
7.20879e-06
-6.56444e-07
5.80626e-06
-1.21957e-06
5.66718e-06
-1.7652e-06
5.43226e-06
-2.2667e-06
5.0153e-06
-2.70346e-06
4.43071e-06
-3.06064e-06
3.69963e-06
-3.32856e-06
2.84577e-06
-3.50325e-06
1.89551e-06
-3.58741e-06
8.77763e-07
-3.5905e-06
-1.79032e-07
-3.52683e-06
-1.25374e-06
-3.40943e-06
-2.34494e-06
-3.24182e-06
-3.48003e-06
-3.02083e-06
-4.68837e-06
-2.74291e-06
-5.9832e-06
-2.40985e-06
-7.35214e-06
-2.03134e-06
-8.75466e-06
-1.62288e-06
-1.01212e-05
-1.19859e-06
-1.13455e-05
-7.36999e-07
-1.22114e-05
-2.36105e-07
-1.17347e-05
2.62478e-07
-5.58941e-06
1.02387e-05
-7.00966e-07
2.08035e-05
-1.18908e-06
1.41473e-05
-1.5096e-06
9.73458e-06
-1.70215e-06
6.54909e-06
-1.76453e-06
3.59782e-06
-1.65514e-06
5.52121e-07
-1.28979e-06
-2.70166e-06
-8.87508e-07
-5.46944e-06
-7.49009e-07
-6.25146e-06
-5.38489e-07
-6.71657e-06
-2.12476e-07
-8.13921e-06
2.3052e-08
-9.3265e-06
2.02008e-07
-9.97717e-06
3.66813e-07
-1.0264e-05
5.62116e-07
-1.03201e-05
8.2042e-07
-1.02403e-05
1.1597e-06
-1.00899e-05
1.58519e-06
-9.90795e-06
2.09275e-06
-9.7146e-06
2.67237e-06
-9.51766e-06
3.3108e-06
-9.31741e-06
3.99351e-06
-9.11095e-06
4.70623e-06
-8.89535e-06
5.43612e-06
-8.66929e-06
6.17241e-06
-8.43313e-06
6.90663e-06
-8.18844e-06
7.6324e-06
-7.93707e-06
8.34511e-06
-7.68054e-06
9.04146e-06
-7.41973e-06
9.71904e-06
-7.15447e-06
1.03759e-05
-6.88358e-06
1.101e-05
-6.605e-06
1.16195e-05
-6.31608e-06
1.22022e-05
-6.01387e-06
1.27554e-05
-5.69542e-06
1.32764e-05
-5.35812e-06
1.37621e-05
-4.99996e-06
1.42094e-05
-4.61967e-06
1.46153e-05
-4.21687e-06
1.49766e-05
-3.79202e-06
1.52906e-05
-3.3464e-06
1.55544e-05
-2.88205e-06
1.57657e-05
-2.40166e-06
1.59224e-05
-1.90857e-06
1.60226e-05
-1.40669e-06
1.60654e-05
-9.00497e-07
1.60504e-05
-3.94944e-07
1.59783e-05
1.0549e-07
1.58512e-05
5.97524e-07
1.56724e-05
1.07882e-06
1.54463e-05
1.54785e-06
1.5179e-05
2.00431e-06
1.48774e-05
2.44949e-06
1.4549e-05
2.88663e-06
1.42013e-05
3.32113e-06
1.38416e-05
3.76056e-06
1.34758e-05
4.21429e-06
1.31076e-05
4.69291e-06
1.27381e-05
5.20715e-06
1.23655e-05
5.76643e-06
1.19849e-05
6.37734e-06
1.15893e-05
7.04224e-06
1.1171e-05
7.75852e-06
1.07228e-05
8.51888e-06
1.02402e-05
9.31268e-06
9.72239e-06
1.01287e-05
9.17366e-06
1.09595e-05
8.60427e-06
1.18084e-05
8.03115e-06
1.27029e-05
7.47957e-06
1.3728e-05
6.99561e-06
1.51579e-05
6.59968e-06
1.75624e-05
6.04284e-06
2.04784e-05
4.99985e-06
2.16455e-05
3.47293e-06
1.92902e-05
1.78508e-06
1.38309e-05
4.92974e-07
8.5009e-06
-1.77735e-07
6.47697e-06
-7.24698e-07
6.21415e-06
-1.25455e-06
5.96211e-06
-1.74346e-06
5.5042e-06
-2.16907e-06
4.85632e-06
-2.51554e-06
4.0461e-06
-2.77277e-06
3.10299e-06
-2.93737e-06
2.06012e-06
-3.01431e-06
9.54702e-07
-3.01688e-06
-1.76464e-07
-2.96363e-06
-1.30699e-06
-2.86763e-06
-2.44094e-06
-2.72921e-06
-3.61845e-06
-2.54194e-06
-4.87565e-06
-2.30055e-06
-6.22459e-06
-2.00664e-06
-7.64604e-06
-1.6705e-06
-9.0908e-06
-1.30821e-06
-1.04835e-05
-9.37377e-07
-1.17163e-05
-5.46254e-07
-1.26025e-05
-1.5452e-07
-1.21264e-05
2.22278e-07
-5.96621e-06
1.0461e-05
-6.17717e-07
2.14212e-05
-1.03605e-06
1.45656e-05
-1.2868e-06
9.98532e-06
-1.41511e-06
6.6774e-06
-1.43008e-06
3.6128e-06
-1.29948e-06
4.2152e-07
-8.72659e-07
-3.12848e-06
-6.65565e-07
-5.67654e-06
-6.89966e-07
-6.22706e-06
-5.52058e-07
-6.85448e-06
-3.44584e-07
-8.34669e-06
-2.31623e-07
-9.43946e-06
-1.60833e-07
-1.0048e-05
-7.78884e-08
-1.0347e-05
6.07977e-08
-1.04587e-05
2.84392e-07
-1.04639e-05
6.06122e-07
-1.04116e-05
1.02647e-06
-1.03283e-05
1.5377e-06
-1.02258e-05
2.12701e-06
-1.0107e-05
2.77878e-06
-9.96918e-06
3.47659e-06
-9.80876e-06
4.20461e-06
-9.62338e-06
4.94879e-06
-9.41346e-06
5.69752e-06
-9.18186e-06
6.44193e-06
-8.93285e-06
7.17557e-06
-8.67071e-06
7.89395e-06
-8.39891e-06
8.59407e-06
-8.11985e-06
9.27382e-06
-7.83422e-06
9.9315e-06
-7.54125e-06
1.05655e-05
-7.23896e-06
1.11739e-05
-6.92453e-06
1.17548e-05
-6.59472e-06
1.23056e-05
-6.24628e-06
1.28238e-05
-5.87634e-06
1.33066e-05
-5.48272e-06
1.3751e-05
-5.0641e-06
1.41543e-05
-4.62014e-06
1.45137e-05
-4.1514e-06
1.48265e-05
-3.65927e-06
1.50904e-05
-3.14591e-06
1.53029e-05
-2.61413e-06
1.54617e-05
-2.06737e-06
1.55647e-05
-1.50971e-06
1.56101e-05
-9.45899e-07
1.55966e-05
-3.81425e-07
1.55236e-05
1.78463e-07
1.53919e-05
7.2923e-07
1.52037e-05
1.26703e-06
1.49628e-05
1.78872e-06
1.46747e-05
2.2924e-06
1.43463e-05
2.77794e-06
1.39854e-05
3.24748e-06
1.36008e-05
3.7057e-06
1.32013e-05
4.16005e-06
1.27951e-05
4.62055e-06
1.23886e-05
5.09936e-06
1.19861e-05
5.60965e-06
1.15886e-05
6.164e-06
1.11935e-05
6.77242e-06
1.07954e-05
7.44027e-06
1.03871e-05
8.16684e-06
9.96096e-06
8.94505e-06
9.51095e-06
9.76269e-06
9.03436e-06
1.06053e-05
8.53298e-06
1.14609e-05
8.014e-06
1.23274e-05
7.49046e-06
1.32265e-05
6.98188e-06
1.42366e-05
6.52186e-06
1.5618e-05
6.12778e-06
1.79564e-05
5.61005e-06
2.09962e-05
4.70448e-06
2.25511e-05
3.43114e-06
2.05635e-05
2.05422e-06
1.52078e-05
9.06014e-07
9.6491e-06
2.09922e-07
7.17306e-06
-3.32015e-07
6.75608e-06
-8.4905e-07
6.47915e-06
-1.32464e-06
5.97979e-06
-1.73641e-06
5.2681e-06
-2.06836e-06
4.37805e-06
-2.31049e-06
3.34512e-06
-2.46058e-06
2.21021e-06
-2.52655e-06
1.02067e-06