/*--------------------------------*- C++ -*----------------------------------*\
| =========                 |                                                 |
| \\      /  F ield         | OpenFOAM: The Open Source CFD Toolbox           |
|  \\    /   O peration     | Version:  4.1                                   |
|   \\  /    A nd           | Web:      www.OpenFOAM.org                      |
|    \\/     M anipulation  |                                                 |
\*---------------------------------------------------------------------------*/
FoamFile
{
    version     2.0;
    format      ascii;
    class       volScalarField;
    location    "1700";
    object      T;
}
// * * * * * * * * * * * * * * * * * * * * * * * * * * * * * * * * * * * * * //

dimensions      [0 0 0 1 0 0 0];

internalField   nonuniform List<scalar> 
5000
(
286.789
286.53
286.365
286.229
286.105
285.985
285.864
285.748
285.658
285.585
285.526
285.476
285.436
285.405
285.381
285.365
285.384
285.417
285.452
285.487
285.522
285.556
285.591
285.626
285.66
285.695
285.729
285.764
285.798
285.833
285.868
285.904
285.939
285.976
286.013
286.051
286.091
286.131
286.174
286.218
286.265
286.314
286.366
286.421
286.479
286.535
286.592
286.648
286.704
286.76
286.816
286.872
286.929
286.986
287.044
287.103
287.163
287.225
287.288
287.353
287.421
287.491
287.566
287.645
287.73
287.822
287.925
288.042
288.182
288.367
288.493
288.116
287.899
287.73
287.573
287.423
287.276
287.132
286.992
286.856
286.723
286.594
286.467
286.342
286.22
286.098
285.976
285.853
285.739
285.636
285.544
285.461
285.384
285.314
285.247
285.184
285.12
285.1
285.476
285.871
286.241
285.608
285.22
284.978
284.826
284.739
284.704
284.705
284.708
284.711
284.715
284.719
284.722
284.725
284.728
284.731
284.732
284.734
284.735
284.735
284.736
284.736
284.737
284.737
284.737
284.737
284.737
284.737
284.736
284.736
284.736
284.735
284.735
284.734
284.733
284.733
284.732
284.731
284.731
284.73
284.729
284.728
284.727
284.726
284.726
284.73
284.738
284.75
284.767
284.788
284.813
284.843
284.879
284.919
284.966
285.019
285.078
285.144
285.218
285.3
285.39
285.489
285.599
285.719
285.852
285.999
286.164
286.356
286.594
286.954
287.553
287.335
286.029
285.571
285.4
285.309
285.235
285.16
285.081
285.002
284.924
284.851
284.786
284.73
284.687
284.656
284.641
284.64
284.643
284.644
284.644
284.642
284.639
284.633
284.625
284.615
284.603
284.578
284.567
285.38
285.981
285.279
284.93
284.774
284.711
284.693
284.692
284.695
284.7
284.707
284.714
284.721
284.726
284.73
284.735
284.738
284.741
284.743
284.745
284.746
284.748
284.749
284.75
284.75
284.751
284.751
284.751
284.751
284.751
284.751
284.75
284.75
284.749
284.749
284.748
284.747
284.746
284.745
284.744
284.743
284.741
284.74
284.738
284.737
284.735
284.733
284.731
284.729
284.728
284.727
284.727
284.728
284.73
284.735
284.742
284.753
284.767
284.787
284.813
284.846
284.888
284.939
285.002
285.079
285.173
285.286
285.424
285.596
285.824
286.174
286.813
287.121
285.967
285.105
284.931
284.856
284.808
284.77
284.737
284.709
284.687
284.672
284.664
284.661
284.663
284.667
284.672
284.676
284.678
284.677
284.674
284.669
284.661
284.651
284.638
284.622
284.603
284.581
284.531
285.214
285.825
285.12
284.822
284.717
284.686
284.68
284.68
284.682
284.689
284.7
284.713
284.724
284.731
284.736
284.741
284.745
284.748
284.752
284.755
284.758
284.76
284.762
284.763
284.765
284.765
284.766
284.766
284.767
284.767
284.767
284.766
284.766
284.765
284.765
284.764
284.763
284.762
284.761
284.76
284.759
284.757
284.756
284.755
284.753
284.752
284.75
284.748
284.746
284.744
284.741
284.739
284.737
284.734
284.732
284.73
284.73
284.73
284.732
284.737
284.746
284.759
284.779
284.808
284.847
284.901
284.973
285.07
285.201
285.388
285.681
286.243
286.774
286.244
285.092
284.783
284.72
284.692
284.677
284.669
284.666
284.667
284.673
284.68
284.689
284.697
284.704
284.708
284.711
284.711
284.708
284.702
284.693
284.681
284.666
284.648
284.626
284.604
284.582
284.526
285.127
285.72
285.028
284.77
284.692
284.671
284.665
284.662
284.664
284.673
284.691
284.712
284.727
284.735
284.741
284.746
284.75
284.755
284.759
284.763
284.767
284.77
284.772
284.774
284.775
284.776
284.777
284.778
284.778
284.777
284.777
284.777
284.776
284.775
284.774
284.773
284.772
284.771
284.769
284.768
284.767
284.766
284.764
284.763
284.762
284.76
284.759
284.757
284.756
284.754
284.752
284.75
284.747
284.745
284.742
284.739
284.736
284.733
284.731
284.729
284.728
284.73
284.735
284.745
284.762
284.789
284.831
284.893
284.985
285.126
285.359
285.818
286.406
286.288
285.439
284.725
284.669
284.654
284.654
284.66
284.67
284.682
284.695
284.708
284.719
284.728
284.735
284.739
284.74
284.738
284.733
284.725
284.713
284.698
284.678
284.655
284.63
284.604
284.582
284.566
285.078
285.645
284.97
284.741
284.677
284.659
284.65
284.644
284.645
284.657
284.683
284.713
284.731
284.739
284.745
284.75
284.755
284.761
284.766
284.77
284.774
284.777
284.78
284.782
284.783
284.784
284.784
284.784
284.783
284.783
284.782
284.781
284.779
284.778
284.776
284.774
284.773
284.771
284.769
284.768
284.766
284.765
284.763
284.762
284.761
284.76
284.759
284.758
284.757
284.756
284.754
284.753
284.751
284.749
284.747
284.744
284.742
284.738
284.735
284.732
284.729
284.726
284.725
284.726
284.732
284.743
284.765
284.802
284.864
284.966
285.144
285.507
286.071
286.208
285.669
284.899
284.644
284.64
284.65
284.666
284.683
284.701
284.718
284.733
284.746
284.756
284.762
284.765
284.765
284.762
284.755
284.745
284.73
284.711
284.689
284.662
284.632
284.603
284.582
284.584
285.043
285.588
284.93
284.722
284.667
284.649
284.638
284.631
284.63
284.643
284.679
284.716
284.735
284.743
284.749
284.754
284.76
284.765
284.771
284.775
284.779
284.782
284.784
284.786
284.786
284.786
284.786
284.785
284.784
284.782
284.78
284.778
284.776
284.773
284.771
284.768
284.766
284.763
284.761
284.759
284.757
284.755
284.753
284.752
284.751
284.75
284.75
284.749
284.749
284.749
284.748
284.748
284.747
284.746
284.745
284.744
284.742
284.739
284.737
284.734
284.731
284.727
284.724
284.722
284.721
284.724
284.734
284.755
284.795
284.866
285
285.283
285.787
286.069
285.775
285.132
284.648
284.632
284.65
284.673
284.697
284.719
284.738
284.755
284.769
284.778
284.785
284.787
284.786
284.781
284.773
284.761
284.744
284.722
284.696
284.666
284.633
284.602
284.58
284.592
285.017
285.544
284.902
284.709
284.66
284.643
284.632
284.623
284.62
284.634
284.68
284.722
284.74
284.747
284.752
284.757
284.763
284.769
284.774
284.778
284.781
284.784
284.785
284.786
284.786
284.785
284.784
284.782
284.78
284.777
284.774
284.77
284.767
284.763
284.76
284.756
284.752
284.749
284.746
284.743
284.74
284.738
284.736
284.734
284.733
284.733
284.732
284.733
284.733
284.734
284.734
284.735
284.736
284.736
284.736
284.736
284.736
284.735
284.734
284.732
284.73
284.727
284.723
284.72
284.717
284.716
284.719
284.73
284.754
284.804
284.903
285.123
285.557
285.911
285.801
285.294
284.754
284.625
284.651
284.68
284.708
284.734
284.755
284.773
284.788
284.797
284.803
284.805
284.803
284.797
284.787
284.773
284.754
284.731
284.702
284.669
284.634
284.6
284.576
284.596
284.996
285.509
284.881
284.701
284.656
284.641
284.63
284.621
284.612
284.63
284.687
284.73
284.744
284.75
284.754
284.76
284.765
284.77
284.775
284.778
284.781
284.782
284.783
284.783
284.782
284.78
284.778
284.775
284.772
284.768
284.764
284.759
284.754
284.749
284.745
284.74
284.735
284.73
284.726
284.722
284.718
284.716
284.713
284.711
284.71
284.71
284.71
284.71
284.711
284.713
284.714
284.716
284.718
284.72
284.722
284.724
284.725
284.726
284.726
284.726
284.725
284.724
284.721
284.718
284.715
284.712
284.712
284.716
284.73
284.763
284.837
285.008
285.376
285.757
285.779
285.396
284.877
284.631
284.65
284.685
284.717
284.746
284.77
284.789
284.803
284.813
284.818
284.819
284.815
284.808
284.797
284.782
284.762
284.736
284.705
284.67
284.632
284.597
284.573
284.598
284.979
285.48
284.866
284.695
284.654
284.641
284.632
284.621
284.607
284.632
284.699
284.738
284.748
284.752
284.756
284.761
284.766
284.77
284.773
284.776
284.777
284.778
284.778
284.777
284.775
284.773
284.77
284.766
284.762
284.757
284.751
284.746
284.74
284.734
284.727
284.721
284.715
284.709
284.704
284.699
284.695
284.691
284.688
284.686
284.684
284.684
284.684
284.685
284.686
284.688
284.69
284.693
284.697
284.7
284.703
284.707
284.71
284.713
284.715
284.717
284.718
284.718
284.717
284.715
284.712
284.709
284.707
284.707
284.715
284.737
284.791
284.925
285.236
285.618
285.732
285.454
284.977
284.664
284.648
284.689
284.725
284.756
284.782
284.802
284.816
284.825
284.829
284.829
284.824
284.816
284.804
284.788
284.767
284.739
284.706
284.669
284.629
284.592
284.568
284.6
284.965
285.457
284.854
284.691
284.654
284.643
284.636
284.623
284.602
284.64
284.713
284.745
284.751
284.754
284.757
284.761
284.765
284.768
284.77
284.771
284.772
284.771
284.771
284.769
284.767
284.764
284.76
284.756
284.751
284.745
284.739
284.732
284.725
284.717
284.71
284.702
284.695
284.688
284.682
284.676
284.671
284.666
284.663
284.66
284.658
284.657
284.657
284.658
284.66
284.662
284.665
284.669
284.673
284.677
284.682
284.687
284.692
284.697
284.701
284.705
284.707
284.709
284.71
284.71
284.708
284.705
284.702
284.701
284.704
284.719
284.759
284.865
285.128
285.499
285.675
285.482
285.048
284.707
284.648
284.691
284.731
284.765
284.792
284.812
284.826
284.835
284.837
284.835
284.829
284.82
284.808
284.791
284.769
284.74
284.705
284.666
284.625
284.587
284.564
284.602
284.953
285.437
284.845
284.688
284.654
284.645
284.64
284.621
284.602
284.654
284.727
284.75
284.753
284.755
284.757
284.76
284.762
284.763
284.764
284.764
284.764
284.763
284.762
284.76
284.758
284.755
284.751
284.746
284.74
284.734
284.727
284.719
284.71
284.702
284.693
284.684
284.675
284.667
284.66
284.653
284.647
284.642
284.638
284.635
284.633
284.632
284.632
284.632
284.634
284.636
284.64
284.644
284.649
284.654
284.66
284.666
284.673
284.679
284.685
284.691
284.696
284.699
284.702
284.703
284.703
284.701
284.698
284.696
284.697
284.706
284.736
284.821
285.047
285.4
285.617
285.489
285.096
284.745
284.652
284.692
284.737
284.773
284.801
284.821
284.835
284.841
284.842
284.838
284.831
284.822
284.81
284.793
284.769
284.739
284.702
284.661
284.619
284.581
284.56
284.604
284.942
285.42
284.838
284.686
284.654
284.647
284.64
284.611
284.607
284.674
284.74
284.753
284.754
284.755
284.756
284.757
284.757
284.757
284.757
284.756
284.755
284.754
284.753
284.751
284.749
284.746
284.742
284.737
284.731
284.724
284.716
284.707
284.697
284.687
284.677
284.667
284.657
284.648
284.639
284.632
284.626
284.62
284.616
284.613
284.61
284.609
284.608
284.609
284.61
284.613
284.616
284.621
284.626
284.632
284.639
284.646
284.653
284.661
284.669
284.676
284.683
284.688
284.693
284.696
284.697
284.696
284.694
284.691
284.69
284.696
284.719
284.789
284.985
285.32
285.563
285.483
285.122
284.773
284.658
284.693
284.742
284.78
284.809
284.829
284.841
284.845
284.843
284.838
284.83
284.821
284.809
284.792
284.767
284.735
284.697
284.655
284.612
284.574
284.555
284.606
284.932
285.406
284.833
284.685
284.654
284.648
284.639
284.598
284.619
284.696
284.75
284.755
284.754
284.753
284.753
284.752
284.751
284.75
284.749
284.748
284.746
284.745
284.744
284.743
284.741
284.738
284.734
284.729
284.723
284.715
284.706
284.695
284.684
284.673
284.661
284.65
284.639
284.63
284.621
284.613
284.606
284.601
284.596
284.593
284.591
284.589
284.589
284.589
284.59
284.593
284.596
284.6
284.605
284.612
284.619
284.626
284.635
284.644
284.652
284.661
284.669
284.677
284.683
284.688
284.69
284.691
284.689
284.687
284.685
284.688
284.705
284.765
284.939
285.258
285.518
285.471
285.131
284.789
284.664
284.694
284.748
284.787
284.816
284.835
284.845
284.847
284.842
284.835
284.827
284.819
284.807
284.79
284.764
284.731
284.691
284.648
284.604
284.566
284.551
284.609
284.922
285.393
284.828
284.684
284.654
284.647
284.637
284.591
284.639
284.718
284.756
284.755
284.753
284.751
284.749
284.746
284.744
284.742
284.74
284.739
284.737
284.737
284.736
284.735
284.734
284.732
284.728
284.723
284.716
284.707
284.697
284.685
284.673
284.66
284.647
284.635
284.623
284.613
284.604
284.596
284.59
284.584
284.58
284.577
284.575
284.573
284.573
284.573
284.574
284.576
284.579
284.583
284.588
284.594
284.601
284.609
284.618
284.627
284.637
284.647
284.657
284.666
284.673
284.679
284.683
284.685
284.684
284.682
284.68
284.681
284.695
284.746
284.906
285.213
285.484
285.455
285.125
284.793
284.669
284.696
284.753
284.794
284.822
284.84
284.847
284.846
284.838
284.829
284.823
284.815
284.804
284.786
284.759
284.725
284.683
284.639
284.595
284.558
284.546
284.612
284.914
285.382
284.825
284.683
284.653
284.645
284.63
284.592
284.665
284.737
284.758
284.754
284.751
284.747
284.744
284.74
284.737
284.734
284.731
284.73
284.729
284.729
284.729
284.729
284.729
284.727
284.723
284.718
284.71
284.7
284.689
284.676
284.662
284.648
284.634
284.62
284.608
284.598
284.589
284.581
284.575
284.571
284.567
284.564
284.562
284.561
284.561
284.561
284.561
284.563
284.566
284.569
284.574
284.58
284.586
284.594
284.603
284.613
284.623
284.634
284.645
284.655
284.664
284.672
284.677
284.679
284.679
284.677
284.674
284.674
284.686
284.732
284.882
285.182
285.46
285.436
285.104
284.786
284.671
284.701
284.76
284.801
284.828
284.843
284.847
284.842
284.832
284.823
284.817
284.811
284.8
284.781
284.753
284.717
284.675
284.63
284.586
284.549
284.541
284.615
284.907
285.372
284.821
284.682
284.652
284.641
284.617
284.604
284.693
284.75
284.757
284.752
284.748
284.743
284.738
284.733
284.729
284.726
284.723
284.722
284.722
284.722
284.723
284.724
284.724
284.723
284.72
284.714
284.705
284.694
284.681
284.667
284.651
284.636
284.621
284.607
284.595
284.585
284.576
284.569
284.564
284.56
284.557
284.555
284.553
284.552
284.552
284.552
284.552
284.554
284.556
284.559
284.563
284.568
284.574
284.582
284.591
284.6
284.611
284.623
284.634
284.645
284.656
284.664
284.67
284.674
284.674
284.672
284.669
284.668
284.678
284.722
284.867
285.166
285.448
285.414
285.07
284.769
284.671
284.708
284.768
284.808
284.833
284.845
284.845
284.835
284.823
284.815
284.811
284.806
284.795
284.776
284.747
284.709
284.666
284.62
284.576
284.541
284.536
284.618
284.902
285.362
284.818
284.681
284.649
284.635
284.602
284.627
284.719
284.757
284.756
284.75
284.744
284.738
284.732
284.727
284.722
284.719
284.716
284.715
284.715
284.716
284.718
284.72
284.721
284.721
284.717
284.711
284.702
284.689
284.675
284.658
284.642
284.625
284.609
284.595
284.583
284.573
284.566
284.56
284.556
284.552
284.55
284.548
284.547
284.546
284.545
284.545
284.546
284.547
284.548
284.551
284.554
284.559
284.565
284.572
284.58
284.59
284.601
284.613
284.625
284.637
284.648
284.657
284.664
284.668
284.669
284.667
284.664
284.662
284.671
284.714
284.86
285.164
285.448
285.385
285.021
284.746
284.671
284.718
284.777
284.815
284.837
284.845
284.839
284.826
284.813
284.807
284.805
284.801
284.79
284.769
284.739
284.701
284.656
284.61
284.566
284.532
284.531
284.618
284.896
285.353
284.815
284.679
284.646
284.627
284.594
284.657
284.739
284.759
284.754
284.747
284.74
284.733
284.727
284.721
284.716
284.713
284.711
284.71
284.71
284.712
284.714
284.717
284.719
284.719
284.716
284.709
284.698
284.684
284.668
284.65
284.632
284.614
284.598
284.584
284.573
284.564
284.557
284.553
284.549
284.547
284.544
284.543
284.541
284.54
284.539
284.539
284.54
284.541
284.542
284.545
284.548
284.552
284.557
284.563
284.572
284.581
284.592
284.604
284.617
284.629
284.641
284.651
284.659
284.663
284.664
284.662
284.658
284.656
284.665
284.71
284.863
285.182
285.45
285.348
284.964
284.72
284.674
284.731
284.786
284.821
284.839
284.842
284.831
284.815
284.803
284.799
284.799
284.795
284.784
284.762
284.731
284.691
284.647
284.6
284.556
284.523
284.524
284.614
284.89
285.344
284.812
284.677
284.642
284.618
284.598
284.687
284.751
284.759
284.752
284.744
284.736
284.729
284.722
284.716
284.711
284.708
284.706
284.706
284.707
284.709
284.712
284.715
284.717
284.718
284.715
284.707
284.696
284.68
284.662
284.643
284.623
284.605
284.588
284.574
284.564
284.556
284.551
284.547
284.545
284.542
284.54
284.537
284.535
284.534
284.533
284.533
284.534
284.535
284.537
284.539
284.542
284.546
284.55
284.557
284.564
284.574
284.585
284.597
284.61
284.623
284.636
284.646
284.654
284.658
284.659
284.656
284.652
284.65
284.659
284.709
284.886
285.215
285.443
285.298
284.905
284.695
284.682
284.744
284.795
284.826
284.839
284.836
284.821
284.803
284.792
284.792
284.793
284.789
284.777
284.754
284.722
284.682
284.637
284.59
284.546
284.514
284.516
284.606
284.884
285.336
284.809
284.674
284.637
284.611
284.615
284.714
284.758
284.757
284.75
284.741
284.733
284.726
284.719
284.713
284.708
284.705
284.703
284.703
284.704
284.707
284.71
284.714
284.717
284.717
284.714
284.706
284.693
284.676
284.657
284.635
284.615
284.596
284.579
284.566
284.557
284.551
284.547
284.544
284.541
284.539
284.535
284.532
284.528
284.526
284.524
284.524
284.526
284.528
284.53
284.533
284.536
284.54
284.545
284.551
284.559
284.568
284.579
284.592
284.605
284.619
284.632
284.642
284.65
284.653
284.653
284.65
284.646
284.644
284.656
284.724
284.933
285.249
285.424
285.235
284.846
284.68
284.695
284.758
284.804
284.829
284.836
284.827
284.808
284.79
284.783
284.785
284.787
284.783
284.77
284.746
284.713
284.673
284.628
284.581
284.537
284.505
284.506
284.595
284.878
285.328
284.806
284.671
284.631
284.607
284.643
284.733
284.761
284.756
284.748
284.739
284.731
284.724
284.717
284.712
284.707
284.704
284.702
284.701
284.702
284.705
284.709
284.713
284.716
284.717
284.714
284.705
284.691
284.673
284.651
284.629
284.607
284.588
284.571
284.559
284.551
284.546
284.543
284.541
284.539
284.535
284.53
284.525
284.52
284.515
284.513
284.513
284.515
284.519
284.523
284.527
284.531
284.535
284.54
284.546
284.554
284.563
284.575
284.588
284.602
284.616
284.629
284.639
284.646
284.649
284.648
284.644
284.639
284.638
284.661
284.76
284.991
285.277
285.391
285.159
284.792
284.676
284.712
284.772
284.811
284.83
284.83
284.814
284.793
284.778
284.775
284.779
284.781
284.776
284.762
284.737
284.704
284.664
284.618
284.572
284.528
284.495
284.496
284.581
284.871
285.32
284.802
284.667
284.625
284.61
284.675
284.748
284.761
284.755
284.746
284.738
284.731
284.724
284.718
284.712
284.708
284.704
284.702
284.701
284.702
284.705
284.709
284.713
284.717
284.718
284.714
284.705
284.69
284.67
284.647
284.623
284.6
284.581
284.565
284.554
284.547
284.544
284.542
284.539
284.536
284.531
284.525
284.517
284.509
284.503
284.499
284.499
284.503
284.508
284.514
284.52
284.525
284.53
284.536
284.542
284.55
284.56
284.572
284.585
284.599
284.614
284.627
284.637
284.642
284.644
284.642
284.637
284.633
284.638
284.681
284.814
285.05
285.292
285.343
285.076
284.749
284.683
284.73
284.784
284.816
284.827
284.82
284.8
284.778
284.766
284.767
284.773
284.775
284.769
284.754
284.729
284.695
284.655
284.61
284.563
284.519
284.486
284.484
284.566
284.864
285.312
284.799
284.663
284.62
284.619
284.699
284.757
284.761
284.754
284.746
284.739
284.732
284.726
284.721
284.715
284.71
284.706
284.703
284.702
284.703
284.705
284.709
284.713
284.717
284.718
284.715
284.705
284.689
284.667
284.643
284.618
284.595
284.575
284.56
284.55
284.544
284.542
284.54
284.538
284.534
284.527
284.518
284.508
284.498
284.489
284.483
284.483
284.488
284.496
284.505
284.513
284.519
284.526
284.532
284.539
284.547
284.557
284.57
284.584
284.599
284.613
284.626
284.634
284.639
284.639
284.636
284.631
284.629
284.648
284.719
284.877
285.103
285.293
285.282
284.989
284.721
284.696
284.747
284.794
284.818
284.821
284.807
284.783
284.763
284.756
284.76
284.767
284.768
284.761
284.745
284.72
284.687
284.647
284.601
284.554
284.511
284.477
284.473
284.549
284.858
285.304
284.795
284.658
284.616
284.633
284.719
284.762
284.762
284.755
284.748
284.742
284.736
284.731
284.726
284.721
284.716
284.711
284.707
284.704
284.704
284.706
284.709
284.714
284.718
284.719
284.715
284.705
284.688
284.666
284.64
284.614
284.59
284.57
284.556
284.547
284.543
284.541
284.54
284.537
284.531
284.523
284.512
284.499
284.486
284.474
284.467
284.467
284.474
284.485
284.497
284.507
284.515
284.522
284.528
284.536
284.545
284.556
284.57
284.584
284.6
284.614
284.625
284.632
284.635
284.633
284.629
284.625
284.633
284.672
284.772
284.942
285.144
285.277
285.207
284.907
284.707
284.712
284.763
284.801
284.816
284.81
284.791
284.766
284.75
284.748
284.754
284.761
284.761
284.753
284.736
284.711
284.678
284.638
284.593
284.546
284.502
284.469
284.461
284.532
284.852
285.297
284.791
284.654
284.614
284.649
284.733
284.765
284.763
284.756
284.751
284.747
284.743
284.739
284.734
284.729
284.723
284.718
284.712
284.708
284.706
284.707
284.71
284.714
284.719
284.72
284.717
284.706
284.688
284.664
284.638
284.611
284.586
284.567
284.553
284.545
284.542
284.541
284.539
284.536
284.529
284.519
284.506
284.491
284.476
284.462
284.453
284.452
284.464
284.479
284.492
284.503
284.511
284.519
284.526
284.535
284.545
284.557
284.571
284.587
284.602
284.615
284.624
284.629
284.629
284.626
284.623
284.626
284.649
284.712
284.832
285.001
285.169
285.244
285.124
284.838
284.706
284.73
284.775
284.804
284.809
284.797
284.773
284.75
284.738
284.74
284.748
284.754
284.753
284.744
284.728
284.703
284.67
284.631
284.586
284.539
284.494
284.46
284.45
284.514
284.847
285.29
284.787
284.649
284.615
284.664
284.743
284.768
284.765
284.76
284.756
284.754
284.752
284.75
284.746
284.741
284.734
284.727
284.719
284.713
284.71
284.709
284.711
284.715
284.72
284.722
284.718
284.707
284.688
284.664
284.636
284.609
284.584
284.564
284.551
284.544
284.541
284.54
284.539
284.535
284.528
284.516
284.502
284.486
284.47
284.456
284.446
284.447
284.463
284.478
284.491
284.501
284.51
284.517
284.526
284.535
284.547
284.56
284.575
284.591
284.605
284.616
284.623
284.625
284.623
284.62
284.622
284.636
284.679
284.764
284.894
285.048
285.175
285.195
285.038
284.788
284.714
284.746
284.784
284.802
284.799
284.78
284.755
284.735
284.728
284.733
284.742
284.747
284.745
284.736
284.719
284.694
284.662
284.623
284.578
284.531
284.486
284.452
284.44
284.495
284.843
285.283
284.783
284.644
284.616
284.677
284.751
284.771
284.769
284.766
284.764
284.764
284.764
284.763
284.761
284.755
284.748
284.738
284.729
284.72
284.715
284.712
284.713
284.716
284.721
284.723
284.72
284.709
284.69
284.664
284.636
284.607
284.582
284.563
284.55
284.544
284.541
284.541
284.539
284.535
284.527
284.515
284.501
284.485
284.47
284.458
284.453
284.457
284.468
284.48
284.491
284.501
284.509
284.518
284.527
284.538
284.551
284.565
284.58
284.595
284.607
284.615
284.619
284.619
284.618
284.618
284.629
284.659
284.721
284.82
284.949
285.08
285.163
285.133
284.956
284.758
284.725
284.759
284.788
284.796
284.785
284.762
284.738
284.722
284.719
284.727
284.736
284.74
284.737
284.727
284.71
284.686
284.654
284.615
284.57
284.523
284.479
284.444
284.43
284.477
284.84
285.277
284.778
284.64
284.618
284.688
284.758
284.775
284.774
284.773
284.774
284.777
284.78
284.781
284.779
284.773
284.765
284.753
284.741
284.729
284.721
284.716
284.715
284.717
284.722
284.725
284.723
284.712
284.692
284.666
284.636
284.607
284.582
284.562
284.55
284.543
284.541
284.541
284.54
284.536
284.528
284.517
284.503
284.489
284.475
284.466
284.462
284.465
284.473
284.483
284.493
284.502
284.511
284.521
284.532
284.544
284.557
284.572
284.586
284.599
284.608
284.613
284.615
284.615
284.616
284.624
284.647
284.694
284.771
284.875
284.993
285.095
285.134
285.063
284.885
284.743
284.738
284.769
284.788
284.787
284.77
284.745
284.722
284.711
284.712
284.722
284.73
284.732
284.729
284.718
284.701
284.677
284.645
284.606
284.562
284.515
284.471
284.436
284.42
284.46
284.839
285.271
284.775
284.635
284.62
284.696
284.763
284.78
284.781
284.783
284.787
284.792
284.798
284.801
284.8
284.795
284.784
284.771
284.755
284.74
284.728
284.72
284.717
284.719
284.722
284.726
284.725
284.715
284.695
284.668
284.638
284.608
284.582
284.562
284.55
284.544
284.542
284.542
284.541
284.537
284.531
284.521
284.509
284.496
284.484
284.476
284.473
284.475
284.481
284.489
284.498
284.507
284.517
284.527
284.539
284.551
284.565
284.579
284.591
284.601
284.607
284.61
284.611
284.613
284.62
284.64
284.677
284.738
284.823
284.924
285.023
285.092
285.091
284.992
284.83
284.739
284.749
284.774
284.784
284.775
284.753
284.728
284.71
284.702
284.707
284.718
284.724
284.725
284.72
284.709
284.691
284.666
284.635
284.597
284.553
284.507
284.463
284.427
284.411
284.444
284.839
285.266
284.771
284.631
284.62
284.701
284.768
284.785
284.788
284.793
284.801
284.809
284.818
284.824
284.824
284.819
284.807
284.791
284.772
284.753
284.737
284.726
284.721
284.72
284.723
284.728
284.728
284.719
284.699
284.671
284.64
284.61
284.584
284.563
284.55
284.544
284.542
284.543
284.542
284.54
284.535
284.527
284.517
284.506
284.496
284.489
284.486
284.487
284.492
284.498
284.507
284.516
284.525
284.536
284.548
284.56
284.573
284.585
284.594
284.601
284.605
284.608
284.611
284.618
284.635
284.667
284.717
284.786
284.872
284.962
285.038
285.073
285.039
284.926
284.793
284.742
284.757
284.775
284.776
284.761
284.738
284.715
284.7
284.696
284.706
284.714
284.718
284.717
284.711
284.698
284.68
284.655
284.623
284.586
284.543
284.498
284.454
284.419
284.403
284.43
284.841
285.261
284.768
284.627
284.619
284.704
284.772
284.79
284.796
284.804
284.815
284.828
284.839
284.848
284.85
284.844
284.831
284.813
284.791
284.768
284.747
284.733
284.725
284.722
284.724
284.729
284.73
284.722
284.703
284.676
284.644
284.613
284.586
284.565
284.552
284.545
284.543
284.544
284.544
284.543
284.539
284.533
284.526
284.518
284.51
284.504
284.501
284.502
284.505
284.511
284.518
284.527
284.537
284.547
284.558
284.569
284.58
284.589
284.596
284.601
284.604
284.609
284.617
284.633
284.66
284.703
284.761
284.833
284.913
284.987
285.038
285.042
284.983
284.87
284.771
284.746
284.762
284.772
284.767
284.748
284.725
284.704
284.693
284.696
284.705
284.711
284.712
284.709
284.7
284.686
284.666
284.641
284.61
284.573
284.532
284.487
284.445
284.411
284.394
284.418
284.843
285.258
284.765
284.623
284.615
284.702
284.774
284.795
284.804
284.815
284.829
284.846
284.861
284.872
284.874
284.869
284.856
284.837
284.812
284.784
284.758
284.74
284.73
284.725
284.725
284.73
284.733
284.726
284.708
284.681
284.649
284.618
284.59
284.568
284.554
284.546
284.544
284.545
284.546
284.546
284.544
284.541
284.536
284.53
284.524
284.52
284.518
284.518
284.521
284.525
284.532
284.54
284.548
284.558
284.567
284.576
284.584
284.591
284.597
284.601
284.607
284.616
284.632
284.657
284.694
284.744
284.806
284.875
284.943
284.998
285.023
285.002
284.928
284.827
284.759
284.751
284.764
284.768
284.757
284.737
284.715
284.698
284.691
284.699
284.705
284.707
284.705
284.698
284.687
284.671
284.65
284.624
284.594
284.558
284.518
284.475
284.435
284.401
284.385
284.408
284.843
285.255
284.763
284.619
284.607
284.696
284.774
284.799
284.81
284.823
284.841
284.862
284.88
284.893
284.895
284.889
284.876
284.858
284.833
284.802
284.771
284.748
284.735
284.728
284.726
284.731
284.735
284.73
284.713
284.687
284.655
284.623
284.595
284.572
284.557
284.548
284.545
284.546
284.547
284.548
284.548
284.547
284.544
284.541
284.538
284.535
284.534
284.534
284.536
284.54
284.545
284.552
284.559
284.567
284.575
284.582
284.588
284.594
284.6
284.607
284.617
284.633
284.657
284.69
284.734
284.787
284.847
284.908
284.961
284.996
284.998
284.957
284.879
284.796
284.754
284.755
284.764
284.762
284.748
284.728
284.709
284.695
284.695
284.702
284.705
284.702
284.695
284.684
284.67
284.652
284.63
284.604
284.574
284.54
284.502
284.461
284.423
284.391
284.376
284.398
284.836
285.252
284.762
284.614
284.6
284.686
284.768
284.8
284.814
284.829
284.848
284.872
284.894
284.907
284.908
284.901
284.89
284.875
284.853
284.82
284.784
284.756
284.741
284.732
284.728
284.731
284.736
284.734
284.719
284.693
284.662
284.63
284.601
284.578
284.561
284.551
284.547
284.547
284.549
284.55
284.551
284.552
284.551
284.55
284.548
284.547
284.547
284.547
284.549
284.552
284.557
284.562
284.568
284.574
284.58
284.587
284.593
284.6
284.608
284.62
284.636
284.659
284.689
284.728
284.774
284.826
284.88
284.93
284.967
284.982
284.965
284.913
284.839
284.776
284.752
284.757
284.763
284.757
284.742
284.723
284.707
284.697
284.702
284.704
284.701
284.693
284.681
284.666
284.648
284.629
284.606
284.581
284.552
284.519
284.483
284.445
284.409
284.381
284.367
284.388
284.822
285.251
284.76
284.61
284.593
284.673
284.756
284.795
284.814
284.831
284.85
284.873
284.897
284.908
284.908
284.902
284.893
284.883
284.867
284.837
284.796
284.764
284.748
284.736
284.73
284.731
284.738
284.738
284.725
284.7
284.67
284.638
284.609
284.585
284.567
284.556
284.55
284.549
284.55
284.552
284.554
284.555
284.556
284.556
284.556
284.556
284.556
284.557
284.559
284.562
284.566
284.57
284.575
284.581
284.587
284.594
284.602
284.611
284.624
284.641
284.663
284.691
284.726
284.767
284.812
284.86
284.905
284.941
284.962
284.959
284.928
284.872
284.808
284.764
284.753
284.759
284.761
284.753
284.738
284.722
284.708
284.705
284.707
284.702
284.692
284.678
284.661
284.642
284.622
284.601
284.578
284.554
284.526
284.495
284.461
284.426
284.394
284.369
284.358
284.379
284.8
285.249
284.759
284.606
284.585
284.657
284.738
284.784
284.809
284.828
284.847
284.867
284.886
284.895
284.895
284.89
284.884
284.879
284.873
284.851
284.808
284.771
284.754
284.742
284.732
284.732
284.739
284.741
284.731
284.708
284.679
284.648
284.619
284.594
284.575
284.562
284.555
284.553
284.553
284.554
284.556
284.558
284.559
284.56
284.561
284.562
284.563
284.565
284.567
284.57
284.574
284.579
284.584
284.59
284.598
284.606
284.617
284.631
284.648
284.67
284.696
284.728
284.764
284.804
284.845
284.885
284.919
284.941
284.947
284.931
284.891
284.837
284.785
284.757
284.754
284.76
284.76
284.751
284.737
284.722
284.712
284.712
284.706
284.693
284.676
284.656
284.635
284.614
284.592
284.57
284.548
284.523
284.497