/*--------------------------------*- C++ -*----------------------------------*\
| =========                 |                                                 |
| \\      /  F ield         | OpenFOAM: The Open Source CFD Toolbox           |
|  \\    /   O peration     | Version:  4.1                                   |
|   \\  /    A nd           | Web:      www.OpenFOAM.org                      |
|    \\/     M anipulation  |                                                 |
\*---------------------------------------------------------------------------*/
FoamFile
{
    version     2.0;
    format      ascii;
    class       volScalarField;
    location    "1700";
    object      T;
}
// * * * * * * * * * * * * * * * * * * * * * * * * * * * * * * * * * * * * * //

dimensions      [0 0 0 1 0 0 0];

internalField   nonuniform List<scalar> 
1600
(
287.501
288.167
288.84
288.79
288.301
289.206
289.774
288.903
288.021
288.237
288.238
288.01
287.886
287.913
287.977
287.771
287.641
288.081
288.618
289.029
288.584
287.212
286.597
286.728
287.04
287.556
288.326
289.06
289.71
289.589
288.029
287.345
286.947
286.733
286.643
286.588
286.528
286.6
287.009
287.458
285.931
285.923
285.913
285.882
285.881
287.024
288.844
287.264
285.696
285.672
285.646
285.618
285.599
285.594
285.594
285.59
285.599
285.847
286.547
287.486
287.924
286.428
286.025
285.84
285.731
285.659
285.694
286.246
287.28
288.402
287.249
286.201
285.843
285.781
285.784
285.812
285.857
285.92
285.861
286.783
285.917
285.897
285.867
285.836
285.834
286.524
288.499
286.886
285.641
285.602
285.573
285.547
285.529
285.523
285.525
285.527
285.543
285.716
286.151
286.854
287.462
286.828
286.304
285.979
285.818
285.716
285.643
285.754
286.35
287.691
287.024
286.108
285.835
285.785
285.801
285.842
285.899
285.971
286.023
286.64
285.916
285.901
285.878
285.844
285.85
286.335
288.378
286.663
285.639
285.583
285.55
285.523
285.502
285.493
285.493
285.499
285.521
285.683
286.018
286.516
287.104
286.844
286.398
286.045
285.872
285.771
285.697
285.681
285.969
287.25
286.898
286.081
285.828
285.78
285.799
285.842
285.902
285.994
286.141
286.561
285.911
285.896
285.884
285.853
285.855
286.266
288.313
286.438
285.661
285.574
285.54
285.513
285.488
285.474
285.472
285.48
285.508
285.677
285.958
286.294
286.821
286.73
286.348
286.034
285.888
285.808
285.745
285.698
285.888
286.965
286.798
286.063
285.815
285.767
285.783
285.817
285.868
285.957
286.124
286.49
285.904
285.878
285.883
285.862
285.842
286.165
288.105
286.308
285.721
285.576
285.543
285.515
285.485
285.463
285.457
285.465
285.499
285.682
285.916
286.121
286.593
286.578
286.24
285.99
285.893
285.84
285.794
285.74
285.958
286.779
286.704
286.044
285.801
285.753
285.763
285.785
285.819
285.887
286.04
286.422
285.896
285.854
285.869
285.866
285.836
285.999
287.711
286.2
285.734
285.593
285.555
285.525
285.49
285.459
285.447
285.453
285.494
285.693
285.865
285.974
286.411
286.427
286.117
285.945
285.906
285.884
285.846
285.828
286.058
286.657
286.614
286.026
285.79
285.744
285.75
285.76
285.776
285.81
285.905
286.159
285.888
285.83
285.843
285.861
285.842
285.849
287.176
286.073
285.725
285.615
285.575
285.543
285.501
285.46
285.439
285.444
285.491
285.71
285.794
285.854
286.279
286.283
285.999
285.919
285.937
285.946
285.915
285.938
286.152
286.573
286.526
286.006
285.783
285.741
285.744
285.748
285.751
285.755
285.761
285.769
285.879
285.813
285.813
285.842
285.844
285.811
286.614
285.944
285.717
285.636
285.6
285.565
285.517
285.465
285.434
285.435
285.49
285.731
285.717
285.78
286.203
286.119
285.903
285.928
285.982
286
285.997
286.045
286.225
286.509
286.44
285.986
285.777
285.74
285.742
285.743
285.745
285.747
285.746
285.741
285.862
285.802
285.788
285.811
285.835
285.816
286.177
285.848
285.718
285.662
285.626
285.588
285.533
285.471
285.43
285.428
285.49
285.756
285.67
285.776
286.184
285.901
285.871
285.968
286.025
286.051
286.072
286.131
286.273
286.451
286.358
285.961
285.769
285.738
285.737
285.736
285.74
285.745
285.746
285.74
285.834
285.79
285.772
285.78
285.814
285.818
285.934
285.798
285.728
285.688
285.654
285.612
285.55
285.478
285.427
285.42
285.49
285.788
285.673
285.851
286.196
285.806
285.908
285.991
286.048
286.09
286.128
286.188
286.294
286.394
286.278
285.932
285.759
285.733
285.728
285.726
285.732
285.74
285.744
285.738
285.796
285.773
285.759
285.757
285.787
285.808
285.837
285.785
285.744
285.713
285.68
285.634
285.564
285.484
285.424
285.413
285.49
285.826
285.72
285.991
286.209
285.807
285.92
285.997
286.059
286.111
286.159
286.216
286.289
286.331
286.2
285.898
285.748
285.725
285.716
285.714
285.722
285.733
285.741
285.735
285.763
285.755
285.747
285.742
285.758
285.788
285.804
285.784
285.759
285.734
285.701
285.65
285.575
285.487
285.42
285.406
285.49
285.867
285.806
286.099
286.22
285.821
285.92
285.993
286.056
286.112
286.164
286.215
286.262
286.263
286.122
285.862
285.736
285.715
285.702
285.701
285.71
285.725
285.736
285.733
285.743
285.742
285.738
285.732
285.733
285.76
285.782
285.78
285.767
285.746
285.715
285.66
285.579
285.486
285.414
285.398
285.492
285.904
285.853
286.156
286.227
285.827
285.912
285.978
286.038
286.095
286.146
286.189
286.214
286.187
286.045
285.824
285.726
285.703
285.687
285.687
285.699
285.717
285.732
285.73
285.736
285.738
285.734
285.726
285.72
285.736
285.76
285.768
285.764
285.749
285.719
285.662
285.577
285.48
285.406
285.39
285.5
285.936
285.866
286.169
286.223
285.823
285.897
285.956
286.01
286.062
286.108
286.142
286.151
286.107
285.971
285.79
285.715
285.689
285.672
285.673
285.687
285.709
285.727
285.727
285.737
285.739
285.734
285.724
285.713
285.717
285.736
285.75
285.752
285.741
285.713
285.655
285.567
285.47
285.396
285.381
285.521
285.954
285.854
286.145
286.2
285.813
285.876
285.927
285.973
286.017
286.056
286.081
286.079
286.026
285.904
285.762
285.705
285.675
285.658
285.66
285.676
285.701
285.722
285.724
285.741
285.745
285.738
285.726
285.711
285.704
285.714
285.728
285.733
285.726
285.697
285.638
285.551
285.455
285.384
285.371
285.554
285.955
285.823
286.089
286.15
285.8
285.853
285.895
285.933
285.968
285.998
286.014
286.004
285.95
285.846
285.74
285.694
285.66
285.644
285.647
285.666
285.693
285.717
285.721
285.746
285.754
285.745
285.729
285.711
285.697
285.697
285.705
285.711
285.704
285.675
285.615
285.528
285.436
285.37
285.361
285.578
285.944
285.782
286.013
286.076
285.784
285.828
285.862
285.892
285.918
285.939
285.948
285.933
285.884
285.8
285.723
285.682
285.647
285.631
285.636
285.656
285.686
285.712
285.717
285.752
285.763
285.752
285.734
285.713
285.694
285.684
285.685
285.687
285.678
285.647
285.585
285.5
285.413
285.354
285.351
285.592
285.927
285.738
285.928
285.988
285.767
285.804
285.831
285.853
285.872
285.885
285.888
285.872
285.83
285.766
285.711
285.669
285.634
285.62
285.625
285.647
285.68
285.707
285.714
285.758
285.773
285.759
285.737
285.715
285.692
285.675
285.668
285.664
285.651
285.616
285.551
285.468
285.388
285.337
285.341
285.602
285.908
285.697
285.848
285.901
285.75
285.78
285.802
285.818
285.831
285.84
285.839
285.824
285.79
285.743
285.701
285.657
285.624
285.611
285.616
285.639
285.673
285.702
285.711
285.763
285.783
285.765
285.739
285.714
285.689
285.667
285.653
285.642
285.623
285.581
285.514
285.434
285.361
285.319
285.331
285.611
285.889
285.661
285.779
285.825
285.734
285.759
285.776
285.789
285.798
285.803
285.801
285.788
285.762
285.728
285.692
285.646
285.615
285.603
285.608
285.632
285.668
285.698
285.707
285.769
285.793
285.77
285.739
285.71
285.684
285.658
285.638
285.62
285.593
285.544
285.474
285.398
285.334
285.301
285.322
285.621
285.871
285.633
285.725
285.766
285.719
285.74
285.755
285.765
285.772
285.775
285.773
285.763
285.744
285.719
285.685
285.635
285.608
285.597
285.602
285.626
285.663
285.693
285.704
285.775
285.802
285.773
285.735
285.703
285.675
285.647
285.622
285.596
285.562
285.504
285.432
285.362
285.307
285.285
285.314
285.634
285.855
285.611
285.685
285.722
285.705
285.724
285.737
285.746
285.753
285.755
285.754
285.746
285.732
285.711
285.677
285.627
285.603
285.592
285.596
285.621
285.658
285.689
285.7
285.78
285.811
285.775
285.727
285.69
285.661
285.632
285.602
285.57
285.526
285.461
285.389
285.325
285.282
285.27
285.308
285.651
285.841
285.594
285.656
285.692
285.692
285.71
285.722
285.731
285.737
285.74
285.74
285.735
285.724
285.703
285.662
285.622
285.599
285.588
285.592
285.617
285.654
285.685
285.696
285.786
285.819
285.775
285.717
285.673
285.641
285.612
285.578
285.539
285.485
285.414
285.345
285.291
285.259
285.258
285.309
285.671
285.828
285.58
285.635
285.67
285.68
285.697
285.709
285.718
285.724
285.728
285.728
285.725
285.714
285.691
285.651
285.617
285.595
285.585
285.589
285.613
285.651
285.681
285.693
285.792
285.827
285.775
285.706
285.651
285.615
285.584
285.548
285.501
285.435
285.364
285.303
285.262
285.242
285.251
285.33
285.69
285.815
285.569
285.618
285.653
285.669
285.686
285.697
285.706
285.712
285.716
285.717
285.713
285.701
285.677
285.641
285.61
285.591
285.581
285.586
285.611
285.649
285.678
285.689
285.798
285.833
285.774
285.693
285.626
285.583
285.55
285.509
285.454
285.38
285.314
285.267
285.241
285.233
285.253
285.368
285.706
285.803
285.559
285.605
285.639
285.658
285.674
285.686
285.694
285.699
285.702
285.702
285.698
285.685
285.66
285.629
285.603
285.586
285.578
285.584
285.61
285.648
285.675
285.685
285.803
285.839
285.774
285.682
285.6
285.546
285.506
285.459
285.392
285.323
285.272
285.244
285.235
285.237
285.265
285.42
285.721
285.79
285.55
285.592
285.625
285.647
285.663
285.674
285.681
285.685
285.686
285.685
285.679
285.665
285.642
285.616
285.596
285.582
285.576
285.583
285.61
285.648
285.673
285.681
285.809
285.843
285.774
285.673
285.576
285.507
285.454
285.399
285.331
285.275
285.245
285.24
285.247
285.26
285.303
285.473
285.734
285.778
285.541
285.579
285.612
285.635
285.651
285.661
285.667
285.669
285.668
285.665
285.658
285.645
285.625
285.605
285.589
285.578
285.573
285.583
285.611
285.649
285.671
285.677
285.815
285.848
285.774
285.668
285.559
285.472
285.403
285.339
285.28
285.245
285.242
285.258
285.279
285.302
285.36
285.522
285.745
285.765
285.532
285.566
285.599
285.622
285.638
285.648
285.652
285.652
285.65
285.646
285.638
285.626
285.611
285.596
285.584
285.574
285.571
285.583
285.614
285.651
285.669
285.673
285.82
285.853
285.777
285.665
285.549
285.451
285.364
285.297
285.254
285.243
285.263
285.293
285.317
285.349
285.418
285.567
285.753
285.752
285.523
285.552
285.584
285.607
285.624
285.633
285.637
285.636
285.633
285.628
285.62
285.61
285.599
285.588
285.578
285.57
285.569
285.585
285.618
285.654
285.668
285.669
285.824
285.86
285.785
285.67
285.548
285.438
285.351
285.289
285.262
285.271
285.296
285.324
285.355
285.4
285.475
285.608
285.76
285.739
285.513
285.537
285.567
285.592
285.609
285.617
285.62
285.62
285.617
285.612
285.606
285.598
285.59
285.581
285.572
285.565
285.568
285.589
285.625
285.658
285.666
285.663
285.829
285.869
285.798
285.686
285.564
285.451
285.363
285.311
285.295
285.307
285.331
285.363
285.405
285.457
285.531
285.644
285.766
285.727
285.503
285.521
285.549
285.575
285.592
285.599
285.603
285.603
285.601
285.597
285.592
285.586
285.58
285.572
285.564
285.561
285.569
285.596
285.634
285.664
285.663
285.657
285.832
285.881
285.818
285.715
285.599
285.492
285.409
285.36
285.346
285.356
285.382
285.418
285.466
285.517
285.584
285.677
285.77
285.717
285.492
285.503
285.528
285.557
285.571
285.578
285.582
285.584
285.583
285.581
285.577
285.573
285.567
285.56
285.555
285.558
285.575
285.609
285.647
285.671
285.658
285.649
285.834
285.895
285.845
285.757
285.656
285.562
285.488
285.444
285.43
285.439
285.464
285.499
285.536
285.58
285.635
285.707
285.775
285.712
285.482
285.486
285.507
285.537
285.548
285.555
285.559
285.562
285.562
285.561
285.559
285.556
285.552
285.548
285.549
285.562
285.59
285.629
285.665
285.678
285.651
285.639
285.832
285.909
285.878
285.811
285.731
285.656
285.597
285.561
285.546
285.55
285.565
285.587
285.612
285.643
285.683
285.735
285.783
285.72
285.478
285.478
285.494
285.516
285.526
285.532
285.537
285.54
285.542
285.543
285.543
285.542
285.541
285.544
285.557
285.583
285.62
285.659
285.686
285.684
285.637
285.626
285.825
285.922
285.914
285.871
285.816
285.762
285.718
285.688
285.671
285.666
285.669
285.677
285.689
285.707
285.731
285.764
285.797
285.75
285.536
285.523
285.521
285.527
285.531
285.534
285.537
285.54
285.543
285.545
285.548
285.551
285.557
285.572
285.599
285.634
285.672
285.7
285.708
285.683
285.61
285.606
285.805
285.925
285.943
285.928
285.899
285.866
285.836
285.81
285.792
285.779
285.771
285.767
285.767
285.772
285.782
285.798
285.816
285.784
285.69
285.667
285.656
285.648
285.64
285.633
285.628
285.625
285.623
285.624
285.627
285.633
285.647
285.671
285.699
285.725
285.742
285.744
285.721
285.667
285.56
285.576
285.755
285.904
285.946
285.958
285.956
285.947
285.935
285.92
285.905
285.89
285.875
285.862
285.851
285.844
285.84
285.84
285.845
285.827
285.834
285.841
285.847
285.853
285.855
285.854
285.851
285.848
285.845
285.844
285.845
285.849
285.854
285.854
285.846
285.83
285.802
285.76
285.7
285.614
285.463
285.513
285.609
285.804
285.862
285.886
285.895
285.898
285.898
285.895
285.892
285.887
285.882
285.878
285.873
285.869
285.866
285.864
285.863
285.863
285.887
285.903
285.914
285.922
285.926
285.927
285.924
285.919
285.911
285.9
285.885
285.866
285.842
285.813
285.778
285.737
285.689
285.63
285.557
285.459
285.239
285.202
)
;

boundaryField
{
    floor
    {
        type            fixedValue;
        value           uniform 340;
    }
    ceiling
    {
        type            fixedValue;
        value           uniform 280;
    }
    fixedWalls
    {
        type            zeroGradient;
    }
    frontAndBack
    {
        type            empty;
    }
}


// ************************************************************************* //
