/*--------------------------------*- C++ -*----------------------------------*\
| =========                 |                                                 |
| \\      /  F ield         | OpenFOAM: The Open Source CFD Toolbox           |
|  \\    /   O peration     | Version:  4.1                                   |
|   \\  /    A nd           | Web:      www.OpenFOAM.org                      |
|    \\/     M anipulation  |                                                 |
\*---------------------------------------------------------------------------*/
FoamFile
{
    version     2.0;
    format      ascii;
    class       volVectorField;
    location    "1700";
    object      U;
}
// * * * * * * * * * * * * * * * * * * * * * * * * * * * * * * * * * * * * * //

dimensions      [0 1 -1 0 0 0 0];

internalField   nonuniform List<vector> 
5000
(
(-0.00391881 0.00285672 0)
(-0.00591828 0.00141322 0)
(-0.00782497 0.000773437 0)
(-0.00898085 0.000443977 0)
(-0.00968091 0.000224993 0)
(-0.0100231 5.13547e-05 0)
(-0.0100497 -0.000105595 0)
(-0.00978381 -0.000261253 0)
(-0.00925581 -0.000415074 0)
(-0.00848014 -0.000565238 0)
(-0.00746359 -0.000717528 0)
(-0.00619904 -0.000876152 0)
(-0.00469186 -0.00103487 0)
(-0.00300953 -0.00118624 0)
(-0.00129395 -0.00134784 0)
(0.000910343 -0.00145417 0)
(0.00278125 -0.00131386 0)
(0.00442114 -0.0011306 0)
(0.00593888 -0.000972105 0)
(0.00732058 -0.000848378 0)
(0.00857189 -0.000750816 0)
(0.00971088 -0.000670649 0)
(0.0107562 -0.000603024 0)
(0.0117213 -0.000545203 0)
(0.012616 -0.000495256 0)
(0.0134482 -0.000451639 0)
(0.0142245 -0.000413108 0)
(0.0149502 -0.000378659 0)
(0.0156297 -0.000347465 0)
(0.0162662 -0.000318825 0)
(0.0168622 -0.00029214 0)
(0.0174192 -0.000266893 0)
(0.0179383 -0.000242638 0)
(0.01842 -0.000218993 0)
(0.0188642 -0.000195633 0)
(0.0192705 -0.000172285 0)
(0.0196381 -0.000148724 0)
(0.0199657 -0.000124769 0)
(0.0202522 -0.000100282 0)
(0.0204961 -7.51657e-05 0)
(0.0206956 -4.93701e-05 0)
(0.0208494 -2.29072e-05 0)
(0.0209558 4.08311e-06 0)
(0.0210135 3.11293e-05 0)
(0.0210227 5.73695e-05 0)
(0.0209848 8.24055e-05 0)
(0.0208989 0.000106649 0)
(0.0207646 0.000130552 0)
(0.0205814 0.000154449 0)
(0.0203487 0.000178638 0)
(0.0200656 0.000203324 0)
(0.0197309 0.000228651 0)
(0.0193433 0.000254733 0)
(0.0189015 0.000281673 0)
(0.0184041 0.000309555 0)
(0.0178494 0.000338439 0)
(0.0172359 0.000368346 0)
(0.0165622 0.000399254 0)
(0.0158268 0.000431095 0)
(0.0150287 0.000463763 0)
(0.0141669 0.000497142 0)
(0.0132409 0.000531145 0)
(0.0122504 0.000565814 0)
(0.0111946 0.000601473 0)
(0.0100723 0.00063904 0)
(0.00887967 0.000680677 0)
(0.007608 0.000731513 0)
(0.00623563 0.000805557 0)
(0.00469598 0.000958467 0)
(0.0032678 0.00145218 0)
(-0.000199755 0.00260609 0)
(-0.00500132 0.00151266 0)
(-0.00629546 0.000435664 0)
(-0.00696009 0.000162217 0)
(-0.00731589 0.000120673 0)
(-0.00763323 0.000136564 0)
(-0.00797984 0.000162104 0)
(-0.00836448 0.000184004 0)
(-0.00877905 0.000198644 0)
(-0.00921063 0.00020501 0)
(-0.00964451 0.000202601 0)
(-0.0100647 0.000191053 0)
(-0.0104542 0.000170106 0)
(-0.0107957 0.000139592 0)
(-0.0110712 9.92017e-05 0)
(-0.011263 4.83264e-05 0)
(-0.0113506 -1.48801e-05 0)
(-0.0113106 -9.44289e-05 0)
(-0.0111196 -0.00019217 0)
(-0.0107532 -0.000308736 0)
(-0.0101862 -0.000446285 0)
(-0.00939085 -0.000608268 0)
(-0.00833131 -0.000799789 0)
(-0.00696021 -0.00102988 0)
(-0.00523656 -0.0013163 0)
(-0.00319339 -0.00168536 0)
(-0.000967918 -0.00215538 0)
(0.00228238 -0.00213527 0)
(0.00359686 -0.000581464 0)
(0.00353061 0.00168359 0)
(-0.00315507 0.00603961 0)
(-0.00487545 0.00365213 0)
(-0.00686307 0.00223944 0)
(-0.00804629 0.00139206 0)
(-0.00875835 0.000782692 0)
(-0.00908056 0.000279871 0)
(-0.00905422 -0.000171155 0)
(-0.00872312 -0.000591258 0)
(-0.0081455 -0.000977436 0)
(-0.00734712 -0.00133174 0)
(-0.00633742 -0.00167946 0)
(-0.00509885 -0.0020395 0)
(-0.00363321 -0.00239141 0)
(-0.00202254 -0.0027001 0)
(-0.00029592 -0.002969 0)
(0.00165701 -0.00293029 0)
(0.00315599 -0.00265115 0)
(0.00465948 -0.00236476 0)
(0.00609024 -0.00212058 0)
(0.00742181 -0.00192127 0)
(0.00865436 -0.00175554 0)
(0.00979727 -0.00161361 0)
(0.0108617 -0.0014903 0)
(0.0118575 -0.00138256 0)
(0.0127924 -0.00128789 0)
(0.0136731 -0.00120395 0)
(0.0145052 -0.00112868 0)
(0.0152931 -0.00106028 0)
(0.0160406 -0.000997226 0)
(0.0167503 -0.000938165 0)
(0.0174242 -0.000881941 0)
(0.0180639 -0.000827543 0)
(0.0186701 -0.000774098 0)
(0.0192434 -0.000720852 0)
(0.0197835 -0.000667158 0)
(0.0202903 -0.000612472 0)
(0.0207631 -0.000556343 0)
(0.021201 -0.000498412 0)
(0.021603 -0.000438409 0)
(0.021968 -0.000376151 0)
(0.0222947 -0.000311546 0)
(0.0225819 -0.000244607 0)
(0.0228282 -0.000175506 0)
(0.0230324 -0.000104709 0)
(0.0231916 -3.26418e-05 0)
(0.0233021 4.07694e-05 0)
(0.0233609 0.000114908 0)
(0.0233668 0.000189824 0)
(0.0233191 0.000265646 0)
(0.0232166 0.000342747 0)
(0.0230581 0.000421486 0)
(0.0228421 0.000502103 0)
(0.022567 0.000584802 0)
(0.022231 0.000669776 0)
(0.0218321 0.00075719 0)
(0.0213681 0.000847149 0)
(0.0208367 0.000939669 0)
(0.0202355 0.00103465 0)
(0.0195619 0.0011319 0)
(0.0188135 0.0012311 0)
(0.0179878 0.00133198 0)
(0.0170825 0.00143438 0)
(0.0160945 0.0015386 0)
(0.0150202 0.00164586 0)
(0.0138539 0.00175926 0)
(0.0125856 0.00188562 0)
(0.0111979 0.00203971 0)
(0.0096596 0.00225563 0)
(0.00790721 0.00262521 0)
(0.00599835 0.003457 0)
(0.00370509 0.00524281 0)
(-0.000986586 0.00536303 0)
(-0.00454038 0.00217411 0)
(-0.00597889 0.000838332 0)
(-0.00669386 0.000569501 0)
(-0.00720905 0.000549265 0)
(-0.00767961 0.000586958 0)
(-0.00814832 0.000628839 0)
(-0.00862215 0.000658035 0)
(-0.00909442 0.000668573 0)
(-0.00955257 0.000657386 0)
(-0.00998092 0.00062234 0)
(-0.0103622 0.000561729 0)
(-0.0106788 0.000474584 0)
(-0.010913 0.000360103 0)
(-0.0110481 0.000217239 0)
(-0.0110668 4.40688e-05 0)
(-0.0109469 -0.000162869 0)
(-0.010684 -0.000404913 0)
(-0.0102571 -0.000681612 0)
(-0.00964727 -0.000995017 0)
(-0.00883252 -0.00134957 0)
(-0.00778558 -0.00175109 0)
(-0.00647375 -0.0022084 0)
(-0.00487402 -0.002737 0)
(-0.0030268 -0.00334966 0)
(-0.00114684 -0.00399136 0)
(0.0012506 -0.00380768 0)
(0.00212534 0.00010135 0)
(0.00265673 0.00434493 0)
(-0.00246799 0.00919064 0)
(-0.00372645 0.00583263 0)
(-0.00548751 0.00367346 0)
(-0.00653837 0.00229532 0)
(-0.00721717 0.00125586 0)
(-0.00753858 0.000376721 0)
(-0.00751945 -0.000402935 0)
(-0.00719417 -0.00110036 0)
(-0.00662756 -0.0017171 0)
(-0.00587703 -0.00226255 0)
(-0.00495827 -0.0027991 0)
(-0.00383336 -0.00337402 0)
(-0.00250269 -0.00393749 0)
(-0.00106471 -0.00439885 0)
(0.000571315 -0.00462996 0)
(0.00197408 -0.00445779 0)
(0.0033243 -0.00413323 0)
(0.0046572 -0.00379939 0)
(0.0059353 -0.00349131 0)
(0.0071405 -0.00321557 0)
(0.00826966 -0.00297071 0)
(0.00932693 -0.00275352 0)
(0.0103192 -0.00256104 0)
(0.0112538 -0.00239049 0)
(0.0121369 -0.00223895 0)
(0.0129739 -0.00210346 0)
(0.0137693 -0.00198119 0)
(0.0145267 -0.00186956 0)
(0.0152491 -0.00176631 0)
(0.0159386 -0.00166942 0)
(0.0165968 -0.00157713 0)
(0.0172246 -0.0014879 0)
(0.0178227 -0.00140038 0)
(0.0183913 -0.0013134 0)
(0.0189301 -0.00122594 0)
(0.0194387 -0.00113717 0)
(0.0199163 -0.00104638 0)
(0.0203619 -0.000953038 0)
(0.0207745 -0.000856728 0)
(0.0211529 -0.000757194 0)
(0.0214958 -0.000654302 0)
(0.0218021 -0.000548041 0)
(0.0220705 -0.000438491 0)
(0.0222996 -0.000325744 0)
(0.0224883 -0.000209576 0)
(0.0226352 -8.94738e-05 0)
(0.0227411 3.48665e-05 0)
(0.0227996 0.000161999 0)
(0.0228101 0.000291568 0)
(0.022772 0.000423877 0)
(0.0226837 0.000559347 0)
(0.0225437 0.000698367 0)
(0.02235 0.000841335 0)
(0.0221007 0.000988656 0)
(0.0217934 0.00114072 0)
(0.0214257 0.00129786 0)
(0.0209947 0.00146025 0)
(0.0204971 0.00162793 0)
(0.0199297 0.00180076 0)
(0.019289 0.00197848 0)
(0.0185712 0.00216084 0)
(0.0177725 0.0023479 0)
(0.0168886 0.00254052 0)
(0.0159144 0.00274126 0)
(0.0148429 0.00295588 0)
(0.013664 0.00319624 0)
(0.0123627 0.00348608 0)
(0.010918 0.00387366 0)
(0.00929948 0.00446448 0)
(0.00752487 0.00554744 0)
(0.00579632 0.00768859 0)
(0.00290732 0.00911336 0)
(-0.00105464 0.00578687 0)
(-0.00393866 0.00213815 0)
(-0.00501742 0.00125554 0)
(-0.00571719 0.00109653 0)
(-0.00631267 0.00109204 0)
(-0.00687256 0.00112197 0)
(-0.0074184 0.00114241 0)
(-0.00794967 0.00113513 0)
(-0.008456 0.00109127 0)
(-0.00892239 0.00100603 0)
(-0.00933169 0.000876688 0)
(-0.00966654 0.000702352 0)
(-0.00991081 0.00048345 0)
(-0.0100494 0.000220967 0)
(-0.0100664 -8.37148e-05 0)
(-0.00995053 -0.000430158 0)
(-0.00969759 -0.000824288 0)
(-0.00929398 -0.0012684 0)
(-0.00872756 -0.00176621 0)
(-0.0079825 -0.00232355 0)
(-0.00703965 -0.00294637 0)
(-0.00587936 -0.00363907 0)
(-0.00449411 -0.00439971 0)
(-0.00292473 -0.00519458 0)
(-0.0013329 -0.0058579 0)
(0.000340475 -0.00554599 0)
(0.0011872 -0.000250447 0)
(0.00204048 0.00616732 0)
(-0.0019793 0.0117666 0)
(-0.00290829 0.00764159 0)
(-0.00443516 0.00493661 0)
(-0.00533621 0.00316395 0)
(-0.00595265 0.00177851 0)
(-0.00623207 0.000567673 0)
(-0.00617447 -0.000533531 0)
(-0.00582137 -0.0015188 0)
(-0.00524384 -0.00234711 0)
(-0.00453451 -0.00303533 0)
(-0.00371384 -0.00372092 0)
(-0.00271048 -0.00450286 0)
(-0.00153242 -0.00526458 0)
(-0.00024852 -0.00582181 0)
(0.00107122 -0.00594272 0)
(0.00221754 -0.00572258 0)
(0.00339309 -0.00538366 0)
(0.0045514 -0.0050104 0)
(0.00566903 -0.00464347 0)
(0.0067341 -0.0043009 0)
(0.00774313 -0.00398967 0)
(0.00869801 -0.00371094 0)
(0.00960318 -0.00346304 0)
(0.0104636 -0.00324301 0)
(0.0112839 -0.00304728 0)
(0.0120677 -0.00287212 0)
(0.0128182 -0.00271389 0)
(0.0135379 -0.00256927 0)
(0.0142286 -0.00243528 0)
(0.0148915 -0.0023093 0)
(0.0155277 -0.00218902 0)
(0.0161376 -0.00207243 0)
(0.0167212 -0.00195775 0)
(0.0172784 -0.00184343 0)
(0.0178087 -0.00172816 0)
(0.0183111 -0.00161083 0)
(0.0187849 -0.00149051 0)
(0.0192287 -0.00136649 0)
(0.0196415 -0.00123829 0)
(0.0200219 -0.00110555 0)
(0.0203686 -0.000968152 0)
(0.0206803 -0.000826067 0)
(0.020956 -0.000679384 0)
(0.0211945 -0.000528208 0)
(0.0213948 -0.000372559 0)
(0.0215561 -0.000212367 0)
(0.0216774 -4.69957e-05 0)
(0.0217597 0.000123151 0)
(0.0217982 0.000297247 0)
(0.0217923 0.000475373 0)
(0.0217409 0.000657973 0)
(0.0216425 0.000845674 0)
(0.0214951 0.00103917 0)
(0.0212971 0.0012392 0)
(0.021046 0.00144652 0)
(0.0207392 0.00166185 0)
(0.0203738 0.00188573 0)
(0.0199463 0.00211851 0)
(0.019453 0.00236033 0)
(0.01889 0.00261114 0)
(0.0182532 0.0028709 0)
(0.0175384 0.00313995 0)
(0.0167413 0.00341966 0)
(0.0158572 0.0037136 0)
(0.014881 0.00402936 0)
(0.0138066 0.00438184 0)
(0.0126271 0.00479903 0)
(0.0113366 0.00533313 0)
(0.0099338 0.00608476 0)
(0.0084323 0.00729683 0)
(0.00706889 0.00953905 0)
(0.00524237 0.0117049 0)
(0.00246214 0.0100385 0)
(-0.00165115 0.00455277 0)
(-0.00350436 0.00218613 0)
(-0.00425996 0.00178839 0)
(-0.00494636 0.00171146 0)
(-0.00558086 0.00171588 0)
(-0.00619023 0.00172045 0)
(-0.00677389 0.0016914 0)
(-0.00732036 0.00161304 0)
(-0.00781425 0.00147782 0)
(-0.00823931 0.00128254 0)
(-0.00858018 0.00102663 0)
(-0.008824 0.00071148 0)
(-0.00896037 0.000339326 0)
(-0.00897882 -8.77175e-05 0)
(-0.00887243 -0.000569167 0)
(-0.00864102 -0.00110345 0)
(-0.00827728 -0.00169537 0)
(-0.00777309 -0.00235175 0)
(-0.00711816 -0.00308052 0)
(-0.00630109 -0.00388801 0)
(-0.00531284 -0.00477426 0)
(-0.00415571 -0.00572055 0)
(-0.00286615 -0.00664982 0)
(-0.00157508 -0.00730126 0)
(-0.00030847 -0.00683954 0)
(0.000578896 -0.000238392 0)
(0.00166224 0.00734986 0)
(-0.00162825 0.0137782 0)
(-0.00233534 0.00907655 0)
(-0.00366695 0.00598484 0)
(-0.0044262 0.00390444 0)
(-0.00496434 0.00220434 0)
(-0.00518341 0.000667984 0)
(-0.00507725 -0.00074514 0)
(-0.00468646 -0.00199782 0)
(-0.00407928 -0.00300532 0)
(-0.00340058 -0.00376477 0)
(-0.00266935 -0.00454587 0)
(-0.00177307 -0.00551642 0)
(-0.00074228 -0.00643208 0)
(0.000369951 -0.00698189 0)
(0.00136114 -0.00702679 0)
(0.00234885 -0.006805 0)
(0.0033453 -0.0064578 0)
(0.00432889 -0.00605838 0)
(0.00528603 -0.00565255 0)
(0.00620952 -0.00526603 0)
(0.007097 -0.00491093 0)
(0.00794935 -0.00459099 0)
(0.00876895 -0.00430538 0)
(0.0095585 -0.00405102 0)
(0.0103203 -0.00382386 0)
(0.0110563 -0.00361962 0)
(0.0117677 -0.00343412 0)
(0.0124555 -0.00326358 0)
(0.0131203 -0.00310459 0)
(0.0137623 -0.00295415 0)
(0.0143816 -0.00280964 0)
(0.014978 -0.00266871 0)
(0.0155509 -0.00252932 0)
(0.0160996 -0.00238966 0)
(0.0166232 -0.00224818 0)
(0.0171205 -0.00210357 0)
(0.0175902 -0.00195477 0)
(0.0180308 -0.00180098 0)
(0.0184408 -0.00164164 0)
(0.0188188 -0.00147646 0)
(0.0191633 -0.00130534 0)
(0.0194731 -0.00112838 0)
(0.019747 -0.000945827 0)
(0.0199843 -0.000757945 0)
(0.0201842 -0.000564978 0)
(0.0203464 -0.000367032 0)
(0.0204702 -0.000163892 0)
(0.0205592 4.55411e-05 0)
(0.0206079 0.000261071 0)
(0.020617 0.000482398 0)
(0.0205857 0.000709748 0)
(0.0205127 0.000943837 0)
(0.0203964 0.00118556 0)
(0.020235 0.00143598 0)
(0.0200263 0.0016962 0)
(0.0197675 0.00196729 0)
(0.0194554 0.0022502 0)
(0.0190861 0.00254561 0)
(0.0186555 0.00285394 0)
(0.0181591 0.00317531 0)
(0.0175925 0.00350978 0)
(0.0169511 0.00385766 0)
(0.0162311 0.00422031 0)
(0.0154287 0.0046013 0)
(0.0145415 0.00500834 0)
(0.0135679 0.00545632 0)
(0.0125088 0.00597245 0)
(0.0113696 0.00660509 0)
(0.0101653 0.0074422 0)
(0.0089119 0.00868214 0)
(0.00780128 0.0108564 0)
(0.00659398 0.0134303 0)
(0.00467592 0.0130619 0)
(0.0013231 0.00865755 0)
(-0.00218016 0.00343017 0)
(-0.00305247 0.0025102 0)
(-0.0037404 0.00237567 0)
(-0.00440563 0.00235285 0)
(-0.00504862 0.00233162 0)
(-0.00566003 0.00226644 0)
(-0.0062252 0.00213678 0)
(-0.00672832 0.00193387 0)
(-0.00715464 0.00165557 0)
(-0.00749159 0.00130373 0)
(-0.00772979 0.000882832 0)
(-0.00786262 0.000398871 0)
(-0.00788402 -0.000141913 0)
(-0.00779196 -0.000736627 0)
(-0.00758819 -0.00138893 0)
(-0.00726865 -0.00210375 0)
(-0.0068298 -0.00288911 0)
(-0.00626654 -0.0037538 0)
(-0.00557401 -0.00470325 0)
(-0.00475107 -0.00573217 0)
(-0.00380548 -0.00680801 0)
(-0.00276563 -0.00782536 0)
(-0.0017431 -0.00846529 0)
(-0.000680783 -0.00779262 0)
(3.59886e-05 -0.00132662 0)
(0.00144197 0.00809091 0)
(-0.0013636 0.0153926 0)
(-0.00191399 0.0102419 0)
(-0.00308766 0.00686199 0)
(-0.00372584 0.00453801 0)
(-0.00419646 0.00256672 0)
(-0.00437001 0.000733665 0)
(-0.00422951 -0.000984347 0)
(-0.00379749 -0.00251489 0)
(-0.00315422 -0.00368366 0)
(-0.00251089 -0.00444164 0)
(-0.00185362 -0.00528205 0)
(-0.00104169 -0.00642309 0)
(-0.000139286 -0.00742514 0)
(0.000730454 -0.00789801 0)
(0.00153056 -0.00792556 0)
(0.00235053 -0.00771042 0)
(0.00317412 -0.00735754 0)
(0.00399267 -0.00694192 0)
(0.0048005 -0.00651354 0)
(0.00559443 -0.00610192 0)
(0.00637319 -0.00572163 0)
(0.00713666 -0.00537761 0)
(0.00788506 -0.00506929 0)
(0.00861848 -0.00479337 0)
(0.00933672 -0.00454544 0)
(0.0100393 -0.00432086 0)
(0.0107255 -0.00411521 0)
(0.0113946 -0.00392449 0)
(0.0120458 -0.00374513 0)
(0.0126783 -0.00357396 0)
(0.0132911 -0.00340817 0)
(0.0138834 -0.00324527 0)
(0.0144539 -0.00308299 0)
(0.0150015 -0.00291933 0)
(0.0155245 -0.00275256 0)
(0.0160215 -0.00258118 0)
(0.0164906 -0.00240403 0)
(0.0169299 -0.00222024 0)
(0.0173376 -0.00202926 0)
(0.017712 -0.00183087 0)
(0.0180512 -0.00162512 0)
(0.018354 -0.00141232 0)
(0.0186192 -0.00119296 0)
(0.0188461 -0.000967629 0)
(0.0190342 -0.000736908 0)
(0.0191838 -0.000501269 0)
(0.019295 -0.000260972 0)
(0.0193701 -1.51285e-05 0)
(0.0194097 0.000237108 0)
(0.0194134 0.000495782 0)
(0.0193814 0.000761206 0)
(0.0193134 0.00103429 0)
(0.0192088 0.00131636 0)
(0.0190662 0.00160901 0)
(0.0188838 0.00191396 0)
(0.0186589 0.00223293 0)
(0.0183882 0.00256747 0)
(0.0180676 0.00291883 0)
(0.0176924 0.00328781 0)
(0.0172574 0.00367474 0)
(0.0167574 0.00407959 0)
(0.0161874 0.0045023 0)
(0.0155433 0.00494349 0)
(0.0148219 0.00540562 0)
(0.0140223 0.00589472 0)
(0.0131463 0.00642322 0)
(0.0121996 0.00701422 0)
(0.0111936 0.00770903 0)
(0.0101506 0.00858265 0)
(0.0090908 0.00980018 0)
(0.00815783 0.011841 0)
(0.00731288 0.014596 0)
(0.00599697 0.015254 0)
(0.00347428 0.0121027 0)
(-0.00016823 0.00628444 0)
(-0.00208176 0.00331415 0)
(-0.0026722 0.0030596 0)
(-0.0033526 0.00301179 0)
(-0.00400545 0.00296445 0)
(-0.00462426 0.00285946 0)
(-0.00519296 0.00267406 0)
(-0.00569557 0.00240062 0)
(-0.00611859 0.00203937 0)
(-0.0064514 0.00159502 0)
(-0.00668661 0.00107457 0)
(-0.00681945 0.000486087 0)
(-0.00684668 -0.000162508 0)
(-0.00676923 -0.000866612 0)
(-0.00659185 -0.00162706 0)
(-0.0063144 -0.00244995 0)
(-0.00593669 -0.00334488 0)
(-0.00545714 -0.00432133 0)
(-0.00487508 -0.00538305 0)
(-0.00419441 -0.0065192 0)
(-0.00342604 -0.00768727 0)
(-0.00258793 -0.00876945 0)
(-0.00177724 -0.00942622 0)
(-0.000797018 -0.00867677 0)
(-0.000205352 -0.00234458 0)
(0.00128988 0.00863432 0)
(-0.00115837 0.0167386 0)
(-0.00159365 0.0112213 0)
(-0.00263451 0.00760804 0)
(-0.00316814 0.00508029 0)
(-0.00358297 0.00287045 0)
(-0.00372525 0.000761424 0)
(-0.00356121 -0.00125904 0)
(-0.00308777 -0.00307646 0)
(-0.00242685 -0.00437535 0)
(-0.00184907 -0.00506108 0)
(-0.0012522 -0.00595415 0)
(-0.000510632 -0.00723411 0)
(0.000247373 -0.00822588 0)
(0.00090765 -0.00863068 0)
(0.00156079 -0.00865994 0)
(0.00221952 -0.00844781 0)
(0.00288469 -0.00809467 0)
(0.0035572 -0.00767654 0)
(0.00423737 -0.0072446 0)
(0.00492483 -0.00682893 0)
(0.0056185 -0.00644418 0)
(0.00631656 -0.00609501 0)
(0.00701654 -0.00578044 0)
(0.00771558 -0.00549678 0)
(0.00841061 -0.00523937 0)
(0.00909867 -0.00500351 0)
(0.009777 -0.00478486 0)
(0.0104432 -0.00457953 0)
(0.0110951 -0.00438409 0)
(0.0117309 -0.00419546 0)
(0.0123489 -0.00401086 0)
(0.0129474 -0.00382772 0)
(0.0135249 -0.00364369 0)
(0.0140796 -0.00345661 0)
(0.0146094 -0.00326458 0)
(0.0151123 -0.00306599 0)
(0.015586 -0.00285956 0)
(0.0160282 -0.0026444 0)
(0.0164367 -0.00242 0)
(0.0168091 -0.00218629 0)
(0.0171435 -0.00194355 0)
(0.0174381 -0.00169243 0)
(0.0176917 -0.00143379 0)
(0.0179033 -0.00116871 0)
(0.0180728 -0.000898292 0)
(0.0182005 -0.00062356 0)
(0.0182873 -0.000345323 0)
(0.0183344 -6.35771e-05 0)
(0.0183462 0.000222961 0)
(0.0183234 0.000515211 0)
(0.0182679 0.000813936 0)
(0.0181811 0.00112037 0)
(0.0180637 0.00143637 0)
(0.0179159 0.00176418 0)
(0.0177366 0.00210631 0)
(0.0175243 0.00246533 0)
(0.017276 0.00284368 0)
(0.0169877 0.00324342 0)
(0.0166544 0.00366597 0)
(0.0162705 0.00411201 0)
(0.0158297 0.00458145 0)
(0.0153263 0.00507368 0)
(0.0147554 0.00558817 0)
(0.0141136 0.00612546 0)
(0.0134003 0.00668884 0)
(0.0126183 0.00728683 0)
(0.0117754 0.00793711 0)
(0.0108855 0.0086733 0)
(0.00997283 0.0095593 0)
(0.00906093 0.0107365 0)
(0.00825502 0.0126314 0)
(0.00761641 0.0154207 0)
(0.00670733 0.0168534 0)
(0.00481769 0.0148119 0)
(0.00177746 0.00965805 0)
(-0.00107882 0.00446658 0)
(-0.00179386 0.00372648 0)
(-0.00243235 0.00366505 0)
(-0.00307165 0.00359695 0)
(-0.00368373 0.00345248 0)
(-0.00424738 0.00320944 0)
(-0.00474522 0.00286305 0)
(-0.00516376 0.00241689 0)
(-0.00549291 0.00187899 0)
(-0.00572594 0.00125955 0)
(-0.00585901 0.000569764 0)
(-0.00589151 -0.000179355 0)
(-0.0058279 -0.000980757 0)
(-0.00567532 -0.00183496 0)
(-0.00543676 -0.00274907 0)
(-0.00511413 -0.00373458 0)
(-0.00470741 -0.00480162 0)
(-0.00421765 -0.00595168 0)
(-0.00365124 -0.00716833 0)
(-0.00302116 -0.00840203 0)
(-0.0023331 -0.00953377 0)
(-0.00168377 -0.0102319 0)
(-0.000755397 -0.00952384 0)
(-0.000287703 -0.00328615 0)
(0.00116881 0.0090927 0)
(-0.000996427 0.0178862 0)
(-0.00134408 0.0120598 0)
(-0.00226675 0.00824631 0)
(-0.00270307 0.00554362 0)
(-0.00306436 0.00312573 0)
(-0.00317894 0.000764209 0)
(-0.00299362 -0.00155427 0)
(-0.00247803 -0.00366538 0)
(-0.00184539 -0.00503313 0)
(-0.00137292 -0.00560048 0)
(-0.000829017 -0.00657403 0)
(-0.000164093 -0.00794261 0)
(0.000423448 -0.00884286 0)
(0.000941462 -0.00921744 0)
(0.00145166 -0.00924187 0)
(0.00196469 -0.00903308 0)
(0.00249371 -0.00869021 0)
(0.00304716 -0.00828731 0)
(0.00362924 -0.00787308 0)
(0.00424043 -0.00747521 0)
(0.00487832 -0.00710635 0)
(0.00553843 -0.00676973 0)
(0.00621507 -0.00646346 0)
(0.00690215 -0.00618352 0)
(0.00759372 -0.00592535 0)
(0.00828444 -0.00568466 0)
(0.00896969 -0.00545762 0)
(0.00964565 -0.00524091 0)
(0.0103092 -0.00503155 0)
(0.0109577 -0.00482682 0)
(0.011589 -0.00462413 0)
(0.012201 -0.00442097 0)
(0.0127918 -0.00421495 0)
(0.0133592 -0.00400377 0)
(0.0139008 -0.00378538 0)
(0.0144142 -0.00355801 0)
(0.0148969 -0.00332026 0)
(0.0153459 -0.00307121 0)
(0.0157586 -0.00281042 0)
(0.0161323 -0.00253796 0)
(0.0164646 -0.00225441 0)
(0.0167534 -0.00196077 0)
(0.016997 -0.0016584 0)
(0.0171943 -0.00134895 0)
(0.0173448 -0.00103419 0)
(0.0174487 -0.000715853 0)
(0.0175073 -0.000395488 0)
(0.0175223 -7.41055e-05 0)
(0.0174972 0.000248892 0)
(0.0174355 0.000574588 0)
(0.0173402 0.000904175 0)
(0.0172148 0.0012394 0)
(0.0170621 0.00158276 0)
(0.0168843 0.00193738 0)
(0.0166826 0.00230686 0)
(0.016457 0.00269503 0)
(0.0162063 0.00310567 0)
(0.0159272 0.00354213 0)
(0.0156153 0.00400694 0)
(0.0152648 0.00450151 0)
(0.014869 0.00502593 0)
(0.014421 0.00557909 0)
(0.0139149 0.00615913 0)
(0.0133463 0.00676431 0)
(0.0127136 0.00739458 0)
(0.0120194 0.00805395 0)
(0.0112713 0.00875424 0)
(0.010483 0.00952162 0)
(0.00967803 0.0104103 0)
(0.00888119 0.011544 0)
(0.0081685 0.0133016 0)
(0.00764307 0.0160399 0)
(0.00699297 0.018033 0)
(0.00556754 0.0169554 0)
(0.00309956 0.0125112 0)
(0.000261269 0.00667551 0)
(-0.00108934 0.00439473 0)
(-0.00163071 0.00429495 0)
(-0.00225067 0.00421568 0)
(-0.00284893 0.00403661 0)
(-0.00340293 0.00373828 0)
(-0.00389377 0.00332039 0)
(-0.00430715 0.00279073 0)
(-0.00463259 0.00216115 0)
(-0.00486324 0.00144542 0)
(-0.00499566 0.000658265 0)
(-0.00503177 -0.000185858 0)
(-0.00498008 -0.00107663 0)
(-0.00484988 -0.00201302 0)
(-0.00464662 -0.00300464 0)
(-0.00437273 -0.00406618 0)
(-0.00402785 -0.00520879 0)
(-0.00361281 -0.00643121 0)
(-0.00313458 -0.00771115 0)
(-0.00260836 -0.00899345 0)
(-0.0020269 -0.0101636 0)
(-0.00150404 -0.0109162 0)
(-0.000632095 -0.0102908 0)
(-0.000311269 -0.00411865 0)
(0.0010655 0.00949077 0)
(-0.000866281 0.018875 0)
(-0.001144 0.0127806 0)
(-0.00195763 0.00878708 0)
(-0.00229849 0.00593122 0)
(-0.00260145 0.00333319 0)
(-0.00268306 0.000744228 0)
(-0.00247374 -0.00186335 0)
(-0.00191656 -0.0042604 0)
(-0.00138258 -0.00559305 0)
(-0.00103995 -0.00604173 0)
(-0.000550081 -0.00713685 0)
(4.57291e-06 -0.00851335 0)
(0.000445519 -0.00932283 0)
(0.000837489 -0.00966851 0)
(0.00121578 -0.00968517 0)
(0.00160458 -0.00948816 0)
(0.00202579 -0.00917238 0)
(0.0024922 -0.00880591 0)
(0.00300898 -0.00843161 0)
(0.00357523 -0.00807238 0)
(0.00418576 -0.00773747 0)
(0.00483269 -0.00742801 0)
(0.00550691 -0.00714126 0)
(0.00619924 -0.0068732 0)
(0.00690119 -0.00661992 0)
(0.00760544 -0.0063781 0)
(0.00830599 -0.00614498 0)
(0.00899805 -0.00591817 0)
(0.00967786 -0.00569553 0)
(0.0103425 -0.00547488 0)
(0.0109895 -0.00525397 0)
(0.0116168 -0.00503042 0)
(0.0122221 -0.00480179 0)
(0.0128032 -0.00456566 0)
(0.0133576 -0.00431977 0)
(0.0138827 -0.00406216 0)
(0.0143754 -0.0037913 0)
(0.0148329 -0.00350619 0)
(0.015252 -0.00320643 0)
(0.0156297 -0.00289225 0)
(0.0159632 -0.00256448 0)
(0.01625 -0.00222451 0)
(0.0164881 -0.0018742 0)
(0.0166758 -0.00151581 0)
(0.0168122 -0.00115185 0)
(0.0168972 -0.000784967 0)
(0.0169317 -0.000417716 0)
(0.0169176 -5.21539e-05 0)
(0.0168574 0.000311708 0)
(0.0167555 0.000674259 0)
(0.0166161 0.00103663 0)
(0.0164438 0.00140069 0)
(0.0162434 0.00176925 0)
(0.0160196 0.00214613 0)
(0.015776 0.002536 0)
(0.0155153 0.00294416 0)
(0.0152386 0.00337609 0)
(0.0149449 0.00383699 0)
(0.0146313 0.00433112 0)
(0.0142927 0.00486129 0)
(0.0139225 0.00542836 0)
(0.0135133 0.00603112 0)
(0.0130579 0.00666656 0)
(0.0125505 0.00733069 0)
(0.0119882 0.00801998 0)
(0.0113719 0.0087338 0)
(0.0107077 0.0094781 0)
(0.0100078 0.010272 0)
(0.00929305 0.011161 0)
(0.00858761 0.0122546 0)
(0.00794603 0.0138922 0)
(0.00748057 0.0165383 0)
(0.00698708 0.0189252 0)
(0.00589399 0.0186608 0)
(0.00389435 0.0149141 0)
(0.00138929 0.00906607 0)
(-0.000368005 0.00528572 0)
(-0.000961804 0.00489479 0)
(-0.00154383 0.00481398 0)
(-0.00212459 0.00460724 0)
(-0.00266661 0.00425792 0)
(-0.00314899 0.00377126 0)
(-0.00355613 0.00315991 0)
(-0.00387663 0.00243996 0)
(-0.00410312 0.0016295 0)
(-0.0042325 0.000747817 0)
(-0.00426941 -0.000185969 0)
(-0.00422752 -0.0011574 0)
(-0.00411753 -0.00216446 0)
(-0.00394635 -0.00322138 0)
(-0.00371536 -0.00434767 0)
(-0.00342243 -0.00555567 0)
(-0.00306715 -0.00684063 0)
(-0.00265603 -0.00817372 0)
(-0.00220735 -0.00949431 0)
(-0.00170141 -0.0106934 0)
(-0.00128082 -0.0115009 0)
(-0.000475074 -0.010958 0)
(-0.00031056 -0.00481643 0)
(0.000971877 0.00983171 0)
(-0.000759814 0.0197321 0)
(-0.000979609 0.0133983 0)
(-0.00169241 0.00923528 0)
(-0.00193987 0.00624129 0)
(-0.00217932 0.00348732 0)
(-0.00221952 0.000697526 0)
(-0.00197947 -0.00218271 0)
(-0.0013934 -0.00482867 0)
(-0.00103526 -0.00599887 0)
(-0.000820661 -0.00638133 0)
(-0.000394895 -0.00762305 0)
(2.53426e-05 -0.00894185 0)
(0.0003402 -0.00968022 0)
(0.000609877 -0.00999292 0)
(0.000873429 -0.0100093 0)
(0.00116424 -0.00984072 0)
(0.00150879 -0.00957342 0)
(0.00192027 -0.00926565 0)
(0.0024019 -0.00895181 0)
(0.00294961 -0.00864865 0)
(0.00355463 -0.00836145 0)
(0.00420567 -0.00808935 0)
(0.00489051 -0.0078291 0)
(0.00559743 -0.00757731 0)
(0.00631596 -0.00733133 0)
(0.0070374 -0.00708941 0)
(0.00775484 -0.00685032 0)
(0.00846299 -0.00661302 0)
(0.00915789 -0.00637641 0)
(0.0098366 -0.00613906 0)
(0.0104967 -0.00589911 0)
(0.0111362 -0.00565436 0)
(0.0117529 -0.00540229 0)
(0.0123446 -0.00514032 0)
(0.0129088 -0.00486594 0)
(0.0134428 -0.00457695 0)
(0.0139436 -0.00427165 0)
(0.0144081 -0.00394892 0)
(0.014833 -0.00360839 0)
(0.0152151 -0.00325039 0)
(0.0155516 -0.00287597 0)
(0.0158395 -0.00248683 0)
(0.0160766 -0.00208529 0)
(0.0162606 -0.00167415 0)
(0.0163902 -0.00125662 0)
(0.0164647 -0.000836203 0)
(0.0164843 -0.000416564 0)
(0.0164496 -7.17294e-07 0)
(0.0163633 0.000410147 0)
(0.0162291 0.000815368 0)
(0.0160514 0.0012154 0)
(0.0158355 0.0016117 0)
(0.0155874 0.00200691 0)
(0.0153136 0.00240509 0)
(0.01502 0.00281169 0)
(0.0147122 0.00323332 0)
(0.0143941 0.00367731 0)
(0.0140677 0.00415107 0)
(0.0137325 0.00466126 0)
(0.0133855 0.00521284 0)
(0.0130211 0.00580828 0)
(0.012632 0.00644702 0)
(0.0122104 0.00712548 0)
(0.0117492 0.00783775 0)
(0.0112435 0.00857704 0)
(0.0106924 0.00933818 0)
(0.0100996 0.0101215 0)
(0.00947481 0.0109393 0)
(0.00883564 0.0118294 0)
(0.00820397 0.0128899 0)
(0.00761857 0.0144282 0)
(0.00718364 0.0169703 0)
(0.00677629 0.0196283 0)
(0.00591081 0.0200329 0)
(0.00427503 0.0169187 0)
(0.00213511 0.0112084 0)
(0.00038563 0.00655064 0)
(-0.000417076 0.0054763 0)
(-0.000947684 0.00538932 0)
(-0.00151142 0.00516216 0)
(-0.00204028 0.00476658 0)
(-0.00251281 0.004214 0)
(-0.00291191 0.00352255 0)
(-0.00322511 0.00271317 0)
(-0.0034445 0.00180913 0)
(-0.00356747 0.000835646 0)
(-0.00360188 -0.000182196 0)
(-0.00356775 -0.00122527 0)
(-0.00347612 -0.00229169 0)
(-0.00333411 -0.00340337 0)
(-0.00314053 -0.00458608 0)
(-0.00289084 -0.00585309 0)
(-0.00258317 -0.00719501 0)
(-0.00222335 -0.00857554 0)
(-0.00183356 -0.00992827 0)
(-0.00138309 -0.0111472 0)
(-0.00104516 -0.0119995 0)
(-0.000313827 -0.0115137 0)
(-0.000295574 -0.00537553 0)
(0.000882037 0.0101198 0)
(-0.000671742 0.0204792 0)
(-0.000843566 0.0139259 0)
(-0.00146576 0.0095966 0)
(-0.00162637 0.00647363 0)
(-0.00180427 0.00358406 0)
(-0.00179983 0.000622637 0)
(-0.00150805 -0.00250675 0)
(-0.000938903 -0.00530765 0)
(-0.000806991 -0.00622173 0)
(-0.000699678 -0.00662859 0)
(-0.000353087 -0.00800522 0)
(-7.20617e-05 -0.00923893 0)
(0.000122137 -0.00991556 0)
(0.000278853 -0.0102038 0)
(0.00044953 -0.0102381 0)
(0.000670636 -0.0101207 0)
(0.000967869 -0.00992456 0)
(0.0013512 -0.0096955 0)
(0.00182017 -0.00945836 0)
(0.00236684 -0.00922368 0)
(0.00297915 -0.0089931 0)
(0.0036429 -0.00876412 0)
(0.00434352 -0.0085336 0)
(0.00506737 -0.00829936 0)
(0.00580258 -0.00806063 0)
(0.00653954 -0.0078177 0)
(0.00727086 -0.00757128 0)
(0.0079911 -0.00732198 0)
(0.00869639 -0.00706997 0)
(0.00938395 -0.00681462 0)
(0.0100517 -0.00655455 0)
(0.0106976 -0.00628765 0)
(0.01132 -0.00601135 0)
(0.0119167 -0.00572283 0)
(0.0124852 -0.0054193 0)
(0.013023 -0.00509828 0)
(0.0135271 -0.00475787 0)
(0.0139944 -0.00439684 0)
(0.0144218 -0.00401481 0)
(0.0148062 -0.00361219 0)
(0.0151446 -0.0031902 0)
(0.0154342 -0.00275079 0)
(0.0156725 -0.00229658 0)
(0.0158572 -0.00183077 0)
(0.0159862 -0.00135713 0)
(0.0160581 -0.000879878 0)
(0.0160727 -0.000403622 0)
(0.0160291 6.76399e-05 0)
(0.0159289 0.000531238 0)
(0.015775 0.000985439 0)
(0.0155714 0.00142952 0)
(0.0153231 0.00186392 0)
(0.0150368 0.00229052 0)
(0.0147197 0.00271304 0)
(0.0143796 0.00313709 0)
(0.0140241 0.0035701 0)
(0.0136598 0.00402096 0)
(0.0132919 0.00449933 0)
(0.0129231 0.00501458 0)
(0.012553 0.00557456 0)
(0.0121781 0.00618422 0)
(0.0117923 0.00684466 0)
(0.0113879 0.00755261 0)
(0.010957 0.00830093 0)
(0.010493 0.00908007 0)
(0.00999298 0.00988067 0)
(0.00945826 0.0106977 0)
(0.00889565 0.0115374 0)
(0.008319 0.0124303 0)
(0.00774722 0.0134653 0)
(0.00720713 0.0149256 0)
(0.00678636 0.0173705 0)
(0.00641708 0.0202162 0)
(0.00569828 0.0211622 0)
(0.00433979 0.0185875 0)
(0.00253997 0.0130541 0)
(0.000970792 0.00788129 0)
(8.40787e-05 0.00612903 0)
(-0.000466405 0.00594312 0)
(-0.00100725 0.00570081 0)
(-0.00152239 0.005263 0)
(-0.00198355 0.00464665 0)
(-0.00237209 0.00387602 0)
(-0.00267469 0.00297753 0)
(-0.00288317 0.00198067 0)
(-0.0029958 0.000918114 0)
(-0.00302433 -0.000177489 0)
(-0.00299635 -0.00128214 0)
(-0.0029217 -0.0023968 0)
(-0.00280604 -0.00355447 0)
(-0.00264455 -0.00478795 0)
(-0.00243022 -0.00611028 0)
(-0.00216038 -0.00750601 0)
(-0.00184054 -0.00893043 0)
(-0.00149686 -0.0103111 0)
(-0.00109037 -0.0115417 0)
(-0.000817794 -0.0124228 0)
(-0.000166612 -0.011957 0)
(-0.000267549 -0.00580485 0)
(0.000793052 0.0103622 0)