/*--------------------------------*- C++ -*----------------------------------*\
| =========                 |                                                 |
| \\      /  F ield         | OpenFOAM: The Open Source CFD Toolbox           |
|  \\    /   O peration     | Version:  4.1                                   |
|   \\  /    A nd           | Web:      www.OpenFOAM.org                      |
|    \\/     M anipulation  |                                                 |
\*---------------------------------------------------------------------------*/
FoamFile
{
    version     2.0;
    format      ascii;
    class       volVectorField;
    location    "1700";
    object      U;
}
// * * * * * * * * * * * * * * * * * * * * * * * * * * * * * * * * * * * * * //

dimensions      [0 1 -1 0 0 0 0];

internalField   nonuniform List<vector> 
1600
(
(0.00125061 -0.000688621 0)
(0.0025488 -0.000368597 0)
(0.00317064 -0.000114737 0)
(0.0039068 -0.000304901 0)
(0.00606135 -0.000925906 0)
(0.00952462 0.000287352 0)
(0.000591915 0.00277979 0)
(-0.0107457 0.000693358 0)
(-0.00836152 -0.000908179 0)
(-0.00610562 -0.000490106 0)
(-0.00445628 -0.000346765 0)
(-0.00297202 -0.000462897 0)
(-0.000797511 -0.000558625 0)
(0.00165115 -0.0005655 0)
(0.00405237 -0.000515849 0)
(0.00688901 -0.000717432 0)
(0.0101045 -0.000866951 0)
(0.0128313 -0.000406228 0)
(0.0134656 0.00022161 0)
(0.011471 0.00114745 0)
(0.00302656 0.00191777 0)
(-0.00437311 -9.0439e-05 0)
(-0.00149083 -0.00131585 0)
(0.00218315 -0.00119757 0)
(0.00524574 -0.000785123 0)
(0.00746135 -0.000450865 0)
(0.00853557 -0.000156068 0)
(0.00811555 0.000242442 0)
(0.00622808 0.00104225 0)
(-0.00182138 0.00226888 0)
(-0.011977 0.00114625 0)
(-0.0129891 -5.99384e-05 0)
(-0.0117826 -0.000525942 0)
(-0.0096154 -0.000702294 0)
(-0.00705825 -0.000792037 0)
(-0.00423821 -0.000941254 0)
(-0.00106852 -0.00126544 0)
(0.00335121 -0.00120621 0)
(0.00580715 -0.000384643 0)
(0.00601111 0.00118278 0)
(0.000130783 -0.000936947 0)
(0.000612188 -0.000415436 0)
(0.00121717 -0.000198188 0)
(0.00255763 -0.000860368 0)
(0.00344314 -0.00214353 0)
(0.00731801 0.000992346 0)
(0.000477942 0.00632863 0)
(-0.00881483 0.00217346 0)
(-0.00607733 -0.00183559 0)
(-0.00550807 -0.0010368 0)
(-0.0040456 -0.000801329 0)
(-0.00274895 -0.00107727 0)
(-0.00083227 -0.00138689 0)
(0.00160199 -0.00152842 0)
(0.00424836 -0.00155468 0)
(0.00707474 -0.0018259 0)
(0.00975511 -0.00199597 0)
(0.0121287 -0.000962423 0)
(0.0128435 0.00054967 0)
(0.0116755 0.00248988 0)
(0.00655135 0.00433986 0)
(0.0002306 0.00155622 0)
(0.000892273 -0.00191316 0)
(0.00258484 -0.00224323 0)
(0.00489377 -0.00152333 0)
(0.00647149 -0.000782472 0)
(0.00700212 -0.000138321 0)
(0.00646298 0.000795217 0)
(0.00498451 0.00257963 0)
(-0.000478081 0.00508125 0)
(-0.010405 0.00311201 0)
(-0.0120991 0.000299722 0)
(-0.0115389 -0.000959606 0)
(-0.00995083 -0.00137042 0)
(-0.00791311 -0.00153341 0)
(-0.00554913 -0.00178963 0)
(-0.00301981 -0.0022521 0)
(1.3286e-05 -0.00232936 0)
(0.00255651 -0.000246315 0)
(0.0047481 0.00277659 0)
(-7.81923e-05 -0.00101543 0)
(0.000496992 -0.000670076 0)
(0.000992688 -0.000590633 0)
(0.00193291 -0.00125103 0)
(0.00155182 -0.00277879 0)
(0.0045996 0.00129276 0)
(0.000287646 0.00958587 0)
(-0.00673047 0.0033363 0)
(-0.00392599 -0.00226843 0)
(-0.00477976 -0.00138739 0)
(-0.00362992 -0.00122472 0)
(-0.00258479 -0.00165088 0)
(-0.000923223 -0.00220362 0)
(0.00137008 -0.0025274 0)
(0.00387523 -0.00264796 0)
(0.00652791 -0.00291192 0)
(0.0087728 -0.00297233 0)
(0.0105738 -0.00143833 0)
(0.0110541 0.000752102 0)
(0.0106502 0.00338473 0)
(0.00792305 0.00591868 0)
(0.00471826 0.00314351 0)
(0.00360429 -0.00156696 0)
(0.00401633 -0.00298842 0)
(0.00535737 -0.00221664 0)
(0.00631269 -0.00107655 0)
(0.00617599 -5.12224e-05 0)
(0.00502645 0.00132553 0)
(0.00328403 0.00388133 0)
(-0.000393192 0.00770986 0)
(-0.00898808 0.0052475 0)
(-0.0108746 0.000798416 0)
(-0.0109548 -0.00132094 0)
(-0.0100896 -0.00202106 0)
(-0.00867636 -0.00232021 0)
(-0.00687457 -0.00270135 0)
(-0.00484399 -0.00321603 0)
(-0.002755 -0.00318979 0)
(-0.00184118 -0.00131201 0)
(0.00373806 0.00380668 0)
(-0.00024369 -0.00107037 0)
(0.000516925 -0.000897908 0)
(0.00104408 -0.000758765 0)
(0.00161457 -0.00133387 0)
(0.000612214 -0.00281543 0)
(0.00181073 0.00116576 0)
(0.000257603 0.0119878 0)
(-0.00444811 0.00390098 0)
(-0.0022983 -0.0022786 0)
(-0.00393652 -0.00155081 0)
(-0.00307163 -0.00153431 0)
(-0.00228051 -0.00213446 0)
(-0.000883153 -0.00293707 0)
(0.0011859 -0.00345826 0)
(0.00350845 -0.00365909 0)
(0.00597544 -0.00389095 0)
(0.00790763 -0.00375307 0)
(0.00925341 -0.00168072 0)
(0.00928498 0.000877932 0)
(0.00927914 0.00375355 0)
(0.00817033 0.00669294 0)
(0.00646141 0.00390064 0)
(0.00564797 -0.0011859 0)
(0.00539316 -0.00326509 0)
(0.00581865 -0.00255102 0)
(0.0061971 -0.00109233 0)
(0.00565796 0.000380842 0)
(0.00410992 0.00203761 0)
(0.00178813 0.00495035 0)
(-0.00117528 0.00988244 0)
(-0.0080751 0.00720548 0)
(-0.0101036 0.00149456 0)
(-0.0106083 -0.00135682 0)
(-0.0102539 -0.00237166 0)
(-0.00934144 -0.00283727 0)
(-0.0080056 -0.00335609 0)
(-0.00640909 -0.00392084 0)
(-0.00480523 -0.00391786 0)
(-0.00410995 -0.00250869 0)
(0.00281931 0.00390051 0)
(-0.00040547 -0.00108909 0)
(0.000434211 -0.00118886 0)
(0.00110646 -0.000917548 0)
(0.00141846 -0.00126302 0)
(0.000156024 -0.00245709 0)
(-0.000270506 0.000925607 0)
(0.000407757 0.0132871 0)
(-0.00162743 0.00398636 0)
(-0.000837897 -0.00197609 0)
(-0.00293087 -0.00155738 0)
(-0.0023607 -0.00172954 0)
(-0.0018218 -0.00251727 0)
(-0.000689278 -0.00356603 0)
(0.0010893 -0.00429683 0)
(0.00318779 -0.00458841 0)
(0.00545234 -0.00478072 0)
(0.00711429 -0.00439489 0)
(0.00806465 -0.00169804 0)
(0.00758087 0.000967955 0)
(0.00780556 0.00376293 0)
(0.00772521 0.0069798 0)
(0.00683935 0.00424477 0)
(0.00651761 -0.000923849 0)
(0.00611443 -0.00329444 0)
(0.00585854 -0.00263439 0)
(0.00574725 -0.000956791 0)
(0.00489293 0.000869384 0)
(0.00316554 0.00280301 0)
(0.000106029 0.00617352 0)
(-0.00244673 0.0115003 0)
(-0.00758877 0.00879871 0)
(-0.0096005 0.00221196 0)
(-0.0103073 -0.00125901 0)
(-0.0102669 -0.00256921 0)
(-0.00970816 -0.00320794 0)
(-0.00872205 -0.00386569 0)
(-0.00748364 -0.0045142 0)
(-0.00621508 -0.00468774 0)
(-0.00518842 -0.00355924 0)
(0.00148664 0.00314636 0)
(-0.000502156 -0.00105444 0)
(0.000294442 -0.00153486 0)
(0.00114806 -0.00110285 0)
(0.00138901 -0.00109157 0)
(0.000137969 -0.00191678 0)
(-0.00144639 0.000820606 0)
(0.000536357 0.0131808 0)
(0.00118025 0.00400952 0)
(0.000674508 -0.00114867 0)
(-0.00174571 -0.00140294 0)
(-0.00151084 -0.00181989 0)
(-0.00120739 -0.00280161 0)
(-0.000342014 -0.00408075 0)
(0.00110764 -0.00502457 0)
(0.00293627 -0.00542451 0)
(0.00497663 -0.0055795 0)
(0.00638106 -0.00491396 0)
(0.00696072 -0.00148512 0)
(0.00599785 0.0010087 0)
(0.00643454 0.00359603 0)
(0.00688685 0.00708797 0)
(0.00634351 0.00427657 0)
(0.00654391 -0.000780176 0)
(0.0060906 -0.0031456 0)
(0.00526676 -0.00250132 0)
(0.00475658 -0.000687759 0)
(0.00347456 0.00140559 0)
(0.0015467 0.00369744 0)
(-0.00204386 0.00768938 0)
(-0.00390802 0.0125822 0)
(-0.00741004 0.00999058 0)
(-0.00920706 0.00288814 0)
(-0.00993637 -0.00108046 0)
(-0.0100496 -0.00265867 0)
(-0.00970804 -0.00346361 0)
(-0.00896729 -0.0042434 0)
(-0.00804387 -0.00496771 0)
(-0.00714836 -0.0053063 0)
(-0.0061023 -0.00438472 0)
(-0.000451565 0.00199029 0)
(-0.000521259 -0.000993204 0)
(0.000257477 -0.0018944 0)
(0.00115646 -0.00135854 0)
(0.00150382 -0.000940119 0)
(0.000555702 -0.00126263 0)
(-0.00185162 0.000769793 0)
(0.00069177 0.0120876 0)
(0.003176 0.00390404 0)
(0.00208761 -0.000345068 0)
(-0.000298341 -0.00104626 0)
(-0.000534513 -0.00180437 0)
(-0.00044058 -0.00298904 0)
(0.000146753 -0.00447386 0)
(0.00125639 -0.00562781 0)
(0.00277181 -0.00615353 0)
(0.00456344 -0.00628169 0)
(0.00570254 -0.00531985 0)
(0.00594343 -0.00106134 0)
(0.00465131 0.000938836 0)
(0.00532542 0.00339836 0)
(0.00583297 0.00721725 0)
(0.0051608 0.00404595 0)
(0.00601541 -0.000724561 0)
(0.00536422 -0.00282884 0)
(0.00395764 -0.0021312 0)
(0.0028263 -0.000228687 0)
(0.00105951 0.00223589 0)
(-0.00107369 0.00498161 0)
(-0.00410814 0.00888964 0)
(-0.00536438 0.0132394 0)
(-0.00742815 0.0107922 0)
(-0.00883447 0.0034687 0)
(-0.00945345 -0.000884237 0)
(-0.00960874 -0.00269164 0)
(-0.00936952 -0.00364874 0)
(-0.00876329 -0.00452624 0)
(-0.00805479 -0.00528649 0)
(-0.00745688 -0.00566564 0)
(-0.00666289 -0.00478584 0)
(-0.00408944 -0.000165805 0)
(-0.000437272 -0.000954058 0)
(0.000461804 -0.00222878 0)
(0.00117334 -0.00167212 0)
(0.00169913 -0.000885341 0)
(0.00121508 -0.000568989 0)
(-0.00146966 0.000746383 0)
(0.000980987 0.0105196 0)
(0.00435535 0.00376804 0)
(0.00316483 0.000357882 0)
(0.00116472 -0.000635294 0)
(0.000568258 -0.00166846 0)
(0.000459576 -0.00307773 0)
(0.000757439 -0.00472804 0)
(0.00153721 -0.00609771 0)
(0.00270462 -0.00676141 0)
(0.00422273 -0.00687728 0)
(0.00506611 -0.00561831 0)
(0.00503749 -0.000475617 0)
(0.00361705 0.000709224 0)
(0.00447888 0.00328766 0)
(0.00463984 0.0075073 0)
(0.00338716 0.00357509 0)
(0.00514844 -0.000710463 0)
(0.00395757 -0.00232074 0)
(0.00188264 -0.00141129 0)
(-0.000471003 0.000748752 0)
(-0.0017261 0.0030606 0)
(-0.00367732 0.00594362 0)
(-0.00599074 0.0097835 0)
(-0.00667809 0.0135501 0)
(-0.00754996 0.0112309 0)
(-0.00844586 0.00391192 0)
(-0.0088795 -0.000716259 0)
(-0.0090235 -0.00270597 0)
(-0.00880793 -0.00380959 0)
(-0.00823438 -0.00477828 0)
(-0.00757457 -0.0055629 0)
(-0.00698413 -0.00595881 0)
(-0.00611839 -0.005383 0)
(-0.00446831 -0.00331739 0)
(-0.000188863 -0.00101079 0)
(0.000904529 -0.00250496 0)
(0.00133209 -0.00198074 0)
(0.00194155 -0.000947354 0)
(0.00184812 -4.08143e-05 0)
(-0.000319795 0.00107766 0)
(0.00150308 0.00882902 0)
(0.00502382 0.00366245 0)
(0.00402398 0.000947496 0)
(0.00245547 -0.000235149 0)
(0.00172129 -0.00147532 0)
(0.00143453 -0.00304888 0)
(0.00147639 -0.00486877 0)
(0.00193715 -0.00642981 0)
(0.00273567 -0.00723594 0)
(0.00395866 -0.00735323 0)
(0.00445473 -0.00581377 0)
(0.00428898 0.000189137 0)
(0.0028037 0.000329418 0)
(0.00371016 0.0033559 0)
(0.00332744 0.00802234 0)
(0.00132394 0.00294181 0)
(0.00402295 -0.000635792 0)
(0.00181901 -0.00156125 0)
(-0.000724337 -0.000445791 0)
(-0.00283146 0.00137356 0)
(-0.00426719 0.00369191 0)
(-0.00597822 0.00669846 0)
(-0.00761143 0.0103807 0)
(-0.00777195 0.0135732 0)
(-0.00769878 0.0113447 0)
(-0.00803784 0.00419508 0)
(-0.00827328 -0.00059514 0)
(-0.00839854 -0.0027207 0)
(-0.00817448 -0.00397393 0)
(-0.00759073 -0.00503955 0)
(-0.00688997 -0.00585439 0)
(-0.00612599 -0.00625206 0)
(-0.00492018 -0.0058525 0)
(-0.00273485 -0.00492869 0)
(0.000284673 -0.00126138 0)
(0.00148968 -0.00271621 0)
(0.00174884 -0.00221741 0)
(0.00222315 -0.00108853 0)
(0.00240515 0.000208213 0)
(0.00104948 0.00148715 0)
(0.00234593 0.00724442 0)
(0.00545975 0.00356572 0)
(0.00479263 0.00139993 0)
(0.00364545 0.000147117 0)
(0.00285693 -0.00123604 0)
(0.00243394 -0.00294705 0)
(0.00226164 -0.00490209 0)
(0.00242782 -0.00662502 0)
(0.00285597 -0.00756893 0)
(0.00376899 -0.00769624 0)
(0.00385456 -0.00590805 0)
(0.0036838 0.000885028 0)
(0.00197364 -0.000103666 0)
(0.00274718 0.00365127 0)
(0.00191827 0.00874315 0)
(-0.000371403 0.00218318 0)
(0.00230669 -0.000522164 0)
(-0.000925441 -0.000538793 0)
(-0.00330013 0.000493218 0)
(-0.0049234 0.00204072 0)
(-0.00642881 0.0043088 0)
(-0.00786961 0.00728758 0)
(-0.00891802 0.0107132 0)
(-0.00860655 0.0133574 0)
(-0.00781247 0.0111809 0)
(-0.00761567 0.00431865 0)
(-0.00768114 -0.000515924 0)
(-0.00779781 -0.00273983 0)
(-0.00755659 -0.00414688 0)
(-0.00696774 -0.00531453 0)
(-0.00623964 -0.00617872 0)
(-0.00536628 -0.00663342 0)
(-0.00406773 -0.00648212 0)
(-0.00183488 -0.00629301 0)
(0.000934658 -0.00177226 0)
(0.00211966 -0.00290483 0)
(0.00238155 -0.00236573 0)
(0.00261766 -0.00122979 0)
(0.00290206 0.000285497 0)
(0.00231231 0.00177274 0)
(0.00341013 0.00588366 0)
(0.00585287 0.00345346 0)
(0.00550158 0.00171706 0)
(0.00464942 0.000460831 0)
(0.00391954 -0.000983214 0)
(0.00340858 -0.00278471 0)
(0.00306554 -0.00484084 0)
(0.00297349 -0.00669152 0)
(0.00304876 -0.00775794 0)
(0.0036464 -0.00789588 0)
(0.00326268 -0.00589341 0)
(0.00317759 0.00159658 0)
(0.0010637 -0.000387538 0)
(0.00141561 0.00412562 0)
(0.000403355 0.00939553 0)
(-0.00137645 0.00199494 0)
(-0.000479459 0.000114064 0)
(-0.00327098 0.000488388 0)
(-0.00504421 0.00120944 0)
(-0.00669454 0.00268076 0)
(-0.00814947 0.0048797 0)
(-0.00931883 0.0077201 0)
(-0.00988139 0.0108225 0)
(-0.00916761 0.0129506 0)
(-0.00784441 0.0107936 0)
(-0.00718278 0.00429891 0)
(-0.00712041 -0.000469837 0)
(-0.00722902 -0.00276415 0)
(-0.00696419 -0.00432492 0)
(-0.00637812 -0.00559109 0)
(-0.00563827 -0.00651207 0)
(-0.00470166 -0.007049 0)
(-0.00341596 -0.00714289 0)
(-0.00131898 -0.00737213 0)
(0.00155433 -0.00256668 0)
(0.00268739 -0.00312212 0)
(0.00307229 -0.00245741 0)
(0.00314936 -0.00132129 0)
(0.00337636 0.000243431 0)
(0.00334472 0.00187706 0)
(0.0044291 0.00480825 0)
(0.00624916 0.00332045 0)
(0.00614134 0.00193219 0)
(0.00552419 0.000726049 0)
(0.00487481 -0.000731904 0)
(0.00431467 -0.00258059 0)
(0.00384436 -0.00470211 0)
(0.00353739 -0.00664303 0)
(0.00329251 -0.00780708 0)
(0.00358054 -0.00794748 0)
(0.00268856 -0.00574669 0)
(0.00270749 0.00234763 0)
(-0.000120963 -0.000312351 0)
(-0.000247739 0.00492998 0)
(-0.000979527 0.00980685 0)
(-0.00226799 0.00199983 0)
(-0.00259835 0.000839595 0)
(-0.00470114 0.00117325 0)
(-0.00645358 0.00190265 0)
(-0.00807456 0.00329636 0)
(-0.00941858 0.00537738 0)
(-0.0103274 0.00801028 0)
(-0.0104941 0.0107511 0)
(-0.00945613 0.0123983 0)
(-0.00776425 0.0102387 0)
(-0.00674043 0.00416332 0)
(-0.00659308 -0.000444613 0)
(-0.00668237 -0.00279813 0)
(-0.00639173 -0.00450682 0)
(-0.00581761 -0.00586505 0)
(-0.00508323 -0.00684852 0)
(-0.00411897 -0.0074769 0)
(-0.00289683 -0.00777757 0)
(-0.000981777 -0.00824772 0)
(0.00190658 -0.00357227 0)
(0.00308969 -0.00341586 0)
(0.00366186 -0.00254562 0)
(0.00373546 -0.00136273 0)
(0.00386175 0.00013914 0)
(0.00412439 0.00179695 0)
(0.00521028 0.0039768 0)
(0.00660014 0.00316108 0)
(0.00667184 0.00206664 0)
(0.00624441 0.000939766 0)
(0.00568682 -0.000493647 0)
(0.00511359 -0.00235193 0)
(0.00456059 -0.00450431 0)
(0.0040858 -0.00649686 0)
(0.003564 -0.00772669 0)
(0.0035602 -0.00785454 0)
(0.00215179 -0.00543412 0)
(0.00212466 0.00312638 0)
(-0.00168628 0.000300078 0)
(-0.00182407 0.00542958 0)
(-0.00207657 0.00997746 0)
(-0.00303825 0.00210398 0)
(-0.00390277 0.00151328 0)
(-0.0057955 0.0018733 0)
(-0.00751083 0.00257429 0)
(-0.00905319 0.00387417 0)
(-0.0102523 0.0057964 0)
(-0.0109176 0.00817695 0)
(-0.0107667 0.0105378 0)
(-0.00948389 0.0117422 0)
(-0.0075575 0.00957004 0)
(-0.00628976 0.00394411 0)
(-0.00609574 -0.000433422 0)
(-0.00614423 -0.00284708 0)
(-0.00583145 -0.00468971 0)
(-0.00527929 -0.00613159 0)
(-0.0045691 -0.00718149 0)
(-0.00360663 -0.00790132 0)
(-0.00247639 -0.00836501 0)
(-0.000744672 -0.00896939 0)
(0.0019454 -0.00466046 0)
(0.00328406 -0.00380352 0)
(0.00406102 -0.00267745 0)
(0.00425707 -0.00139613 0)
(0.00435854 2.28799e-05 0)
(0.00469089 0.00160472 0)
(0.00571447 0.00331945 0)
(0.00684427 0.00297189 0)
(0.00705094 0.00213303 0)
(0.00678216 0.00110431 0)
(0.00632549 -0.000277308 0)
(0.00577528 -0.00211543 0)
(0.00518543 -0.00426657 0)
(0.00459086 -0.00627201 0)
(0.00384047 -0.00753144 0)
(0.00357259 -0.00762979 0)
(0.00166989 -0.00493322 0)
(0.00124549 0.00393029 0)
(-0.00279694 0.000887062 0)
(-0.00304816 0.00585454 0)
(-0.00286479 0.0099508 0)
(-0.00361453 0.00236059 0)
(-0.00485353 0.00219518 0)
(-0.00658607 0.00255604 0)
(-0.00822048 0.00321187 0)
(-0.0096461 0.00440048 0)
(-0.0106816 0.00613662 0)
(-0.0111244 0.0082385 0)
(-0.0107234 0.010217 0)
(-0.00927128 0.0110198 0)
(-0.00722381 0.00883727 0)
(-0.00583171 0.00367472 0)
(-0.00561715 -0.000434449 0)
(-0.00559962 -0.0029148 0)
(-0.00527426 -0.0048695 0)
(-0.00475423 -0.00638541 0)
(-0.00408714 -0.00750341 0)
(-0.00315118 -0.00830971 0)
(-0.00212991 -0.00889886 0)
(-0.0005694 -0.00957114 0)
(0.00179145 -0.00573385 0)
(0.0033067 -0.00427402 0)
(0.00425992 -0.00287735 0)
(0.00462971 -0.00146202 0)
(0.00477192 -6.76769e-05 0)
(0.00508281 0.00138777 0)
(0.00598429 0.00279368 0)
(0.00694924 0.00275955 0)
(0.00725637 0.00214173 0)
(0.00712436 0.00122136 0)
(0.00677602 -9.19153e-05 0)
(0.00628378 -0.00188734 0)
(0.00570165 -0.00400765 0)
(0.00503269 -0.00598722 0)
(0.00410098 -0.00723678 0)
(0.0035975 -0.00729094 0)
(0.00124029 -0.00424338 0)
(0.000246735 0.00485802 0)
(-0.00362487 0.00149445 0)
(-0.00391889 0.00622507 0)
(-0.00338392 0.00977878 0)
(-0.00400158 0.00275532 0)
(-0.00550715 0.00284415 0)
(-0.0070895 0.00320079 0)
(-0.00860481 0.00380171 0)
(-0.00988505 0.00486603 0)
(-0.010748 0.00639996 0)
(-0.0109912 0.00821184 0)
(-0.0103989 0.00981868 0)
(-0.00884644 0.0102644 0)
(-0.00677432 0.00808473 0)
(-0.00536564 0.00338523 0)
(-0.00513859 -0.000452052 0)
(-0.00503457 -0.00300259 0)
(-0.00471075 -0.0050416 0)
(-0.00423318 -0.00662121 0)
(-0.00362724 -0.00780674 0)
(-0.00273875 -0.00869246 0)
(-0.00183748 -0.00937778 0)
(-0.000434068 -0.0100767 0)
(0.00156956 -0.00674819 0)
(0.00322082 -0.00480403 0)
(0.00429365 -0.00314643 0)
(0.00482976 -0.00157859 0)
(0.0050623 -0.000160211 0)
(0.0053425 0.00118037 0)
(0.00608726 0.00237015 0)
(0.00692075 0.00253524 0)
(0.00729447 0.00210289 0)
(0.00728008 0.00129249 0)
(0.00704473 5.55404e-05 0)
(0.00664035 -0.00168202 0)
(0.00610507 -0.00374446 0)
(0.00540072 -0.00565908 0)
(0.00432808 -0.00685564 0)
(0.00360271 -0.00684916 0)
(0.000815882 -0.00327145 0)
(-0.000750868 0.00580796 0)
(-0.00422291 0.00211868 0)
(-0.00451175 0.00648755 0)
(-0.00370205 0.00951403 0)
(-0.00424941 0.00324573 0)
(-0.00590675 0.00345421 0)
(-0.00733301 0.00379425 0)
(-0.00869948 0.00433234 0)
(-0.00981331 0.005265 0)
(-0.0105008 0.00659002 0)
(-0.0105683 0.0081127 0)
(-0.00983557 0.00936901 0)
(-0.00824424 0.00950519 0)
(-0.00622822 0.00734975 0)
(-0.00488755 0.00309853 0)
(-0.00463796 -0.000491685 0)
(-0.00443793 -0.00310851 0)
(-0.00413213 -0.00520113 0)
(-0.00370784 -0.00683363 0)
(-0.00317951 -0.0080844 0)
(-0.0023565 -0.0090422 0)
(-0.00158297 -0.00980196 0)
(-0.000324864 -0.0105024 0)
(0.00134383 -0.0076893 0)
(0.00307402 -0.00536704 0)
(0.00420403 -0.00347133 0)
(0.00487311 -0.00174656 0)
(0.00521257 -0.000266725 0)
(0.0054884 0.000997575 0)
(0.00607901 0.00203192 0)
(0.00678672 0.0023132 0)
(0.00719286 0.002028 0)
(0.0072765 0.00132054 0)
(0.00715247 0.000159409 0)
(0.00686073 -0.0015112 0)
(0.00640327 -0.00349085 0)
(0.00569363 -0.0053012 0)
(0.00451119 -0.00639792 0)
(0.00356165 -0.0063003 0)
(0.00037008 -0.00200212 0)
(-0.00162251 0.00666275 0)
(-0.00464767 0.00272254 0)
(-0.00490377 0.0066367 0)
(-0.0039006 0.009193 0)
(-0.0044067 0.00378911 0)
(-0.00609878 0.00402418 0)
(-0.00735525 0.0043267 0)
(-0.00854953 0.00479502 0)
(-0.00948229 0.00559388 0)
(-0.00999569 0.00671154 0)
(-0.00991053 0.0079556 0)
(-0.00908171 0.00889057 0)
(-0.00750394 0.00876682 0)
(-0.00560715 0.00666033 0)
(-0.00438502 0.00282541 0)
(-0.00408627 -0.000564503 0)
(-0.00380205 -0.00322623 0)
(-0.00353117 -0.00534286 0)
(-0.00317149 -0.00701743 0)
(-0.00273516 -0.00832996 0)
(-0.0019933 -0.00935309 0)
(-0.00135345 -0.0101718 0)
(-0.000232493 -0.0108593 0)
(0.00113465 -0.00855382 0)
(0.00289273 -0.00593858 0)
(0.00402336 -0.00383335 0)
(0.0047858 -0.00195756 0)
(0.00522392 -0.000396751 0)
(0.0055243 0.00083653 0)
(0.00599181 0.00176451 0)
(0.00657819 0.00210557 0)
(0.00698734 0.00192858 0)
(0.00715002 0.00130926 0)
(0.00713475 0.000215357 0)
(0.00697172 -0.00138377 0)
(0.00661238 -0.00325682 0)
(0.00591719 -0.00492399 0)
(0.0046489 -0.00587262 0)
(0.00348209 -0.00563559 0)
(-4.71862e-05 -0.00058219 0)
(-0.00231996 0.00747849 0)
(-0.00493022 0.00327884 0)
(-0.00515135 0.00669795 0)
(-0.00405253 0.00884278 0)
(-0.00450693 0.00434277 0)
(-0.0061271 0.00454423 0)
(-0.0071989 0.00478983 0)
(-0.00820409 0.00518352 0)
(-0.00894729 0.00585097 0)
(-0.00929118 0.00676971 0)
(-0.00907523 0.00775357 0)
(-0.00818747 0.00840218 0)
(-0.00666465 0.00806811 0)
(-0.00492723 0.00603289 0)
(-0.00383146 0.00256631 0)
(-0.00344204 -0.000674525 0)
(-0.00312178 -0.00334397 0)
(-0.00290313 -0.00546099 0)
(-0.00261925 -0.00716762 0)
(-0.00228682 -0.00853774 0)
(-0.00163995 -0.00962034 0)
(-0.00113867 -0.0104872 0)
(-0.000150422 -0.0111544 0)
(0.000944177 -0.00934144 0)
(0.00269037 -0.00649885 0)
(0.00377419 -0.00421381 0)
(0.00459312 -0.00219982 0)
(0.00510932 -0.000552134 0)
(0.00545055 0.000688025 0)
(0.00583687 0.00155244 0)
(0.00631737 0.00191927 0)
(0.00671123 0.0018142 0)
(0.00693809 0.00126198 0)
(0.00703231 0.000221193 0)
(0.0070065 -0.00130444 0)
(0.00675252 -0.00304772 0)
(0.00608039 -0.00453454 0)
(0.00474517 -0.00528936 0)
(0.00338921 -0.00485749 0)
(-0.000371142 0.000881267 0)
(-0.00284288 0.008277 0)
(-0.00509207 0.00377794 0)
(-0.00528781 0.00670153 0)
(-0.0041977 0.00848856 0)
(-0.00456568 0.00486557 0)
(-0.0060276 0.00500054 0)
(-0.00690373 0.00517712 0)
(-0.00771065 0.00549428 0)
(-0.00826235 0.00603635 0)
(-0.00844425 0.00676994 0)
(-0.00811734 0.00751775 0)
(-0.00720005 0.00791835 0)
(-0.00575996 0.00742076 0)
(-0.00419552 0.00547136 0)
(-0.00320224 0.00231683 0)
(-0.00270155 -0.000810027 0)
(-0.00239554 -0.00344975 0)
(-0.00224643 -0.00554945 0)
(-0.0020482 -0.00727989 0)
(-0.00182865 -0.00870293 0)
(-0.0012891 -0.00983997 0)
(-0.000930521 -0.0107477 0)
(-7.3888e-05 -0.0113918 0)
(0.000769395 -0.0100525 0)
(0.00247403 -0.00703291 0)
(0.00347321 -0.00459635 0)
(0.00431767 -0.00246138 0)
(0.00488737 -0.000729759 0)
(0.00527316 0.000542564 0)
(0.00561664 0.00137869 0)
(0.00601715 0.00175396 0)
(0.00639175 0.00168983 0)
(0.00667593 0.00118001 0)
(0.00688276 0.000176051 0)
(0.00699608 -0.00127379 0)
(0.00684154 -0.00286415 0)
(0.0061908 -0.00413674 0)
(0.00480349 -0.004658 0)
(0.00329503 -0.003982 0)
(-0.000636419 0.00232532 0)
(-0.0032254 0.00906988 0)
(-0.00515941 0.00422006 0)
(-0.00533071 0.00667346 0)
(-0.00433431 0.0081518 0)
(-0.00458211 0.00532282 0)
(-0.0058261 0.00538138 0)
(-0.00650259 0.00548503 0)
(-0.00711032 0.00572663 0)
(-0.00747505 0.00615194 0)
(-0.00750517 0.00671767 0)
(-0.00708462 0.00725704 0)
(-0.00615878 0.00744858 0)
(-0.00481472 0.00682828 0)
(-0.00341509 0.00496712 0)
(-0.00249883 0.00206162 0)
(-0.00190519 -0.000965791 0)
(-0.00162617 -0.0035355 0)
(-0.00156223 -0.00560317 0)
(-0.0014573 -0.00735125 0)
(-0.00135615 -0.008822 0)
(-0.000934978 -0.0100088 0)
(-0.000722528 -0.0109525 0)
(7.32681e-07 -0.0115729 0)
(0.000606639 -0.0106871 0)
(0.00224761 -0.00753001 0)
(0.00313396 -0.00496776 0)
(0.00398013 -0.00273151 0)
(0.00457908 -0.000924223 0)
(0.00500521 0.000394205 0)
(0.00533458 0.00122804 0)
(0.00568531 0.00160427 0)
(0.00604966 0.00155576 0)
(0.00639382 0.00106247 0)
(0.00671689 7.8024e-05 0)
(0.00696287 -0.00128899 0)
(0.00688961 -0.00270258 0)
(0.00625059 -0.00373171 0)
(0.00482247 -0.0039877 0)
(0.00319578 -0.00302988 0)
(-0.000900226 0.00380459 0)
(-0.00351471 0.00984975 0)
(-0.00516125 0.00460474 0)
(-0.00529154 0.00663081 0)
(-0.00443375 0.00784556 0)
(-0.00454506 0.00569189 0)
(-0.0055395 0.00568001 0)
(-0.00602023 0.00571349 0)
(-0.00643517 0.00588273 0)
(-0.00662295 0.00620138 0)
(-0.00651348 0.00661825 0)
(-0.00601364 0.00697802 0)
(-0.00509168 0.0069977 0)
(-0.00384345 0.00628804 0)
(-0.00258515 0.0045095 0)
(-0.00171822 0.00179756 0)
(-0.0010241 -0.00112162 0)
(-0.000826202 -0.00359183 0)
(-0.000854022 -0.00561985 0)
(-0.000847224 -0.00738043 0)
(-0.000866078 -0.00889304 0)
(-0.00057315 -0.0101244 0)
(-0.000509343 -0.0111007 0)
(7.64747e-05 -0.0116973 0)
(0.000452712 -0.0112456 0)
(0.00201296 -0.00798288 0)
(0.00276776 -0.00531832 0)
(0.00359952 -0.00300129 0)
(0.00420564 -0.00112941 0)
(0.00466252 0.000240875 0)
(0.00499698 0.00108862 0)
(0.00532729 0.00146199 0)
(0.00569948 0.00140818 0)
(0.00611425 0.000906356 0)
(0.00655714 -7.14601e-05 0)
(0.00691657 -0.00134254 0)
(0.00689555 -0.00255599 0)
(0.00625358 -0.00331869 0)
(0.00479338 -0.00328663 0)
(0.00306749 -0.00201669 0)
(-0.00119916 0.00528679 0)
(-0.0037513 0.0105937 0)
(-0.00512407 0.00492687 0)
(-0.00518264 0.00657931 0)
(-0.0044651 0.0075729 0)
(-0.00444148 0.00596398 0)
(-0.00517916 0.00589515 0)
(-0.00547436 0.00586542 0)
(-0.00570823 0.00596699 0)
(-0.0057327 0.00618959 0)
(-0.00549668 0.0064768 0)
(-0.00492863 0.00668498 0)
(-0.00401536 0.00656637 0)
(-0.00285263 0.00579288 0)
(-0.00170601 0.00408835 0)
(-0.000863445 0.00153541 0)
(-7.12261e-05 -0.00126415 0)
(-1.67419e-05 -0.00360796 0)
(-0.00012784 -0.00559785 0)
(-0.000219906 -0.00736569 0)
(-0.000356121 -0.00891434 0)
(-0.000200131 -0.0101841 0)
(-0.000286346 -0.011191 0)
(0.000156238 -0.0117627 0)
(0.000304888 -0.0117273 0)
(0.00177017 -0.00838698 0)
(0.00238351 -0.00564183 0)
(0.00319212 -0.00326388 0)
(0.0037865 -0.00133879 0)
(0.00425694 8.07019e-05 0)
(0.00461104 0.000950234 0)
(0.00494734 0.00131718 0)
(0.0053503 0.00124035 0)
(0.00585069 0.000707673 0)
(0.00641051 -0.000264898 0)
(0.00684908 -0.00142246 0)
(0.00684396 -0.0024151 0)
(0.00618308 -0.00289659 0)
(0.00469865 -0.0025625 0)
(0.00286626 -0.000935897 0)
(-0.00156954 0.00675844 0)
(-0.00396648 0.0112762 0)
(-0.00507051 0.00517824 0)
(-0.00501964 0.00651478 0)
(-0.00441166 0.00732838 0)
(-0.00426329 0.00614115 0)
(-0.00475441 0.00602993 0)
(-0.00487808 0.00594578 0)
(-0.00494543 0.00598516 0)
(-0.0048218 0.00612216 0)
(-0.00447194 0.00629786 0)
(-0.00384364 0.00638022 0)
(-0.00293845 0.00615232 0)
(-0.00184499 0.00533487 0)
(-0.000777272 0.00371329 0)
(9.17516e-05 0.00126403 0)
(0.000866653 -0.00145412 0)
(0.00078535 -0.00358074 0)
(0.000609604 -0.00553153 0)
(0.000421802 -0.00730197 0)
(0.000174816 -0.0088811 0)
(0.000186507 -0.0101846 0)
(-4.93239e-05 -0.0112202 0)
(0.000243003 -0.011766 0)
(0.000160684 -0.0121315 0)
(0.00151748 -0.00873961 0)
(0.0019868 -0.00593536 0)
(0.00276953 -0.00351472 0)
(0.00333679 -0.00154619 0)
(0.00380435 -8.64718e-05 0)
(0.00418802 0.000805258 0)
(0.00455061 0.00116031 0)
(0.00500706 0.00104467 0)
(0.00560531 0.000465119 0)
(0.00626193 -0.000491613 0)
(0.00673298 -0.0015134 0)
(0.00670396 -0.00226979 0)
(0.00601042 -0.00246546 0)
(0.00450763 -0.00182095 0)
(0.00251218 0.000293031 0)
(-0.00203413 0.00820189 0)
(-0.00418071 0.0118737 0)
(-0.00501789 0.00535007 0)
(-0.00482017 0.00642685 0)
(-0.00427391 0.00710082 0)
(-0.0040105 0.00623116 0)
(-0.00427487 0.00609011 0)
(-0.00424211 0.00596054 0)
(-0.00415835 0.00594346 0)
(-0.00390187 0.00600467 0)
(-0.00344995 0.0060853 0)
(-0.00276699 0.00606458 0)
(-0.00186633 0.00575262 0)
(-0.000817831 0.00491602 0)
(0.000240803 0.00331519 0)
(0.00118228 0.00088304 0)
(0.00169822 -0.00149375 0)
(0.00158819 -0.00353256 0)
(0.00135261 -0.00544129 0)
(0.00107354 -0.00720321 0)
(0.000722668 -0.00879678 0)
(0.000588873 -0.0101268 0)
(0.000203294 -0.0111835 0)
(0.00034011 -0.0117051 0)
(1.76306e-05 -0.0124562 0)
(0.00125123 -0.009039 0)
(0.00157891 -0.00619841 0)
(0.00233635 -0.00375127 0)
(0.00286485 -0.00174772 0)
(0.00332975 -0.000254126 0)
(0.00373811 0.000650045 0)
(0.00414107 0.000983667 0)
(0.00467125 0.000814701 0)
(0.00536191 0.000178916 0)
(0.00607499 -0.000736141 0)
(0.00652207 -0.00159809 0)
(0.00642929 -0.00211019 0)
(0.00569501 -0.00202606 0)
(0.00419099 -0.00107043 0)
(0.00201 0.00146539 0)
(-0.00259735 0.00959318 0)
(-0.00440289 0.0123667 0)
(-0.00497683 0.00543492 0)
(-0.00460133 0.00630265 0)
(-0.00406435 0.00687613 0)
(-0.00369044 0.00624312 0)
(-0.0037509 0.00608243 0)
(-0.00357593 0.00591575 0)
(-0.00335603 0.00584798 0)
(-0.00298141 0.0058424 0)
(-0.00243846 0.0058424 0)
(-0.00170509 0.00573873 0)
(-0.000801719 0.00536798 0)
(0.000279109 0.00447299 0)
(0.00131876 0.00289651 0)
(0.00220946 0.00067099 0)
(0.00253668 -0.00151547 0)
(0.00239658 -0.00346608 0)
(0.00209966 -0.00532087 0)
(0.00173302 -0.0070648 0)
(0.00128168 -0.00866306 0)
(0.00100832 -0.0100134 0)
(0.000471359 -0.0110826 0)
(0.000448823 -0.0115752 0)
(-0.000126961 -0.0126978 0)
(0.000965742 -0.00928412 0)
(0.00115611 -0.00643119 0)
(0.00188805 -0.00397195 0)
(0.00237132 -0.00194147 0)
(0.00283115 -0.000423521 0)
(0.0032654 0.000481732 0)
(0.0037205 0.000781387 0)
(0.00433791 0.000547679 0)
(0.00508759 -0.000138014 0)
(0.00579675 -0.000973686 0)
(0.00615567 -0.0016565 0)
(0.00596129 -0.00192697 0)
(0.00518164 -0.00157334 0)
(0.00366103 -0.000289169 0)
(0.0011525 0.00289856 0)
(-0.00319083 0.0108107 0)
(-0.00463934 0.0127444 0)
(-0.00495148 0.00542839 0)
(-0.00437789 0.00612958 0)
(-0.00380075 0.00663966 0)
(-0.0033152 0.00618497 0)
(-0.00319296 0.00601323 0)
(-0.00288751 0.00581703 0)
(-0.00254503 0.0057045 0)
(-0.00206624 0.0056405 0)
(-0.00144292 0.0055729 0)
(-0.000660814 0.00540351 0)
(0.000312408 0.0049523 0)
(0.0013893 0.00403313 0)
(0.00238458 0.00251862 0)
(0.00315652 0.000492638 0)
(0.00337847 -0.001519 0)
(0.00320276 -0.00337734 0)
(0.00284737 -0.00517216 0)
(0.00239808 -0.00688864 0)
(0.00185107 -0.00848208 0)
(0.00144449 -0.00984314 0)
(0.000755707 -0.0109155 0)
(0.000569869 -0.0113704 0)
(-0.000276617 -0.0128487 0)
(0.000653105 -0.00947542 0)
(0.000710184 -0.00663234 0)
(0.00141013 -0.0041744 0)
(0.00184815 -0.00212569 0)
(0.00231106 -0.000595481 0)
(0.00277176 0.000298033 0)
(0.00328768 0.00055086 0)
(0.00398054 0.000248537 0)
(0.00473933 -0.000444385 0)
(0.00535614 -0.00117642 0)
(0.00556092 -0.00167018 0)
(0.0052345 -0.00171426 0)
(0.00440849 -0.00109593 0)
(0.00286447 0.000492456 0)
(3.68194e-05 0.00439079 0)
(-0.00381089 0.0118522 0)
(-0.00489179 0.0130011 0)
(-0.0049424 0.00532942 0)
(-0.00416162 0.0058971 0)
(-0.00350149 0.00637772 0)
(-0.00289888 0.0060625 0)
(-0.00261074 0.00588759 0)
(-0.00218244 0.00566907 0)
(-0.00172785 0.0055184 0)
(-0.0011566 0.00540436 0)
(-0.000453662 0.00527589 0)
(0.000420537 0.00503185 0)
(0.00141603 0.00453102 0)
(0.00247121 0.00361476 0)
(0.00340521 0.00217929 0)
(0.00405275 0.000340253 0)
(0.00420986 -0.00150538 0)
(0.00400141 -0.00326757 0)
(0.00359327 -0.00499702 0)
(0.00306748 -0.00667702 0)
(0.00243086 -0.00825637 0)
(0.0018977 -0.00961722 0)
(0.00105746 -0.0106811 0)