/*--------------------------------*- C++ -*----------------------------------*\
| =========                 |                                                 |
| \\      /  F ield         | OpenFOAM: The Open Source CFD Toolbox           |
|  \\    /   O peration     | Version:  4.1                                   |
|   \\  /    A nd           | Web:      www.OpenFOAM.org                      |
|    \\/     M anipulation  |                                                 |
\*---------------------------------------------------------------------------*/
FoamFile
{
    version     2.0;
    format      ascii;
    class       volScalarField;
    location    "300";
    object      p;
}
// * * * * * * * * * * * * * * * * * * * * * * * * * * * * * * * * * * * * * //

dimensions      [0 2 -2 0 0 0 0];

internalField   nonuniform List<scalar> 
1600
(
0
1.74634e-05
-5.38212e-05
-6.68234e-05
-4.88831e-05
-7.37637e-05
-6.3509e-05
-4.02607e-05
-2.1997e-05
-1.34581e-05
-1.17402e-05
-1.31498e-05
-1.53861e-05
-1.73487e-05
-1.85236e-05
-1.86117e-05
-1.71699e-05
-1.36041e-05
-7.25333e-06
2.1968e-06
1.43887e-05
2.84297e-05
4.28855e-05
5.50433e-05
6.34375e-05
6.50571e-05
5.84812e-05
4.52219e-05
2.82225e-05
1.04017e-05
-6.05328e-06
-1.99138e-05
-3.08645e-05
-3.98009e-05
-5.07716e-05
-7.01913e-05
-0.000103076
-0.000133857
-0.00013433
-0.000102422
-0.0984452
-0.0984464
-0.0984501
-0.0984585
-0.0984577
-0.0984776
-0.0984806
-0.0984719
-0.0984653
-0.0984644
-0.0984676
-0.0984729
-0.0984786
-0.0984839
-0.0984881
-0.0984909
-0.0984919
-0.0984905
-0.0984863
-0.0984787
-0.0984675
-0.098453
-0.0984379
-0.0984263
-0.0984186
-0.0984167
-0.0984225
-0.0984344
-0.0984494
-0.0984646
-0.0984777
-0.0984878
-0.098495
-0.098501
-0.0985085
-0.098522
-0.0985436
-0.0985631
-0.0985714
-0.0985618
-0.196919
-0.196926
-0.196911
-0.196912
-0.196926
-0.196933
-0.196946
-0.196952
-0.196955
-0.196959
-0.196965
-0.196971
-0.196977
-0.196983
-0.196987
-0.19699
-0.196991
-0.19699
-0.196986
-0.196979
-0.196968
-0.196954
-0.196939
-0.196928
-0.19692
-0.196919
-0.196924
-0.196936
-0.196951
-0.196966
-0.196979
-0.196989
-0.196996
-0.197001
-0.197006
-0.197015
-0.197027
-0.197034
-0.197032
-0.197017
-0.295408
-0.295418
-0.295404
-0.2954
-0.295414
-0.295415
-0.29543
-0.295443
-0.29545
-0.295457
-0.295464
-0.295471
-0.295477
-0.295482
-0.295486
-0.295489
-0.295491
-0.29549
-0.295487
-0.29548
-0.29547
-0.295457
-0.295442
-0.29543
-0.295424
-0.295422
-0.295427
-0.295439
-0.295453
-0.295468
-0.295481
-0.295491
-0.295497
-0.295501
-0.295505
-0.29551
-0.295517
-0.295518
-0.295506
-0.295477
-0.393906
-0.393916
-0.393906
-0.393902
-0.393911
-0.393911
-0.393924
-0.393939
-0.393948
-0.393956
-0.393963
-0.39397
-0.393976
-0.393981
-0.393986
-0.393989
-0.393991
-0.393991
-0.393988
-0.393982
-0.393973
-0.39396
-0.393946
-0.393934
-0.393928
-0.393926
-0.393931
-0.393942
-0.393957
-0.393971
-0.393984
-0.393993
-0.393999
-0.394002
-0.394004
-0.394006
-0.39401
-0.394006
-0.393988
-0.39395
-0.492407
-0.492416
-0.492409
-0.492407
-0.492413
-0.492414
-0.492425
-0.492438
-0.492448
-0.492455
-0.492462
-0.492469
-0.492475
-0.492481
-0.492485
-0.492489
-0.492491
-0.492492
-0.49249
-0.492485
-0.492476
-0.492464
-0.492451
-0.492439
-0.492433
-0.492431
-0.492436
-0.492447
-0.492461
-0.492475
-0.492487
-0.492496
-0.492501
-0.492503
-0.492503
-0.492504
-0.492504
-0.492497
-0.492477
-0.492434
-0.590909
-0.590918
-0.590912
-0.590912
-0.590916
-0.590918
-0.590927
-0.590939
-0.590948
-0.590955
-0.590962
-0.590969
-0.590975
-0.59098
-0.590985
-0.590989
-0.590992
-0.590993
-0.590992
-0.590988
-0.59098
-0.590969
-0.590956
-0.590944
-0.590938
-0.590937
-0.590942
-0.590952
-0.590966
-0.590979
-0.590991
-0.590999
-0.591003
-0.591004
-0.591003
-0.591002
-0.591
-0.59099
-0.590971
-0.590928
-0.689412
-0.68942
-0.689416
-0.689417
-0.68942
-0.689423
-0.68943
-0.68944
-0.689448
-0.689455
-0.689462
-0.689468
-0.689474
-0.68948
-0.689484
-0.689489
-0.689492
-0.689495
-0.689495
-0.689492
-0.689485
-0.689475
-0.689462
-0.689451
-0.689444
-0.689443
-0.689448
-0.689458
-0.689471
-0.689484
-0.689495
-0.689503
-0.689506
-0.689506
-0.689504
-0.6895
-0.689497
-0.689485
-0.689468
-0.689428
-0.787915
-0.787922
-0.787919
-0.78792
-0.787923
-0.787927
-0.787933
-0.787941
-0.787948
-0.787955
-0.787962
-0.787968
-0.787974
-0.787979
-0.787984
-0.787989
-0.787993
-0.787996
-0.787998
-0.787996
-0.78799
-0.787981
-0.787969
-0.787958
-0.78795
-0.78795
-0.787954
-0.787963
-0.787976
-0.787989
-0.787999
-0.788006
-0.788009
-0.788008
-0.788005
-0.788
-0.787995
-0.787983
-0.787967
-0.78793
-0.886418
-0.886425
-0.886422
-0.886424
-0.886427
-0.88643
-0.886436
-0.886443
-0.886449
-0.886455
-0.886461
-0.886467
-0.886473
-0.886478
-0.886483
-0.886488
-0.886493
-0.886498
-0.8865
-0.8865
-0.886496
-0.886487
-0.886476
-0.886465
-0.886457
-0.886456
-0.88646
-0.886469
-0.886481
-0.886494
-0.886504
-0.88651
-0.886512
-0.886511
-0.886506
-0.8865
-0.886495
-0.886482
-0.886468
-0.886435
-0.984921
-0.984928
-0.984926
-0.984928
-0.98493
-0.984934
-0.984939
-0.984944
-0.98495
-0.984956
-0.984961
-0.984967
-0.984973
-0.984978
-0.984983
-0.984988
-0.984994
-0.984999
-0.985003
-0.985005
-0.985002
-0.984994
-0.984983
-0.984972
-0.984964
-0.984963
-0.984966
-0.984975
-0.984987
-0.984998
-0.985008
-0.985014
-0.985016
-0.985013
-0.985008
-0.985001
-0.984995
-0.984982
-0.98497
-0.984941
-1.08342
-1.08343
-1.08343
-1.08343
-1.08343
-1.08344
-1.08344
-1.08345
-1.08345
-1.08346
-1.08346
-1.08347
-1.08347
-1.08348
-1.08348
-1.08349
-1.08349
-1.0835
-1.08351
-1.08351
-1.08351
-1.0835
-1.08349
-1.08348
-1.08347
-1.08347
-1.08347
-1.08348
-1.08349
-1.0835
-1.08351
-1.08352
-1.08352
-1.08352
-1.08351
-1.0835
-1.0835
-1.08348
-1.08347
-1.08345
-1.18193
-1.18193
-1.18193
-1.18193
-1.18194
-1.18194
-1.18194
-1.18195
-1.18195
-1.18196
-1.18196
-1.18197
-1.18197
-1.18198
-1.18198
-1.18199
-1.18199
-1.182
-1.18201
-1.18201
-1.18201
-1.18201
-1.182
-1.18199
-1.18198
-1.18198
-1.18198
-1.18199
-1.182
-1.18201
-1.18202
-1.18202
-1.18202
-1.18202
-1.18201
-1.182
-1.182
-1.18199
-1.18198
-1.18195
-1.28043
-1.28044
-1.28044
-1.28044
-1.28044
-1.28044
-1.28045
-1.28045
-1.28045
-1.28046
-1.28046
-1.28047
-1.28047
-1.28048
-1.28048
-1.28049
-1.28049
-1.2805
-1.28051
-1.28052
-1.28052
-1.28051
-1.28051
-1.28049
-1.28049
-1.28048
-1.28048
-1.28049
-1.2805
-1.28051
-1.28052
-1.28052
-1.28052
-1.28052
-1.28051
-1.28051
-1.2805
-1.28049
-1.28048
-1.28046
-1.37893
-1.37894
-1.37894
-1.37894
-1.37894
-1.37894
-1.37895
-1.37895
-1.37895
-1.37896
-1.37896
-1.37897
-1.37897
-1.37897
-1.37898
-1.37899
-1.37899
-1.379
-1.37901
-1.37902
-1.37902
-1.37902
-1.37901
-1.379
-1.37899
-1.37899
-1.37899
-1.37899
-1.379
-1.37901
-1.37902
-1.37903
-1.37903
-1.37902
-1.37902
-1.37901
-1.379
-1.37899
-1.37898
-1.37897
-1.47744
-1.47744
-1.47744
-1.47744
-1.47744
-1.47745
-1.47745
-1.47745
-1.47745
-1.47746
-1.47746
-1.47747
-1.47747
-1.47747
-1.47748
-1.47748
-1.47749
-1.4775
-1.47751
-1.47752
-1.47753
-1.47753
-1.47752
-1.47751
-1.4775
-1.47749
-1.47749
-1.4775
-1.4775
-1.47751
-1.47752
-1.47753
-1.47753
-1.47752
-1.47752
-1.47751
-1.4775
-1.4775
-1.47749
-1.47747
-1.57594
-1.57594
-1.57594
-1.57595
-1.57595
-1.57595
-1.57595
-1.57595
-1.57596
-1.57596
-1.57596
-1.57596
-1.57597
-1.57597
-1.57598
-1.57598
-1.57599
-1.576
-1.57602
-1.57603
-1.57603
-1.57603
-1.57602
-1.57601
-1.576
-1.57599
-1.57599
-1.576
-1.57601
-1.57601
-1.57602
-1.57603
-1.57603
-1.57603
-1.57602
-1.57601
-1.57601
-1.576
-1.57599
-1.57598
-1.67444
-1.67445
-1.67445
-1.67445
-1.67445
-1.67445
-1.67445
-1.67445
-1.67446
-1.67446
-1.67446
-1.67446
-1.67447
-1.67447
-1.67447
-1.67448
-1.67449
-1.6745
-1.67451
-1.67453
-1.67453
-1.67453
-1.67452
-1.67451
-1.6745
-1.6745
-1.67449
-1.6745
-1.67451
-1.67451
-1.67452
-1.67453
-1.67453
-1.67453
-1.67452
-1.67452
-1.67451
-1.6745
-1.6745
-1.67448
-1.77294
-1.77295
-1.77295
-1.77295
-1.77295
-1.77295
-1.77296
-1.77296
-1.77296
-1.77296
-1.77296
-1.77296
-1.77297
-1.77297
-1.77297
-1.77298
-1.77299
-1.773
-1.77301
-1.77303
-1.77303
-1.77303
-1.77303
-1.77302
-1.77301
-1.773
-1.773
-1.773
-1.77301
-1.77301
-1.77302
-1.77303
-1.77303
-1.77303
-1.77302
-1.77302
-1.77301
-1.77301
-1.773
-1.77299
-1.87145
-1.87145
-1.87145
-1.87146
-1.87146
-1.87146
-1.87146
-1.87146
-1.87146
-1.87146
-1.87146
-1.87146
-1.87147
-1.87147
-1.87147
-1.87148
-1.87149
-1.8715
-1.87151
-1.87152
-1.87153
-1.87153
-1.87152
-1.87152
-1.87151
-1.8715
-1.87149
-1.8715
-1.8715
-1.87151
-1.87152
-1.87153
-1.87153
-1.87153
-1.87152
-1.87152
-1.87152
-1.87151
-1.87151
-1.87149
-1.96995
-1.96996
-1.96996
-1.96996
-1.96996
-1.96996
-1.96996
-1.96996
-1.96996
-1.96996
-1.96996
-1.96996
-1.96997
-1.96997
-1.96997
-1.96998
-1.96998
-1.97
-1.97001
-1.97002
-1.97003
-1.97003
-1.97002
-1.97001
-1.97001
-1.97
-1.96999
-1.97
-1.97
-1.97001
-1.97002
-1.97002
-1.97003
-1.97002
-1.97002
-1.97002
-1.97002
-1.97002
-1.97001
-1.97
-2.06845
-2.06846
-2.06846
-2.06846
-2.06846
-2.06846
-2.06846
-2.06846
-2.06846
-2.06846
-2.06846
-2.06847
-2.06847
-2.06847
-2.06847
-2.06848
-2.06848
-2.06849
-2.0685
-2.06852
-2.06852
-2.06852
-2.06852
-2.06851
-2.0685
-2.06849
-2.06849
-2.06849
-2.0685
-2.06851
-2.06852
-2.06852
-2.06852
-2.06852
-2.06852
-2.06852
-2.06852
-2.06852
-2.06851
-2.0685
-2.16696
-2.16697
-2.16697
-2.16697
-2.16697
-2.16697
-2.16697
-2.16697
-2.16697
-2.16696
-2.16697
-2.16697
-2.16697
-2.16697
-2.16697
-2.16697
-2.16698
-2.16699
-2.167
-2.16701
-2.16702
-2.16702
-2.16701
-2.16701
-2.167
-2.16699
-2.16699
-2.16699
-2.167
-2.167
-2.16701
-2.16702
-2.16702
-2.16702
-2.16702
-2.16702
-2.16703
-2.16702
-2.16701
-2.16699
-2.26546
-2.26547
-2.26547
-2.26547
-2.26547
-2.26547
-2.26547
-2.26547
-2.26547
-2.26547
-2.26547
-2.26547
-2.26547
-2.26547
-2.26547
-2.26547
-2.26548
-2.26549
-2.2655
-2.2655
-2.26551
-2.26551
-2.26551
-2.2655
-2.26549
-2.26549
-2.26548
-2.26548
-2.26549
-2.2655
-2.26551
-2.26552
-2.26552
-2.26552
-2.26553
-2.26553
-2.26553
-2.26553
-2.26551
-2.26549
-2.36397
-2.36398
-2.36398
-2.36398
-2.36398
-2.36398
-2.36398
-2.36397
-2.36397
-2.36397
-2.36397
-2.36397
-2.36397
-2.36397
-2.36397
-2.36397
-2.36398
-2.36398
-2.36399
-2.364
-2.364
-2.364
-2.364
-2.36399
-2.36399
-2.36398
-2.36398
-2.36398
-2.36399
-2.364
-2.36401
-2.36401
-2.36402
-2.36402
-2.36403
-2.36403
-2.36403
-2.36402
-2.36401
-2.36398
-2.46248
-2.46248
-2.46248
-2.46249
-2.46249
-2.46248
-2.46248
-2.46248
-2.46248
-2.46247
-2.46247
-2.46247
-2.46247
-2.46247
-2.46247
-2.46247
-2.46248
-2.46248
-2.46249
-2.46249
-2.46249
-2.4625
-2.46249
-2.46249
-2.46248
-2.46247
-2.46247
-2.46247
-2.46248
-2.46249
-2.4625
-2.46251
-2.46252
-2.46252
-2.46253
-2.46253
-2.46253
-2.46252
-2.4625
-2.46247
-2.56098
-2.56099
-2.56099
-2.56099
-2.56099
-2.56099
-2.56099
-2.56098
-2.56098
-2.56098
-2.56098
-2.56098
-2.56097
-2.56097
-2.56098
-2.56098
-2.56098
-2.56098
-2.56098
-2.56099
-2.56099
-2.56099
-2.56099
-2.56098
-2.56097
-2.56097
-2.56096
-2.56096
-2.56097
-2.56098
-2.561
-2.56101
-2.56101
-2.56102
-2.56102
-2.56102
-2.56102
-2.56101
-2.56098
-2.56095
-2.65949
-2.6595
-2.6595
-2.6595
-2.6595
-2.6595
-2.6595
-2.65949
-2.65949
-2.65948
-2.65948
-2.65948
-2.65948
-2.65948
-2.65948
-2.65948
-2.65948
-2.65948
-2.65948
-2.65948
-2.65948
-2.65948
-2.65948
-2.65947
-2.65946
-2.65946
-2.65945
-2.65945
-2.65946
-2.65948
-2.65949
-2.6595
-2.65951
-2.65951
-2.65952
-2.65952
-2.65951
-2.65949
-2.65946
-2.65943
-2.758
-2.75801
-2.75801
-2.75801
-2.75801
-2.75801
-2.758
-2.758
-2.75799
-2.75799
-2.75799
-2.75799
-2.75798
-2.75798
-2.75798
-2.75798
-2.75798
-2.75798
-2.75798
-2.75798
-2.75798
-2.75798
-2.75798
-2.75797
-2.75796
-2.75795
-2.75794
-2.75794
-2.75795
-2.75797
-2.75798
-2.75799
-2.758
-2.75801
-2.75801
-2.75801
-2.758
-2.75798
-2.75794
-2.75791
-2.8565
-2.85651
-2.85651
-2.85652
-2.85652
-2.85651
-2.85651
-2.85651
-2.8565
-2.8565
-2.85649
-2.85649
-2.85649
-2.85649
-2.85648
-2.85648
-2.85648
-2.85648
-2.85647
-2.85648
-2.85648
-2.85648
-2.85647
-2.85646
-2.85645
-2.85643
-2.85643
-2.85643
-2.85644
-2.85646
-2.85647
-2.85648
-2.85649
-2.8565
-2.8565
-2.85649
-2.85648
-2.85646
-2.85642
-2.85639
-2.95501
-2.95502
-2.95502
-2.95502
-2.95502
-2.95502
-2.95502
-2.95501
-2.95501
-2.95501
-2.955
-2.955
-2.955
-2.95499
-2.95499
-2.95498
-2.95498
-2.95497
-2.95497
-2.95497
-2.95498
-2.95497
-2.95497
-2.95495
-2.95494
-2.95492
-2.95492
-2.95492
-2.95493
-2.95495
-2.95496
-2.95497
-2.95498
-2.95498
-2.95498
-2.95498
-2.95496
-2.95494
-2.9549
-2.95486
-3.0535
-3.05353
-3.05353
-3.05353
-3.05353
-3.05353
-3.05353
-3.05352
-3.05352
-3.05351
-3.05351
-3.05351
-3.0535
-3.0535
-3.05349
-3.05349
-3.05348
-3.05348
-3.05347
-3.05347
-3.05347
-3.05347
-3.05346
-3.05345
-3.05343
-3.05341
-3.0534
-3.0534
-3.05342
-3.05344
-3.05345
-3.05346
-3.05347
-3.05347
-3.05347
-3.05346
-3.05344
-3.05342
-3.05337
-3.05334
-3.15199
-3.15204
-3.15203
-3.15204
-3.15204
-3.15204
-3.15203
-3.15203
-3.15202
-3.15202
-3.15202
-3.15201
-3.15201
-3.15201
-3.152
-3.15199
-3.15198
-3.15198
-3.15197
-3.15198
-3.15198
-3.15197
-3.15196
-3.15194
-3.15192
-3.1519
-3.15189
-3.15189
-3.15191
-3.15192
-3.15194
-3.15195
-3.15196
-3.15196
-3.15195
-3.15194
-3.15192
-3.1519
-3.15186
-3.15183
-3.25047
-3.25053
-3.25054
-3.25054
-3.25054
-3.25054
-3.25054
-3.25054
-3.25053
-3.25053
-3.25052
-3.25052
-3.25052
-3.25051
-3.2505
-3.2505
-3.25049
-3.25048
-3.25048
-3.25048
-3.25048
-3.25047
-3.25045
-3.25043
-3.25041
-3.25039
-3.25038
-3.25038
-3.2504
-3.25041
-3.25043
-3.25044
-3.25044
-3.25044
-3.25044
-3.25042
-3.25041
-3.25038
-3.25035
-3.25032
-3.34894
-3.34902
-3.34904
-3.34905
-3.34905
-3.34905
-3.34905
-3.34904
-3.34904
-3.34903
-3.34903
-3.34903
-3.34902
-3.34902
-3.34901
-3.349
-3.34899
-3.34899
-3.34898
-3.34898
-3.34897
-3.34896
-3.34894
-3.34892
-3.34889
-3.34887
-3.34886
-3.34886
-3.34888
-3.3489
-3.34892
-3.34893
-3.34893
-3.34893
-3.34892
-3.34891
-3.34889
-3.34887
-3.34884
-3.34881
-3.44739
-3.44749
-3.44753
-3.44755
-3.44755
-3.44755
-3.44755
-3.44755
-3.44754
-3.44754
-3.44753
-3.44753
-3.44752
-3.44752
-3.44751
-3.4475
-3.44749
-3.44749
-3.44748
-3.44748
-3.44747
-3.44745
-3.44743
-3.44741
-3.44738
-3.44736
-3.44735
-3.44735
-3.44737
-3.44739
-3.44741
-3.44742
-3.44742
-3.44742
-3.44741
-3.4474
-3.44738
-3.44736
-3.44734
-3.44732
-3.54584
-3.54596
-3.54602
-3.54604
-3.54605
-3.54605
-3.54605
-3.54605
-3.54605
-3.54604
-3.54604
-3.54603
-3.54602
-3.54602
-3.54601
-3.546
-3.54599
-3.54599
-3.54598
-3.54597
-3.54596
-3.54594
-3.54592
-3.54589
-3.54587
-3.54585
-3.54584
-3.54584
-3.54586
-3.54588
-3.5459
-3.54591
-3.54592
-3.54591
-3.5459
-3.54589
-3.54587
-3.54586
-3.54584
-3.54582
-3.64427
-3.64441
-3.64449
-3.64453
-3.64455
-3.64455
-3.64455
-3.64455
-3.64454
-3.64454
-3.64453
-3.64453
-3.64452
-3.64451
-3.64451
-3.6445
-3.64449
-3.64448
-3.64447
-3.64446
-3.64445
-3.64443
-3.64441
-3.64438
-3.64436
-3.64435
-3.64433
-3.64434
-3.64435
-3.64438
-3.64439
-3.64441
-3.64441
-3.6444
-3.64439
-3.64438
-3.64436
-3.64435
-3.64434
-3.64432
-3.74271
-3.74285
-3.74297
-3.74302
-3.74304
-3.74304
-3.74304
-3.74304
-3.74304
-3.74303
-3.74303
-3.74302
-3.74301
-3.74301
-3.743
-3.74299
-3.74298
-3.74297
-3.74296
-3.74295
-3.74294
-3.74292
-3.74289
-3.74287
-3.74285
-3.74284
-3.74283
-3.74283
-3.74285
-3.74287
-3.74289
-3.7429
-3.7429
-3.7429
-3.74289
-3.74287
-3.74286
-3.74285
-3.74284
-3.74282
-3.84115
-3.8413
-3.84144
-3.84151
-3.84152
-3.84153
-3.84153
-3.84153
-3.84153
-3.84152
-3.84152
-3.84151
-3.8415
-3.8415
-3.84149
-3.84148
-3.84147
-3.84146
-3.84145
-3.84144
-3.84143
-3.84141
-3.84138
-3.84136
-3.84134
-3.84133
-3.84133
-3.84133
-3.84135
-3.84137
-3.84139
-3.8414
-3.8414
-3.84139
-3.84138
-3.84136
-3.84135
-3.84134
-3.84133
-3.84132
)
;

boundaryField
{
    floor
    {
        type            calculated;
        value           nonuniform List<scalar> 
40
(
0.0492107
0.0492449
0.0491211
0.0491068
0.0491323
0.04911
0.0491268
0.0491554
0.0491792
0.0491918
0.0491964
0.0491978
0.0491986
0.0491999
0.0492017
0.0492042
0.0492079
0.0492135
0.0492217
0.0492327
0.0492458
0.0492592
0.049273
0.0492856
0.0492944
0.0492959
0.0492886
0.049274
0.0492551
0.0492347
0.049215
0.0491974
0.049183
0.049172
0.0491591
0.0491365
0.0490975
0.0490615
0.0490746
0.049124
)
;
    }
    ceiling
    {
        type            calculated;
        value           nonuniform List<scalar> 
40
(
-3.89039
-3.89054
-3.89069
-3.89075
-3.89077
-3.89078
-3.89078
-3.89077
-3.89077
-3.89077
-3.89076
-3.89075
-3.89075
-3.89074
-3.89073
-3.89072
-3.89072
-3.89071
-3.8907
-3.89069
-3.89067
-3.89065
-3.89063
-3.89061
-3.89059
-3.89058
-3.89057
-3.89058
-3.8906
-3.89062
-3.89063
-3.89065
-3.89065
-3.89064
-3.89063
-3.89061
-3.8906
-3.89059
-3.89058
-3.89057
)
;
    }
    fixedWalls
    {
        type            calculated;
        value           nonuniform List<scalar> 
80
(
-6.93889e-18
-0.0984452
-0.196919
-0.295408
-0.393906
-0.492407
-0.590909
-0.689412
-0.787915
-0.886418
-0.984921
-1.08342
-1.18193
-1.28043
-1.37893
-1.47744
-1.57594
-1.67444
-1.77294
-1.87145
-1.96995
-2.06845
-2.16696
-2.26546
-2.36397
-2.46248
-2.56098
-2.65949
-2.758
-2.8565
-2.95501
-3.0535
-3.15199
-3.25047
-3.34894
-3.44739
-3.54584
-3.64427
-3.74271
-3.84115
-0.000102422
-0.0985618
-0.197017
-0.295477
-0.39395
-0.492434
-0.590928
-0.689428
-0.78793
-0.886435
-0.984941
-1.08345
-1.18195
-1.28046
-1.37897
-1.47747
-1.57598
-1.67448
-1.77299
-1.87149
-1.97
-2.0685
-2.16699
-2.26549
-2.36398
-2.46247
-2.56095
-2.65943
-2.75791
-2.85639
-2.95486
-3.05334
-3.15183
-3.25032
-3.34881
-3.44732
-3.54582
-3.64432
-3.74282
-3.84132
)
;
    }
    frontAndBack
    {
        type            empty;
    }
}


// ************************************************************************* //
