/*--------------------------------*- C++ -*----------------------------------*\
| =========                 |                                                 |
| \\      /  F ield         | OpenFOAM: The Open Source CFD Toolbox           |
|  \\    /   O peration     | Version:  4.1                                   |
|   \\  /    A nd           | Web:      www.OpenFOAM.org                      |
|    \\/     M anipulation  |                                                 |
\*---------------------------------------------------------------------------*/
FoamFile
{
    version     2.0;
    format      ascii;
    class       volScalarField;
    location    "300";
    object      p_rgh;
}
// * * * * * * * * * * * * * * * * * * * * * * * * * * * * * * * * * * * * * //

dimensions      [0 2 -2 0 0 0 0];

internalField   nonuniform List<scalar> 
1600
(
0.0492107
0.0492449
0.0491211
0.0491068
0.0491323
0.04911
0.0491268
0.0491554
0.0491792
0.0491918
0.0491964
0.0491978
0.0491986
0.0491999
0.0492017
0.0492042
0.0492079
0.0492135
0.0492217
0.0492327
0.0492458
0.0492592
0.049273
0.0492856
0.0492944
0.0492959
0.0492886
0.049274
0.0492551
0.0492347
0.049215
0.0491974
0.049183
0.049172
0.0491591
0.0491365
0.0490975
0.0490615
0.0490746
0.049124
0.0492288
0.0492759
0.0492017
0.0491737
0.0492319
0.0491668
0.0491919
0.0492382
0.0492653
0.0492755
0.0492769
0.0492739
0.049269
0.0492637
0.0492595
0.0492567
0.0492558
0.0492572
0.0492616
0.0492694
0.0492808
0.0492954
0.0493108
0.0493227
0.0493308
0.0493328
0.0493271
0.0493153
0.0493004
0.0492853
0.0492723
0.0492622
0.0492549
0.0492482
0.049238
0.0492178
0.0491723
0.0490951
0.0490756
0.0491243
0.0492425
0.0493235
0.0493104
0.0492613
0.0492886
0.0492271
0.0492383
0.0492725
0.0492868
0.0492882
0.0492839
0.0492772
0.0492704
0.0492644
0.0492598
0.0492568
0.0492556
0.0492568
0.0492608
0.0492682
0.0492793
0.0492937
0.0493091
0.0493213
0.0493294
0.0493316
0.0493263
0.0493146
0.0492998
0.0492848
0.0492719
0.0492624
0.0492562
0.0492516
0.0492448
0.04923
0.0491937
0.0491106
0.0490715
0.0491107
0.0492449
0.0493475
0.0493533
0.0493356
0.0493279
0.0492856
0.0492804
0.0492966
0.0492984
0.049293
0.049285
0.0492768
0.0492693
0.0492632
0.0492585
0.0492555
0.0492542
0.0492551
0.0492588
0.0492659
0.0492767
0.0492908
0.049306
0.0493187
0.0493267
0.0493296
0.049325
0.0493135
0.0492987
0.0492836
0.0492705
0.049261
0.0492551
0.0492518
0.0492478
0.0492386
0.04921
0.0491228
0.0490684
0.0491125
0.0492398
0.0493572
0.0493652
0.0493632
0.0493486
0.049327
0.049313
0.0493119
0.0493045
0.0492949
0.049285
0.0492758
0.049268
0.0492617
0.0492571
0.049254
0.0492525
0.0492531
0.0492563
0.0492628
0.0492731
0.0492867
0.0493017
0.0493149
0.0493229
0.0493269
0.049323
0.0493121
0.0492977
0.0492827
0.0492696
0.0492599
0.0492542
0.0492519
0.0492504
0.0492463
0.0492274
0.0491377
0.0490677
0.0491103
0.0492313
0.0493622
0.0493677
0.0493667
0.0493569
0.0493464
0.0493312
0.0493197
0.0493075
0.0492956
0.0492844
0.0492745
0.0492664
0.0492601
0.0492555
0.0492522
0.0492504
0.0492504
0.049253
0.0492588
0.0492683
0.0492813
0.0492961
0.0493097
0.0493182
0.0493229
0.0493201
0.0493102
0.0492963
0.0492817
0.0492688
0.0492591
0.0492536
0.049252
0.0492525
0.0492527
0.049244
0.0491565
0.0490695
0.0491029
0.0492213
0.0493658
0.0493688
0.0493663
0.049359
0.0493517
0.0493378
0.0493227
0.0493086
0.0492953
0.0492833
0.049273
0.0492647
0.0492584
0.0492536
0.0492501
0.0492478
0.0492471
0.0492488
0.0492536
0.0492622
0.0492745
0.0492891
0.049303
0.0493127
0.0493177
0.0493163
0.0493076
0.0492945
0.0492805
0.049268
0.0492585
0.0492532
0.0492522
0.0492543
0.0492577
0.0492567
0.049178
0.0490743
0.0490923
0.0492107
0.0493688
0.0493698
0.0493657
0.0493589
0.0493515
0.0493387
0.0493233
0.0493085
0.0492946
0.049282
0.0492713
0.0492629
0.0492564
0.0492515
0.0492476
0.0492447
0.0492431
0.0492436
0.0492471
0.0492546
0.0492661
0.0492805
0.049295
0.049306
0.0493116
0.0493119
0.0493044
0.0492922
0.049279
0.049267
0.0492579
0.0492528
0.0492523
0.0492556
0.0492614
0.0492658
0.0492005
0.0490822
0.0490806
0.0491998
0.0493715
0.049371
0.0493654
0.0493583
0.04935
0.0493377
0.0493228
0.0493079
0.0492936
0.0492806
0.0492696
0.0492609
0.0492543
0.0492491
0.0492447
0.0492409
0.0492383
0.0492374
0.0492394
0.0492455
0.0492561
0.0492703
0.0492856
0.0492983
0.049305
0.0493069
0.0493006
0.0492893
0.0492771
0.0492659
0.0492572
0.0492524
0.0492522
0.0492565
0.0492641
0.0492721
0.0492219
0.0490924
0.0490693
0.0491888
0.0493741
0.0493723
0.0493655
0.0493576
0.0493485
0.0493363
0.0493219
0.049307
0.0492925
0.0492792
0.0492679
0.049259
0.0492521
0.0492465
0.0492414
0.0492367
0.0492326
0.0492301
0.0492303
0.0492348
0.0492444
0.0492586
0.0492749
0.0492894
0.0492981
0.0493013
0.0492965
0.0492862
0.0492749
0.0492645
0.0492565
0.049252
0.0492521
0.049257
0.049266
0.0492764
0.0492404
0.0491042
0.0490588
0.049178
0.0493768
0.0493738
0.0493659
0.0493573
0.0493473
0.0493351
0.049321
0.0493062
0.0492915
0.0492779
0.0492663
0.0492571
0.0492499
0.0492438
0.0492378
0.0492319
0.0492262
0.0492218
0.0492199
0.0492225
0.049231
0.0492452
0.0492627
0.0492796
0.049291
0.0492954
0.0492923
0.0492829
0.0492725
0.0492631
0.0492557
0.0492516
0.0492519
0.0492572
0.0492672
0.0492792
0.0492549
0.0491165
0.0490492
0.0491674
0.0493795
0.0493755
0.0493665
0.0493572
0.0493466
0.0493342
0.0493202
0.0493054
0.0492906
0.0492768
0.049265
0.0492556
0.0492479
0.0492411
0.049234
0.0492266
0.0492191
0.0492125
0.0492083
0.0492088
0.049216
0.0492303
0.0492493
0.0492688
0.0492834
0.0492895
0.0492883
0.0492797
0.0492701
0.0492617
0.049255
0.0492512
0.0492517
0.0492573
0.0492679
0.049281
0.0492655
0.0491285
0.0490405
0.049157
0.0493824
0.0493773
0.0493675
0.0493574
0.0493462
0.0493337
0.0493197
0.0493049
0.04929
0.049276
0.049264
0.0492544
0.0492463
0.0492385
0.0492302
0.0492211
0.0492114
0.0492023
0.0491956
0.0491937
0.0491996
0.049214
0.0492346
0.0492571
0.0492753
0.049284
0.0492843
0.0492768
0.0492678
0.0492605
0.0492544
0.049251
0.0492515
0.0492573
0.0492683
0.0492821
0.0492727
0.0491395
0.0490324
0.0491468
0.0493853
0.0493794
0.0493688
0.049358
0.0493463
0.0493335
0.0493195
0.0493047
0.0492898
0.0492757
0.0492636
0.0492538
0.0492452
0.0492365
0.0492265
0.0492153
0.0492033
0.0491914
0.0491818
0.0491775
0.049182
0.0491965
0.0492189
0.0492447
0.0492669
0.0492788
0.0492805
0.0492746
0.0492658
0.0492595
0.0492541
0.0492509
0.0492515
0.0492574
0.0492686
0.0492828
0.0492774
0.0491492
0.0490249
0.0491369
0.0493883
0.0493816
0.0493704
0.0493591
0.049347
0.0493339
0.0493198
0.049305
0.04929
0.0492759
0.0492638
0.0492539
0.049245
0.0492351
0.0492232
0.0492097
0.049195
0.04918
0.0491675
0.0491604
0.0491636
0.0491783
0.0492023
0.0492315
0.0492584
0.0492739
0.0492772
0.0492729
0.0492644
0.0492589
0.049254
0.049251
0.0492516
0.0492576
0.0492689
0.0492832
0.0492803
0.0491574
0.0490179
0.0491273
0.0493914
0.049384
0.0493724
0.0493607
0.0493483
0.0493349
0.0493206
0.0493057
0.0492907
0.0492767
0.0492648
0.049255
0.0492458
0.0492347
0.0492205
0.0492044
0.0491867
0.0491685
0.0491528
0.0491431
0.049145
0.0491598
0.0491853
0.0492178
0.0492496
0.0492692
0.0492747
0.0492718
0.0492636
0.0492586
0.0492542
0.0492513
0.049252
0.049258
0.0492694
0.0492836
0.0492819
0.049164
0.0490112
0.0491179
0.0493946
0.0493867
0.049375
0.0493631
0.0493505
0.0493367
0.0493222
0.0493071
0.0492921
0.0492783
0.0492666
0.0492572
0.0492481
0.0492359
0.049219
0.0491997
0.049179
0.0491573
0.049138
0.049126
0.0491268
0.0491419
0.0491682
0.0492037
0.0492408
0.049265
0.0492727
0.0492713
0.0492637
0.0492586
0.0492546
0.0492519
0.0492527
0.0492588
0.0492702
0.0492841
0.0492827
0.049169
0.0490047
0.0491088
0.049398
0.0493899
0.0493783
0.0493666
0.0493538
0.0493397
0.0493247
0.0493093
0.0492943
0.0492807
0.0492695
0.0492607
0.0492519
0.0492388
0.049219
0.0491962
0.0491721
0.0491469
0.049124
0.0491097
0.0491101
0.0491253
0.0491516
0.0491893
0.0492319
0.0492612
0.0492713
0.0492717
0.0492647
0.0492588
0.0492553
0.0492527
0.0492537
0.04926
0.0492713
0.0492848
0.0492829
0.0491724
0.0489984
0.0491
0.0494015
0.0493936
0.0493827
0.0493715
0.0493587
0.0493441
0.0493284
0.0493126
0.0492974
0.049284
0.0492734
0.0492654
0.0492574
0.0492441
0.0492211
0.0491942
0.0491665
0.0491378
0.0491114
0.0490952
0.0490959
0.0491111
0.0491362
0.049175
0.049223
0.0492579
0.0492705
0.0492729
0.0492667
0.0492596
0.049256
0.0492538
0.0492551
0.0492617
0.049273
0.0492857
0.0492825
0.0491743
0.0489922
0.0490914
0.0494052
0.0493981
0.0493884
0.0493782
0.0493655
0.0493503
0.0493337
0.0493171
0.0493017
0.0492885
0.0492784
0.0492715
0.0492647
0.0492516
0.0492256
0.0491944
0.0491628
0.0491305
0.0491006
0.0490831
0.0490853
0.0491007
0.0491229
0.049161
0.049214
0.049255
0.0492701
0.0492746
0.0492696
0.0492619
0.0492573
0.0492552
0.0492572
0.049264
0.0492752
0.0492868
0.0492816
0.0491746
0.0489861
0.0490828
0.049409
0.0494035
0.0493956
0.0493866
0.0493741
0.0493583
0.0493408
0.0493233
0.0493074
0.0492942
0.0492848
0.049279
0.0492736
0.0492608
0.0492321
0.0491969
0.0491619
0.0491262
0.0490922
0.0490741
0.0490794
0.0490948
0.0491125
0.0491475
0.049205
0.0492527
0.0492701
0.0492767
0.0492732
0.0492657
0.0492601
0.0492576
0.0492599
0.0492672
0.049278
0.0492879
0.0492799
0.0491731
0.0489803
0.0490743
0.049413
0.0494095
0.0494038
0.0493962
0.0493842
0.0493681
0.0493499
0.0493315
0.0493149
0.0493015
0.0492925
0.0492878
0.049284
0.0492715
0.0492406
0.0492016
0.0491631
0.0491247
0.049088
0.0490699
0.0490788
0.0490943
0.0491059
0.049135
0.049196
0.0492509
0.0492704
0.049279
0.0492772
0.0492704
0.0492645
0.0492615
0.0492631
0.0492711
0.0492813
0.0492882
0.0492762
0.0491692
0.0489751
0.0490656
0.0494171
0.0494162
0.0494129
0.0494069
0.0493957
0.04938
0.0493615
0.0493423
0.0493247
0.0493107
0.0493018
0.049298
0.0492957
0.0492837
0.0492509
0.0492081
0.0491664
0.0491258
0.0490881
0.0490719
0.0490836
0.0490994
0.0491042
0.049124
0.0491867
0.0492496
0.0492711
0.0492812
0.049281
0.0492754
0.0492699
0.049267
0.0492678
0.0492753
0.0492841
0.0492858
0.0492667
0.0491616
0.0489719
0.0490567
0.049421
0.049423
0.0494225
0.0494187
0.0494092
0.0493945
0.0493763
0.0493566
0.0493378
0.0493226
0.0493131
0.0493097
0.0493085
0.0492972
0.0492625
0.0492163
0.0491715
0.0491292
0.0490918
0.0490787
0.0490933
0.0491092
0.0491078
0.0491152
0.0491772
0.0492489
0.0492722
0.0492833
0.0492844
0.0492798
0.0492749
0.0492727
0.0492736
0.0492789
0.0492828
0.0492764
0.0492492
0.0491523
0.0489717
0.0490473
0.0494246
0.0494297
0.049432
0.049431
0.0494242
0.0494119
0.049395
0.0493752
0.0493553
0.0493384
0.0493274
0.0493234
0.0493226
0.0493118
0.0492754
0.0492257
0.0491781
0.0491344
0.0490985
0.0490893
0.0491071
0.0491224
0.0491161
0.0491097
0.0491674
0.0492486
0.0492739
0.0492853
0.049287
0.0492828
0.049278
0.0492759
0.0492768
0.0492769
0.0492717
0.0492577
0.0492278
0.0491419
0.0489748
0.0490376
0.0494276
0.0494357
0.0494409
0.0494429
0.0494394
0.0494306
0.0494166
0.0493982
0.0493779
0.0493591
0.0493456
0.0493397
0.0493382
0.0493275
0.0492893
0.0492361
0.0491859
0.0491412
0.0491078
0.0491033
0.0491241
0.0491379
0.0491271
0.0491088
0.0491571
0.0492487
0.0492762
0.0492873
0.0492889
0.049284
0.0492778
0.0492734
0.0492705
0.0492632
0.0492508
0.0492336
0.0492041
0.0491312
0.0489816
0.0490274
0.04943
0.0494409
0.0494484
0.0494531
0.0494529
0.049448
0.049438
0.0494231
0.0494043
0.0493846
0.0493683
0.0493592
0.0493553
0.0493443
0.0493045
0.0492474
0.0491948
0.0491497
0.0491198
0.0491211
0.049144
0.0491548
0.0491392
0.0491121
0.0491467
0.0492489
0.0492792
0.0492894
0.0492901
0.0492836
0.0492742
0.0492647
0.0492546
0.0492408
0.0492249
0.0492068
0.0491801
0.0491211
0.0489922
0.0490169
0.0494317
0.0494449
0.0494541
0.0494609
0.0494631
0.0494612
0.0494553
0.0494452
0.0494305
0.0494125
0.0493947
0.0493816
0.0493736
0.049363
0.0493213
0.0492602
0.0492052
0.0491606
0.0491354
0.0491432
0.0491664
0.0491721
0.0491515
0.0491186
0.0491369
0.049249
0.0492833
0.0492919
0.0492911
0.0492821
0.0492683
0.0492522
0.0492346
0.0492159
0.0491981
0.0491801
0.0491574
0.0491124
0.0490065
0.0490064
0.0494328
0.049448
0.0494579
0.0494661
0.0494697
0.0494695
0.0494665
0.0494609
0.0494518
0.0494385
0.0494222
0.0494059
0.0493936
0.0493801
0.0493409
0.0492757
0.0492187
0.0491756
0.0491563
0.0491702
0.0491907
0.0491891
0.049163
0.0491262
0.0491291
0.0492483
0.0492883
0.0492948
0.0492921
0.0492801
0.0492617
0.0492392
0.0492152
0.0491929
0.0491734
0.0491559
0.0491376
0.0491061
0.0490244
0.0489962
0.0494331
0.0494502
0.0494601
0.0494689
0.0494731
0.0494736
0.049472
0.0494692
0.0494645
0.0494566
0.0494453
0.0494316
0.0494178
0.0493977
0.0493628
0.0492962
0.0492377
0.0491973
0.0491845
0.0492021
0.0492157
0.0492044
0.0491727
0.0491335
0.0491239
0.0492463
0.0492942
0.0492981
0.0492934
0.0492785
0.049256
0.0492286
0.0492
0.0491749
0.0491539
0.0491369
0.0491228
0.049104
0.049046
0.0489869
0.0494328
0.0494518
0.0494608
0.0494697
0.0494741
0.0494746
0.049474
0.0494726
0.0494698
0.049465
0.0494578
0.0494477
0.0494342
0.0494157
0.0493857
0.0493249
0.0492657
0.0492285
0.0492217
0.049238
0.0492393
0.0492164
0.0491795
0.0491396
0.049122
0.049242
0.0493011
0.0493019
0.049295
0.0492778
0.0492526
0.0492223
0.0491911
0.0491645
0.0491428
0.0491265
0.0491165
0.0491093
0.0490736
0.0489795
0.0494303
0.049453
0.0494604
0.0494688
0.0494722
0.0494731
0.0494734
0.0494727
0.0494704
0.0494665
0.0494609
0.0494532
0.0494426
0.049429
0.0494082
0.049362
0.0493061
0.0492721
0.0492685
0.0492741
0.0492577
0.0492228
0.0491821
0.0491435
0.0491231
0.0492353
0.0493088
0.049306
0.0492969
0.0492781
0.0492517
0.0492209
0.0491898
0.0491634
0.0491428
0.0491288
0.0491237
0.0491283
0.0491139
0.0489789
0.0493982
0.0494533
0.0494601
0.0494655
0.0494678
0.0494692
0.04947
0.0494693
0.0494665
0.0494616
0.0494552
0.0494476
0.049439
0.0494302
0.0494203
0.0493999
0.0493567
0.0493267
0.0493196
0.0493015
0.0492652
0.0492205
0.0491789
0.0491438
0.0491243
0.0492279
0.0493168
0.0493101
0.0492989
0.0492793
0.0492532
0.0492238
0.0491951
0.0491713
0.0491543
0.0491452
0.0491474
0.0491657
0.049177
0.0489878
0.0493455
0.0494364
0.0494517
0.0494568
0.0494583
0.0494594
0.0494598
0.0494583
0.0494538
0.0494463
0.0494367
0.0494261
0.0494166
0.0494099
0.0494074
0.0494071
0.0493946
0.0493736
0.0493465
0.0493043
0.0492541
0.0492062
0.0491682
0.0491396
0.0491238
0.0492196
0.049325
0.0493142
0.0493007
0.0492807
0.0492561
0.0492295
0.0492049
0.0491856
0.049174
0.0491716
0.0491822
0.049213
0.0492563
0.0490082
0.0492837
0.0493779
0.0494068
0.0494189
0.0494228
0.0494242
0.0494242
0.049422
0.0494158
0.0494051
0.0493907
0.0493763
0.0493644
0.0493569
0.0493557
0.0493596
0.0493606
0.0493464
0.0493133
0.0492672
0.0492187
0.0491777
0.0491491
0.04913
0.0491203
0.0492099
0.0493326
0.0493179
0.049302
0.0492819
0.0492593
0.0492365
0.0492166
0.0492025
0.0491966
0.0492003
0.0492167
0.0492518
0.0493118
0.0490403
0.0492207
0.0492836
0.0493078
0.0493216
0.049328
0.0493308
0.0493319
0.0493301
0.0493233
0.0493109
0.0492964
0.0492826
0.0492711
0.0492633
0.0492607
0.0492621
0.0492619
0.0492516
0.0492273
0.049194
0.049161
0.0491362
0.0491223
0.0491149
0.049113
0.0491978
0.049339
0.0493213
0.0493024
0.0492823
0.0492619
0.0492431
0.0492281
0.0492191
0.0492178
0.0492251
0.049243
0.049275
0.0493254
0.0490828
0.0491633
0.0491751
0.0491789
0.0491842
0.0491869
0.0491877
0.0491876
0.0491843
0.0491775
0.0491691
0.0491598
0.0491506
0.0491428
0.0491375
0.0491353
0.0491354
0.0491346
0.0491289
0.0491171
0.0491027
0.0490916
0.0490879
0.0490913
0.0490961
0.0491021
0.0491832
0.0493428
0.0493244
0.0493022
0.0492814
0.0492631
0.0492483
0.0492379
0.0492335
0.0492356
0.0492435
0.0492582
0.0492829
0.0493223
0.0491322
0.0491165
0.0490702
0.0490483
0.049042
0.0490389
0.0490359
0.0490319
0.0490279
0.0490236
0.0490191
0.0490146
0.0490106
0.0490079
0.0490069
0.0490077
0.0490098
0.0490117
0.0490125
0.0490131
0.0490167
0.0490264
0.0490431
0.0490628
0.0490781
0.0490899
0.0491698
0.0493411
0.0493281
0.0493019
0.0492794
0.0492623
0.049251
0.0492453
0.0492453
0.04925
0.0492571
0.0492664
0.0492831
0.0493211
0.0491818
0.0490839
0.0489813
0.0489337
0.048917
0.0489086
0.0489022
0.0488985
0.0488964
0.048895
0.0488943
0.0488944
0.0488954
0.0488979
0.0489018
0.048907
0.0489132
0.04892
0.048928
0.0489393
0.048957
0.0489826
0.0490146
0.0490465
0.0490688
0.0490833
0.0491638
0.0493357
0.0493344
0.0493044
0.0492787
0.0492603
0.0492505
0.0492492
0.0492538
0.0492617
0.0492685
0.0492732
0.0492914
0.0493269
0.0492268
0.0490823
0.0489382
0.0488724
0.0488512
0.0488425
0.0488382
0.0488374
0.0488387
0.0488411
0.0488444
0.0488487
0.0488542
0.0488611
0.0488696
0.0488794
0.0488904
0.0489023
0.0489159
0.0489333
0.0489569
0.0489881
0.0490246
0.0490589
0.0490844
0.0491375
0.0492325
0.0493413
0.0493522
0.0493237
0.049299
0.0492812
0.0492717
0.0492704
0.0492768
0.0492868
0.0492935
0.0492946
0.0493176
0.0493477
)
;

boundaryField
{
    floor
    {
        type            fixedFluxPressure;
        gradient        uniform 0;
        value           nonuniform List<scalar> 
40
(
0.0492107
0.0492449
0.0491211
0.0491068
0.0491323
0.04911
0.0491268
0.0491554
0.0491792
0.0491918
0.0491964
0.0491978
0.0491986
0.0491999
0.0492017
0.0492042
0.0492079
0.0492135
0.0492217
0.0492327
0.0492458
0.0492592
0.049273
0.0492856
0.0492944
0.0492959
0.0492886
0.049274
0.0492551
0.0492347
0.049215
0.0491974
0.049183
0.049172
0.0491591
0.0491365
0.0490975
0.0490615
0.0490746
0.049124
)
;
    }
    ceiling
    {
        type            fixedFluxPressure;
        gradient        nonuniform List<scalar> 
40
(
0.235355
0.233879
0.233828
0.234145
0.234686
0.235352
0.235967
0.236537
0.23706
0.237532
0.237943
0.238275
0.238506
0.238606
0.23854
0.238269
0.237757
0.236973
0.235896
0.234502
0.232763
0.230646
0.228229
0.226105
0.224464
0.215753
0.197715
0.174722
0.169427
0.170983
0.172268
0.173475
0.174725
0.17614
0.177576
0.179062
0.180593
0.182221
0.178758
0.175136
)
;
        value           nonuniform List<scalar> 
40
(
0.0504036
0.0502517
0.0501073
0.0500432
0.0500246
0.0500193
0.0500181
0.0500201
0.050024
0.0500288
0.0500342
0.0500401
0.0500467
0.0500541
0.0500623
0.0500708
0.0500792
0.0500872
0.0500954
0.0501058
0.0501207
0.0501413
0.0501657
0.0501894
0.0502067
0.0502162
0.0502211
0.0502149
0.0501994
0.0501786
0.0501603
0.0501486
0.0501454
0.0501511
0.0501646
0.0501821
0.0501965
0.0502057
0.0502114
0.0502234
)
;
    }
    fixedWalls
    {
        type            fixedFluxPressure;
        gradient        uniform 0;
        value           nonuniform List<scalar> 
80
(
0.0492107
0.0492288
0.0492425
0.0492449
0.0492398
0.0492313
0.0492213
0.0492107
0.0491998
0.0491888
0.049178
0.0491674
0.049157
0.0491468
0.0491369
0.0491273
0.0491179
0.0491088
0.0491
0.0490914
0.0490828
0.0490743
0.0490656
0.0490567
0.0490473
0.0490376
0.0490274
0.0490169
0.0490064
0.0489962
0.0489869
0.0489795
0.0489789
0.0489878
0.0490082
0.0490403
0.0490828
0.0491322
0.0491818
0.0492268
0.049124
0.0491243
0.0491107
0.0491125
0.0491103
0.0491029
0.0490923
0.0490806
0.0490693
0.0490588
0.0490492
0.0490405
0.0490324
0.0490249
0.0490179
0.0490112
0.0490047
0.0489984
0.0489922
0.0489861
0.0489803
0.0489751
0.0489719
0.0489717
0.0489748
0.0489816
0.0489922
0.0490065
0.0490244
0.049046
0.0490736
0.0491139
0.049177
0.0492563
0.0493118
0.0493254
0.0493223
0.0493211
0.0493269
0.0493477
)
;
    }
    frontAndBack
    {
        type            empty;
    }
}


// ************************************************************************* //
