/*--------------------------------*- C++ -*----------------------------------*\
| =========                 |                                                 |
| \\      /  F ield         | OpenFOAM: The Open Source CFD Toolbox           |
|  \\    /   O peration     | Version:  4.1                                   |
|   \\  /    A nd           | Web:      www.OpenFOAM.org                      |
|    \\/     M anipulation  |                                                 |
\*---------------------------------------------------------------------------*/
FoamFile
{
    version     2.0;
    format      ascii;
    class       surfaceScalarField;
    location    "300";
    object      phi;
}
// * * * * * * * * * * * * * * * * * * * * * * * * * * * * * * * * * * * * * //

dimensions      [0 3 -1 0 0 0 0];

internalField   nonuniform List<scalar> 
9850
(
-3.50411e-06
3.50411e-06
-2.55411e-06
-9.49997e-07
4.11977e-07
-2.96609e-06
2.44554e-06
-2.03356e-06
3.75635e-06
-1.31081e-06
4.50833e-06
-7.51979e-07
4.85608e-06
-3.47749e-07
4.92921e-06
-7.3125e-08
4.8105e-06
1.18706e-07
4.48878e-06
3.21718e-07
3.66367e-06
8.25116e-07
5.96423e-07
3.06724e-06
-4.16178e-06
4.75821e-06
-6.84826e-06
2.68648e-06
-7.83452e-06
9.86255e-07
-8.50171e-06
6.67192e-07
-9.20839e-06
7.06681e-07
-9.77034e-06
5.61952e-07
-1.00664e-05
2.96028e-07
-1.01208e-05
5.44207e-08
-1.0014e-05
-1.0679e-07
-9.81064e-06
-2.03364e-07
-9.53896e-06
-2.71679e-07
-9.20147e-06
-3.37492e-07
-8.7925e-06
-4.08969e-07
-8.30724e-06
-4.85251e-07
-7.74397e-06
-5.63273e-07
-7.10408e-06
-6.39892e-07
-6.39181e-06
-7.12269e-07
-5.61397e-06
-7.77836e-07
-4.77979e-06
-8.34183e-07
-3.90073e-06
-8.7906e-07
-2.98981e-06
-9.10923e-07
-2.06091e-06
-9.28897e-07
-1.13378e-06
-9.27132e-07
-2.30374e-07
-9.03405e-07
9.91484e-07
-1.22186e-06
2.09087e-06
-1.09939e-06
3.06192e-06
-9.71048e-07
3.93772e-06
-8.75801e-07
4.74427e-06
-8.06554e-07
5.49771e-06
-7.53439e-07
6.20915e-06
-7.11442e-07
6.88749e-06
-6.78336e-07
7.54009e-06
-6.52599e-07
8.17294e-06
-6.32854e-07
8.7908e-06
-6.17854e-07
9.39727e-06
-6.06471e-07
9.99493e-06
-5.97662e-07
1.05854e-05
-5.9044e-07
1.11692e-05
-5.83843e-07
1.17461e-05
-5.76922e-07
1.23149e-05
-5.6873e-07
1.28732e-05
-5.58315e-07
1.34179e-05
-5.44733e-07
1.3945e-05
-5.27048e-07
1.44493e-05
-5.04364e-07
1.49252e-05
-4.75842e-07
1.53659e-05
-4.40742e-07
1.57644e-05
-3.98465e-07
1.6113e-05
-3.48627e-07
1.64041e-05
-2.91147e-07
1.66306e-05
-2.26418e-07
1.67862e-05
-1.55592e-07
1.68673e-05
-8.11142e-08
1.68741e-05
-6.80591e-09
1.68089e-05
6.51642e-08
1.66742e-05
1.34687e-07
1.64737e-05
2.00578e-07
1.62128e-05
2.60822e-07
1.58989e-05
3.13891e-07
1.55377e-05
3.61273e-07
1.51249e-05
4.128e-07
1.46274e-05
4.97439e-07
1.39416e-05
6.85854e-07
1.2798e-05
1.14353e-06
1.05588e-05
2.23929e-06
6.05842e-06
4.50033e-06
-2.29631e-07
6.28805e-06
-4.26823e-06
4.0386e-06
-5.81271e-06
1.54448e-06
-6.26331e-06
4.50607e-07
-6.14174e-06
-1.21568e-07
-5.80092e-06
-3.40822e-07
-5.35234e-06
-4.48586e-07
-4.77001e-06
-5.82326e-07
-3.9737e-06
-7.96314e-07
-2.87521e-06
-1.09848e-06
-1.39669e-06
-1.47853e-06
4.76681e-07
-1.87337e-06
2.51401e-06
-2.03733e-06
3.99868e-06
-1.48467e-06
4.10646e-06
-1.07782e-07
1.03225e-06
3.07421e-06
-3.48475e-06
4.517e-06
-6.00251e-06
2.51776e-06
-3.31216e-06
-2.69035e-06
5.47782e-07
-3.85994e-06
3.01392e-06
-2.46614e-06
3.01392e-06
-2.13152e-06
5.63563e-06
-1.24507e-06
-1.83644e-06
4.24515e-07
-4.63568e-06
2.00553e-06
-3.61458e-06
3.11339e-06
-2.41867e-06
3.70663e-06
-1.34522e-06
3.85669e-06
-4.97813e-07
3.67287e-06
1.10697e-07
3.27693e-06
5.14653e-07
2.68597e-06
9.12676e-07
1.12701e-06
2.38407e-06
-2.63393e-06
6.82819e-06
-5.64938e-06
7.77365e-06
-7.25648e-06
4.29358e-06
-7.97805e-06
1.70782e-06
-8.41643e-06
1.10557e-06
-8.80364e-06
1.0939e-06
-9.12297e-06
8.81283e-07
-9.33658e-06
5.0964e-07
-9.44249e-06
1.6033e-07
-9.45906e-06
-9.0224e-08
-9.39034e-06
-2.7208e-07
-9.23059e-06
-4.31435e-07
-8.97081e-06
-5.97269e-07
-8.60836e-06
-7.71419e-07
-8.14601e-06
-9.47601e-07
-7.58939e-06
-1.11989e-06
-6.94556e-06
-1.28373e-06
-6.22254e-06
-1.43529e-06
-5.42931e-06
-1.57107e-06
-4.57561e-06
-1.68788e-06
-3.67155e-06
-1.78312e-06
-2.7269e-06
-1.85557e-06
-1.74892e-06
-1.90688e-06
-7.31269e-07
-1.94478e-06
3.58291e-07
-1.99297e-06
1.26607e-06
-2.12964e-06
2.16392e-06
-1.99724e-06
3.03924e-06
-1.84637e-06
3.87695e-06
-1.71351e-06
4.6742e-06
-1.6038e-06
5.43493e-06
-1.51417e-06
6.16487e-06
-1.44138e-06
6.86974e-06
-1.38321e-06
7.55483e-06
-1.33769e-06
8.22482e-06
-1.30284e-06
8.88359e-06
-1.27663e-06
9.53423e-06
-1.25711e-06
1.0179e-05
-1.24239e-06
1.08192e-05
-1.23065e-06
1.14554e-05
-1.22009e-06
1.20874e-05
-1.20892e-06
1.2714e-05
-1.19533e-06
1.33332e-05
-1.17751e-06
1.39421e-05
-1.15361e-06
1.45369e-05
-1.12183e-06
1.51129e-05
-1.08038e-06
1.56647e-05
-1.02762e-06
1.6186e-05
-9.62045e-07
1.66699e-05
-8.82404e-07
1.71091e-05
-7.87823e-07
1.74959e-05
-6.77942e-07
1.78226e-05
-5.53141e-07
1.80819e-05
-4.14849e-07
1.82665e-05
-2.65768e-07
1.83684e-05
-1.08686e-07
1.83807e-05
5.29399e-08
1.83014e-05
2.13983e-07
1.81307e-05
3.71238e-07
1.78696e-05
5.21932e-07
1.75182e-05
6.65251e-07
1.70727e-05
8.06809e-07
1.65177e-05
9.67788e-07
1.58122e-05
1.20294e-06
1.48616e-05
1.63648e-06
1.34701e-05
2.53502e-06
1.13146e-05
4.39474e-06
8.14954e-06
7.66543e-06
3.71367e-06
1.07239e-05
-1.02052e-06
8.77279e-06
-3.04816e-06
3.57211e-06
-3.65869e-06
1.06114e-06
-3.97201e-06
1.91749e-07
-4.21178e-06
-1.01043e-07
-4.34244e-06
-3.17934e-07
-4.31531e-06
-6.09454e-07
-4.0687e-06
-1.04292e-06
-3.54338e-06
-1.6238e-06
-2.72236e-06
-2.29955e-06
-1.68709e-06
-2.90863e-06
-6.6407e-07
-3.06035e-06
-7.61983e-08
-2.07254e-06
-4.6852e-07
2.8454e-07
-1.98474e-06
4.59043e-06
-3.45264e-06
5.9849e-06
-3.41564e-06
2.48076e-06
-7.23186e-07
-5.38281e-06
7.00783e-07
-5.28391e-06
1.77184e-06
-3.53719e-06
4.78575e-06
-1.43642e-06
7.07205e-06
-2.93516e-07
-2.97935e-06
1.02111e-06
-5.9503e-06
2.28603e-06
-4.8795e-06
3.19523e-06
-3.32787e-06
3.62265e-06
-1.77264e-06
3.57433e-06
-4.49488e-07
3.09384e-06
5.91184e-07
2.24388e-06
1.36461e-06
1.08969e-06
2.06687e-06
-1.64466e-06
5.11842e-06
-4.51988e-06
9.70341e-06
-6.09868e-06
9.35245e-06
-6.96149e-06
5.15638e-06
-7.54933e-06
2.29567e-06
-8.01201e-06
1.56825e-06
-8.31318e-06
1.39507e-06
-8.54496e-06
1.11306e-06
-8.76037e-06
7.25053e-07
-8.94286e-06
3.42816e-07
-9.04398e-06
1.08921e-08
-9.02948e-06
-2.86578e-07
-8.88937e-06
-5.7154e-07
-8.63237e-06
-8.54275e-07
-8.26995e-06
-1.13384e-06
-7.81122e-06
-1.40633e-06
-7.2637e-06
-1.66741e-06
-6.63473e-06
-1.9127e-06
-5.93223e-06
-2.13779e-06
-5.16508e-06
-2.33821e-06
-4.34318e-06
-2.50979e-06
-3.47714e-06
-2.64916e-06
-2.57769e-06
-2.75501e-06
-1.65383e-06
-2.83074e-06
-7.10608e-07
-2.888e-06
2.36126e-07
-2.9397e-06
1.06907e-06
-2.96258e-06
1.87576e-06
-2.80393e-06
2.66021e-06
-2.63082e-06
3.41659e-06
-2.46989e-06
4.142e-06
-2.32921e-06
4.83859e-06
-2.21075e-06
5.5109e-06
-2.1137e-06
6.164e-06
-2.0363e-06
6.80265e-06
-1.97634e-06
7.4311e-06
-1.9313e-06
8.05296e-06
-1.89849e-06
8.67109e-06
-1.87524e-06
9.28762e-06
-1.85892e-06
9.9039e-06
-1.84693e-06
1.05205e-05
-1.83671e-06
1.11373e-05
-1.82568e-06
1.17531e-05
-1.8112e-06
1.23662e-05
-1.79058e-06
1.29737e-05
-1.76109e-06
1.35719e-05
-1.72e-06
1.41561e-05
-1.66463e-06
1.47209e-05
-1.59242e-06
1.52599e-05
-1.50102e-06
1.57659e-05
-1.38842e-06
1.62312e-05
-1.25309e-06
1.66474e-05
-1.09414e-06
1.70058e-05
-9.11558e-07
1.72973e-05
-7.06379e-07
1.75124e-05
-4.80831e-07
1.76418e-05
-2.38143e-07
1.7678e-05
1.67547e-08
1.76146e-05
2.77441e-07
1.7447e-05
5.38827e-07
1.71714e-05
7.97498e-07
1.67834e-05
1.0533e-06
1.62767e-05
1.31342e-06
1.56422e-05
1.60233e-06
1.48636e-05
1.98152e-06
1.39095e-05
2.59056e-06
1.27128e-05
3.73178e-06
1.1138e-05
5.96949e-06
9.01355e-06
9.78989e-06
6.23808e-06
1.34994e-05
2.28281e-06
1.27281e-05
-1.00951e-06
6.86443e-06
-2.09354e-06
2.14517e-06
-2.974e-06
1.0722e-06
-3.753e-06
6.77966e-07
-4.38517e-06
3.14233e-07
-4.82376e-06
-1.7087e-07
-5.06308e-06
-8.03592e-07
-5.12512e-06
-1.56176e-06
-5.03478e-06
-2.38989e-06
-4.85612e-06
-3.08729e-06
-4.64044e-06
-3.27603e-06
-4.28329e-06
-2.4297e-06
-4.24023e-06
2.41481e-07
-3.71728e-06
4.06749e-06
-4.15201e-06
6.41963e-06
-4.69741e-07
-1.20151e-06
1.36034e-06
-7.21289e-06
1.71825e-06
-5.64182e-06
1.42411e-06
-3.24306e-06
6.20987e-06
-1.16836e-06
8.24041e-06
3.75925e-07
-4.52364e-06
1.5239e-06
-7.09827e-06
2.58411e-06
-5.93972e-06
3.30106e-06
-4.04482e-06
3.54976e-06
-2.02134e-06
3.31558e-06
-2.15303e-07
2.60066e-06
1.3061e-06
1.46823e-06
2.49704e-06
-6.10461e-07
4.14556e-06
-3.70604e-06
8.214e-06
-5.55478e-06
1.15521e-05
-6.38813e-06
1.01858e-05
-6.86714e-06
5.6354e-06
-7.39549e-06
2.82402e-06
-7.86009e-06
2.03285e-06
-8.17664e-06
1.71161e-06
-8.41415e-06
1.35057e-06
-8.61331e-06
9.2421e-07
-8.75701e-06
4.86525e-07
-8.81079e-06
6.46636e-08
-8.75611e-06
-3.41251e-07
-8.59196e-06
-7.35691e-07
-8.3259e-06
-1.12034e-06
-7.9657e-06
-1.49404e-06
-7.51817e-06
-1.85385e-06
-6.98972e-06
-2.19586e-06
-6.38707e-06
-2.51536e-06
-5.71785e-06
-2.80701e-06
-4.991e-06
-3.06506e-06
-4.21692e-06
-3.28386e-06
-3.40729e-06
-3.45879e-06
-2.57473e-06
-3.58757e-06
-1.73306e-06
-3.67242e-06
-8.99083e-07
-3.72198e-06
-9.0898e-08
-3.74789e-06
6.5854e-07
-3.71202e-06
1.38027e-06
-3.52566e-06
2.07452e-06
-3.32507e-06
2.74227e-06
-3.13764e-06
3.38455e-06
-2.9715e-06
4.00456e-06
-2.83076e-06
4.6068e-06
-2.71594e-06
5.19619e-06
-2.62569e-06
5.77732e-06
-2.55748e-06
6.35419e-06
-2.50817e-06
6.93016e-06
-2.47446e-06
7.50792e-06
-2.45301e-06
8.08951e-06
-2.44051e-06
8.67627e-06
-2.43369e-06
9.26885e-06
-2.42929e-06
9.86716e-06
-2.42399e-06
1.04703e-05
-2.41435e-06
1.10766e-05
-2.39684e-06
1.16833e-05
-2.36779e-06
1.22868e-05
-2.32352e-06
1.28825e-05
-2.26035e-06
1.34648e-05
-2.1747e-06
1.4027e-05
-2.06325e-06
1.45616e-05
-1.92303e-06
1.50602e-05
-1.75164e-06
1.55135e-05
-1.54743e-06
1.59117e-05
-1.30978e-06
1.62446e-05
-1.03925e-06
1.65015e-05
-7.37757e-07
1.66719e-05
-4.08543e-07
1.67453e-05
-5.66619e-08
1.67127e-05
3.10013e-07
1.65677e-05
6.83883e-07
1.6304e-05
1.06116e-06
1.59155e-05
1.44176e-06
1.53966e-05
1.83233e-06
1.47437e-05
2.25528e-06
1.39586e-05
2.76665e-06
1.30529e-05
3.49622e-06
1.2043e-05
4.74171e-06
1.0902e-05
7.11046e-06
9.49924e-06
1.11926e-05
7.62029e-06
1.53783e-05
4.83851e-06
1.55098e-05
1.03987e-06
1.06631e-05
-1.297e-06
4.48204e-06
-2.41524e-06
2.19044e-06
-3.46766e-06
1.73038e-06
-4.4088e-06
1.25537e-06
-5.21334e-06
6.33676e-07
-5.87481e-06
-1.42127e-07
-6.42026e-06
-1.01631e-06
-6.89389e-06
-1.91626e-06
-7.28195e-06
-2.69923e-06
-7.48495e-06
-3.07304e-06
-7.2816e-06
-2.63304e-06
-6.02839e-06
-1.01174e-06
-3.56481e-06
1.60391e-06
-1.01713e-06
3.87195e-06
3.02509e-06
-5.24373e-06
2.51262e-06
-6.70042e-06
2.33348e-06
-5.46267e-06
1.43662e-06
-2.3462e-06
7.64649e-06
-9.3887e-07
9.17928e-06
7.56577e-07
-6.21909e-06
1.84074e-06
-8.18244e-06
2.74536e-06
-6.84434e-06
3.27597e-06
-4.57542e-06
3.34002e-06
-2.08539e-06
2.91582e-06
2.08896e-07
1.95387e-06
2.26805e-06
2.97665e-07
4.15325e-06
-2.55486e-06
6.99808e-06
-5.1441e-06
1.08032e-05
-6.32117e-06
1.27292e-05
-6.64659e-06
1.05112e-05
-6.9316e-06
5.9204e-06
-7.4082e-06
3.30062e-06
-7.83735e-06
2.462e-06
-8.14268e-06
2.01695e-06
-8.36075e-06
1.56864e-06
-8.51512e-06
1.07858e-06
-8.59978e-06
5.71186e-07
-8.60063e-06
6.55174e-08
-8.51035e-06
-4.31529e-07
-8.32907e-06
-9.16975e-07
-8.06053e-06
-1.38888e-06
-7.70953e-06
-1.84503e-06
-7.28106e-06
-2.28233e-06
-6.78039e-06
-2.69652e-06
-6.2136e-06
-3.08215e-06
-5.58805e-06
-3.43256e-06
-4.91283e-06
-3.74028e-06
-4.19889e-06
-3.9978e-06
-3.45897e-06
-4.19872e-06
-2.70728e-06
-4.33926e-06
-1.9596e-06
-4.42009e-06
-1.23437e-06
-4.44721e-06
-5.54898e-07
-4.42736e-06
7.87046e-08
-4.34562e-06
7.08736e-07
-4.15569e-06
1.3087e-06
-3.92503e-06
1.88321e-06
-3.71215e-06
2.43666e-06
-3.52495e-06
2.97442e-06
-3.36852e-06
3.50127e-06
-3.24279e-06
4.0222e-06
-3.14662e-06
4.54166e-06
-3.07694e-06
5.06338e-06
-3.02989e-06
5.59043e-06
-3.00151e-06
6.12532e-06
-2.98789e-06
6.66994e-06
-2.98513e-06
7.22564e-06
-2.98938e-06
7.79312e-06
-2.99678e-06
8.37249e-06
-3.00336e-06
8.96309e-06
-3.00495e-06
9.56343e-06
-2.99718e-06
1.01711e-05
-2.97548e-06
1.07828e-05
-2.93518e-06
1.1394e-05
-2.87154e-06
1.19991e-05
-2.77986e-06
1.25915e-05
-2.65566e-06
1.31633e-05
-2.4948e-06
1.37054e-05
-2.29368e-06
1.42075e-05
-2.04959e-06
1.46587e-05
-1.76095e-06
1.50472e-05
-1.42771e-06
1.53609e-05
-1.05147e-06
1.55879e-05
-6.3553e-07
1.57159e-05
-1.8475e-07
1.57342e-05
2.91742e-07
1.5635e-05
7.83083e-07
1.5412e-05
1.28419e-06
1.50597e-05
1.79403e-06
1.45744e-05
2.31768e-06
1.39565e-05
2.87314e-06
1.32169e-05
3.50628e-06
1.23857e-05
4.32745e-06
1.15177e-05
5.60963e-06
1.06565e-05
7.97165e-06
9.74333e-06
1.21059e-05
8.52484e-06
1.65968e-05
6.46748e-06
1.75672e-05
3.19521e-06
1.39353e-05
-1.73823e-07
7.85108e-06
-1.80446e-06
3.82108e-06
-2.99728e-06
2.9232e-06
-4.11168e-06
2.36977e-06
-5.12415e-06
1.64615e-06
-6.02541e-06
7.59129e-07
-6.79964e-06
-2.42074e-07
-7.47123e-06
-1.24468e-06
-8.01203e-06
-2.15843e-06
-8.29123e-06
-2.79383e-06
-8.02312e-06
-2.90115e-06
-6.68529e-06
-2.34957e-06
-3.72468e-06
-1.35669e-06
5.29754e-07
-3.82491e-07
1.72495e-06
-6.43892e-06
2.23099e-06
-7.20646e-06
2.22151e-06
-5.45319e-06
1.31061e-06
-1.43529e-06
8.95709e-06
-7.24254e-07
9.90354e-06
8.79865e-07
-7.82321e-06
1.91382e-06
-9.21639e-06
2.65783e-06
-7.58835e-06
2.98363e-06
-4.90122e-06
2.82847e-06
-1.93024e-06
2.26991e-06
7.67453e-07
7.09582e-07
3.82838e-06
-1.73062e-06
6.59345e-06
-4.53844e-06
9.8059e-06
-6.36506e-06
1.26299e-05
-6.97505e-06
1.33392e-05
-6.94378e-06
1.04799e-05
-7.10372e-06
6.08035e-06
-7.50357e-06
3.70047e-06
-7.86556e-06
2.82399e-06
-8.12671e-06
2.27809e-06
-8.30406e-06
1.74599e-06
-8.41098e-06
1.18549e-06
-8.4476e-06
6.07806e-07
-8.40981e-06
2.77353e-08
-8.29555e-06
-5.45795e-07
-8.10549e-06
-1.10703e-06
-7.84178e-06
-1.65259e-06
-7.50736e-06
-2.17946e-06
-7.10572e-06
-2.68396e-06
-6.64108e-06
-3.16117e-06
-6.11882e-06
-3.60442e-06
-5.54603e-06
-4.00534e-06
-4.93192e-06
-4.35439e-06
-4.28788e-06
-4.64183e-06
-3.62734e-06
-4.85926e-06
-2.96525e-06
-5.00135e-06
-2.31777e-06
-5.06758e-06
-1.70245e-06
-5.06252e-06
-1.13648e-06
-4.99334e-06
-6.17201e-07
-4.8649e-06
-1.03307e-07
-4.66958e-06
4.00291e-07
-4.42863e-06
8.8187e-07
-4.19373e-06
1.34713e-06
-3.99021e-06
1.8034e-06
-3.82478e-06
2.25534e-06
-3.69473e-06
2.70809e-06
-3.59937e-06
3.16613e-06
-3.53498e-06
3.63278e-06
-3.49654e-06
4.11072e-06
-3.47945e-06
4.60218e-06
-3.47935e-06
5.10896e-06
-3.4919e-06
5.63231e-06
-3.51274e-06
6.17306e-06
-3.53752e-06
6.7315e-06
-3.5618e-06
7.30735e-06
-3.58079e-06
7.89951e-06
-3.58934e-06
8.50609e-06
-3.58206e-06
9.12425e-06
-3.55334e-06
9.75009e-06
-3.49738e-06
1.03785e-05
-3.4083e-06
1.10032e-05
-3.28032e-06
1.16162e-05
-3.1078e-06
1.22081e-05
-2.88556e-06
1.27678e-05
-2.60928e-06
1.32828e-05
-2.27594e-06
1.37395e-05
-1.88443e-06
1.41239e-05
-1.43592e-06
1.44223e-05
-9.3388e-07
1.46209e-05
-3.83411e-07
1.47072e-05
2.05457e-07
1.46726e-05
8.17734e-07
1.45113e-05
1.44546e-06
1.42202e-05
2.08511e-06
1.37982e-05
2.73969e-06
1.32488e-05
3.42252e-06
1.25859e-05
4.16918e-06
1.1844e-05
5.06934e-06
1.10917e-05
6.36199e-06
1.04196e-05
8.64371e-06
9.84473e-06
1.26807e-05
9.11893e-06
1.73226e-05
7.64044e-06
1.90457e-05
5.04622e-06
1.65296e-05
1.55219e-06
1.13451e-05
-9.55658e-07
6.32893e-06
-2.33353e-06
4.30107e-06
-3.5844e-06
3.62063e-06
-4.72229e-06
2.78405e-06
-5.72958e-06
1.76641e-06
-6.58424e-06
6.12593e-07
-7.25194e-06
-5.76983e-07
-7.72286e-06
-1.68751e-06
-7.89023e-06
-2.62646e-06
-7.5436e-06
-3.24779e-06
-6.36534e-06
-3.52783e-06
-4.05509e-06
-3.66694e-06
-2.29253e-07
-4.20833e-06
5.788e-07
-7.24698e-06
1.44349e-06
-8.07115e-06
1.93825e-06
-5.94796e-06
1.20723e-06
-7.04269e-07
1.01643e-05
-5.05403e-07
1.04089e-05
8.40707e-07
-9.16931e-06
1.70351e-06
-1.00792e-05
2.2103e-06
-8.09514e-06
2.25524e-06
-4.94615e-06
1.95199e-06
-1.62699e-06
3.50675e-07
2.36877e-06
-1.76683e-06
5.94588e-06
-4.17947e-06
9.00609e-06
-6.24171e-06
1.18681e-05
-7.41763e-06
1.38058e-05
-7.56055e-06
1.34821e-05
-7.28739e-06
1.02068e-05
-7.34398e-06
6.13693e-06
-7.64155e-06
3.99804e-06
-7.91547e-06
3.09791e-06
-8.11358e-06
2.4762e-06
-8.2408e-06
1.87322e-06
-8.30327e-06
1.24796e-06
-8.30248e-06
6.07016e-07
-8.2381e-06
-3.66382e-08
-8.11065e-06
-6.73246e-07
-7.92098e-06
-1.2967e-06
-7.6703e-06
-1.90327e-06
-7.36032e-06
-2.48944e-06
-6.99329e-06
-3.051e-06
-6.57242e-06
-3.58204e-06
-6.10245e-06
-4.07438e-06
-5.59019e-06
-4.5176e-06
-5.04485e-06
-4.89973e-06
-4.47802e-06
-5.20867e-06
-3.90326e-06
-5.43402e-06
-3.33531e-06
-5.5693e-06
-2.78905e-06
-5.61384e-06
-2.27814e-06
-5.57343e-06
-1.81231e-06
-5.45916e-06
-1.39242e-06
-5.28479e-06
-9.9664e-07
-5.06536e-06
-6.02807e-07
-4.82247e-06
-2.11942e-07
-4.58459e-06
1.72293e-07
-4.37444e-06
5.52396e-07
-4.20488e-06
9.34519e-07
-4.07685e-06
1.32361e-06
-3.98847e-06
1.72378e-06
-3.93515e-06
2.13769e-06
-3.91045e-06
2.56748e-06
-3.90924e-06
3.01521e-06
-3.92708e-06
3.48262e-06
-3.95931e-06
3.97094e-06
-4.00106e-06
4.48103e-06
-4.04762e-06
5.01355e-06
-4.09432e-06
5.56869e-06
-4.13593e-06
6.14602e-06
-4.16667e-06
6.74442e-06
-4.18046e-06
7.36206e-06
-4.17099e-06
7.99618e-06
-4.13149e-06
8.64277e-06
-4.05489e-06
9.29644e-06
-3.934e-06
9.95002e-06
-3.76137e-06
1.05941e-05
-3.52967e-06
1.12171e-05
-3.23223e-06
1.18048e-05
-2.86366e-06
1.23414e-05
-2.42102e-06
1.28101e-05
-1.90465e-06
1.31946e-05
-1.31834e-06
1.34795e-05
-6.68291e-07
1.36493e-05
3.55746e-08
1.36943e-05
7.72787e-07
1.36101e-05
1.52963e-06
1.33964e-05
2.29886e-06
1.30549e-05
3.08111e-06
1.25921e-05
3.88537e-06
1.20228e-05
4.73852e-06
1.13804e-05
5.71168e-06
1.07349e-05
7.00752e-06
1.02028e-05
9.17577e-06
9.86517e-06
1.30184e-05
9.50149e-06
1.76863e-05
8.5011e-06
2.00461e-05
6.44042e-06
1.85902e-05
3.4443e-06
1.43412e-05
3.96501e-07
9.37673e-06
-1.48918e-06
6.18676e-06
-2.85142e-06
4.98287e-06
-4.09523e-06
4.02785e-06
-5.19073e-06
2.86191e-06
-6.10729e-06
1.52915e-06
-6.78606e-06
1.01788e-07
-7.19291e-06
-1.28066e-06
-7.25437e-06
-2.565e-06
-6.83121e-06
-3.67095e-06
-5.76961e-06
-4.58942e-06
-3.96977e-06
-5.46678e-06
-1.5552e-06
-6.6229e-06
-4.57065e-07
-8.34512e-06
6.24036e-07
-9.15225e-06
1.62645e-06
-6.95037e-06
1.09816e-06
-1.75977e-07
1.12625e-05
-2.55159e-07
1.06641e-05
6.68947e-07
-1.00934e-05
1.19242e-06
-1.06027e-05
1.29728e-06
-8.2e-06
8.20244e-07
-4.46912e-06
-5.77694e-07
-2.29053e-07
-2.59425e-06
4.38533e-06
-4.39085e-06
7.74248e-06
-6.20661e-06
1.08218e-05
-7.63446e-06
1.3296e-05
-8.25714e-06
1.44285e-05
-8.05563e-06
1.32806e-05
-7.63584e-06
9.787e-06
-7.60168e-06
6.10278e-06
-7.78677e-06
4.18313e-06
-7.9659e-06
3.27704e-06
-8.09535e-06
2.60565e-06
-8.17152e-06
1.94939e-06
-8.19475e-06
1.27119e-06
-8.16569e-06
5.77951e-07
-8.08513e-06
-1.17193e-07
-7.95456e-06
-8.03819e-07
-7.77448e-06
-1.47678e-06
-7.5453e-06
-2.13244e-06
-7.26762e-06
-2.76712e-06
-6.94258e-06
-3.37604e-06
-6.57248e-06
-3.95214e-06
-6.16148e-06
-4.48538e-06
-5.71606e-06
-4.96302e-06
-5.24527e-06
-5.37053e-06
-4.76054e-06
-5.6934e-06
-4.27503e-06
-5.91953e-06
-3.80243e-06
-6.0419e-06
-3.3554e-06
-6.06087e-06
-2.94371e-06
-5.98513e-06
-2.57203e-06
-5.83084e-06
-2.23763e-06
-5.61919e-06
-1.92891e-06
-5.37408e-06
-1.6306e-06
-5.12078e-06
-1.33249e-06
-4.8827e-06
-1.02958e-06
-4.67735e-06
-7.19638e-07
-4.51483e-06
-3.99603e-07
-4.39689e-06
-6.73874e-08
-4.32068e-06
2.78701e-07
-4.28123e-06
6.41106e-07
-4.27285e-06
1.02226e-06
-4.2904e-06
1.42402e-06
-4.32884e-06
1.84812e-06
-4.38341e-06
2.29565e-06
-4.44859e-06
2.76761e-06
-4.51957e-06
3.26515e-06
-4.59186e-06
3.78935e-06
-4.66014e-06
4.34076e-06
-4.71808e-06
4.91945e-06
-4.75916e-06
5.52518e-06
-4.77672e-06
6.15697e-06
-4.76328e-06
6.81255e-06
-4.71047e-06
7.48829e-06
-4.60974e-06
8.17839e-06
-4.45147e-06
8.87423e-06
-4.22552e-06
9.56396e-06
-3.92196e-06
1.0232e-05
-3.5317e-06
1.08596e-05
-3.04862e-06
1.14262e-05
-2.47126e-06
1.19117e-05
-1.80379e-06
1.22984e-05
-1.05506e-06
1.25676e-05
-2.33607e-07
1.27051e-05
6.35304e-07
1.27097e-05
1.52503e-06
1.25839e-05
2.42463e-06
1.23333e-05
3.33177e-06
1.19667e-05
4.25193e-06
1.14999e-05
5.20528e-06
1.09638e-05
6.24781e-06
1.04233e-05
7.54807e-06
1.00034e-05
9.59562e-06
9.8313e-06
1.31905e-05
9.7336e-06
1.7784e-05
9.12322e-06
2.06565e-05
7.55112e-06
2.01623e-05
5.04291e-06
1.68494e-05
2.09219e-06
1.23275e-05
-2.92583e-07
8.57153e-06
-1.90357e-06
6.59386e-06
-3.23472e-06
5.359e-06
-4.4105e-06
4.03769e-06
-5.38744e-06
2.50609e-06
-6.11162e-06
8.25972e-07
-6.52431e-06
-8.67969e-07
-6.58752e-06
-2.50178e-06
-6.213e-06
-4.04548e-06
-5.33016e-06
-5.47225e-06
-3.96485e-06
-6.8321e-06
-2.36636e-06
-8.22138e-06
-1.14263e-06
-9.56884e-06
-1.62933e-08
-1.02786e-05
1.31763e-06
-8.28429e-06
9.66492e-07
1.75157e-07
1.2229e-05
-2.14132e-08
1.06855e-05
3.89626e-07
-1.05045e-05
3.84958e-07
-1.0598e-05
-1.97783e-07
-7.61726e-06
-1.42703e-06
-3.23987e-06
-3.2922e-06
1.63612e-06
-4.75815e-06
5.85128e-06
-6.28549e-06
9.26982e-06
-7.6711e-06
1.22075e-05
-8.61011e-06
1.4235e-05
-8.83368e-06
1.4652e-05
-8.42024e-06
1.28672e-05
-7.93436e-06
9.30112e-06
-7.82526e-06
5.99367e-06
-7.90387e-06
4.26175e-06
-7.99448e-06
3.36764e-06
-8.06025e-06
2.67142e-06
-8.09117e-06
1.98031e-06
-8.08308e-06
1.26309e-06
-8.0353e-06
5.30177e-07
-7.9489e-06
-2.03597e-07
-7.82519e-06
-9.27533e-07
-7.66393e-06
-1.63804e-06
-7.46461e-06
-2.33176e-06
-7.22673e-06
-3.005e-06
-6.95041e-06
-3.65236e-06
-6.63719e-06
-4.26535e-06
-6.29065e-06
-4.83192e-06
-5.91688e-06
-5.33679e-06
-5.52455e-06
-5.76285e-06
-5.12459e-06
-6.09336e-06
-4.7292e-06
-6.31492e-06
-4.35043e-06
-6.42067e-06
-3.99836e-06
-6.41293e-06
-3.67927e-06
-6.30422e-06
-3.39415e-06
-6.11596e-06
-3.1381e-06
-5.87524e-06
-2.90135e-06
-5.61083e-06
-2.67262e-06
-5.34951e-06
-2.44249e-06
-5.11283e-06
-2.20483e-06
-4.91502e-06
-1.95659e-06
-4.76307e-06
-1.69564e-06
-4.65784e-06
-1.42015e-06
-4.59617e-06
-1.12817e-06
-4.57321e-06
-8.17548e-07
-4.58348e-06
-4.86815e-07
-4.62113e-06
-1.34688e-07
-4.68097e-06
2.39239e-07
-4.75734e-06
6.3659e-07
-4.84594e-06
1.05961e-06
-4.94259e-06
1.51065e-06
-5.0429e-06
1.99199e-06
-5.14148e-06
2.50528e-06
-5.23137e-06
3.05215e-06
-5.30603e-06
3.63439e-06
-5.35896e-06
4.25335e-06
-5.38224e-06
4.90893e-06
-5.36605e-06
5.59968e-06
-5.30049e-06
6.32162e-06
-5.17341e-06
7.06743e-06
-4.97132e-06
7.82565e-06
-4.68017e-06
8.57948e-06
-4.28553e-06
9.30711e-06
-3.77625e-06
9.98316e-06
-3.14731e-06
1.05816e-05
-2.4022e-06
1.10796e-05
-1.55305e-06
1.14597e-05
-6.1371e-07
1.17038e-05
3.91113e-07
1.18083e-05
1.42056e-06
1.17781e-05
2.45485e-06
1.16238e-05
3.48602e-06
1.13581e-05
4.51763e-06
1.09979e-05
5.56552e-06
1.05712e-05
6.67447e-06
1.01356e-05
7.9837e-06
9.81274e-06
9.9185e-06
9.75808e-06
1.32452e-05
9.85484e-06
1.76873e-05
9.56664e-06
2.09447e-05
8.43477e-06
2.12942e-05
6.40088e-06
1.88833e-05
3.79267e-06
1.49357e-05
1.27277e-06
1.10914e-05
-6.40376e-07
8.50701e-06
-2.1199e-06
6.83852e-06
-3.35921e-06
5.277e-06
-4.39828e-06
3.54516e-06
-5.18424e-06
1.61194e-06
-5.64686e-06
-4.05356e-07
-5.78189e-06
-2.36675e-06
-5.53616e-06
-4.2912e-06
-4.87969e-06
-6.12873e-06
-3.87403e-06
-7.83776e-06
-2.69266e-06
-9.40275e-06
-1.56181e-06
-1.06997e-05
-5.01843e-07
-1.13386e-05
9.13392e-07
-9.69952e-06
8.00664e-07
2.87885e-07
1.30296e-05
1.64458e-07
1.05211e-05
9.05925e-08
-1.04306e-05
-5.34653e-07
-9.97275e-06
-1.69214e-06
-6.45978e-06
-3.24478e-06
-1.68723e-06
-4.79826e-06
3.18959e-06
-6.13644e-06
7.18947e-06
-7.43641e-06
1.05698e-05
-8.51539e-06
1.32864e-05
-9.131e-06
1.48506e-05
-9.11889e-06
1.46399e-05
-8.62114e-06
1.23694e-05
-8.13469e-06
8.81467e-06
-7.97154e-06
5.83052e-06
-7.96158e-06
4.25179e-06
-7.97971e-06
3.38576e-06
-7.99481e-06
2.68653e-06
-7.99191e-06
1.97741e-06
-7.96368e-06
1.23486e-06
-7.90838e-06
4.74877e-07
-7.82698e-06
-2.84991e-07
-7.72008e-06
-1.03443e-06
-7.58663e-06
-1.77149e-06
-7.42507e-06
-2.49333e-06
-7.23382e-06
-3.19624e-06
-7.01216e-06
-3.87402e-06
-6.7609e-06
-4.51661e-06
-6.48311e-06
-5.10972e-06
-6.18436e-06
-5.63555e-06
-5.87272e-06
-6.07449e-06
-5.55819e-06
-6.40789e-06
-5.25161e-06
-6.6215e-06
-4.96301e-06
-6.70927e-06
-4.69985e-06
-6.6761e-06
-4.46545e-06
-6.53862e-06
-4.25824e-06
-6.32317e-06
-4.0721e-06
-6.06138e-06
-3.89802e-06
-5.78491e-06
-3.7266e-06
-5.52093e-06
-3.55016e-06
-5.28927e-06
-3.36356e-06
-5.10162e-06
-3.16408e-06
-4.96255e-06
-2.95049e-06
-4.87143e-06
-2.72215e-06
-4.82451e-06
-2.47863e-06
-4.81673e-06
-2.2194e-06
-4.84271e-06
-1.9433e-06
-4.89723e-06
-1.64878e-06
-4.97549e-06
-1.33311e-06
-5.07301e-06
-9.93188e-07
-5.18586e-06
-6.25588e-07
-5.31019e-06
-2.27379e-07
-5.44111e-06
2.03424e-07
-5.57229e-06
6.70278e-07
-5.69823e-06
1.17798e-06
-5.81373e-06
1.73097e-06
-5.91195e-06
2.33272e-06
-5.98398e-06
2.98479e-06
-6.01813e-06
3.68765e-06
-6.00334e-06
4.439e-06
-5.92476e-06
5.23323e-06
-5.76555e-06
6.05962e-06
-5.50657e-06
6.90086e-06
-5.12677e-06
7.73273e-06
-4.60812e-06
8.52485e-06
-3.93943e-06
9.24343e-06
-3.12078e-06
9.85773e-06
-2.16735e-06
1.03499e-05
-1.10584e-06
1.0702e-05
3.89488e-08
1.09082e-05
1.21443e-06
1.09757e-05
2.38735e-06
1.09192e-05
3.54251e-06
1.0755e-05
4.68179e-06
1.05017e-05
5.81883e-06
1.0185e-05
6.99114e-06
9.85445e-06
8.31427e-06
9.62118e-06
1.01518e-05
9.65289e-06
1.32135e-05
9.8912e-06
1.7449e-05
9.86663e-06
2.09692e-05
9.12667e-06
2.20342e-05
7.5495e-06
2.04605e-05
5.34337e-06
1.71418e-05
2.99986e-06
1.34349e-05
1.01108e-06
1.04958e-05
-5.95033e-07
8.44464e-06
-1.95237e-06
6.63433e-06
-3.10235e-06
4.69514e-06
-3.96737e-06
2.47696e-06
-4.4928e-06
1.20076e-07
-4.75182e-06
-2.10774e-06
-4.69125e-06
-4.35177e-06
-4.28905e-06
-6.53092e-06
-3.60031e-06
-8.5265e-06
-2.72632e-06
-1.02767e-05
-1.78408e-06
-1.16419e-05
-8.20328e-07
-1.23023e-05
3.94637e-07
-1.09145e-05
6.05887e-07
7.66342e-08
1.36355e-05
2.03972e-07
1.03171e-05
-3.0852e-07
-9.9181e-06
-1.31989e-06
-8.96138e-06
-2.67843e-06
-5.10124e-06
-4.17412e-06
-1.91537e-07
-5.52767e-06
4.54315e-06
-6.77609e-06
8.43789e-06
-7.91405e-06
1.17077e-05
-8.78929e-06
1.41617e-05
-9.22028e-06
1.52816e-05
-9.11511e-06
1.45348e-05
-8.63885e-06
1.18932e-05
-8.2009e-06
8.37672e-06
-8.00815e-06
5.63777e-06
-7.93519e-06
4.17883e-06
-7.90378e-06
3.35435e-06
-7.88705e-06
2.66979e-06
-7.86611e-06
1.95647e-06
-7.83173e-06
1.20049e-06
-7.78159e-06
4.24732e-07
-7.71649e-06
-3.50092e-07
-7.63634e-06
-1.11458e-06
-7.53927e-06
-1.86856e-06
-7.42269e-06
-2.60991e-06
-7.28412e-06
-3.33481e-06
-7.12209e-06
-4.03606e-06
-6.93685e-06
-4.70184e-06
-6.73091e-06
-5.31565e-06
-6.50923e-06
-5.85723e-06
-6.27899e-06
-6.30473e-06
-6.04898e-06
-6.63791e-06
-5.82828e-06
-6.84219e-06
-5.62479e-06
-6.91276e-06
-5.44351e-06
-6.85737e-06
-5.28547e-06
-6.69666e-06
-5.1475e-06
-6.46114e-06
-5.02311e-06
-6.18576e-06
-4.90426e-06
-5.90377e-06
-4.78324e-06
-5.64195e-06
-4.65416e-06
-5.41836e-06
-4.51331e-06
-5.24246e-06
-4.35897e-06
-5.1169e-06
-4.19061e-06
-5.03979e-06
-4.00823e-06
-5.00689e-06
-3.81179e-06
-5.01316e-06
-3.60092e-06
-5.05358e-06
-3.37458e-06
-5.12357e-06
-3.13102e-06
-5.21905e-06
-2.86766e-06
-5.33637e-06
-2.58141e-06
-5.47212e-06
-2.26876e-06
-5.62285e-06
-1.92527e-06
-5.78459e-06
-1.54476e-06
-5.9528e-06
-1.12023e-06
-6.12276e-06
-6.44737e-07
-6.28922e-06
-1.12913e-07
-6.44378e-06
4.77298e-07
-6.57419e-06
1.12894e-06
-6.66977e-06
1.84552e-06
-6.71992e-06
2.62609e-06
-6.70533e-06
3.46627e-06
-6.60573e-06
4.35623e-06
-6.39653e-06
5.27971e-06
-6.05025e-06
6.21231e-06
-5.54073e-06
7.12065e-06
-4.84777e-06
7.96273e-06
-3.96286e-06
8.69425e-06
-2.89886e-06
9.28949e-06
-1.70108e-06
9.73554e-06
-4.07097e-07
1.00298e-05
9.20212e-07
1.01845e-05
2.23259e-06
1.02183e-05
3.50873e-06
1.01505e-05
4.74959e-06
1.00004e-05
5.96887e-06
9.79153e-06
7.20006e-06
9.56515e-06
8.54065e-06
9.4182e-06
1.02987e-05
9.51695e-06
1.31147e-05
9.85589e-06
1.711e-05
1.00427e-05
2.07824e-05
9.64396e-06
2.24329e-05
8.49283e-06
2.16116e-05
6.71069e-06
1.89239e-05
4.66183e-06
1.54838e-05
2.79913e-06
1.23585e-05
1.29931e-06
9.94445e-06
2.2986e-09
7.93134e-06
-1.17374e-06
5.87118e-06
-2.25031e-06
3.55353e-06
-3.04634e-06
9.16104e-07
-3.41291e-06
-1.74117e-06
-3.59169e-06
-4.17299e-06
-3.48103e-06
-6.64158e-06
-3.11487e-06
-8.89266e-06
-2.5453e-06
-1.08463e-05
-1.85154e-06
-1.23357e-05
-1.06963e-06
-1.30842e-05
-2.29153e-07
-1.1755e-05
4.58001e-07
-6.1052e-07
1.40935e-05
1.42504e-07
1.01746e-05
-6.62319e-07
-9.11328e-06
-1.87436e-06
-7.74934e-06
-3.21204e-06
-3.76356e-06
-4.54131e-06
1.13774e-06
-5.71132e-06
5.71316e-06
-6.8326e-06
9.55916e-06
-7.83208e-06
1.27072e-05
-8.57478e-06
1.49044e-05
-8.92738e-06
1.56342e-05
-8.83943e-06
1.44468e-05
-8.46257e-06
1.15163e-05
-8.1081e-06
8.02225e-06
-7.91266e-06
5.44233e-06
-7.80722e-06
4.0734e-06
-7.75396e-06
3.30109e-06
-7.72805e-06
2.64389e-06
-7.70782e-06
1.93624e-06
-7.68329e-06
1.17595e-06
-7.65199e-06
3.93434e-07
-7.61459e-06
-3.87495e-07
-7.57081e-06
-1.15835e-06
-7.51804e-06
-1.92134e-06
-7.45285e-06
-2.6751e-06
-7.37207e-06
-3.41559e-06
-7.27368e-06
-4.13445e-06
-7.15747e-06
-4.81806e-06
-7.0254e-06
-5.44772e-06
-6.88166e-06
-6.00097e-06
-6.73235e-06
-6.45404e-06
-6.58472e-06
-6.78553e-06
-6.446e-06
-6.98092e-06
-6.32191e-06
-7.03685e-06
-6.21539e-06
-6.96389e-06
-6.12587e-06
-6.78618e-06
-6.04948e-06
-6.53753e-06
-5.98016e-06
-6.25508e-06
-5.91123e-06
-5.97269e-06
-5.83688e-06
-5.7163e-06
-5.753e-06
-5.50224e-06
-5.65732e-06
-5.33814e-06
-5.54901e-06
-5.2252e-06
-5.42801e-06
-5.16078e-06
-5.29439e-06
-5.14052e-06
-5.14785e-06
-5.1597e-06
-4.98744e-06
-5.21399e-06
-4.81135e-06
-5.29966e-06
-4.61683e-06
-5.41357e-06
-4.40022e-06
-5.55298e-06
-4.15709e-06
-5.71525e-06
-3.88236e-06
-5.89758e-06
-3.57033e-06
-6.09662e-06
-3.2148e-06
-6.30833e-06
-2.80978e-06
-6.52777e-06
-2.35023e-06
-6.74877e-06
-1.83082e-06
-6.96319e-06
-1.24376e-06
-7.16125e-06
-5.80627e-07
-7.3329e-06
1.58499e-07
-7.45905e-06
9.68256e-07
-7.51509e-06
1.84578e-06
-7.48325e-06
2.78563e-06
-7.33637e-06
3.7742e-06
-7.03882e-06
4.79047e-06
-6.55701e-06
5.80376e-06
-5.86106e-06
6.76881e-06
-4.92791e-06
7.62378e-06
-3.75383e-06
8.32011e-06
-2.39742e-06
8.84547e-06
-9.32457e-07
9.20479e-06
5.60896e-07
9.42411e-06
2.01326e-06
9.52895e-06
3.4039e-06
9.54354e-06
4.735e-06
9.4874e-06
6.02501e-06