/*--------------------------------*- C++ -*----------------------------------*\
| =========                 |                                                 |
| \\      /  F ield         | OpenFOAM: The Open Source CFD Toolbox           |
|  \\    /   O peration     | Version:  4.1                                   |
|   \\  /    A nd           | Web:      www.OpenFOAM.org                      |
|    \\/     M anipulation  |                                                 |
\*---------------------------------------------------------------------------*/
FoamFile
{
    version     2.0;
    format      ascii;
    class       surfaceScalarField;
    location    "300";
    object      phi;
}
// * * * * * * * * * * * * * * * * * * * * * * * * * * * * * * * * * * * * * //

dimensions      [0 3 -1 0 0 0 0];

internalField   nonuniform List<scalar> 
3120
(
-4.49136e-06
4.49136e-06
2.60734e-06
-7.0987e-06
6.59563e-07
1.94778e-06
-3.86785e-06
4.52741e-06
-3.07559e-06
-7.92263e-07
-6.96254e-06
3.88695e-06
-9.11014e-06
2.1476e-06
-9.03933e-06
-7.08092e-08
-8.20847e-06
-8.30859e-07
-7.49261e-06
-7.1586e-07
-7.10304e-06
-3.89572e-07
-6.98064e-06
-1.224e-07
-6.99919e-06
1.85512e-08
-7.05075e-06
5.15596e-08
-7.07086e-06
2.01037e-08
-7.0349e-06
-3.59529e-08
-6.92563e-06
-1.09268e-07
-6.70987e-06
-2.15761e-07
-6.32319e-06
-3.86687e-07
-5.66012e-06
-6.63065e-07
-4.58488e-06
-1.07524e-06
-3.26085e-06
-1.32403e-06
-1.56109e-06
-1.69976e-06
5.56721e-07
-2.11781e-06
2.92616e-06
-2.36944e-06
5.2638e-06
-2.33765e-06
7.38649e-06
-2.12268e-06
9.16021e-06
-1.77373e-06
1.05201e-05
-1.35989e-06
1.14555e-05
-9.35427e-07
1.2008e-05
-5.52447e-07
1.22781e-05
-2.70083e-07
1.24992e-05
-2.21089e-07
1.31047e-05
-6.05588e-07
1.42157e-05
-1.11096e-06
1.56471e-05
-1.43145e-06
1.54306e-05
2.16517e-07
8.49712e-06
6.93351e-06
-2.49457e-07
8.74657e-06
-2.49457e-07
-4.78311e-06
9.27447e-06
-3.36107e-06
-8.52074e-06
-2.2541e-06
8.40804e-07
-3.05608e-06
5.3294e-06
-2.68632e-06
-1.16203e-06
-5.14184e-06
6.34247e-06
-7.00889e-06
4.01466e-06
-7.22458e-06
1.4488e-07
-6.9449e-06
-1.11054e-06
-6.79667e-06
-8.64089e-07
-6.8485e-06
-3.37746e-07
-7.03779e-06
6.68902e-08
-7.2712e-06
2.51957e-07
-7.48288e-06
2.63247e-07
-7.62572e-06
1.62936e-07
-7.69041e-06
2.87445e-08
-7.67841e-06
-1.2127e-07
-7.57406e-06
-3.20118e-07
-7.32346e-06
-6.37279e-07
-6.83756e-06
-1.14897e-06
-6.07075e-06
-1.84205e-06
-4.78187e-06
-2.61291e-06
-2.85621e-06
-3.62542e-06
-3.13314e-07
-4.66071e-06
2.42227e-06
-5.10502e-06
4.92089e-06
-4.83627e-06
7.18527e-06
-4.38707e-06
9.09252e-06
-3.68098e-06
1.05756e-05
-2.84293e-06
1.16175e-05
-1.97736e-06
1.2254e-05
-1.18894e-06
1.25938e-05
-6.09917e-07
1.28131e-05
-4.40421e-07
1.31326e-05
-9.25002e-07
1.37526e-05
-1.73095e-06
1.47209e-05
-2.39984e-06
1.4698e-05
2.39444e-07
1.10103e-05
1.06212e-05
4.30632e-06
1.54505e-05
4.05686e-06
-4.58767e-06
1.38621e-05
-5.50946e-06
-7.59895e-06
-3.9008e-06
-7.6786e-07
-2.34769e-06
3.77628e-06
-3.18914e-06
-3.20579e-07
-3.41014e-06
6.56347e-06
-4.12949e-06
4.73401e-06
-4.53733e-06
5.52718e-07
-4.97874e-06
-6.6913e-07
-5.51924e-06
-3.2359e-07
-6.10576e-06
2.48771e-07
-6.66362e-06
6.24754e-07
-7.12309e-06
7.11429e-07
-7.45618e-06
5.96338e-07
-7.68297e-06
3.89726e-07
-7.83154e-06
1.77311e-07
-7.91504e-06
-3.77643e-08
-7.90881e-06
-3.26353e-07
-7.7508e-06
-7.95291e-07
-7.3617e-06
-1.53807e-06
-6.64853e-06
-2.55521e-06
-5.44863e-06
-3.81282e-06
-3.69687e-06
-5.37718e-06
-1.26181e-06
-7.09576e-06
1.58431e-06
-7.95115e-06
4.23007e-06
-7.48202e-06
6.54716e-06
-6.70416e-06
8.49287e-06
-5.62669e-06
1.00128e-05
-4.36285e-06
1.10864e-05
-3.05094e-06
1.17289e-05
-1.83148e-06
1.20053e-05
-8.86304e-07
1.20245e-05
-4.59638e-07
1.19134e-05
-8.13883e-07
1.18686e-05
-1.68616e-06
1.21246e-05
-2.65581e-06
1.24447e-05
-8.07044e-08
1.0644e-05
1.2422e-05
6.28112e-06
1.98134e-05
1.0338e-05
-4.06283e-06
1.7925e-05
-5.17575e-06
-6.48603e-06
-4.3645e-06
-1.57911e-06
-2.62466e-06
2.03644e-06
-3.37799e-06
4.32753e-07
-2.54697e-06
5.73245e-06
-2.48896e-06
4.67601e-06
-3.1055e-06
1.16925e-06
-3.99644e-06
2.21816e-07
-4.90839e-06
5.88354e-07
-5.74251e-06
1.08289e-06
-6.43629e-06
1.31854e-06
-6.97336e-06
1.2485e-06
-7.36655e-06
9.89522e-07
-7.65646e-06
6.79636e-07
-7.87887e-06
3.99723e-07
-8.0404e-06
1.23765e-07
-8.10871e-06
-2.5804e-07
-8.01737e-06
-8.86635e-07
-7.68584e-06
-1.8696e-06
-7.0129e-06
-3.22814e-06
-5.87775e-06
-4.94797e-06
-4.22638e-06
-7.02854e-06
-2.02887e-06
-9.29328e-06
7.30737e-07
-1.07108e-05
3.53497e-06
-1.02863e-05
5.8927e-06
-9.06189e-06
7.86705e-06
-7.60104e-06
9.41449e-06
-5.91029e-06
1.05153e-05
-4.15177e-06
1.11745e-05
-2.4907e-06
1.14279e-05
-1.13968e-06
1.13329e-05
-3.64647e-07
1.09417e-05
-4.22704e-07
1.04089e-05
-1.15333e-06
1.00182e-05
-2.26513e-06
1.0313e-05
-3.75447e-07
9.51157e-06
1.32234e-05
6.20945e-06
2.31155e-05
1.65474e-05
-3.50934e-06
2.14343e-05
-4.45032e-06
-5.54505e-06
-4.07038e-06
-1.95905e-06
-2.8802e-06
8.46262e-07
-3.29992e-06
8.52479e-07
-2.23944e-06
4.67197e-06
-1.8637e-06
4.30027e-06
-2.5551e-06
1.86066e-06
-3.58581e-06
1.25252e-06
-4.5928e-06
1.59535e-06
-5.4816e-06
1.97169e-06
-6.2123e-06
2.04923e-06
-6.78039e-06
1.81659e-06
-7.21187e-06
1.421e-06
-7.55326e-06
1.02103e-06
-7.83911e-06
6.8558e-07
-8.06939e-06
3.54039e-07
-8.20389e-06
-1.23534e-07
-8.17533e-06
-9.15196e-07
-7.9008e-06
-2.14413e-06
-7.27887e-06
-3.85008e-06
-6.20779e-06
-6.01905e-06
-4.64891e-06
-8.58742e-06
-2.65328e-06
-1.12889e-05
-5.10172e-08
-1.3313e-05
2.81477e-06
-1.3152e-05
5.20836e-06
-1.14555e-05
7.20926e-06
-9.60194e-06
8.78028e-06
-7.48131e-06
9.9053e-06
-5.27678e-06
1.05834e-05
-3.16879e-06
1.08299e-05
-1.38619e-06
1.06685e-05
-2.03289e-07
1.01182e-05
1.27615e-07
9.29092e-06
-3.26041e-07
8.40643e-06
-1.38065e-06
8.41536e-06
-3.84379e-07
8.17265e-06
1.34661e-05
5.62785e-06
2.56604e-05
2.21753e-05
-3.04049e-06
2.44748e-05
-3.76874e-06
-4.8168e-06
-3.56834e-06
-2.15945e-06
-2.88897e-06
1.66896e-07
-3.05492e-06
1.01843e-06
-2.16641e-06
3.78345e-06
-1.77487e-06
3.90873e-06
-2.41234e-06
2.49812e-06
-3.3889e-06
2.22908e-06
-4.36322e-06
2.56966e-06
-5.23344e-06
2.84192e-06
-5.95844e-06
2.77423e-06
-6.53475e-06
2.3929e-06
-6.99179e-06
1.87803e-06
-7.37636e-06
1.4056e-06
-7.71945e-06
1.02867e-06
-8.01481e-06
6.49397e-07
-8.21676e-06
7.84179e-08
-8.25677e-06
-8.75186e-07
-8.05036e-06
-2.35054e-06
-7.49613e-06
-4.4043e-06
-6.50066e-06
-7.01452e-06
-5.03449e-06
-1.00536e-05
-3.15288e-06
-1.31705e-05
-7.56987e-07
-1.57089e-05
2.02907e-06
-1.59381e-05
4.48245e-06
-1.39089e-05
6.50977e-06
-1.16293e-05
8.10177e-06
-9.07331e-06
9.24938e-06
-6.42438e-06
9.94777e-06
-3.86718e-06
1.01985e-05
-1.63692e-06
1.00071e-05
-1.19115e-08
9.38018e-06
7.54563e-07
8.41006e-06
6.44081e-07
7.23842e-06
-2.09013e-07
6.82562e-06
2.8419e-08
6.88825e-06
1.34035e-05
4.9386e-06
2.761e-05
2.71139e-05
-2.66395e-06
2.71388e-05
-3.22566e-06
-4.25509e-06
-3.13404e-06
-2.25107e-06
-2.75387e-06
-2.13275e-07
-2.77618e-06
1.04074e-06
-2.14929e-06
3.15656e-06
-1.8701e-06
3.62955e-06
-2.40906e-06
3.03708e-06
-3.26469e-06
3.08471e-06
-4.15458e-06
3.45956e-06
-4.97091e-06
3.65825e-06
-5.66693e-06
3.47026e-06
-6.23667e-06
2.96264e-06
-6.70908e-06
2.35044e-06
-7.12942e-06
1.82594e-06
-7.5257e-06
1.42495e-06
-7.88597e-06
1.00966e-06
-8.15998e-06
3.5243e-07
-8.27679e-06
-7.58375e-07
-8.15065e-06
-2.47668e-06
-7.67872e-06
-4.87624e-06
-6.77007e-06
-7.92318e-06
-5.39362e-06
-1.143e-05
-3.58878e-06
-1.49754e-05
-1.40678e-06
-1.78909e-05
1.2217e-06
-1.85666e-05
3.725e-06
-1.64122e-05
5.76846e-06
-1.36727e-05
7.37719e-06
-1.0682e-05
8.54605e-06
-7.59325e-06
9.2667e-06
-4.58783e-06
9.53378e-06
-1.904e-06
9.34703e-06
1.74835e-07
8.71329e-06
1.38831e-06
7.69168e-06
1.66568e-06
6.40353e-06
1.07914e-06
5.57199e-06
8.59952e-07
5.7558e-06
1.32197e-05
4.27998e-06
2.90858e-05
3.13939e-05
-2.36511e-06
2.95039e-05
-2.80986e-06
-3.81033e-06
-2.79014e-06
-2.27079e-06
-2.58147e-06
-4.21952e-07
-2.53555e-06
9.94825e-07
-2.12933e-06
2.75034e-06
-1.97647e-06
3.47669e-06
-2.42443e-06
3.48504e-06
-3.15152e-06
3.8118e-06
-3.93941e-06
4.24744e-06
-4.68456e-06
4.4034e-06
-5.33744e-06
4.12313e-06
-5.88928e-06
3.51449e-06
-6.36756e-06
2.82872e-06
-6.81653e-06
2.27491e-06
-7.26187e-06
1.87029e-06
-7.68672e-06
1.43451e-06
-8.03735e-06
7.0306e-07
-8.23814e-06
-5.5758e-07
-8.20151e-06
-2.51331e-06
-7.82238e-06
-5.25536e-06
-7.00914e-06
-8.73642e-06
-5.72602e-06
-1.27132e-05
-4.00994e-06
-1.66914e-05
-1.98935e-06
-1.99115e-05
4.54875e-07
-2.10108e-05
2.94682e-06
-1.89041e-05
4.99012e-06
-1.5716e-05
6.60964e-06
-1.23016e-05
7.79777e-06
-8.78138e-06
8.54241e-06
-5.33247e-06
8.83407e-06
-2.19566e-06
8.67044e-06
3.38471e-07
8.06194e-06
1.99681e-06
7.05969e-06
2.66793e-06
5.75931e-06
2.37953e-06
4.62456e-06
1.9947e-06
4.7973e-06
1.30469e-05
3.69539e-06
3.01877e-05
3.50892e-05
-2.12767e-06
3.16315e-05
-2.49485e-06
-3.44316e-06
-2.52376e-06
-2.24188e-06
-2.41251e-06
-5.33201e-07
-2.34898e-06
9.31297e-07
-2.09859e-06
2.49994e-06
-2.04104e-06
3.41914e-06
-2.41482e-06
3.85882e-06
-3.02398e-06
4.42096e-06
-3.70707e-06
4.93053e-06
-4.37283e-06
5.06916e-06
-4.97281e-06
4.72311e-06
-5.49659e-06
4.03827e-06
-5.97071e-06
3.30284e-06
-6.44001e-06
2.74421e-06
-6.92931e-06
2.35959e-06
-7.4176e-06
1.9228e-06
-7.84696e-06
1.13242e-06
-8.13615e-06
-2.68381e-07
-8.19437e-06
-2.4551e-06
-7.91464e-06
-5.53508e-06
-7.2033e-06
-9.44776e-06
-6.02152e-06
-1.38949e-05
-4.40859e-06
-1.83044e-05
-2.50173e-06
-2.18184e-05
-2.54549e-07
-2.3258e-05
2.15119e-06
-2.13099e-05
4.18236e-06
-1.77472e-05
5.80544e-06
-1.39246e-05
7.00962e-06
-9.98557e-06
7.77913e-06
-6.10198e-06
8.10124e-06
-2.51777e-06
7.97375e-06
4.65955e-07
7.41233e-06
2.55823e-06
6.46598e-06
3.61428e-06
5.21075e-06
3.63475e-06
3.92422e-06
3.28124e-06
4.00629e-06
1.29648e-05
3.1918e-06
3.10022e-05
3.8281e-05
-1.93674e-06
3.35683e-05
-2.25751e-06
-3.12239e-06
-2.32162e-06
-2.17777e-06
-2.26826e-06
-5.86559e-07
-2.21106e-06
8.74098e-07
-2.06147e-06
2.35035e-06
-2.06161e-06
3.41928e-06
-2.37195e-06
4.16916e-06
-2.87547e-06
4.92448e-06
-3.45625e-06
5.51131e-06
-4.03861e-06
5.65152e-06
-4.57794e-06
5.26243e-06
-5.06348e-06
4.52381e-06
-5.522e-06
3.76136e-06
-6.00117e-06
3.22338e-06
-6.52734e-06
2.88575e-06
-7.07563e-06
2.47109e-06
-7.5834e-06
1.64019e-06
-7.9623e-06
1.10513e-07
-8.11659e-06
-2.30081e-06
-7.93939e-06
-5.71228e-06
-7.33481e-06
-1.00523e-05
-6.26397e-06
-1.49658e-05
-4.76445e-06
-1.98039e-05
-2.94764e-06
-2.36352e-05
-8.99251e-07
-2.53064e-05
1.35042e-06
-2.35595e-05
3.35838e-06
-1.97552e-05
4.97406e-06
-1.55403e-05
6.18876e-06
-1.12003e-05
6.98281e-06
-6.89603e-06
7.33922e-06
-2.87418e-06
7.25736e-06
5.47809e-07
6.75898e-06
3.05661e-06
5.8936e-06
4.47967e-06
4.72313e-06
4.80522e-06
3.41218e-06
4.59219e-06
3.36689e-06
1.30101e-05
2.76447e-06
3.16046e-05
4.10455e-05
-1.78088e-06
3.53492e-05
-2.08063e-06
-2.82264e-06
-2.17416e-06
-2.08423e-06
-2.15871e-06
-6.02008e-07
-2.11402e-06
8.294e-07
-2.02396e-06
2.2603e-06
-2.05003e-06
3.44535e-06
-2.3013e-06
4.42043e-06
-2.70878e-06
5.33196e-06
-3.19096e-06
5.99348e-06
-3.68771e-06
6.14828e-06
-4.1595e-06
5.73423e-06
-4.59603e-06
4.96033e-06
-5.02555e-06
4.19089e-06
-5.50141e-06
3.69924e-06
-6.05472e-06
3.43906e-06
-6.65688e-06
3.07325e-06
-7.23861e-06
2.22191e-06
-7.70527e-06
5.77176e-07
-7.95389e-06
-2.05219e-06
-7.8793e-06
-5.78687e-06
-7.38498e-06
-1.05467e-05
-6.43523e-06
-1.59155e-05
-5.06297e-06
-2.11761e-05
-3.35513e-06
-2.5343e-05
-1.46904e-06
-2.71925e-05
5.93422e-07
-2.5622e-05
2.53704e-06
-2.16988e-05
4.12687e-06
-1.71301e-05
5.34364e-06
-1.2417e-05
6.16071e-06
-7.7131e-06
6.55279e-06
-3.26625e-06
6.52341e-06
5.77183e-07
6.10003e-06
3.47999e-06
5.3342e-06
5.2455e-06
4.27934e-06
5.86008e-06
3.03489e-06
5.83664e-06
2.85926e-06
1.31858e-05
2.4048e-06
3.20591e-05
4.34503e-05
-1.65195e-06
3.70011e-05
-1.95208e-06
-2.52251e-06
-2.07447e-06
-1.96184e-06
-2.08674e-06
-5.89738e-07
-2.0524e-06
7.95064e-07
-1.99174e-06
2.19964e-06
-2.0196e-06
3.47321e-06
-2.21263e-06
4.61346e-06
-2.53094e-06
5.65026e-06
-2.9182e-06
6.38075e-06
-3.32805e-06
6.55813e-06
-3.72594e-06
6.13212e-06
-4.10202e-06
5.33642e-06
-4.48697e-06
4.57583e-06
-4.94297e-06
4.15524e-06
-5.51037e-06
4.00646e-06
-6.15671e-06
3.7196e-06
-6.80378e-06
2.86898e-06
-7.3528e-06
1.1262e-06
-7.692e-06
-1.71299e-06
-7.71717e-06
-5.7617e-06
-7.33507e-06
-1.09288e-05
-6.51682e-06
-1.67338e-05
-5.29004e-06
-2.24029e-05
-3.71758e-06
-2.69155e-05
-1.95971e-06
-2.89503e-05
-9.80183e-08
-2.74837e-05
1.73312e-06
-2.35299e-05
3.27526e-06
-1.86723e-05
4.48324e-06
-1.3625e-05
5.32041e-06
-8.55027e-06
5.7487e-06
-3.69454e-06
5.77585e-06
5.50034e-07
5.43657e-06
3.81927e-06
4.7846e-06
5.89747e-06
3.86876e-06
6.77592e-06
2.74817e-06
6.95722e-06
2.46207e-06
1.34719e-05
2.1033e-06
3.24179e-05
4.55536e-05
-1.54409e-06
3.85452e-05
-1.8633e-06
-2.2033e-06
-2.01735e-06
-1.8078e-06
-2.05228e-06
-5.54806e-07
-2.0231e-06
7.65883e-07
-1.96989e-06
2.14644e-06
-1.98189e-06
3.48521e-06
-2.11619e-06
4.74776e-06
-2.35052e-06
5.88459e-06
-2.64648e-06
6.67671e-06
-2.96893e-06
6.88058e-06
-3.28739e-06
6.45057e-06
-3.59148e-06
5.64051e-06
-3.91431e-06
4.89866e-06
-4.3302e-06
4.57113e-06
-4.89469e-06
4.57096e-06
-5.57219e-06
4.3971e-06
-6.27358e-06
3.57037e-06
-6.8961e-06
1.74872e-06
-7.31815e-06
-1.29093e-06
-7.43711e-06
-5.64274e-06
-7.16718e-06
-1.11987e-05
-6.49104e-06
-1.74099e-05
-5.43097e-06
-2.3463e-05
-4.01785e-06
-2.83286e-05
-2.37583e-06
-3.05923e-05
-7.02435e-07
-2.91571e-05
9.57474e-07
-2.51898e-05
2.43253e-06
-2.01474e-05
3.61746e-06
-1.48099e-05
4.47055e-06
-9.40336e-06
4.93294e-06
-4.15693e-06
5.01935e-06
4.63622e-07
4.77128e-06
4.06735e-06
4.24451e-06
6.42424e-06
3.48435e-06
7.53608e-06
2.51978e-06
7.92179e-06
2.15459e-06
1.38371e-05
1.85074e-06
3.27217e-05
4.74044e-05
-1.45323e-06
3.99984e-05
-1.80887e-06
-1.84766e-06
-1.99915e-06
-1.61752e-06
-2.05405e-06
-4.99902e-07
-2.02444e-06
7.36275e-07
-1.96273e-06
2.08472e-06
-1.94629e-06
3.46877e-06
-2.02132e-06
4.82278e-06
-2.17616e-06
6.03943e-06
-2.38467e-06
6.88522e-06
-2.62034e-06
7.11625e-06
-2.85531e-06
6.68555e-06
-3.07676e-06
5.86196e-06
-3.31881e-06
5.1407e-06
-3.67053e-06
4.92285e-06
-4.21099e-06
5.11142e-06
-4.90315e-06
5.08925e-06
-5.64468e-06
4.3119e-06
-6.32804e-06
2.43208e-06
-6.8223e-06
-7.96671e-07
-7.0257e-06
-5.43934e-06
-6.86558e-06
-1.13588e-05
-6.34207e-06
-1.79334e-05
-5.4718e-06
-2.43332e-05
-4.24377e-06
-2.95566e-05
-2.73655e-06
-3.20996e-05
-1.21541e-06
-3.06782e-05
2.42274e-07
-2.66475e-05
1.61555e-06
-2.15206e-05
2.75722e-06
-1.59516e-05
3.6192e-06
-1.02653e-05
4.11255e-06
-4.65028e-06
4.25969e-06
3.16483e-07
4.10857e-06
4.21847e-06
3.71602e-06
6.81679e-06
3.12274e-06
8.12935e-06
2.32931e-06
8.71522e-06
1.91821e-06
1.42482e-05
1.63861e-06
3.30013e-05
4.9043e-05
-1.37631e-06
4.13747e-05
-1.78488e-06
-1.43909e-06
-2.01674e-06
-1.38565e-06
-2.09122e-06
-4.25423e-07
-2.05583e-06
7.00876e-07
-1.97403e-06
2.00293e-06
-1.92032e-06
3.41506e-06
-1.936e-06
4.83846e-06
-2.01569e-06
6.11912e-06
-2.1411e-06
7.01064e-06
-2.29204e-06
7.26718e-06
-2.44178e-06
6.8353e-06
-2.57234e-06
5.99252e-06
-2.71559e-06
5.28395e-06
-2.97612e-06
5.18338e-06
-3.46709e-06
5.60239e-06
-4.15373e-06
5.77589e-06
-4.91766e-06
5.07583e-06
-5.64582e-06
3.16024e-06
-6.19868e-06
-2.43813e-07
-6.4736e-06
-5.16442e-06
-6.41824e-06
-1.14142e-05
-6.05707e-06
-1.82946e-05
-5.40045e-06
-2.49899e-05
-4.38601e-06
-3.05711e-05
-3.03847e-06
-3.34471e-05
-1.64095e-06
-3.20757e-05
-3.87765e-07
-2.79007e-05
8.37305e-07
-2.27457e-05
1.91338e-06
-1.70277e-05
2.77259e-06
-1.11246e-05
3.29502e-06
-5.17271e-06
3.50383e-06
1.07673e-07
3.4546e-06
4.2677e-06
3.20354e-06
7.06785e-06
2.78418e-06
8.54871e-06
2.16574e-06
9.33367e-06
1.73691e-06
1.4677e-05
1.45884e-06
3.32794e-05
5.05018e-05
-1.3115e-06
4.26862e-05
-1.7889e-06
-9.61687e-07
-2.06853e-06
-1.10602e-06
-2.16298e-06
-3.30974e-07
-2.11786e-06
6.55754e-07
-2.00774e-06
1.89281e-06
-1.91046e-06
3.31778e-06
-1.86696e-06
4.79496e-06
-1.87568e-06
6.12784e-06
-1.92287e-06
7.05783e-06
-1.99263e-06
7.33695e-06
-2.0583e-06
6.90097e-06
-2.09382e-06
6.02803e-06
-2.12335e-06
5.31348e-06
-2.26432e-06
5.32435e-06
-2.67596e-06
6.01403e-06
-3.33328e-06
6.43321e-06
-4.0985e-06
5.84106e-06
-4.85188e-06
3.91362e-06
-5.44731e-06
3.51619e-07
-5.77745e-06
-4.83428e-06
-5.81887e-06
-1.13728e-05
-5.62784e-06
-1.84857e-05
-5.20798e-06
-2.54097e-05
-4.4372e-06
-3.13418e-05
-3.27323e-06
-3.46111e-05
-1.99717e-06
-3.33518e-05
-9.14745e-07
-2.89831e-05
1.16486e-07
-2.37769e-05
1.09625e-06
-1.80074e-05
1.93569e-06
-1.1964e-05
2.48852e-06
-5.72554e-06
2.76041e-06
-1.64214e-07
2.81762e-06
4.21049e-06
2.71389e-06
7.17158e-06
2.47223e-06
8.79037e-06
2.02431e-06
9.78159e-06
1.59683e-06
1.51045e-05
1.30321e-06
3.3573e-05
5.1805e-05
-1.25844e-06
4.39447e-05
-1.81958e-06
-4.00544e-07
-2.15399e-06
-7.71611e-07
-2.2702e-06
-2.14766e-07
-2.21351e-06
5.99064e-07
-2.06972e-06
1.74902e-06
-1.92388e-06
3.17193e-06
-1.82054e-06
4.69162e-06
-1.76148e-06
6.06878e-06
-1.73525e-06
7.0316e-06
-1.72863e-06
7.33032e-06
-1.71441e-06
6.88676e-06
-1.65623e-06
5.96986e-06
-1.56343e-06
5.22068e-06
-1.5586e-06
5.31952e-06
-1.85759e-06
6.31302e-06
-2.45772e-06
7.03334e-06
-3.19851e-06
6.58185e-06
-3.94632e-06
4.66143e-06
-4.57102e-06
9.76316e-07
-4.94214e-06
-4.46316e-06
-5.06978e-06
-1.12451e-05
-5.05303e-06
-1.85024e-05
-4.88975e-06
-2.5573e-05
-4.39229e-06
-3.18393e-05
-3.43689e-06
-3.55665e-05
-2.2953e-06
-3.44934e-05
-1.34836e-06
-2.993e-05
-5.0276e-07
-2.46225e-05
3.15561e-07
-1.88258e-05
1.11314e-06
-1.27616e-05
1.7033e-06
-6.3157e-06
2.03989e-06
-5.00807e-07
2.20863e-06
4.04176e-06
2.25647e-06
7.12374e-06
2.19308e-06
8.85376e-06
1.90368e-06
1.0071e-05
1.48501e-06
1.55231e-05
1.16253e-06
3.38955e-05
5.29675e-05
-1.21919e-06
4.51639e-05
-1.87442e-06
2.54686e-07
-2.27357e-06
-3.72467e-07
-2.41613e-06
-7.22051e-08
-2.34998e-06
5.32921e-07
-2.17062e-06
1.56966e-06
-1.97143e-06
2.97274e-06
-1.80468e-06
4.52488e-06
-1.67798e-06
5.94208e-06
-1.5817e-06
6.93533e-06
-1.50379e-06
7.2524e-06
-1.41628e-06
6.79925e-06
-1.27168e-06
5.82526e-06
-1.05728e-06
5.00628e-06
-8.87557e-07
5.1498e-06
-1.04007e-06
6.46553e-06
-1.55065e-06
7.54392e-06
-2.23897e-06
7.27017e-06
-2.95537e-06
5.37783e-06
-3.58766e-06
1.6086e-06
-3.98418e-06
-4.06664e-06
-4.18529e-06
-1.1044e-05
-4.34077e-06
-1.83469e-05
-4.44657e-06
-2.54672e-05
-4.2492e-06
-3.20367e-05
-3.52822e-06
-3.62875e-05
-2.53289e-06
-3.54887e-05
-1.71176e-06
-3.07512e-05
-1.01605e-06
-2.53182e-05
-3.83991e-07
-1.94578e-05
3.1092e-07
-1.34565e-05
9.48896e-07
-6.95368e-06
1.35799e-06
-9.09904e-07
1.64223e-06
3.75752e-06
1.84332e-06
6.92264e-06
1.95485e-06
8.74223e-06
1.80342e-06
1.02224e-05
1.38734e-06
1.59392e-05
1.02562e-06
3.42572e-05
5.39932e-05
-1.19366e-06
4.63575e-05
-1.95335e-06
1.01438e-06
-2.42851e-06
1.02688e-07
-2.60693e-06
1.06215e-07
-2.54039e-06
4.6638e-07
-2.32877e-06
1.35804e-06
-2.07126e-06
2.71523e-06
-1.83214e-06
4.28575e-06
-1.63152e-06
5.74146e-06
-1.46449e-06
6.7683e-06
-1.31904e-06
7.10696e-06
-1.16589e-06
6.6461e-06
-9.47072e-07
5.60644e-06
-6.22676e-07
4.68188e-06
-2.81199e-07
4.80832e-06
-2.61148e-07
6.44548e-06
-6.45433e-07
7.92821e-06
-1.2521e-06
7.87684e-06
-1.91055e-06
6.03628e-06
-2.52806e-06
2.22611e-06
-2.93329e-06
-3.66141e-06
-3.19502e-06
-1.07823e-05
-3.51146e-06
-1.80305e-05
-3.886e-06
-2.50927e-05
-4.0092e-06
-3.19135e-05
-3.54835e-06
-3.67483e-05
-2.71085e-06
-3.63262e-05
-2.01435e-06
-3.14477e-05
-1.44515e-06
-2.58874e-05
-9.54382e-07
-1.99486e-05
-4.29864e-07
-1.3981e-05
2.22865e-07
-7.60641e-06
7.40024e-07
-1.42706e-06
1.13698e-06
3.36057e-06
1.48897e-06
6.57065e-06
1.76637e-06
8.46483e-06
1.72135e-06
1.02674e-05
1.28546e-06
1.63751e-05
8.77975e-07
3.46647e-05
5.48711e-05
-1.18139e-06
4.75389e-05
-2.05554e-06
1.88853e-06
-2.61903e-06
6.6618e-07
-2.85082e-06
3.38008e-07
-2.80268e-06
4.18237e-07
-2.56959e-06
1.12494e-06
-2.24984e-06
2.39548e-06
-1.92313e-06
3.95904e-06
-1.6328e-06
5.45113e-06
-1.3866e-06
6.5221e-06
-1.17342e-06
6.89378e-06
-9.61315e-07
6.43399e-06
-6.82896e-07
5.32802e-06
-2.68824e-07
4.26781e-06
2.37309e-07
4.30219e-06
4.32648e-07
6.25014e-06
1.99033e-07
8.16182e-06
-2.84819e-07
8.36069e-06
-8.5513e-07
6.60659e-06
-1.43028e-06
2.80126e-06
-1.83155e-06
-3.26015e-06
-2.14579e-06
-1.0468e-05
-2.6001e-06
-1.75762e-05
-3.22359e-06
-2.44692e-05
-3.67693e-06
-3.14601e-05
-3.50061e-06
-3.69246e-05
-2.83325e-06
-3.69936e-05
-2.25914e-06
-3.20218e-05
-1.80561e-06
-2.6341e-05
-1.42047e-06
-2.03337e-05
-1.04316e-06
-1.43583e-05
-4.71123e-07
-8.17844e-06
1.86377e-07
-2.08456e-06
7.1356e-07
2.83338e-06
1.20939e-06
6.07482e-06
1.63435e-06
8.03987e-06
1.64868e-06
1.02531e-05
1.15162e-06
1.68722e-05
7.00621e-07
3.51157e-05
5.55718e-05
-1.18305e-06
4.8722e-05
-2.17897e-06
2.88445e-06
-2.84341e-06
1.33062e-06
-3.15324e-06
6.47838e-07
-3.15157e-06
4.16567e-07
-2.91601e-06
8.8938e-07
-2.53488e-06
2.01436e-06
-2.10372e-06
3.52788e-06
-1.69929e-06
5.0467e-06
-1.35497e-06
6.17779e-06
-1.06649e-06
6.60529e-06
-7.98582e-07
6.16609e-06
-4.75017e-07
5.00446e-06
2.27521e-08
3.77004e-06
6.17284e-07
3.70766e-06
1.00095e-06
5.86647e-06
9.79745e-07
8.18303e-06
6.31569e-07
8.70887e-06
1.07143e-07
7.13102e-06
-3.38423e-07
3.24683e-06
-7.29715e-07
-2.86886e-06
-1.0987e-06
-1.00991e-05
-1.65602e-06
-1.70188e-05
-2.48357e-06
-2.36416e-05
-3.26014e-06
-3.06836e-05
-3.38997e-06
-3.67948e-05
-2.90681e-06
-3.74767e-05
-2.45311e-06
-3.24755e-05
-2.10379e-06
-2.66903e-05
-1.80467e-06
-2.06328e-05
-1.50714e-06
-1.46559e-05
-1.04487e-06
-8.64071e-06
-3.37477e-07
-2.79196e-06
3.71814e-07
2.12409e-06
1.01796e-06
5.42867e-06
1.55415e-06
7.50368e-06
1.55816e-06
1.02491e-05
9.40291e-07
1.749e-05
4.70723e-07
3.55853e-05
5.60425e-05
-1.19823e-06
4.99202e-05
-2.31601e-06
4.00223e-06
-3.09149e-06
2.1061e-06
-3.50498e-06
1.06132e-06
-3.58143e-06
4.93023e-07
-3.36942e-06
6.7737e-07
-2.93924e-06
1.58418e-06
-2.39677e-06
2.98541e-06
-1.85425e-06
4.50417e-06
-1.3841e-06
5.70764e-06
-1.00251e-06
6.2237e-06
-6.75393e-07
5.83896e-06
-3.19662e-07
4.64872e-06
1.98121e-07
3.25226e-06
8.75436e-07
3.03034e-06
1.41843e-06
5.32347e-06
1.59527e-06
8.0062e-06
1.45132e-06
8.85281e-06
1.12333e-06
7.45901e-06
7.11984e-07
3.65818e-06
3.25985e-07
-2.48286e-06
-1.20101e-07
-9.65297e-06
-7.37594e-07
-1.64013e-05
-1.69896e-06
-2.26803e-05
-2.76935e-06
-2.96132e-05
-3.22234e-06
-3.63418e-05
-2.94013e-06
-3.77589e-05
-2.6074e-06
-3.28082e-05
-2.3539e-06
-2.69438e-05
-2.12062e-06
-2.08661e-05
-1.86271e-06
-1.49138e-05
-1.44075e-06
-9.06267e-06
-7.53608e-07
-3.4791e-06
1.05019e-07
1.26547e-06
9.13593e-07
4.6201e-06
1.48277e-06
6.9345e-06
1.37718e-06
1.03547e-05
5.76672e-07
1.82906e-05
1.73877e-07
3.59881e-05
5.62164e-05
-1.2239e-06
5.11441e-05
-2.45093e-06
5.22926e-06
-3.3358e-06
2.99097e-06
-3.86816e-06
1.59369e-06
-4.04872e-06
6.73577e-07
-3.89188e-06
5.20531e-07
-3.44366e-06
1.13596e-06
-2.80753e-06
2.34928e-06
-2.11989e-06
3.81653e-06
-1.49743e-06
5.08517e-06
-9.95671e-07
5.72195e-06
-5.96617e-07
5.43991e-06
-2.14131e-07
4.26624e-06
2.9703e-07
2.7411e-06
1.00968e-06
2.31769e-06
1.6826e-06
4.65054e-06
2.03783e-06
7.65097e-06
2.08033e-06
8.81031e-06
1.92041e-06
7.61893e-06
1.61383e-06
3.96476e-06
1.20043e-06
-2.06946e-06
7.10827e-07
-9.16337e-06
9.71406e-08
-1.57877e-05
-9.09316e-07
-2.16738e-05
-2.21818e-06
-2.83043e-05
-3.00338e-06
-3.55566e-05
-2.9424e-06
-3.78199e-05
-2.73604e-06
-3.30146e-05
-2.57767e-06
-2.71022e-05
-2.39794e-06
-2.10459e-05
-2.15259e-06
-1.51591e-05
-1.72671e-06
-9.48855e-06
-1.03468e-06
-4.17113e-06
-1.0928e-07
3.40069e-07
8.14425e-07
3.6964e-06
1.28191e-06
6.46702e-06
9.35906e-07
1.07007e-05
-3.59332e-08
1.92624e-05
-2.76284e-07
3.62284e-05
5.59401e-05
-1.25359e-06
5.23977e-05
-2.56035e-06
6.53602e-06
-3.53108e-06
3.9617e-06
-4.17549e-06
2.2381e-06
-4.47087e-06
9.68949e-07
-4.40257e-06
4.52231e-07
-3.98758e-06
7.20969e-07
-3.30894e-06
1.67064e-06
-2.50365e-06
3.01125e-06
-1.72197e-06
4.30349e-06
-1.07269e-06
5.07267e-06
-5.79729e-07
4.94695e-06
-1.67447e-07
3.85396e-06
3.15616e-07
2.25804e-06
1.02222e-06
1.61109e-06
1.7911e-06
3.88167e-06
2.30064e-06
7.14143e-06
2.51036e-06
8.60059e-06
2.49503e-06
7.63426e-06
2.27822e-06
4.18157e-06
1.85896e-06
-1.65021e-06
1.33925e-06
-8.64365e-06
7.72531e-07
-1.52209e-05
-1.56804e-07
-2.07445e-05
-1.62299e-06
-2.68381e-05
-2.73754e-06
-3.4442e-05
-2.92202e-06
-3.76354e-05
-2.85383e-06
-3.30828e-05
-2.80069e-06
-2.71553e-05
-2.67966e-06
-2.11669e-05
-2.44466e-06
-1.53941e-05
-1.99608e-06
-9.93713e-06
-1.27363e-06
-4.89357e-06
-3.33659e-07
-5.99907e-07
4.89497e-07
2.87324e-06
6.63901e-07
6.29261e-06
4.1731e-08
1.13229e-05
-8.95076e-07
2.01992e-05
-8.06127e-07
3.61395e-05
5.51339e-05
-1.2781e-06
5.36758e-05
-2.61948e-06
7.87741e-06
-3.62716e-06
4.96938e-06
-4.35017e-06
2.96111e-06
-4.74737e-06
1.36615e-06
-4.7907e-06
4.95565e-07
-4.4691e-06
3.99366e-07
-3.8292e-06
1.03074e-06
-2.97829e-06
2.16034e-06
-2.07168e-06
3.39688e-06
-1.26653e-06
4.26751e-06
-6.5484e-07
4.33526e-06
-1.99561e-07
3.39868e-06
2.47992e-07
1.81048e-06
9.1469e-07
9.44392e-07
1.74618e-06
3.05018e-06
2.38468e-06
6.50293e-06
2.74099e-06
8.24428e-06
2.84757e-06
7.52767e-06
2.71085e-06
4.31829e-06
2.32245e-06
-1.2618e-06
1.80966e-06
-8.13086e-06
1.27526e-06
-1.46865e-05
5.0231e-07
-1.99715e-05
-9.9986e-07
-2.5336e-05
-2.42812e-06
-3.30138e-05
-2.88516e-06
-3.71784e-05
-2.9736e-06
-3.29943e-05
-3.04697e-06
-2.70819e-05
-3.01133e-06
-2.12025e-05
-2.82111e-06
-1.55843e-05
-2.39073e-06
-1.03675e-05
-1.68498e-06
-5.59931e-06
-8.61021e-07
-1.42387e-06
-3.63136e-07
2.37535e-06
-5.22905e-07
6.45238e-06
-1.22562e-06
1.20256e-05
-1.91427e-06
2.08878e-05
-1.39594e-06
3.56211e-05
5.3738e-05
-1.2872e-06
5.4963e-05
-2.61036e-06
9.20057e-06
-3.58528e-06
5.9443e-06
-4.3309e-06
3.70673e-06
-4.78853e-06
1.82377e-06
-4.9394e-06
6.46443e-07
-4.75619e-06
2.16153e-07
-4.24613e-06
5.20683e-07
-3.46001e-06
1.37421e-06
-2.5183e-06
2.45517e-06
-1.59447e-06
3.34368e-06
-8.53646e-07
3.59444e-06
-3.35373e-07
2.88041e-06
9.18139e-08
1.38329e-06
6.91488e-07
3.44718e-07
1.55292e-06
2.18875e-06
2.29955e-06
5.7563e-06
2.78511e-06
7.75872e-06
3.00132e-06
7.31147e-06
2.95078e-06
4.36883e-06
2.64345e-06
-9.54478e-07
2.18323e-06
-7.67064e-06
1.66708e-06
-1.41704e-05
1.03815e-06
-1.93426e-05
-3.69295e-07
-2.39285e-05
-2.07803e-06
-3.1305e-05
-2.8343e-06
-3.64221e-05
-3.10381e-06
-3.27248e-05
-3.33321e-06
-2.68526e-05
-3.42723e-06
-2.11085e-05
-3.34964e-06
-1.56619e-05
-3.04328e-06
-1.06739e-05
-2.52453e-06
-6.11807e-06
-2.02271e-06
-1.92568e-06
-1.87854e-06
2.23118e-06
-2.19418e-06
6.76803e-06
-2.75673e-06
1.25881e-05
-3.04467e-06
2.11758e-05
-2.03909e-06
3.46156e-05
5.16989e-05
-1.27046e-06
5.62334e-05
-2.5272e-06
1.04573e-05
-3.38862e-06
6.80572e-06
-4.09043e-06
4.40854e-06
-4.54341e-06
2.27676e-06
-4.76255e-06
8.65575e-07
-4.72261e-06
1.76218e-07
-4.40623e-06
2.04299e-07
-3.80175e-06
7.69733e-07
-2.96047e-06
1.6139e-06
-2.0218e-06
2.40501e-06
-1.18207e-06
2.75471e-06
-5.8249e-07
2.28083e-06
-1.66868e-07
9.67673e-07
3.63762e-07
-1.85911e-07
1.22226e-06
1.33025e-06
2.06486e-06
4.9137e-06
2.67029e-06
7.15329e-06
2.99979e-06
6.98196e-06
3.06186e-06
4.30676e-06
2.88454e-06
-7.77162e-07
2.51382e-06
-7.29991e-06
2.02707e-06
-1.36836e-05
1.47214e-06
-1.87877e-05
2.44798e-07
-2.27012e-05
-1.68619e-06
-2.93741e-05
-2.76731e-06
-3.5341e-05
-3.24708e-06
-3.2245e-05
-3.66479e-06
-2.64348e-05
-3.93885e-06
-2.08344e-05
-4.05182e-06
-1.55489e-05
-3.98484e-06
-1.07409e-05
-3.79287e-06
-6.31004e-06
-3.67065e-06
-2.04789e-06
-3.76169e-06
2.32221e-06
-4.06069e-06
7.06703e-06
-4.38018e-06
1.29076e-05
-4.23526e-06
2.10309e-05
-2.72344e-06
3.31037e-05
4.89755e-05
-1.21568e-06
5.74491e-05
-2.3767e-06
1.16183e-05
-3.04437e-06
7.47339e-06
-3.64277e-06
5.00694e-06
-4.02071e-06
2.65469e-06
-4.24709e-06
1.09196e-06
-4.30952e-06
2.38644e-07
-4.18835e-06
8.31285e-08
-3.83198e-06
4.1336e-07
-3.22061e-06
1.00253e-06
-2.41925e-06
1.60365e-06
-1.58011e-06
1.91557e-06
-9.18205e-07
1.61892e-06
-4.84199e-07
5.33667e-07
-2.91796e-08
-6.40931e-07
7.80087e-07
5.20984e-07
1.71338e-06
3.98041e-06
2.44013e-06
6.42653e-06
2.90221e-06
6.51988e-06
3.11793e-06
4.09104e-06
3.10623e-06
-7.6546e-07
2.84703e-06
-7.04072e-06
2.40536e-06
-1.3242e-05
1.86262e-06
-1.82449e-05
8.15786e-07
-2.16543e-05
-1.24592e-06
-2.73124e-05
-2.67885e-06
-3.39081e-05
-3.40005e-06
-3.15238e-05
-4.03469e-06
-2.58002e-05
-4.531e-06
-2.03381e-05
-4.89257e-06
-1.51874e-05
-5.12954e-06
-1.05039e-05
-5.29086e-06
-6.14872e-06
-5.4789e-06
-1.85986e-06
-5.69921e-06
2.54252e-06
-5.92539e-06
7.29321e-06
-5.99424e-06
1.29765e-05
-5.44151e-06
2.04781e-05
-3.44085e-06
3.11031e-05
4.55346e-05
-1.10411e-06
5.85532e-05
-2.17245e-06
1.26867e-05
-2.57717e-06
7.87811e-06
-3.0292e-06
5.45897e-06
-3.27541e-06
2.9009e-06
-3.45395e-06
1.2705e-06
-3.55593e-06
3.40617e-07
-3.56896e-06
9.61591e-08
-3.4299e-06
2.74304e-07
-3.08963e-06
6.6226e-07
-2.54657e-06
1.06059e-06
-1.87531e-06
1.24431e-06
-1.24585e-06
9.89462e-07
-7.90007e-07
7.78235e-08
-4.6129e-07
-9.69648e-07
2.76367e-07
-2.16674e-07
1.29699e-06
2.95979e-06
2.15562e-06
5.5679e-06
2.77955e-06
5.89596e-06
3.18864e-06
3.68195e-06
3.35961e-06
-9.36433e-07
3.22334e-06
-6.90445e-06
2.84044e-06
-1.28591e-05
2.28847e-06
-1.7693e-05
1.36311e-06
-2.0729e-05
-7.60928e-07
-2.51883e-05
-2.56217e-06
-3.21068e-05
-3.55408e-06
-3.05319e-05
-4.42547e-06
-2.49288e-05
-5.16708e-06
-1.95965e-05
-5.79765e-06
-1.45568e-05
-6.33886e-06
-9.96268e-06
-6.80964e-06
-5.67794e-06
-7.22082e-06
-1.44868e-06
-7.52198e-06
2.84368e-06
-7.67653e-06
7.44776e-06
-7.52698e-06
1.28269e-05
-6.63014e-06
1.95813e-05
-4.19202e-06
2.86649e-05
4.13426e-05
-9.03525e-07
5.94568e-05
-1.92429e-06
1.37074e-05
-2.02189e-06
7.9757e-06
-2.29146e-06
5.72855e-06
-2.37205e-06
2.9815e-06
-2.4719e-06
1.37035e-06
-2.57463e-06
4.43343e-07
-2.65611e-06
1.77646e-07
-2.65034e-06
2.68527e-07
-2.5106e-06
5.2252e-07
-2.21422e-06
7.64216e-07
-1.78677e-06
8.16859e-07
-1.30515e-06
5.07839e-07
-9.35742e-07
-2.91583e-07
-7.39432e-07
-1.16596e-06
-1.47988e-07
-8.08118e-07
8.93589e-07
1.91821e-06
1.89506e-06
4.56643e-06
2.70802e-06
5.083e-06
3.33492e-06
3.05505e-06
3.68977e-06
-1.29129e-06
3.68322e-06
-6.8979e-06
3.36717e-06
-1.2543e-05
2.79825e-06
-1.7124e-05
1.91213e-06
-1.98428e-05
-2.25546e-07
-2.30506e-05