/*--------------------------------*- C++ -*----------------------------------*\
| =========                 |                                                 |
| \\      /  F ield         | OpenFOAM: The Open Source CFD Toolbox           |
|  \\    /   O peration     | Version:  4.1                                   |
|   \\  /    A nd           | Web:      www.OpenFOAM.org                      |
|    \\/     M anipulation  |                                                 |
\*---------------------------------------------------------------------------*/
FoamFile
{
    version     2.0;
    format      ascii;
    class       volVectorField;
    location    "300";
    object      U;
}
// * * * * * * * * * * * * * * * * * * * * * * * * * * * * * * * * * * * * * //

dimensions      [0 1 -1 0 0 0 0];

internalField   nonuniform List<vector> 
1600
(
(-0.00454417 0.000630071 0)
(-0.00184104 -0.00268871 0)
(0.00474802 0.000310448 0)
(-0.00295798 0.0010761 0)
(-0.00293567 -0.000154393 0)
(-0.00497234 0.000856703 0)
(-0.00842763 0.000419265 0)
(-0.00920784 -4.85946e-05 0)
(-0.00861939 -0.0001988 0)
(-0.00782047 -0.000173241 0)
(-0.00727517 -0.000104733 0)
(-0.00703353 -5.06159e-05 0)
(-0.00699725 -2.38041e-05 0)
(-0.00704387 -1.54473e-05 0)
(-0.0070855 -2.28226e-05 0)
(-0.00708326 -3.90912e-05 0)
(-0.00701938 -6.23923e-05 0)
(-0.00686313 -9.61116e-05 0)
(-0.00655318 -0.000147294 0)
(-0.00601448 -0.000224331 0)
(-0.00518406 -0.000314862 0)
(-0.00395103 -0.000307877 0)
(-0.00250192 -0.000326052 0)
(-0.000517598 -0.000405145 0)
(0.00179501 -0.000471603 0)
(0.00408882 -0.000486491 0)
(0.00632632 -0.000444466 0)
(0.00830243 -0.000365572 0)
(0.00989697 -0.000272391 0)
(0.0110632 -0.000179429 0)
(0.0118115 -9.85909e-05 0)
(0.0122084 -4.13045e-05 0)
(0.0124135 -3.38949e-05 0)
(0.0127623 -0.000124837 0)
(0.0135874 -0.000245378 0)
(0.0148968 -0.000314065 0)
(0.0158409 4.98361e-05 0)
(0.0144243 0.00171897 0)
(0.00261334 0.001784 0)
(-0.00213361 -0.00107184 0)
(-0.00502836 0.0026215 0)
(-0.00438393 -0.00305782 0)
(-0.00217034 0.000785225 0)
(-0.00279385 0.001997 0)
(-0.0024997 -0.000444246 0)
(-0.00385716 0.00206834 0)
(-0.00641386 0.0011934 0)
(-0.00719305 -3.39729e-05 0)
(-0.00705286 -0.00043831 0)
(-0.00684411 -0.000363629 0)
(-0.0068188 -0.00018648 0)
(-0.00695371 -4.11081e-05 0)
(-0.00717686 4.1213e-05 0)
(-0.00740741 6.12732e-05 0)
(-0.0075853 4.09449e-05 0)
(-0.00768816 5.83747e-06 0)
(-0.0077173 -3.60081e-05 0)
(-0.00766178 -9.57147e-05 0)
(-0.00748747 -0.000194459 0)
(-0.00713866 -0.000358336 0)
(-0.00651806 -0.000586323 0)
(-0.00547128 -0.000793725 0)
(-0.00390187 -0.00107016 0)
(-0.00177231 -0.00134656 0)
(0.0012033 -0.00146477 0)
(0.00367827 -0.00141372 0)
(0.00606436 -0.00129159 0)
(0.00817655 -0.0010839 0)
(0.00989711 -0.000835198 0)
(0.0111787 -0.000579387 0)
(0.0120258 -0.000348608 0)
(0.0125046 -0.000181611 0)
(0.0127574 -0.000145973 0)
(0.012973 -0.000334991 0)
(0.0133979 -0.000621629 0)
(0.014133 -0.00083166 0)
(0.0149949 2.71423e-05 0)
(0.0144418 0.0033519 0)
(0.00713296 0.00488857 0)
(0.00229461 0.000531626 0)
(-0.00502226 0.00451538 0)
(-0.0048938 -0.00317831 0)
(-0.00498421 2.86506e-05 0)
(-0.00284429 0.00194853 0)
(-0.00262219 -0.000276568 0)
(-0.00318008 0.0026662 0)
(-0.00399409 0.00179244 0)
(-0.00427594 0.000138241 0)
(-0.00467785 -0.000395531 0)
(-0.00523563 -0.000285061 0)
(-0.00583105 -5.41021e-05 0)
(-0.00642485 0.000111041 0)
(-0.00693905 0.000175267 0)
(-0.00732736 0.000155997 0)
(-0.00759874 9.36121e-05 0)
(-0.0077835 2.27104e-05 0)
(-0.00790312 -5.10902e-05 0)
(-0.00794798 -0.000147845 0)
(-0.0078762 -0.000302467 0)
(-0.00762088 -0.000548472 0)
(-0.00707495 -0.0008897 0)
(-0.0061018 -0.0013004 0)
(-0.00462601 -0.00181937 0)
(-0.0027254 -0.00237649 0)
(0.000246475 -0.00261472 0)
(0.00297323 -0.00244981 0)
(0.00541001 -0.00221393 0)
(0.00756382 -0.00186145 0)
(0.0093187 -0.00144221 0)
(0.010633 -0.00100695 0)
(0.0115031 -0.000605963 0)
(0.0119643 -0.000303793 0)
(0.0121011 -0.00019252 0)
(0.0120204 -0.000374871 0)
(0.0118964 -0.000726887 0)
(0.0118062 -0.00106071 0)
(0.0122406 2.66158e-05 0)
(0.0127952 0.00460472 0)
(0.00822018 0.00711113 0)
(0.00505271 0.00317719 0)
(-0.00472382 0.00632446 0)
(-0.00420959 -0.00284276 0)
(-0.00509777 -0.000505292 0)
(-0.00329699 0.00118417 0)
(-0.00296841 6.36907e-05 0)
(-0.00290842 0.00254419 0)
(-0.00254866 0.00195539 0)
(-0.00267341 0.000358822 0)
(-0.00347745 -9.94306e-05 0)
(-0.00445392 4.62927e-05 0)
(-0.00536602 0.000266269 0)
(-0.0061424 0.000387728 0)
(-0.00675331 0.000390703 0)
(-0.00720586 0.00031496 0)
(-0.00753674 0.00021067 0)
(-0.00779108 0.000110858 0)
(-0.00798923 1.06013e-05 0)
(-0.00811399 -0.000124485 0)
(-0.00811601 -0.000344158 0)
(-0.00792052 -0.000687917 0)
(-0.00742241 -0.00116305 0)
(-0.00650464 -0.00176188 0)
(-0.00510663 -0.00249735 0)
(-0.00328185 -0.00330359 0)
(-0.000760128 -0.00375398 0)
(0.00227718 -0.00354664 0)
(0.00474325 -0.00314995 0)
(0.00692828 -0.00264542 0)
(0.00870931 -0.0020553 0)
(0.0100487 -0.00144125 0)
(0.010942 -0.000865258 0)
(0.0114073 -0.000406997 0)
(0.0114884 -0.000170883 0)
(0.0112309 -0.00026279 0)
(0.0107295 -0.000592158 0)
(0.010042 -0.00101515 0)
(0.00983646 -8.2655e-05 0)
(0.0108625 0.00520892 0)
(0.00796964 0.00866275 0)
(0.00532643 0.00549228 0)
(-0.00436288 0.00789801 0)
(-0.00338562 -0.0024289 0)
(-0.00458467 -0.000748598 0)
(-0.00342638 0.000531669 0)
(-0.00310455 0.000260398 0)
(-0.00277421 0.00210246 0)
(-0.00195691 0.00183245 0)
(-0.00206753 0.000614031 0)
(-0.00301799 0.000296339 0)
(-0.00410024 0.000436531 0)
(-0.00508056 0.000609643 0)
(-0.00589975 0.000671233 0)
(-0.006542 0.000609035 0)
(-0.00702719 0.000476112 0)
(-0.00740302 0.000332575 0)
(-0.00771708 0.000208484 0)
(-0.00798448 8.67296e-05 0)
(-0.00817933 -8.51815e-05 0)
(-0.0082469 -0.000368726 0)
(-0.00810922 -0.000810099 0)
(-0.00766476 -0.0014228 0)
(-0.00680915 -0.00220221 0)
(-0.00548611 -0.00313627 0)
(-0.00372254 -0.00413364 0)
(-0.00160087 -0.00483336 0)
(0.00154661 -0.00469272 0)
(0.00405325 -0.00410204 0)
(0.00626046 -0.00344105 0)
(0.00806548 -0.00267975 0)
(0.00942684 -0.00188738 0)
(0.0103416 -0.00113378 0)
(0.0108188 -0.00050776 0)
(0.0108728 -0.000118476 0)
(0.0105088 -6.78806e-05 0)
(0.00978955 -0.000314234 0)
(0.00874882 -0.000752001 0)
(0.00788816 -0.000161396 0)
(0.00899365 0.00540893 0)
(0.00717623 0.00979934 0)
(0.00503578 0.00773493 0)
(-0.00402022 0.00922373 0)
(-0.00269506 -0.00208455 0)
(-0.00400558 -0.000846978 0)
(-0.00321684 0.000173229 0)
(-0.00300162 0.00036663 0)
(-0.00263163 0.00167806 0)
(-0.00184853 0.0016443 0)
(-0.0019629 0.000875905 0)
(-0.00285659 0.000699311 0)
(-0.00388573 0.000834953 0)
(-0.00483803 0.000963358 0)
(-0.00564448 0.000963853 0)
(-0.00628689 0.000839309 0)
(-0.00678812 0.000655267 0)
(-0.00719911 0.000479076 0)
(-0.0075659 0.000335403 0)
(-0.00789751 0.000192225 0)
(-0.00816107 -1.81884e-05 0)
(-0.0082966 -0.000367158 0)
(-0.00822582 -0.000907597 0)
(-0.0078496 -0.00165946 0)
(-0.00706966 -0.00261601 0)
(-0.00582847 -0.00373896 0)
(-0.00414192 -0.00490442 0)
(-0.00218881 -0.00583085 0)
(0.000706552 -0.00583464 0)
(0.00333076 -0.00507358 0)
(0.00555026 -0.0042474 0)
(0.00737755 -0.00331288 0)
(0.00875967 -0.00234233 0)
(0.00969533 -0.0014094 0)
(0.0101895 -0.000607089 0)
(0.0102348 -4.58273e-05 0)
(0.00982213 0.000174653 0)
(0.0089896 6.2115e-05 0)
(0.00779884 -0.000330278 0)
(0.00642827 -8.91965e-05 0)
(0.00733552 0.00542025 0)
(0.00622987 0.0106823 0)
(0.00459075 0.00983255 0)
(-0.00371468 0.0103594 0)
(-0.00216704 -0.00182207 0)
(-0.00352788 -0.000895746 0)
(-0.00292479 -2.31728e-05 0)
(-0.00279193 0.00040434 0)
(-0.0024762 0.00137224 0)
(-0.00190711 0.00150058 0)
(-0.00202933 0.00111127 0)
(-0.00279421 0.00106805 0)
(-0.00371435 0.00120999 0)
(-0.00459631 0.00130243 0)
(-0.00536136 0.00124928 0)
(-0.00598553 0.00106937 0)
(-0.00649056 0.000841769 0)
(-0.00692801 0.000640415 0)
(-0.00734192 0.000483399 0)
(-0.00773558 0.000323091 0)
(-0.00807021 7.64545e-05 0)
(-0.00827988 -0.000336685 0)
(-0.00828675 -0.000975389 0)
(-0.00799255 -0.00186607 0)
(-0.00729995 -0.00299768 0)
(-0.00614777 -0.00430703 0)
(-0.00454599 -0.00564103 0)
(-0.00263957 -0.00673909 0)
(-0.000156719 -0.00692351 0)
(0.00258567 -0.00606907 0)
(0.00480128 -0.00506342 0)
(0.00664406 -0.00395392 0)
(0.00804503 -0.00280613 0)
(0.00900196 -0.00169363 0)
(0.00951799 -0.000710826 0)
(0.00957497 3.00871e-05 0)
(0.00916289 0.000426269 0)
(0.00830883 0.000461715 0)
(0.00706938 0.000175008 0)
(0.00541124 0.000167692 0)
(0.00594075 0.00535312 0)
(0.00530835 0.0113656 0)
(0.0041264 0.0117017 0)
(-0.00344703 0.0113574 0)
(-0.00177321 -0.00161774 0)
(-0.0031541 -0.000912774 0)
(-0.0026552 -0.000130282 0)
(-0.00257732 0.000401418 0)
(-0.00233543 0.0011707 0)
(-0.00197655 0.00141573 0)
(-0.0021115 0.00130924 0)
(-0.00274652 0.00138605 0)
(-0.00354499 0.00154708 0)
(-0.00433883 0.00161604 0)
(-0.00504675 0.00152014 0)
(-0.00564002 0.00129459 0)
(-0.00613826 0.00103264 0)
(-0.00659356 0.000814679 0)
(-0.00704897 0.000651585 0)
(-0.00750275 0.000479665 0)
(-0.00791037 0.00020095 0)
(-0.00820092 -0.000273957 0)
(-0.00829371 -0.00100903 0)
(-0.00809142 -0.0020375 0)
(-0.0074946 -0.00334315 0)
(-0.00643859 -0.00483991 0)
(-0.00492934 -0.00634564 0)
(-0.00307381 -0.0075739 0)
(-0.000915349 -0.00794171 0)
(0.00182069 -0.00707298 0)
(0.00402293 -0.00588283 0)
(0.00586902 -0.00460054 0)
(0.00728518 -0.00327806 0)
(0.00826369 -0.00198707 0)
(0.00880573 -0.000822845 0)
(0.00888824 0.000100319 0)
(0.00849891 0.000675863 0)
(0.00766736 0.000867212 0)
(0.00647029 0.00069214 0)
(0.00470512 0.000566219 0)
(0.0048142 0.00526776 0)
(0.00448088 0.0118818 0)
(0.00369257 0.0133198 0)
(-0.00321318 0.0122502 0)
(-0.00148188 -0.00145361 0)
(-0.00286682 -0.00090807 0)
(-0.00242781 -0.000193489 0)
(-0.0023937 0.000381339 0)
(-0.00222004 0.00104379 0)
(-0.00201382 0.00137654 0)
(-0.00215776 0.00147378 0)
(-0.00268074 0.00165382 0)
(-0.00336099 0.00184217 0)
(-0.00406051 0.00189924 0)
(-0.00470206 0.00177174 0)
(-0.00525429 0.00151075 0)
(-0.00573513 0.00122414 0)
(-0.00619863 0.000999143 0)
(-0.00668885 0.000838893 0)
(-0.00719986 0.000662296 0)
(-0.0076811 0.00035659 0)
(-0.00805698 -0.000176606 0)
(-0.00824021 -0.00100565 0)
(-0.00813547 -0.00217037 0)
(-0.00764007 -0.0036493 0)
(-0.00668704 -0.00533434 0)
(-0.00527923 -0.00701213 0)
(-0.00350226 -0.00835785 0)
(-0.0015314 -0.00888095 0)
(0.00102925 -0.00805576 0)
(0.00322531 -0.00670008 0)
(0.00505977 -0.00525006 0)
(0.00648538 -0.00375707 0)
(0.00748508 -0.00229027 0)
(0.00805634 -0.000945946 0)
(0.00817384 0.000158469 0)
(0.00782411 0.000910741 0)
(0.00704246 0.00125818 0)
(0.00592164 0.00120483 0)
(0.0041896 0.00105343 0)
(0.00393865 0.0052055 0)
(0.0037651 0.0122632 0)
(0.00330303 0.0147066 0)
(-0.00300786 0.013059 0)
(-0.00126601 -0.00131511 0)
(-0.00264868 -0.000887721 0)
(-0.00224846 -0.000225917 0)
(-0.00225023 0.000358746 0)
(-0.00212943 0.00096689 0)
(-0.00201965 0.00136729 0)
(-0.00216176 0.00161067 0)
(-0.00258898 0.00187642 0)
(-0.00315863 0.00209544 0)
(-0.00376264 0.00214968 0)
(-0.0043317 0.00200063 0)
(-0.00483366 0.00171382 0)
(-0.00528556 0.00141197 0)
(-0.0057456 0.00118999 0)
(-0.00626185 0.00104275 0)
(-0.00682507 0.000869925 0)
(-0.00737831 0.000543845 0)
(-0.00784157 -4.37188e-05 0)
(-0.00811575 -0.000963973 0)
(-0.0081101 -0.0022628 0)
(-0.0077192 -0.0039138 0)
(-0.0068753 -0.00578647 0)
(-0.00557979 -0.00763599 0)
(-0.00390545 -0.00910395 0)
(-0.00202188 -0.00973194 0)
(0.000232175 -0.0089939 0)
(0.00242071 -0.00751156 0)
(0.00422789 -0.00589934 0)
(0.00565344 -0.00424151 0)
(0.00667253 -0.00260336 0)
(0.00727489 -0.00108165 0)
(0.00743435 0.000200539 0)
(0.0071366 0.0011236 0)
(0.00642454 0.00162185 0)
(0.00540221 0.00169175 0)
(0.00378982 0.00157498 0)
(0.00328409 0.00519107 0)
(0.00315809 0.0125427 0)
(0.00295935 0.0158983 0)
(-0.00282598 0.0137992 0)
(-0.00110581 -0.00119068 0)
(-0.00248676 -0.000855194 0)
(-0.00211699 -0.000239101 0)
(-0.00214693 0.00033963 0)
(-0.00206137 0.000921117 0)
(-0.00200486 0.00137412 0)
(-0.00213233 0.00172309 0)
(-0.00247458 0.00205855 0)
(-0.00294113 0.00230833 0)
(-0.00345028 0.0023662 0)
(-0.00394222 0.00220389 0)
(-0.00438492 0.00189959 0)
(-0.00479491 0.00159119 0)
(-0.00523719 0.00138254 0)
(-0.00576793 0.00125976 0)
(-0.00637578 0.00110056 0)
(-0.00699648 0.000761573 0)
(-0.00754428 0.000125017 0)
(-0.00790812 -0.000884173 0)
(-0.00799928 -0.00231417 0)
(-0.00771351 -0.00413493 0)
(-0.00698457 -0.00619241 0)
(-0.00581511 -0.0082125 0)
(-0.00426542 -0.00981096 0)
(-0.00246534 -0.0105138 0)
(-0.00047593 -0.00986142 0)
(0.00162407 -0.00830356 0)
(0.00338825 -0.00654252 0)
(0.00479885 -0.00472861 0)
(0.00583372 -0.00292592 0)
(0.00646754 -0.00123186 0)
(0.0066735 0.00022264 0)
(0.00643673 0.00130865 0)
(0.00580928 0.00194937 0)
(0.00490265 0.00213866 0)
(0.00345962 0.00208871 0)
(0.00281064 0.00523272 0)
(0.00265037 0.0127494 0)
(0.00265835 0.0169294 0)
(-0.00266314 0.0144832 0)
(-0.000987732 -0.00107091 0)
(-0.00237179 -0.000811494 0)
(-0.00203126 -0.000239281 0)
(-0.00208184 0.000324835 0)
(-0.00201498 0.000892506 0)
(-0.00198047 0.00138605 0)
(-0.00208164 0.00181208 0)
(-0.00234546 0.00220361 0)
(-0.00271521 0.00248239 0)
(-0.00313091 0.00254811 0)
(-0.00354203 0.00237885 0)
(-0.0039166 0.00206359 0)
(-0.00427029 0.00175597 0)
(-0.00467735 0.00157087 0)
(-0.00520756 0.00148543 0)
(-0.00584923 0.00135124 0)
(-0.00652916 0.00100772 0)
(-0.00715321 0.000328956 0)
(-0.007605 -0.000767396 0)
(-0.00778705 -0.00232506 0)
(-0.00760453 -0.0043116 0)
(-0.00699596 -0.00654802 0)
(-0.00596838 -0.00873488 0)
(-0.00456554 -0.0104692 0)
(-0.0028759 -0.0112421 0)
(-0.00106292 -0.0106484 0)
(0.000849585 -0.00905702 0)
(0.00255416 -0.00717157 0)
(0.00393159 -0.00521468 0)
(0.00497704 -0.00325693 0)
(0.00564149 -0.00139651 0)
(0.00589671 0.000222718 0)
(0.00572718 0.00146178 0)
(0.0051959 0.00223419 0)
(0.0044189 0.0025347 0)
(0.0031709 0.00256478 0)
(0.00247505 0.00532561 0)
(0.00223118 0.0129074 0)
(0.00239523 0.0178277 0)
(-0.00251567 0.0151203 0)
(-0.000902489 -0.00094711 0)
(-0.00229711 -0.00075594 0)
(-0.0019886 -0.000229756 0)
(-0.00205295 0.000312955 0)
(-0.00199067 0.000870873 0)
(-0.00195572 0.00139487 0)
(-0.00202121 0.00187767 0)
(-0.00221078 0.00231401 0)
(-0.00248919 0.0026191 0)
(-0.00281334 0.00269502 0)
(-0.00314097 0.00252306 0)
(-0.00343926 0.00220114 0)
(-0.00372135 0.00189968 0)
(-0.00407238 0.00174771 0)
(-0.00458298 0.00171383 0)
(-0.00524408 0.00161743 0)
(-0.00597152 0.00127821 0)
(-0.00666208 0.000563569 0)
(-0.00719537 -0.000615974 0)
(-0.00745888 -0.0022972 0)
(-0.00737481 -0.00444333 0)
(-0.00689126 -0.00684899 0)
(-0.00602287 -0.00919501 0)
(-0.00479124 -0.0110688 0)
(-0.00324062 -0.0119236 0)
(-0.00153788 -0.011346 0)
(0.000119471 -0.00976467 0)
(0.00173717 -0.00777629 0)
(0.00306289 -0.00569502 0)
(0.00411158 -0.00359519 0)
(0.00480426 -0.00157469 0)
(0.00510941 0.000200136 0)
(0.00501157 0.00158011 0)
(0.00458573 0.0024713 0)
(0.00394977 0.00287182 0)
(0.00290765 0.00298465 0)
(0.00223824 0.00545784 0)
(0.00188973 0.0130359 0)
(0.00216448 0.0186152 0)
(-0.00238044 0.0157181 0)
(-0.000844129 -0.000812296 0)
(-0.0022584 -0.000686997 0)
(-0.00198637 -0.000211469 0)
(-0.00205851 0.000301893 0)
(-0.00198951 0.000848789 0)
(-0.00193801 0.00139464 0)
(-0.00196089 0.00191962 0)
(-0.00207943 0.00239168 0)
(-0.0022716 0.00271995 0)
(-0.00250687 0.00280694 0)
(-0.00274974 0.00263452 0)
(-0.00296518 0.00230769 0)
(-0.00316073 0.00201497 0)
(-0.00343194 0.00190421 0)
(-0.00389931 0.00193742 0)
(-0.00456174 0.00189318 0)
(-0.00532163 0.00156782 0)
(-0.00606575 0.000824403 0)
(-0.00667083 -0.000433578 0)
(-0.00700289 -0.00223359 0)
(-0.00700921 -0.00453049 0)
(-0.00665424 -0.00709097 0)
(-0.00596347 -0.00958395 0)
(-0.0049303 -0.0115999 0)
(-0.00354671 -0.0125554 0)
(-0.00194928 -0.0119802 0)
(-0.000504988 -0.0103952 0)
(0.000952767 -0.00834299 0)
(0.00220617 -0.00616204 0)
(0.00324559 -0.00393917 0)
(0.00396421 -0.00176623 0)
(0.00431789 0.000153453 0)
(0.00429487 0.00166087 0)
(0.00398215 0.0026566 0)
(0.00349655 0.00314434 0)
(0.00266259 0.00333847 0)
(0.00206957 0.00561537 0)
(0.00161515 0.0131493 0)
(0.0019606 0.0193099 0)
(-0.00225482 0.0162827 0)
(-0.000808632 -0.000660505 0)
(-0.00225227 -0.000602638 0)
(-0.00202224 -0.000185065 0)
(-0.00209761 0.000289492 0)
(-0.00201296 0.000820826 0)
(-0.0019333 0.00138114 0)
(-0.0019087 0.00193782 0)
(-0.00195925 0.00243836 0)
(-0.00207036 0.00278655 0)
(-0.00222036 0.00288435 0)
(-0.00237905 0.00271198 0)
(-0.00250786 0.00237928 0)
(-0.00260435 0.00209428 0)
(-0.00277038 0.00203004 0)
(-0.00316629 0.00214687 0)
(-0.00380802 0.00217114 0)
(-0.00458166 0.00187027 0)
(-0.00536319 0.00110629 0)
(-0.00602728 -0.000224874 0)
(-0.00641135 -0.00213861 0)
(-0.00649641 -0.00457441 0)
(-0.00627212 -0.0072697 0)
(-0.00577755 -0.00989213 0)
(-0.00497187 -0.0120514 0)
(-0.00378359 -0.0131284 0)
(-0.00230886 -0.0125641 0)
(-0.00101093 -0.010933 0)
(0.000223269 -0.00886758 0)
(0.00137598 -0.00660443 0)
(0.00238303 -0.00428463 0)
(0.00312988 -0.00197018 0)
(0.00352926 8.26094e-05 0)
(0.00358354 0.00170212 0)
(0.00339058 0.00278688 0)
(0.00306295 0.00334859 0)
(0.00243452 0.00362238 0)
(0.00194727 0.00578531 0)
(0.00139612 0.0132583 0)
(0.00177823 0.0199265 0)
(-0.00213652 0.0168192 0)
(-0.000794048 -0.000483994 0)
(-0.00227691 -0.000500399 0)
(-0.00209457 -0.000151125 0)
(-0.00217006 0.00027387 0)
(-0.0020634 0.000783037 0)
(-0.00194706 0.0013514 0)
(-0.00187138 0.00193232 0)
(-0.00185677 0.0024558 0)
(-0.00189212 0.00282078 0)
(-0.00196139 0.00292836 0)
(-0.00203857 0.00275524 0)
(-0.00208066 0.00241323 0)
(-0.0020706 0.00213071 0)
(-0.00210716 0.0021139 0)
(-0.00239888 0.00233118 0)
(-0.00299371 0.00244271 0)
(-0.00375905 0.00217804 0)
(-0.00455895 0.0014029 0)
(-0.00526561 7.26469e-06 0)
(-0.00568263 -0.00201802 0)
(-0.00583111 -0.00457747 0)
(-0.00573766 -0.00738139 0)
(-0.00545633 -0.0101099 0)
(-0.00490733 -0.0124114 0)
(-0.00394418 -0.0136329 0)
(-0.00261147 -0.0130997 0)
(-0.00142748 -0.0113905 0)
(-0.000412958 -0.00933273 0)
(0.000592385 -0.00701254 0)
(0.00152354 -0.00462088 0)
(0.00230925 -0.00218669 0)
(0.00275186 -1.24533e-05 0)
(0.00288592 0.00170215 0)
(0.00281875 0.00285957 0)
(0.00265512 0.0034824 0)
(0.0022263 0.00383647 0)
(0.00185641 0.00595786 0)
(0.00122048 0.0133706 0)
(0.00161217 0.0204765 0)
(-0.00202368 0.0173322 0)
(-0.000800345 -0.000276683 0)
(-0.00233182 -0.000377904 0)
(-0.00220292 -0.000108979 0)
(-0.00227786 0.000253772 0)
(-0.00214564 0.000732635 0)
(-0.00198621 0.00130315 0)
(-0.00185577 0.0019031 0)
(-0.00177759 0.00244557 0)
(-0.00174193 0.00282465 0)
(-0.00173559 0.00294069 0)
(-0.00173578 0.00276535 0)
(-0.00169509 0.00240885 0)
(-0.00157864 0.00211917 0)
(-0.00146723 0.0021444 0)
(-0.00161903 0.00247761 0)
(-0.00213628 0.00269753 0)
(-0.00286725 0.00248188 0)
(-0.00366128 0.00170471 0)
(-0.00437972 0.000255201 0)
(-0.00482387 -0.0018777 0)
(-0.00501688 -0.00454312 0)
(-0.00505191 -0.00742326 0)
(-0.0049964 -0.0102281 0)
(-0.00473118 -0.0126677 0)
(-0.00402412 -0.0140591 0)
(-0.00285294 -0.013584 0)
(-0.00178302 -0.0117953 0)
(-0.00093058 -0.00969919 0)
(-0.000116762 -0.00738816 0)
(0.000675414 -0.00494125 0)
(0.00150436 -0.00241014 0)
(0.00199514 -0.000132449 0)
(0.00221315 0.00165911 0)
(0.00227709 0.00287266 0)
(0.00228169 0.00354486 0)
(0.00204323 0.00398396 0)
(0.00178607 0.0061274 0)
(0.00107446 0.013492 0)
(0.00145693 0.0209679 0)
(-0.00191516 0.0178266 0)
(-0.000828906 -3.22286e-05 0)
(-0.0024167 -0.000231915 0)
(-0.00234825 -5.73592e-05 0)
(-0.00242641 0.000229057 0)
(-0.00226939 0.000667999 0)
(-0.00206233 0.0012344 0)
(-0.00187139 0.00184945 0)
(-0.00172768 0.00240857 0)
(-0.00162349 0.00279998 0)
(-0.00154623 0.00292341 0)
(-0.00147511 0.00274452 0)
(-0.00135904 0.00236779 0)
(-0.00114524 0.00205777 0)
(-0.00087946 0.00211182 0)
(-0.000856318 0.00257238 0)
(-0.00126086 0.00292354 0)
(-0.00192769 0.00277093 0)
(-0.00268999 0.00199997 0)
(-0.00339491 0.000505818 0)
(-0.00384933 -0.00172309 0)
(-0.00406995 -0.00447534 0)
(-0.0042275 -0.00739409 0)
(-0.00440163 -0.0102399 0)
(-0.00444156 -0.0128087 0)
(-0.00402123 -0.0143966 0)
(-0.00303201 -0.0140122 0)
(-0.0020795 -0.0121486 0)
(-0.00136294 -0.01 0)
(-0.000711154 -0.00768023 0)
(-0.000119925 -0.00525847 0)
(0.000703049 -0.00262945 0)
(0.00127108 -0.00027813 0)
(0.00158041 0.00157121 0)
(0.00177906 0.0028249 0)
(0.00195356 0.00353644 0)
(0.00189166 0.00407114 0)
(0.00172594 0.00629336 0)
(0.000941566 0.0136269 0)
(0.0013062 0.0214044 0)
(-0.00181042 0.018308 0)
(-0.000880206 0.000250218 0)
(-0.00253197 -5.63643e-05 0)
(-0.00253297 6.46272e-06 0)
(-0.00262565 0.000201729 0)
(-0.00245155 0.000589253 0)
(-0.00219514 0.00114315 0)
(-0.00193432 0.00176901 0)
(-0.00171605 0.00234388 0)
(-0.00154034 0.00274762 0)
(-0.0013944 0.00287852 0)
(-0.00125752 0.00269574 0)
(-0.00107548 0.00229405 0)
(-0.000781169 0.00194885 0)
(-0.000372935 0.00200918 0)
(-0.000148401 0.00260116 0)
(-0.000401327 0.00310942 0)
(-0.000970313 0.00303401 0)
(-0.00167285 0.0022787 0)
(-0.00234316 0.000755953 0)
(-0.0027863 -0.00155934 0)
(-0.00302231 -0.00437837 0)
(-0.00329207 -0.00729549 0)
(-0.00368515 -0.0101417 0)
(-0.00404093 -0.0128246 0)
(-0.00393565 -0.0146352 0)
(-0.00315065 -0.0143796 0)
(-0.0023175 -0.0124517 0)
(-0.00172941 -0.0102515 0)
(-0.00120188 -0.00788993 0)
(-0.000782266 -0.00551469 0)
(-0.000102345 -0.00290128 0)
(0.000589472 -0.000432618 0)
(0.00100792 0.00143902 0)
(0.00134111 0.00271621 0)
(0.00168361 0.00345937 0)
(0.00177727 0.00410793 0)
(0.00166245 0.00646087 0)
(0.000800454 0.0137785 0)
(0.00115205 0.0217852 0)
(-0.00170959 0.0187819 0)
(-0.000954312 0.000576263 0)
(-0.00267435 0.000151072 0)
(-0.0027609 8.74625e-05 0)
(-0.00288889 0.000177324 0)
(-0.00271486 0.000499353 0)
(-0.00241242 0.00102778 0)
(-0.00206938 0.00165711 0)
(-0.00175805 0.00224746 0)
(-0.00149828 0.00266622 0)
(-0.00128031 0.00280711 0)
(-0.0010811 0.00262217 0)
(-0.000842572 0.00219325 0)
(-0.000489027 0.00179878 0)
(3.13576e-05 0.00183346 0)
(0.000458277 0.002557 0)
(0.000399307 0.00324142 0)
(-3.29167e-05 0.00326287 0)
(-0.000645017 0.00252698 0)
(-0.00126087 0.000997433 0)
(-0.00167155 -0.00139517 0)
(-0.00192324 -0.00425941 0)
(-0.00229039 -0.00713477 0)
(-0.00287129 -0.00993684 0)
(-0.0035365 -0.0127087 0)
(-0.00376955 -0.0147646 0)
(-0.00321338 -0.0146817 0)
(-0.00250042 -0.0127054 0)
(-0.00203546 -0.0104547 0)
(-0.00161528 -0.00806234 0)
(-0.00129758 -0.00566967 0)
(-0.000811168 -0.00317591 0)
(-8.19763e-05 -0.000668574 0)
(0.000514533 0.00127397 0)
(0.000980979 0.00254884 0)
(0.00148564 0.00331845 0)
(0.00170073 0.0041088 0)
(0.00157273 0.00664138 0)
(0.000621771 0.0139475 0)
(0.000984281 0.0221026 0)
(-0.00161344 0.0192535 0)
(-0.00105036 0.000949472 0)
(-0.00284066 0.000395407 0)
(-0.0030334 0.000194079 0)
(-0.00322593 0.000165546 0)
(-0.00307809 0.000404708 0)
(-0.00274062 0.000887992 0)
(-0.00230581 0.00150729 0)
(-0.00187677 0.00211124 0)
(-0.00150883 0.00255065 0)
(-0.00120607 0.00270814 0)
(-0.000943041 0.0025262 0)
(-0.000655696 0.00207159 0)
(-0.000266628 0.00161394 0)
(0.000338783 0.00161212 0)
(0.000926167 0.00244006 0)
(0.00107034 0.00329053 0)
(0.000832696 0.00343995 0)
(0.000358521 0.00276853 0)
(-0.00018814 0.00119872 0)
(-0.000548373 -0.00124643 0)
(-0.000836597 -0.00412613 0)
(-0.0012826 -0.00692896 0)
(-0.00199629 -0.00963884 0)
(-0.00294041 -0.0124599 0)
(-0.00352664 -0.0147754 0)
(-0.00322669 -0.0149133 0)
(-0.00263503 -0.0129109 0)
(-0.00228858 -0.0106144 0)
(-0.00195882 -0.00819721 0)
(-0.00171133 -0.00579985 0)
(-0.00132748 -0.00335315 0)
(-0.000683759 -0.000976041 0)
(8.25585e-05 0.00103001 0)
(0.000712054 0.0023227 0)
(0.00136881 0.00312176 0)
(0.00164501 0.00409383 0)
(0.00141406 0.00685154 0)
(0.000364095 0.0141286 0)
(0.000790328 0.0223418 0)
(-0.00152334 0.0197283 0)
(-0.00116431 0.00137141 0)
(-0.00302179 0.00068189 0)
(-0.00333993 0.000336717 0)
(-0.00362816 0.000178685 0)
(-0.00353697 0.000314268 0)
(-0.0031861 0.000725944 0)
(-0.00266368 0.001314 0)
(-0.00209858 0.00192473 0)
(-0.00159188 0.00239137 0)
(-0.00118007 0.00257695 0)
(-0.00084345 0.00240835 0)
(-0.000512327 0.0019351 0)
(-0.000103251 0.00140863 0)
(0.000542906 0.00135474 0)
(0.00124839 0.00225262 0)
(0.00158779 0.00325748 0)
(0.00155072 0.00353606 0)
(0.00124917 0.00294854 0)
(0.000837165 0.00142314 0)
(0.000531597 -0.00105643 0)
(0.000164709 -0.0039587 0)
(-0.000337374 -0.00669201 0)
(-0.00110744 -0.00927485 0)
(-0.00226941 -0.0120848 0)
(-0.00321141 -0.0146597 0)
(-0.00319817 -0.0150683 0)
(-0.00273085 -0.0130688 0)
(-0.00250147 -0.0107352 0)
(-0.00224722 -0.00830303 0)
(-0.00204426 -0.00591035 0)
(-0.00170308 -0.00352824 0)
(-0.00110256 -0.00123438 0)
(-0.000300105 0.00069224 0)
(0.000535125 0.00203726 0)
(0.00131569 0.00288394 0)
(0.00154437 0.00408987 0)
(0.00110503 0.00709824 0)
(-2.62271e-05 0.0143008 0)
(0.000557413 0.0224861 0)
(-0.00144103 0.0202111 0)
(-0.00128679 0.00183991 0)
(-0.00319716 0.00101257 0)
(-0.00364697 0.000523749 0)
(-0.00405226 0.000227821 0)
(-0.00404671 0.000238266 0)
(-0.00371747 0.00054843 0)
(-0.00313654 0.00107749 0)
(-0.00244138 0.00167981 0)
(-0.00177404 0.00217617 0)
(-0.00122165 0.00240429 0)
(-0.000790817 0.00226584 0)
(-0.00041313 0.0017881 0)
(2.69665e-06 0.0012006 0)
(0.000641843 0.0010737 0)
(0.00142535 0.00200617 0)
(0.00193936 0.00314859 0)
(0.00209362 0.00355454 0)
(0.00196233 0.00304439 0)
(0.00171276 0.0015685 0)
(0.00144748 -0.000868957 0)
(0.00100445 -0.00373223 0)
(0.000476641 -0.00641634 0)
(-0.000261965 -0.00887385 0)
(-0.00154488 -0.0116029 0)
(-0.00282798 -0.0144119 0)
(-0.00313545 -0.0151393 0)
(-0.00279908 -0.0131779 0)
(-0.00269091 -0.010819 0)
(-0.00250657 -0.0083872 0)
(-0.00233122 -0.00601375 0)
(-0.0019934 -0.0037034 0)
(-0.00139238 -0.00151914 0)
(-0.000566644 0.000328546 0)
(0.000392608 0.00166707 0)
(0.00121897 0.00263424 0)
(0.00123033 0.00413213 0)
(0.000505236 0.00744858 0)
(-0.000575008 0.0144692 0)
(0.000280369 0.0224768 0)
(-0.00136805 0.0207052 0)
(-0.00140259 0.00234709 0)
(-0.00333439 0.00138318 0)
(-0.00389722 0.000757372 0)
(-0.00442001 0.000319907 0)
(-0.00452091 0.000188629 0)
(-0.00425959 0.000370191 0)
(-0.00367836 0.0008094 0)
(-0.00289765 0.00137811 0)
(-0.00207816 0.00189579 0)
(-0.00136124 0.00217762 0)
(-0.000807214 0.00209138 0)
(-0.000370184 0.00163145 0)
(4.21774e-05 0.00100074 0)
(0.000638211 0.000787475 0)
(0.00145933 0.00171433 0)
(0.00212059 0.00297242 0)
(0.00244807 0.00350121 0)
(0.00247567 0.0030755 0)
(0.00236981 0.00166491 0)
(0.00211957 -0.000706713 0)
(0.00163444 -0.00353887 0)
(0.00110069 -0.00617898 0)
(0.000473796 -0.00845671 0)
(-0.00079474 -0.0110427 0)
(-0.00237854 -0.0140301 0)
(-0.00304466 -0.015117 0)
(-0.00285112 -0.0132349 0)
(-0.00287493 -0.0108639 0)
(-0.00276977 -0.00845124 0)
(-0.00262524 -0.00611653 0)
(-0.00228185 -0.00389121 0)
(-0.0016574 -0.00182667 0)
(-0.000774932 -6.45646e-05 0)
(0.000152145 0.0012406 0)
(0.000796456 0.00245242 0)
(0.000441864 0.00433568 0)
(-0.000457132 0.00791356 0)
(-0.00125886 0.0145111 0)
(-4.08288e-05 0.0222689 0)
(-0.00130504 0.0212108 0)
(-0.00149365 0.00287847 0)
(-0.00339805 0.00178014 0)
(-0.00402682 0.00103076 0)
(-0.00464113 0.000456117 0)
(-0.00485018 0.000178355 0)
(-0.00470055 0.000214754 0)
(-0.00419692 0.00053615 0)
(-0.00341619 0.00103798 0)
(-0.00250178 0.00155291 0)
(-0.00162886 0.00188671 0)
(-0.000927129 0.00187382 0)
(-0.000408622 0.00146133 0)
(1.2514e-06 0.000815943 0)
(0.000534483 0.000511319 0)
(0.00135375 0.00139121 0)
(0.00213402 0.00273942 0)
(0.00261292 0.00338466 0)
(0.0027847 0.00305271 0)
(0.00279092 0.00172532 0)
(0.00256152 -0.000551208 0)
(0.00209403 -0.00333689 0)
(0.001568 -0.00597029 0)
(0.00103391 -0.00811222 0)
(-5.9557e-05 -0.0104347 0)
(-0.00186334 -0.0135184 0)
(-0.00292894 -0.0149912 0)
(-0.00289721 -0.0132333 0)
(-0.00306931 -0.0108631 0)
(-0.00306893 -0.00848782 0)
(-0.00298512 -0.00621069 0)
(-0.00267376 -0.00408417 0)
(-0.00206937 -0.00214509 0)
(-0.00121242 -0.000471132 0)
(-0.000516594 0.000939265 0)
(-0.000306823 0.00248265 0)
(-0.000888045 0.0046731 0)
(-0.00167683 0.00825959 0)
(-0.00204614 0.0143974 0)
(-0.000405508 0.0218356 0)
(-0.00125113 0.0217242 0)
(-0.00154368 0.00341445 0)
(-0.00336165 0.00218008 0)
(-0.00398653 0.00132663 0)
(-0.0046416 0.000627268 0)
(-0.00493018 0.000214122 0)
(-0.00491069 0.000106955 0)
(-0.00455743 0.00029535 0)
(-0.0038876 0.000697257 0)
(-0.00298813 0.00117097 0)
(-0.00202513 0.00153389 0)
(-0.00118214 0.00160286 0)
(-0.000559706 0.00126935 0)
(-0.00013344 0.000646001 0)
(0.000334331 0.000255747 0)
(0.00111359 0.00105035 0)
(0.00198808 0.00245967 0)
(0.00259848 0.00321328 0)
(0.0029025 0.0029838 0)
(0.00300066 0.00175592 0)
(0.00282599 -0.000418774 0)
(0.00244101 -0.00314553 0)
(0.00195381 -0.00576424 0)
(0.00144897 -0.00785035 0)
(0.000601969 -0.00983061 0)
(-0.00128435 -0.0128894 0)
(-0.00278653 -0.014751 0)
(-0.00294495 -0.0131645 0)
(-0.00328435 -0.0108056 0)
(-0.00342709 -0.00848112 0)
(-0.00345663 -0.00627213 0)
(-0.00325929 -0.00424302 0)
(-0.0028063 -0.0024019 0)
(-0.00220383 -0.000744146 0)
(-0.00188144 0.000861278 0)
(-0.00199247 0.00263392 0)
(-0.00254259 0.00495161 0)
(-0.00304884 0.00846219 0)
(-0.0029081 0.0141022 0)
(-0.0008138 0.0211561 0)
(-0.00120339 0.0222368 0)
(-0.00154081 0.00393418 0)
(-0.00321575 0.00255281 0)
(-0.00375513 0.00162031 0)
(-0.00438641 0.00081288 0)
(-0.00469533 0.000289417 0)
(-0.00478262 6.05139e-05 0)
(-0.0046134 0.000122687 0)
(-0.00415155 0.000405495 0)
(-0.00340551 0.000796555 0)
(-0.00248146 0.00114573 0)
(-0.00156686 0.00127927 0)
(-0.000839633 0.00104518 0)
(-0.000360389 0.000479485 0)
(3.89941e-05 3.0041e-05 0)
(0.000750911 0.000705116 0)
(0.00169819 0.00214074 0)
(0.00242725 0.00299325 0)
(0.00285937 0.00287186 0)
(0.00305229 0.00175073 0)
(0.00298479 -0.00032761 0)
(0.00273308 -0.00298175 0)
(0.00231313 -0.00556513 0)
(0.0018136 -0.00762255 0)
(0.0011455 -0.00929429 0)
(-0.000648782 -0.0121595 0)
(-0.00260881 -0.0143852 0)
(-0.00299834 -0.0130171 0)
(-0.00352294 -0.0106785 0)
(-0.00385209 -0.00841069 0)
(-0.00405536 -0.00626864 0)
(-0.00406624 -0.00431839 0)
(-0.00390002 -0.0025311 0)