/*--------------------------------*- C++ -*----------------------------------*\
| =========                 |                                                 |
| \\      /  F ield         | OpenFOAM: The Open Source CFD Toolbox           |
|  \\    /   O peration     | Version:  4.1                                   |
|   \\  /    A nd           | Web:      www.OpenFOAM.org                      |
|    \\/     M anipulation  |                                                 |
\*---------------------------------------------------------------------------*/
FoamFile
{
    version     2.0;
    format      ascii;
    class       surfaceScalarField;
    location    "10";
    object      phi;
}
// * * * * * * * * * * * * * * * * * * * * * * * * * * * * * * * * * * * * * //

dimensions      [0 3 -1 0 0 0 0];

internalField   nonuniform List<scalar> 
760
(
-2.81966e-13
2.58738e-13
-1.40398e-13
-1.42523e-13
-6.4151e-14
-7.65144e-14
-3.57542e-14
-2.8483e-14
-1.60612e-14
-1.99647e-14
-2.59694e-14
9.71709e-15
-1.92661e-14
-6.73594e-15
-1.65377e-14
-2.67864e-15
-1.7572e-14
5.83484e-16
-1.08338e-14
-6.90255e-15
-7.99331e-15
-2.89221e-15
-5.92108e-15
-2.23962e-15
-4.3771e-15
-1.8339e-15
-1.91285e-15
-2.74379e-15
3.13104e-15
-5.18108e-15
7.31541e-15
-4.21862e-15
9.83409e-15
-2.59817e-15
1.11211e-14
-1.52318e-15
1.06974e-14
-4.6733e-17
1.01476e-14
1.47879e-13
1.10804e-13
5.15903e-14
-4.53315e-14
4.87385e-15
-2.95899e-14
-3.77778e-15
-1.99323e-14
-7.38471e-15
-1.62107e-14
-7.47678e-15
9.52276e-15
-6.53484e-15
-7.69506e-15
-9.97704e-15
1.28657e-15
-2.24647e-15
-6.63146e-15
-3.83243e-15
-4.78367e-15
-4.75944e-15
-1.62147e-15
-4.48928e-15
-2.36552e-15
-4.40455e-15
-1.89159e-15
4.69831e-16
-7.70607e-15
7.21777e-15
-1.20336e-14
9.02051e-15
-5.99058e-15
7.26601e-15
-4.74295e-16
4.92559e-15
1.50259e-15
5.45856e-15
1.22273e-16
1.60072e-14
7.52897e-14
3.58071e-14
2.72577e-14
2.57961e-15
-9.55174e-16
-1.31551e-15
-5.11469e-15
-1.52051e-14
-1.17085e-14
-9.28634e-15
-4.31371e-15
2.30108e-15
-1.78651e-15
-9.91461e-15
-4.43659e-15
3.97331e-15
-2.63785e-15
-7.97656e-15
-2.43635e-15
-4.53228e-15
-3.91927e-15
1.06242e-16
-5.38926e-15
-6.82598e-16
-3.85198e-15
-3.04009e-15
7.10148e-16
-1.1777e-14
4.40358e-15
-1.53516e-14
8.07059e-15
-9.44244e-15
8.46706e-15
-8.13376e-16
3.17652e-15
6.84117e-15
-4.16611e-16
3.94263e-15
1.56575e-14
1.52453e-14
2.08198e-14
1.73499e-14
5.41522e-16
4.69682e-15
1.07109e-14
-3.9115e-15
-6.46343e-15
-8.38814e-15
-4.97302e-15
-4.01343e-15
-2.26043e-15
-3.52394e-15
-1.00147e-14
4.05901e-15
-3.45034e-15
-2.32256e-15
-1.46488e-15
-3.14327e-15
-3.66141e-15
-2.88339e-15
-2.44674e-16
-3.31435e-15
-4.07439e-16
-5.52265e-16
-5.8349e-15
-5.2889e-16
-1.16344e-14
-2.1634e-15
-1.34177e-14
-7.87485e-16
-1.04874e-14
3.92675e-15
-5.46622e-15
2.70429e-15
8.07203e-15
-2.08479e-15
8.85381e-15
1.36577e-14
1.25529e-15
1.9351e-14
2.73903e-15
-4.19653e-16
7.30316e-15
5.98387e-15
4.71859e-15
-3.87028e-15
-2.00911e-16
1.43192e-17
1.69941e-15
-4.05353e-15
-5.6697e-16
-7.80376e-15
3.81809e-15
-7.45676e-15
1.8096e-16
2.3034e-15
-4.53888e-15
1.0311e-15
-4.85336e-15
1.11479e-16
-2.87313e-15
-2.34689e-15
3.74531e-16
-9.10187e-15
-8.58089e-16
-1.04342e-14
-4.53536e-15
-9.68565e-15
-4.8376e-15
-1.00862e-14
-9.26987e-16
-9.24218e-15
1.22437e-15
5.83457e-15
-6.15082e-16
1.07408e-14
1.30967e-14
4.14427e-15
1.50523e-14
-1.00157e-15
4.98164e-15
2.69708e-15
2.12336e-15
7.16066e-15
-8.37072e-15
2.87786e-15
4.2676e-15
4.90349e-15
-5.80402e-15
7.81098e-15
-1.07733e-14
1.36866e-15
-1.01592e-15
1.12981e-15
2.3641e-15
-3.22463e-15
5.10328e-15
-4.22706e-15
9.99182e-16
-2.13369e-15
-4.41741e-15
-1.42685e-15
-9.80018e-15
-1.52249e-15
-1.03338e-14
-4.56327e-15
-6.75417e-15
-4.02566e-15
-1.07024e-14
-4.40131e-15
-8.88436e-15
-1.11864e-15
2.60347e-15
-2.41193e-16
9.94588e-15
1.28425e-14
3.99669e-15
1.0956e-14
7.26798e-16
8.40731e-15
1.20343e-16
2.78777e-15
1.97927e-15
-9.93679e-15
7.47782e-15
-1.15897e-15
5.95274e-15
-4.41139e-15
5.40831e-15
-1.00454e-14
8.31385e-16
3.37756e-15
-2.78683e-16
3.21867e-15
-1.36423e-15
5.94213e-15
-3.1096e-16
-2.2666e-16
-3.68958e-16
-4.42667e-15
-2.31895e-15
-7.83692e-15
-3.34604e-15
-9.26056e-15
-3.65676e-15
-6.53287e-15
-3.73102e-15
-1.07614e-14
-5.56398e-15
-7.03118e-15
-3.52599e-15
6.67514e-16
3.75153e-16
6.09423e-15
1.32048e-14
4.81155e-15
6.06523e-15
-3.82353e-17
1.3266e-14
-8.47705e-16
3.61181e-15
-2.45576e-15
-8.26916e-15
6.91361e-15
-1.03028e-14
9.68262e-15
-7.33851e-15
-1.87233e-16
-2.72889e-16
-9.19944e-17
2.97125e-15
-1.59812e-15
4.50883e-15
1.39785e-15
2.87032e-15
4.1564e-15
-3.06283e-15
2.83745e-15
-3.15004e-15
-5.07089e-16
-4.36396e-15
-2.70637e-15
-6.88853e-15
-8.9552e-16
-8.23459e-15
-3.41052e-15
-8.15403e-15
-5.49534e-15
-4.87167e-15
-2.96637e-15
-1.77567e-15
1.74995e-15
1.38931e-15
1.49378e-14
-8.27362e-16
7.15162e-15
-2.29382e-15
1.48812e-14
-5.86865e-16
2.18278e-15
8.55479e-16
-9.66889e-15
1.84954e-15
-1.12727e-14
3.62101e-15
-8.84757e-15
-6.0286e-16
3.77405e-15
2.30714e-16
2.01426e-15
8.36208e-16
3.89045e-15
6.31644e-15
-2.49437e-15
7.60086e-15
-4.1929e-15
6.42219e-15
-1.77347e-15
4.82024e-15
-2.67354e-15
-1.18007e-16
-1.76795e-15
-1.02207e-15
-7.18566e-15
-2.86485e-15
-6.1709e-15
-2.99876e-15
-4.58178e-15
-1.65235e-15
-3.01321e-15
1.90007e-15
-2.18743e-15
1.6808e-14
-6.92574e-15
1.42694e-14
-1.33588e-15
9.25577e-15
-6.53515e-17
1.0272e-15
3.70751e-15
-1.31637e-14
1.70862e-15
-9.28973e-15
-3.78344e-15
-3.26794e-15
5.70727e-16
-7.12328e-16
1.15609e-15
1.45528e-15
5.56351e-15
-5.02115e-16
9.09753e-15
-5.9533e-15
8.93846e-15
-3.94095e-15
6.92791e-15
5.21201e-16
6.85706e-15
-2.35796e-15
2.92369e-15
2.24993e-15
-9.31573e-16
-3.23626e-15
-3.32987e-15
-3.6226e-15
-2.72386e-15
-5.02344e-15
-1.00884e-15
-4.64438e-15
1.41241e-15
-4.65318e-15
1.821e-14
-4.65678e-15
1.90462e-14
9.66764e-16
3.77916e-15
3.70143e-15
-1.66833e-15
9.21757e-16
-1.0243e-14
-2.53977e-16
-7.86571e-15
-2.56835e-15
-1.07892e-15
2.75565e-17
-3.26454e-15
1.49783e-15
1.95844e-17
8.25991e-15
-7.31677e-15
8.724e-15
-6.41372e-15
7.94282e-15
-2.9902e-15
7.87082e-15
6.989e-16
5.85611e-15
-1.88216e-16
2.7031e-15
5.5044e-15
-1.83394e-15
1.41446e-15
-3.67311e-15
-1.65971e-15
-2.51738e-15
-6.08559e-15
-6.55029e-16
-6.45389e-15
6.10297e-16
-5.92052e-15
1.88338e-14
-2.33058e-16
1.92443e-14
5.95216e-16
3.09969e-15
5.18619e-15
-6.02981e-15
1.05351e-15
-6.17882e-15
-2.68359e-15
-4.12974e-15
7.17647e-16
-4.678e-15
-3.92114e-16
-2.10693e-15
3.13061e-15
-3.49078e-15
6.41688e-15
-1.04823e-14
7.45833e-15
-7.32202e-15
6.35569e-15
-1.74015e-15
6.4518e-15
7.36052e-16
2.13434e-15
4.20992e-15
-1.31098e-15
8.99423e-15
-2.77759e-15
2.95467e-15
-1.89598e-15
-2.45235e-15
-9.57315e-16
-6.95391e-15
-7.60212e-16
-6.56578e-15
-9.52331e-16
-5.67689e-15
1.79182e-14
8.74594e-16
1.84924e-14
2.90312e-15
1.10014e-15
1.85043e-15
-4.86429e-15
7.91429e-16
-4.91024e-15
8.16493e-16
-4.13167e-15
1.30068e-15
-4.92774e-15
-4.93966e-16
-2.51633e-16
3.34769e-15
-7.43189e-15
2.82556e-15
-9.93338e-15
3.48702e-15
-7.66298e-15
3.89815e-15
-1.93001e-15
1.64786e-15
3.13532e-15
-2.03664e-15
7.93744e-15
-3.02935e-15
9.98428e-15
-1.96175e-15
1.90946e-15
2.38399e-16
-4.55668e-15
4.42201e-16
-7.0433e-15
-7.9111e-16
-5.20825e-15
-2.06369e-15
-4.31091e-15
1.59101e-14
2.81514e-16
1.83458e-14
5.11357e-15
-3.47371e-15
2.80723e-15
-2.56966e-15
8.138e-16
-2.87464e-15
2.9943e-15
-6.31517e-15
-1.77335e-16
-1.63911e-15
1.39255e-16
-5.98649e-16
-3.28553e-16
-6.78712e-15
1.33557e-16
-1.01877e-14
-1.39002e-17
-7.23409e-15
-4.75914e-17
-1.73326e-15
-3.37856e-15
6.52179e-15
-4.99325e-15
9.56626e-15
-1.78553e-15
6.77972e-15
8.17816e-16
-6.50086e-16
1.49154e-15
-5.13451e-15
6.13359e-16
-6.03887e-15
-8.95003e-16
-3.54542e-15
-2.09843e-15
-2.97265e-15
1.38823e-14
2.17303e-15
1.60777e-14
3.54922e-15
-4.76507e-15
5.40399e-15
-4.24199e-15
5.04827e-15
-2.49756e-15
1.08502e-15
-2.12933e-15
-3.08445e-15
2.57312e-15
-4.10274e-16
-3.33432e-15
-2.30896e-15
-4.71632e-15
-1.35111e-15
-1.08881e-14
-1.46008e-15
-6.95606e-15
-3.55328e-15
5.32171e-16
-5.75464e-15
8.81026e-15
-5.69199e-15
9.51528e-15
-7.84888e-16
1.83614e-15
2.9067e-15
-4.32938e-15
2.19949e-15
-4.33001e-15
1.80056e-16
-3.86946e-15
-1.06663e-15
-2.1264e-15
-1.81641e-15
-2.07133e-15
1.21349e-14
6.03294e-15
1.02044e-14
4.64246e-15
-3.19475e-15
5.3678e-15
-4.76757e-15
4.52579e-15
-1.63053e-15
-1.59789e-15
4.0165e-15
-3.21841e-15
4.11551e-15
-2.54998e-15
-3.86459e-15
-9.60508e-16
-6.12352e-15
-1.36176e-15
-1.02298e-14
-2.91159e-15
-5.33886e-15
-7.33685e-15
5.06501e-15
-6.49359e-15
8.04888e-15
-2.68796e-15
5.73594e-15
1.22169e-15
-2.15698e-15
3.18324e-15
-6.33156e-15
1.90952e-15
-2.94654e-15
-2.67742e-16
-1.51057e-15
-1.20136e-15
-9.98135e-16
-1.75403e-15
-1.37429e-15
1.0428e-14
6.08165e-15
4.21955e-15
4.66447e-15
-1.68196e-15
3.65738e-15
-3.73511e-15
-1.10398e-15
3.27773e-15
-3.80441e-15
6.6156e-15
-7.25218e-16
1.00149e-15
-1.60916e-15
-2.76884e-15
7.85526e-16
-8.44391e-15
-2.55429e-15
-6.75552e-15
-5.20177e-15
-2.6049e-15
-7.54625e-15
7.49348e-15
-4.50454e-15
5.00609e-15
8.49215e-16
3.67623e-16
2.73509e-15
-4.11143e-15
1.7398e-15
-5.3575e-15
4.53165e-16
-1.52901e-15
-8.57713e-16
-8.63246e-18
-1.28216e-15
-4.14195e-16
-1.99794e-15
-5.60521e-16
8.43661e-15
4.83589e-15
-5.36278e-16
3.65014e-15
-5.15919e-16
1.71762e-15
-1.67711e-15
-1.53954e-15
6.61655e-15
-2.32441e-15
7.44554e-15
8.08271e-16
-2.06693e-15
2.68802e-17
-1.8833e-15
1.21649e-15
-9.66808e-15
-3.19516e-15
-2.36624e-15
-5.82519e-15
1.0181e-16
-3.94183e-15
5.74969e-15
-6.53381e-16
1.70246e-15
2.44442e-15
-2.7805e-15
1.95757e-15
-3.64758e-15
-5.18873e-16
-2.8548e-15
-1.37504e-15
-5.44091e-16
-1.5204e-15
2.91752e-16
-1.73466e-15
-1.07528e-16
-2.41892e-15
1.60297e-16
5.98949e-15
3.3907e-15
-3.7599e-15
2.709e-15
2.00785e-16
-1.80908e-16
1.20292e-15
1.61835e-15
4.72306e-15
3.47974e-15
5.63552e-15
4.5565e-15
-3.09407e-15
3.23699e-15
-6.78413e-16
-3.44901e-16
-6.19799e-15
-2.49411e-15
-2.03794e-16
-3.32053e-15
1.01558e-15
1.00577e-16
2.50095e-15
1.75744e-15
6.18098e-17
1.29859e-15
-2.37988e-15
-6.61825e-16
-1.71184e-15
-2.60991e-15
-8.51916e-16
-2.88167e-15
-1.696e-16
-2.5504e-15
5.10351e-17
-2.56378e-15
-6.09204e-17
-2.79514e-15
3.64139e-16
3.16117e-15
-3.65949e-15
-3.40542e-15
-2.19329e-15
2.51881e-15
8.09922e-15
4.96123e-15
4.20519e-15
-1.99316e-15
-2.0808e-15
-9.97991e-16
1.53879e-15
1.57686e-15
-8.47812e-16
-2.55234e-15
-3.34604e-15
-3.46192e-15
-3.39889e-15
-3.48463e-15
-3.15982e-15
)
;

boundaryField
{
    floor
    {
        type            calculated;
        value           uniform 0;
    }
    ceiling
    {
        type            calculated;
        value           uniform 0;
    }
    fixedWalls
    {
        type            calculated;
        value           uniform 0;
    }
    frontAndBack
    {
        type            empty;
        value           nonuniform 0();
    }
}


// ************************************************************************* //
