/*--------------------------------*- C++ -*----------------------------------*\
| =========                 |                                                 |
| \\      /  F ield         | OpenFOAM: The Open Source CFD Toolbox           |
|  \\    /   O peration     | Version:  4.1                                   |
|   \\  /    A nd           | Web:      www.OpenFOAM.org                      |
|    \\/     M anipulation  |                                                 |
\*---------------------------------------------------------------------------*/
FoamFile
{
    version     2.0;
    format      ascii;
    class       volScalarField;
    location    "100";
    object      mag(U);
}
// * * * * * * * * * * * * * * * * * * * * * * * * * * * * * * * * * * * * * //

dimensions      [0 1 -1 0 0 0 0];

internalField   nonuniform List<scalar> 
5000
(
0.00377306
0.00366577
0.00365553
0.00402796
0.00578621
0.00752823
0.00872862
0.0093809
0.00962625
0.00957125
0.00928045
0.00876806
0.00795701
0.00668791
0.00485178
0.00173371
0.00122899
0.00215421
0.00289396
0.00370907
0.00423643
0.00445294
0.00441927
0.00417867
0.00370333
0.00303345
0.00194048
0.00303662
0.00209762
0.00109264
0.00207376
0.00290388
0.00246626
0.00170041
0.0013455
0.00480965
0.00625428
0.00575622
0.00450133
0.00295073
0.00223064
0.00379384
0.00599405
0.00763737
0.00794689
0.00454381
0.00446276
0.00544357
0.00640129
0.00673602
0.00665914
0.00626593
0.00562308
0.00481653
0.00391043
0.0029503
0.00192603
0.00119039
0.00121727
0.00159173
0.00328791
0.00532392
0.00663898
0.00774835
0.00847634
0.00858035
0.00808142
0.00707607
0.00559977
0.00468114
0.00479222
0.00582139
0.00717642
0.00777021
0.00767113
0.00672742
0.00543268
0.00310975
0.00556164
0.00461907
0.00371515
0.00235551
0.00242339
0.00306891
0.00375923
0.00457548
0.0056545
0.00703951
0.00862227
0.0100497
0.0110497
0.0114054
0.0110198
0.00999289
0.00851392
0.00686558
0.00539283
0.00435522
0.00354517
0.00348225
0.0048474
0.00133635
0.00550325
0.00555549
0.00599678
0.00688828
0.00766825
0.00814226
0.00832853
0.00823763
0.00792158
0.00740059
0.00666253
0.00590861
0.00603231
0.00244359
0.00326435
0.00408367
0.00421945
0.00431488
0.00428291
0.00404631
0.0036486
0.00315604
0.00254087
0.00291206
0.00452201
0.00307991
0.00259857
0.00170012
0.00186784
0.00134233
0.00187617
0.00275807
0.00510453
0.0060534
0.00585596
0.00546579
0.0052728
0.00461134
0.00405495
0.00394278
0.00459118
0.00474869
0.00676592
0.00757016
0.00549426
0.00406729
0.0041459
0.00406227
0.00395173
0.00377881
0.00351571
0.00319479
0.00282972
0.00258449
0.00224271
0.00198049
0.00127482
0.00215509
0.0044451
0.00426715
0.00412667
0.00436676
0.0046848
0.00499238
0.00521254
0.00478396
0.00451747
0.00571663
0.00692004
0.00427
0.00446258
0.00480801
0.00500385
0.0048778
0.0056711
0.00654
0.00511772
0.00377173
0.00490159
0.00321548
0.00139773
0.00118838
0.00165801
0.00239966
0.00345133
0.00496856
0.0063797
0.00753253
0.00835482
0.00887488
0.00900393
0.00878747
0.00827894
0.0075435
0.00663283
0.00557844
0.00433747
0.0051868
0.0056972
0.0028969
0.0072371
0.00716033
0.00649379
0.00624542
0.00629931
0.00640177
0.00642685
0.00625756
0.00593551
0.00552682
0.00520494
0.00576707
0.00807115
0.000352435
0.00435168
0.00514913
0.00490705
0.00456938
0.00418477
0.00357674
0.00284096
0.00214615
0.00256482
0.00563813
0.00596465
0.00322122
0.00319454
0.00278048
0.00203851
0.00145873
0.00278419
0.00507067
0.00644963
0.00641425
0.005571
0.00569753
0.0060804
0.00615826
0.00634684
0.00658114
0.00630107
0.00384069
0.00606683
0.0098558
0.00761214
0.00304497
0.0011717
0.00169723
0.0015817
0.00158729
0.00160557
0.00163451
0.00159475
0.00170027
0.00193904
0.0021013
0.0018239
0.00209848
0.00499161
0.00391143
0.00238252
0.00222605
0.00203414
0.00044516
0.0015909
0.00281437
0.00417481
0.00698711
0.00911564
0.00404876
0.00292756
0.00263465
0.00251994
0.00373127
0.00699425
0.00937613
0.00546176
0.00365977
0.00604986
0.00430645
0.00281797
0.00207363
0.0018656
0.00232505
0.00346434
0.00519764
0.00589537
0.00637219
0.00675386
0.00713097
0.00756434
0.00786763
0.00794905
0.00772131
0.00711677
0.00614491
0.00520655
0.00760683
0.00618094
0.00507419
0.00844923
0.0079692
0.00649817
0.00528952
0.00459611
0.00429484
0.00418419
0.00410052
0.00399545
0.00397447
0.00442985
0.00657063
0.00972821
0.00385905
0.00515298
0.00501484
0.00425651
0.00363918
0.00312882
0.00266208
0.00230079
0.00307917
0.00595308
0.00764951
0.00647632
0.00373266
0.00369074
0.00360614
0.00357208
0.00373978
0.00464465
0.0058038
0.00659242
0.00614924
0.00532455
0.00573417
0.00644259
0.00717049
0.00797267
0.00836994
0.0077371
0.00562072
0.0061365
0.010481
0.00838469
0.00522454
0.00384928
0.00335211
0.00304084
0.00288711
0.00269123
0.00243798
0.00219118
0.00166315
0.00126429
0.00107402
0.00114644
0.00109156
0.00427658
0.0047395
0.00272289
0.000369413
0.000566291
0.00186028
0.000993302
0.00119476
0.00327071
0.00703753
0.00992157
0.00424511
0.00252648
0.00111507
0.0010747
0.00411713
0.00844816
0.0111196
0.00603354
0.00329241
0.0064276
0.00483459
0.00362715
0.00303517
0.00290593
0.00358092
0.00511678
0.00623436
0.00623374
0.00603862
0.00595163
0.00607819
0.00646478
0.00684601
0.00709834
0.00709457
0.00678699
0.00632281
0.00641082
0.0100811
0.00557959
0.00601521
0.00909289
0.00800695
0.00596936
0.00415769
0.00286494
0.00209422
0.0017706
0.00191416
0.00224288
0.00281954
0.00444319
0.00792658
0.0104445
0.00625504
0.00543928
0.00417215
0.00273303
0.00178078
0.00162397
0.00237534
0.00399858
0.00636138
0.00850665
0.0087923
0.00658706
0.00429503
0.00388842
0.00397813
0.00448575
0.00476847
0.00486371
0.00528093
0.00587321
0.00539316
0.00471631
0.00535581
0.00639071
0.00767542
0.00896498
0.00951678
0.00892694
0.00655181
0.00404772
0.00931909
0.00765478
0.0066528
0.00702625
0.0076569
0.00798593
0.00789036
0.00740655
0.00659009
0.00549087
0.00421183
0.0030858
0.00222797
0.00149681
0.000854643
0.00259659
0.00498678
0.00423814
0.00314423
0.0022682
0.00257657
0.00219179
0.00255483
0.0027076
0.00590571
0.00982243
0.00443603
0.00251193
0.00162451
0.00194717
0.00476564
0.00898789
0.0117598
0.00639438
0.00258601
0.0062719
0.00494872
0.00403444
0.00369028
0.00397158
0.00492447
0.00607649
0.00657981
0.00613537
0.00539248
0.00471422
0.00441015
0.00464908
0.00510219
0.00553301
0.00585503
0.00608136
0.00643324
0.00762633
0.0122415
0.0043748
0.00668877
0.00905284
0.00727787
0.00508903
0.00339321
0.00226284
0.00134881
0.00101049
0.00144961
0.00233394
0.00361815
0.00563552
0.0084128
0.0101843
0.00768888
0.00563154
0.00338743
0.00131863
0.00106411
0.00284247
0.00459579
0.00679563
0.00897087
0.0101464
0.00928121
0.00651056
0.00459921
0.00364234
0.00361677
0.00435805
0.00470147
0.00423242
0.00384517
0.00467561
0.00452851
0.00352403
0.00434926
0.0056934
0.00743945
0.00915175
0.00982435
0.0093895
0.00808829
0.00495496
0.00721345
0.00650733
0.00771723
0.00930604
0.0103887
0.0109139
0.0110266
0.0107781
0.0101967
0.00934165
0.00826783
0.00698082
0.00554708
0.0042128
0.00322672
0.00299091
0.0047141
0.0047168
0.0040883
0.00369125
0.00366147
0.00339833
0.00332912
0.00315207
0.00437485
0.0091461
0.0042365
0.00213903
0.00190708
0.00278225
0.00529473
0.00894333
0.0114241
0.00644753
0.00161496
0.0056656
0.00475154
0.00427319
0.00435529
0.0049491
0.00581616
0.00654084
0.00671626
0.00610051
0.00506299
0.00380297
0.00267952
0.00239696
0.0030982
0.00386704
0.00462051
0.00542423
0.00653378
0.00862861
0.014012
0.00294432
0.00686108
0.00814276
0.00590582
0.00453707
0.00402059
0.00388921
0.00400222
0.00437416
0.00467381
0.00513873
0.00577719
0.00669533
0.0079497
0.00865987
0.00780015
0.00528797
0.00274006
0.00188278
0.00303696
0.00471841
0.00679147
0.00896342
0.0106394
0.0109324
0.0091713
0.00611981
0.00486085
0.00336204
0.00255908
0.00349282
0.00393238
0.00315581
0.0015354
0.00352946
0.00521855
0.00262765
0.00248081
0.00439219
0.00661353
0.00879237
0.00943796
0.00854604
0.00710696
0.00541005
0.000462084
0.00393158
0.00667983
0.00844701
0.00945792
0.010043
0.0104045
0.0105176
0.0103599
0.00995633
0.00932623
0.00849641
0.00751604
0.0064525
0.00540728
0.00459637
0.00476763
0.0049189
0.00462916
0.00431692
0.00411725
0.00382544
0.00351409
0.00309818
0.00325798
0.00809742
0.00383278
0.00136986
0.00182197
0.00370549
0.0061116
0.00877461
0.0103365
0.00604496
0.000877327
0.00469749
0.00438073
0.00443746
0.00491495
0.00565863
0.00641861
0.00693238
0.00698535
0.00648484
0.00552148
0.00416674
0.00250744
0.00062555
0.00160939
0.00265884
0.00364893
0.00484953
0.00653917
0.00937544
0.0154337
0.0016517
0.00642984
0.00635724
0.00495543
0.00510806
0.0058034
0.00658942
0.00728892
0.00769596
0.00790787
0.00795908
0.00779914
0.00740013
0.00680415
0.00566902
0.00648309
0.00446444
0.00277599
0.00311595
0.00451662
0.00626262
0.0083148
0.0102533
0.0113976
0.0109314
0.00844607
0.00545491
0.00590409
0.00358332
0.00169813
0.0029514
0.00304802
0.00231383
0.00226704
0.00210218
0.00598739
0.00427319
0.000999727
0.0029334
0.00571147
0.00844873
0.00918398
0.00804361
0.00614908
0.00492509
0.0036779
0.00403216
0.00545549
0.00665085
0.00742457
0.00792772
0.00835619
0.00880694
0.00912551
0.0092519
0.00915073
0.0088143
0.00826374
0.00754485
0.00673613
0.00595825
0.00556537
0.00541971
0.00507857
0.00465374
0.00429403
0.00388191
0.00340377
0.00291324
0.00244958
0.0070789
0.00341667
0.000648373
0.00269216
0.00498144
0.00704752
0.00863578
0.00892566
0.00512283
0.000969848
0.0036651
0.00402729
0.00452949
0.00528228
0.0061372
0.0069029
0.00742365
0.00756921
0.00727346
0.00654742
0.00542358
0.00396108
0.00225338
0.000550718
0.00162712
0.0027712
0.00425432
0.00641184
0.00990874
0.0165483
0.000884171
0.00529676
0.00453857
0.00506023
0.00660029
0.00801081
0.0090918
0.00978368
0.01014
0.0101847
0.00985089
0.00901547
0.00751384
0.00509169
0.00129362
0.00514596
0.00388519
0.00339189
0.00423661
0.0055582
0.00722918
0.00911131
0.0107401
0.0113942
0.0102866
0.0072003
0.00497571
0.00730102
0.00389775
0.00162166
0.00313148
0.00274878
0.0022008
0.00318421
0.000921538
0.00614329
0.0050149
0.00274696
0.00100431
0.00512696
0.00826339
0.00907754
0.00797105
0.00598752
0.00487549
0.00499647
0.00498953
0.00539344
0.00596166
0.00637652
0.00660494
0.00677823
0.00710618
0.00757845
0.00801926
0.00831053
0.00838337
0.00822017
0.0078474
0.00732593
0.00674077
0.00627384
0.00588582
0.00538651
0.00483841
0.00433622
0.00378092
0.00327913
0.00301635
0.00186128
0.00630991
0.0027311
0.00183789
0.00415611
0.0062302
0.00778097
0.0084463
0.0075814
0.00401755
0.00194951
0.0032852
0.00398437
0.00463443
0.00548062
0.0064015
0.0072293
0.00784547
0.00816596
0.00813526
0.00772891
0.00693244
0.00574865
0.00421156
0.00243159
0.0009327
0.00187571
0.00358482
0.00616629
0.010261
0.0173368
0.000901618
0.00343053
0.00374543
0.00602571
0.00793829
0.00936111
0.0103855
0.0110632
0.0113863
0.011333
0.0108534
0.0098679
0.00832133
0.00635883
0.00481752
0.00516204
0.00483354
0.00445755
0.00499999
0.00612056
0.00762137
0.00928226
0.0106099
0.0108652
0.00925431
0.00565578
0.0051221
0.00814047
0.00399298
0.00225525
0.0037284
0.00280838
0.00289386
0.00389462
0.00263576
0.00478593
0.00468122
0.00289255
0.0017983
0.00551391
0.0082993
0.0090415
0.00800298
0.00613995
0.00510684
0.00567122
0.00595333
0.00606117
0.0061648
0.00618034
0.00607353
0.00590425
0.00585572
0.00614696
0.00665605
0.00718044
0.00756091
0.00772282
0.00765718
0.00740034
0.00701216
0.00658994
0.00611909
0.00554244
0.00492391
0.00431847
0.00368146
0.00337746
0.00363909
0.00165656
0.00580183
0.00158696
0.00340782
0.00552162
0.00722615
0.00821838
0.0081697
0.00666974
0.00389724
0.00322534
0.00390342
0.00438298
0.0048052
0.00547178
0.00633948
0.00721276
0.00793644
0.00844807
0.00870079
0.00865772
0.00827145
0.0074989
0.00631554
0.00476156
0.00302818
0.00197626
0.00329807
0.00595692
0.0103972
0.017564
0.00117835
0.00135716
0.00422749
0.00654766
0.00827547
0.00965993
0.0107033
0.0114016
0.0117575
0.0117729
0.0114436
0.010773
0.0098058
0.00868308
0.00779887
0.00729557
0.00636688
0.00537443
0.00534221
0.0062038
0.00751589
0.00896954
0.0100521
0.010019
0.0080332
0.00407764
0.00642215
0.00826256
0.0038505
0.00316995
0.00426527
0.00320001
0.00390902
0.0049141
0.00438582
0.00201837
0.00400561
0.0026509
0.00239888
0.00631652
0.00860375
0.00909071
0.0079482
0.00611334
0.00522396
0.0060652
0.00680038
0.00700873
0.00684489
0.00649361
0.00607456
0.00563118
0.00525759
0.00521252
0.00558864
0.00617178
0.00672702
0.00711296
0.00727695
0.00722746
0.00700393
0.00666235
0.00620315
0.00562062
0.00497894
0.00432139
0.00370679
0.00382606
0.00468425
0.00191573
0.00540937
0.00026132
0.0047912
0.00668772
0.00800491
0.00845555
0.0079082
0.00635946
0.00473993
0.00457705
0.00489766
0.00507983
0.00507823
0.00521796
0.00582036
0.00669177
0.00750348
0.00818049
0.00868889
0.00901203
0.00909539
0.00887084
0.00825702
0.00721394
0.0057971
0.00432188
0.00402363
0.00599361
0.0101624
0.0169437
0.00088253
0.00179695
0.00528453
0.00700514
0.00832066
0.0094586
0.0103698
0.0110202
0.0114041
0.0115265
0.0113889
0.0110122
0.0105045
0.0099791
0.00951085
0.00887818
0.00765939
0.00607523
0.00525571
0.00581103
0.00699883
0.0083192
0.00924291
0.00905538
0.00690105
0.00278049
0.00668622
0.00786977
0.00350258
0.00367881
0.00439956
0.00370178
0.00469123
0.00580221
0.00588065
0.00442005
0.00192939
0.00224878
0.00384266
0.00702114
0.0087379
0.0089442
0.00760346
0.00578293
0.00527466
0.00648336
0.00755199
0.00786118
0.00749956
0.00681697
0.0061381
0.0055857
0.00518364
0.00498183
0.00510829
0.00555313
0.00611466
0.00659491
0.00688905
0.0069739
0.00687187
0.00661466
0.0062045
0.00565413
0.00502654
0.00437508
0.00390713
0.00456812
0.00589834
0.00234766
0.00504861
0.00125949
0.00591198
0.00765779
0.00867885
0.00865934
0.00777311
0.00645052
0.00561503
0.00560998
0.00579044
0.00589275
0.00564119
0.00500818
0.00485844
0.00561344
0.0065006
0.00729644
0.0079524
0.00852368
0.00899359
0.00932844
0.00941653
0.00911916
0.00835096
0.00714653
0.00589628
0.00634129
0.0094204
0.0153723
0.000459653
0.00361556
0.00645795
0.00764284
0.00834796
0.00900131
0.00958509
0.0100417
0.0103428
0.0104864
0.0104853
0.010368
0.0102691
0.0102365
0.0101692
0.00974511
0.00861503
0.00679361
0.00503578
0.00497546
0.00614539
0.00746644
0.0083193
0.00808131
0.00595785
0.00113388
0.00604483
0.00717588
0.00302886
0.00284666
0.00405788
0.00357705
0.00465743
0.00596055
0.00656264
0.00616075
0.00445945
0.000985852
0.00492917
0.00737394
0.00861064
0.0085692
0.0069335
0.00523742
0.00547027
0.00701454
0.00816922
0.008454
0.0078908
0.00686122
0.00586587
0.0051553
0.00474214
0.00458961
0.00469478
0.00507314
0.00560004
0.00610242
0.00645495
0.00661968
0.00661351
0.006448
0.00611539
0.00563208
0.00505745
0.00447741
0.00427041
0.00547187
0.00707705
0.00274777
0.00473601
0.00197063
0.00677631
0.00840974
0.00932908
0.00897677
0.00777222
0.00650527
0.00592921
0.0059761
0.00619648
0.0065659
0.00662059
0.00563988
0.00391557
0.0040811
0.00504601
0.00600151
0.00669277
0.00728616
0.00781845
0.00842158
0.00910976
0.00970126
0.00989182
0.00946647
0.00837203
0.00724052
0.00831491
0.0128827
0.00120641
0.00472075
0.0075041
0.00839384
0.00849998
0.00851484
0.00856662
0.00862727
0.00866508
0.0086848
0.00871636
0.00879247
0.0090611
0.00951186
0.00992157
0.00990408
0.0091181
0.007512
0.00536479
0.00394849
0.00503694
0.00659964
0.00747229
0.00722186
0.00527237
0.00184932
0.00492162
0.00634763
0.00267224
0.00178246
0.00385653
0.00368378
0.00256222
0.00459383
0.00552468
0.00592868
0.00554257
0.00430453
0.00638051
0.00762648
0.00839527
0.00812661
0.00608057
0.00485144
0.00599733
0.00759251
0.00860701
0.00877111
0.0079981
0.00660355
0.00521935
0.00423219
0.00360816
0.0034477
0.00373443
0.00427416
0.00489488
0.00545996
0.00585575
0.00608779
0.00619302
0.00615366
0.00593892
0.00555947
0.00507025
0.00462652
0.00476329
0.00643936
0.00807104
0.00312237
0.00451844
0.00229995
0.00737521
0.00884722
0.00989249
0.00951775
0.0079814
0.00630173
0.00536487
0.00529311
0.00579911
0.0067679
0.00761147
0.00706441
0.00420118
0.00253935
0.00317529
0.0045861
0.0054232
0.00602648
0.00632204
0.0065025
0.00700122
0.00814526
0.00938724
0.0100065
0.00972441
0.00839605
0.00725866
0.00950748
0.00197036
0.00545735
0.00831004
0.00915877
0.00883232
0.0082055
0.00759886
0.00707975
0.00664826
0.00632414
0.00617442
0.00631951
0.00692273
0.00790105
0.00890108
0.00942706
0.00909534
0.00790734
0.00608349
0.00382462
0.00356215
0.00585647
0.00695698
0.00653174
0.00443091
0.00244743
0.00448949
0.00556347
0.00281196
0.00141521
0.00382164
0.00487642
0.00328786
0.00144466
0.00383144
0.00538672
0.00610912
0.00591009
0.0069615
0.00770584
0.00819335
0.00776829
0.00530657
0.00507043
0.00668938
0.00805071
0.0088188
0.00882586
0.00786988
0.00611679
0.00428137
0.00286585
0.00190264
0.0020408
0.00265453
0.00335456
0.00407493
0.004716
0.00510156
0.00539408
0.00564907
0.00577915
0.00571238
0.00545326
0.00506703
0.00483856
0.00537176
0.00742255
0.00869594
0.00344089
0.00438831
0.0023527
0.00770117
0.00889925
0.0100948
0.0101004
0.00870989
0.00654906
0.00442263
0.00344426
0.00456035
0.00642143
0.00819583
0.00818776
0.00564851
0.00269492
0.00102335
0.00306829
0.00421479
0.00507379
0.00547275
0.00536586
0.00488454
0.00488227
0.00643779
0.00805983
0.00860578
0.00784977
0.0058934
0.00499105
0.00259024
0.00590785
0.00883065
0.00981931
0.00928965
0.00816507
0.00692551
0.00576261
0.00476538
0.00399647
0.00344622
0.00335716
0.00406071
0.00554971
0.00728069
0.00848081
0.008653
0.00786678
0.00655505
0.00471112
0.00251025
0.00456195
0.00649522
0.00608546
0.00426702
0.00351056
0.00487433
0.00539731
0.00350518
0.00211639
0.00382483
0.00549836
0.00494932
0.00285837
0.00134398
0.00501345
0.00655556
0.00695042
0.00740202
0.00776397
0.00799621
0.00750601
0.00487808
0.00576503
0.00722401
0.00826183
0.00879151
0.00866107
0.00759907
0.00554049
0.00316235
0.00128169
0.00129271
0.00172893
0.00216511
0.00272263
0.00341339
0.00412656
0.00428612
0.00459449
0.00503452
0.00535712
0.00543683
0.00531445
0.00507795
0.00517217
0.00613336
0.00839092
0.00876175
0.00371906
0.00430799
0.00211585
0.00792029
0.00858431
0.00970853
0.0102589
0.00943792
0.00761142
0.00517948
0.00233059
0.00255211
0.00585717
0.00849266
0.00888501
0.00652842
0.00357307
0.00139117
0.00141069
0.00290758
0.00406131
0.00478615
0.00498152
0.00447403
0.00330643
0.00308314
0.00482512
0.0060503
0.00574858
0.00435332
0.00205086
0.00307426
0.00619682
0.00908498
0.0102708
0.00973954
0.00832789
0.00661367
0.00488401
0.00331892
0.00215593
0.00171241
0.00187505
0.00176919
0.00284258
0.00525175
0.00724038
0.0079591
0.00751104
0.00664356
0.00542037
0.00365546
0.00184611
0.00584572
0.00567049
0.00406015
0.00413247
0.00540593
0.00561327
0.00414493
0.00296698
0.00373316
0.00552875
0.00553272
0.00377077
0.00178872
0.00463902
0.00663305
0.00727322
0.00750801
0.00764975
0.00770932
0.00727544
0.00498866
0.00638923
0.00747227
0.00822238
0.008574
0.00835662
0.00729674
0.00507726
0.00192942
0.000609233
0.00196031
0.00206963
0.00201715
0.00225489
0.00298432
0.00393092
0.00335628
0.003682
0.00437605
0.00488371
0.00512646
0.00525815
0.00523274
0.00570098
0.0072319
0.00904559
0.00819985
0.00388586
0.00421145
0.00163038
0.00815912
0.00797174
0.00870587
0.00984833
0.0097847
0.00855013
0.00638489
0.00367009
0.00102259
0.00533423
0.00857841
0.00921021
0.00709274
0.0040643
0.00138829
0.00186062
0.00129095
0.00295557
0.00394079
0.00452839
0.00451384
0.00352422
0.00213604
0.00291238
0.0037046
0.00404231
0.00392236
0.00267518
0.00355906
0.00644989
0.00916544
0.0104787
0.0100585
0.00854847
0.00656189
0.00445624
0.00245577
0.00100245
0.00164598
0.0019393
0.00164437
0.00157847
0.00322415
0.00587608
0.0071529
0.0069808
0.00645435
0.00568672
0.00456565
0.00284946
0.00299063
0.00489078
0.00326111
0.00442062
0.005601
0.0055403
0.0041078
0.00298221
0.00314931
0.0051453
0.00553573
0.00386843
0.00203751
0.004764
0.0065616
0.007192
0.00734648
0.00738591
0.00735907
0.00705891
0.00559174
0.00674234
0.00748398
0.00801864
0.00825952
0.00801667
0.00705796
0.00501557
0.0015991
0.0020482
0.00246459
0.00199104
0.00128522
0.00181548
0.00284458
0.00402398
0.00224434
0.00274688
0.00369095
0.00442012
0.00498934
0.00553907
0.00562983
0.00653151
0.00833319
0.00933006
0.0070592
0.00388052
0.00412322
0.00119313
0.00834968
0.00715535
0.00725574
0.00891681
0.00965987
0.00906173
0.00724938
0.00458832
0.00221123
0.00540884
0.00854601
0.00931219
0.00723368
0.00408994
0.00100514
0.00225157
0.0022459
0.00166497
0.00299839
0.00382911
0.00436422
0.00391083
0.00247202
0.00224065
0.00232537
0.00322867
0.00429056
0.00359234
0.0041384
0.0067744
0.00920755
0.0105091
0.0102107
0.00872434
0.00662865
0.00432681
0.00221204
0.00168929
0.00270175
0.00347962
0.00370244
0.00336836
0.00312723
0.0048157
0.00640217
0.0064363
0.00613734
0.0056572
0.00496611
0.0038933
0.00207549
0.0038139
0.00266503
0.00447381
0.00527276
0.00489013
0.00313772
0.00232874
0.00241817
0.00466063
0.00542153
0.00350459
0.00216085
0.00484286
0.00634034
0.00688975
0.00702793
0.00704873
0.00701165
0.00686272
0.00616697
0.00686773
0.00735482
0.00775101
0.00793677
0.00772504
0.00693203
0.00539827
0.00266605
0.00262352
0.00210206
0.000762355
0.0017152
0.00201625
0.00260105
0.00375767
0.00165881
0.00214005
0.003371
0.00434847
0.00526916
0.00611691
0.00616021
0.00742495
0.00927142
0.00932007
0.00554382
0.00377132
0.00413494
0.0010735
0.00823691
0.00618066
0.00570505
0.00767619
0.00917327
0.00916221
0.00768354
0.0049588
0.00237177
0.00566948
0.0085355
0.00921936
0.00693825
0.00360237
0.000213798
0.00304737
0.00282311
0.00107459
0.00200104
0.00282023
0.00393294
0.00415985
0.00320371
0.00139884
0.00201038
0.00327802
0.00451648
0.0039384
0.00489511
0.00725393
0.0093437
0.0105047
0.0102768
0.00888342
0.00684392
0.0047247
0.00349796
0.00398632
0.00488265
0.00535273
0.00533197
0.00483433
0.00434721
0.00480497
0.00594416
0.00606353
0.00585135
0.00545381
0.0048921
0.00410306
0.00286464
0.000109314
0.00292513
0.00418591
0.00452431
0.00374151
0.00184807
0.00250064
0.00286774
0.00435171
0.00528406
0.00259212
0.00255978
0.00485027
0.00603331
0.00651458
0.00666857
0.00670989
0.00670419
0.00666886
0.00639768
0.00681984
0.00716074
0.00748083
0.00765317
0.00752972
0.00691955
0.00567494
0.00366404
0.00240394
0.000774931
0.00263676
0.00287946
0.00260038
0.00230362
0.00281507
0.00188134
0.00232488
0.00373953
0.00465407
0.00565694
0.00658607
0.00655853
0.0082296
0.010034
0.00917437
0.00421509
0.00377944
0.00437015
0.00120149
0.00780464
0.00513324
0.00435072
0.00639225
0.0085338
0.00905478
0.00794604
0.00483991
0.00232964
0.00588819
0.00831883
0.00881821
0.00604265
0.00244759
0.00223129
0.00342668
0.0027419
0.000436913
0.00118155
0.00132198
0.00296643
0.00397549
0.00375706
0.00256205
0.00164875
0.00348577
0.0044605
0.00389629
0.00588027
0.00793522
0.00966098
0.0106123
0.0104094
0.00918048
0.00742409
0.00582429
0.00511867
0.00534317
0.00578678
0.00602225
0.00595579
0.00564739
0.0053901
0.00554125
0.00593773
0.00596988
0.0057455
0.00535786
0.00483753
0.004174
0.00331641
0.0022567
0.00327824
0.00397688
0.00387554
0.0024589
0.00233854
0.00359111
0.00372331
0.00435953
0.00447221
0.000596145
0.00309758
0.00482211
0.00575786
0.00618141
0.00634117
0.00640073
0.00642766
0.00645308
0.0063961
0.00667123
0.00693916
0.00721728
0.00740497
0.00736001
0.0068842
0.00578785
0.00397237
0.00192098
0.00275233
0.00361904
0.00353912
0.00281453
0.00163994
0.000175441
0.00129937
0.00339623
0.00427614
0.00489464
0.00575721
0.00674072
0.0067546
0.00889276
0.0106851
0.00909711
0.00364286
0.00399621
0.00480205
0.00158739
0.00715635
0.00429678
0.00352054
0.00532652
0.00787614
0.00897868
0.00839785
0.00410126
0.00267057
0.00590656
0.007791
0.00800937
0.00419135
0.00216427
0.00278123
0.00313939
0.00167247
0.000872489
0.00132318
0.000789425
0.000283595
0.00306229
0.00354912
0.00320875
0.00198952
0.0039816
0.00436255
0.00372293
0.00708782
0.00880869
0.010166
0.0108896
0.0106898
0.00965918
0.00823809
0.00699244
0.0063165
0.00615074
0.00620571
0.0062718
0.00625473
0.00616453
0.00609898
0.00615216
0.00621531
0.00609194
0.00581123
0.00542448
0.0049616
0.0044378
0.00388195
0.003454
0.0038755
0.00415142
0.00358648
0.00134688
0.00366397
0.00462178
0.00427411
0.00420366
0.00338352
0.00126706
0.00348495
0.00484947
0.0055945
0.00593002
0.00606031
0.00611783
0.00616102
0.00621441
0.00625456
0.00645937
0.00668628
0.00694306
0.00714751
0.00716229
0.00678056
0.00576483
0.00398453
0.00237083
0.00317448
0.00384822
0.00357978
0.00288013
0.00232486
0.00142703
0.00246054
0.00425856
0.00464137
0.00482845
0.0054162
0.00651202
0.00686314
0.00946803
0.0113124
0.00922225
0.00361018
0.00420741
0.00528297
0.00207968
0.00668559
0.00416134
0.00377005
0.00505425
0.00719675
0.00885687
0.00893003
0.00255536
0.00317323
0.00566015
0.00697229
0.00680174
0.00192217
0.00236947
0.00230016
0.00168167
0.00136813
0.00234405
0.00240533
0.00196705
0.00172409
0.000422528
0.00258487
0.0030684
0.00285411
0.00407954
0.00429021
0.00360978
0.00844737
0.00980872
0.010784
0.0112654
0.0110312
0.0101427
0.00893424
0.00780327
0.00698902
0.00651112
0.00630251
0.00627099
0.00634978
0.00648452
0.00659858
0.00664428
0.00656049
0.00632189
0.0059814
0.00558866
0.00517619
0.00477298
0.00443122
0.00426856
0.00443193
0.00444035
0.00356765
0.000603377
0.00475909
0.00542962
0.00451818
0.00374562
0.00158252
0.00217936
0.00391639
0.00497359
0.00550765
0.00572554
0.00580345
0.00584384
0.00588841
0.00595044
0.00602831
0.00619406
0.00639909
0.00663811
0.00685042
0.00691216
0.00662365
0.00574522
0.00413311
0.00251092
0.0030495
0.00363536
0.00328485
0.00303713
0.00308354
0.00237419
0.00319519
0.00463457
0.00463781
0.00437249
0.00468951
0.0060097
0.00702765
0.0100013
0.0119442
0.00957643
0.00370387
0.00417295
0.00565894
0.00257932
0.00686191
0.00492079
0.00480357
0.00555682
0.00684034
0.00836564
0.00912456
0.000852103
0.00352119
0.00522117
0.00601557
0.00540917
0.00111849
0.00140722
0.000496668
0.00239536
0.00344565
0.00374353
0.00347264
0.00289869
0.00274473
0.00205898
0.00146209
0.0030264
0.00352225
0.0042027
0.00430288
0.00359455
0.00983732
0.0108357
0.0114068
0.0116133
0.01128
0.0104311
0.00929139
0.00812821
0.0071214
0.00636539
0.00593325
0.0058521
0.00609617
0.00651682
0.00686864
0.00700442
0.00688846
0.00658614
0.00619709
0.00579108
0.00540738
0.00507747
0.00484472
0.00476544
0.00482362
0.00467425
0.00365758
0.000937969
0.00538638
0.00599909
0.00466083
0.00315243
0.000566838
0.00281618
0.00428989
0.00507331
0.00541023
0.00551648
0.00554245
0.00556257
0.00560126
0.00566206
0.00574903
0.00589035
0.00607413
0.00629265
0.00650344
0.00660583
0.00642762
0.00574982
0.0043957
0.00266781
0.00261729
0.0032607
0.00276822
0.00285418
0.00337644
0.00275154
0.00339651
0.00465574
0.00432261
0.00367136
0.00389367
0.00547366
0.00725676
0.010425
0.0125004
0.0100919
0.0038713
0.00381667
0.00583514
0.00312804
0.00767159
0.0059972
0.00583663
0.00624298
0.00668323
0.00735276
0.00811145
0.00161136
0.00365471
0.00475202
0.00514226
0.00455226
0.000404937
0.00190487
0.00323696
0.00408321
0.00447408
0.00441258
0.0039651
0.00335849
0.00351621
0.0031234
0.000160918
0.00289554
0.00379221
0.00426648
0.00431942
0.00361561
0.0111142
0.0117824
0.0119433
0.0118442
0.0113483
0.0104495
0.00928162
0.00800356
0.00673043
0.00561196
0.00493164
0.00487544
0.00538219
0.00619642
0.0068834
0.00720815
0.00714887
0.00683194
0.00640961
0.00598328
0.00560319
0.00529906
0.00510028
0.00502965
0.00503488
0.00483976
0.00387484
0.00148033
0.00516723
0.00622966
0.00470717
0.00240171
0.00150999
0.00336198
0.00453521
0.00507305
0.00524743
0.00526903
0.00525866
0.00526465
0.00529697
0.00535326
0.00543618
0.00555852
0.00571845
0.00591109
0.00610969
0.00624315
0.00617946
0.00573503
0.00472629
0.00315286
0.00212926
0.00285002
0.00234124
0.00196235
0.00301684
0.00263107
0.00331989
0.00458144
0.00397701
0.00314171
0.00339951
0.00506077
0.00735187
0.0105892
0.0128398
0.0106274
0.00409173
0.00325478
0.00579357
0.00374423
0.00873231
0.00700288
0.00639986
0.00646456
0.0063313
0.0058349
0.0053236
0.0022646
0.00374433
0.00443939
0.00458103
0.00418496
0.00250026
0.00330099
0.00410924
0.00459306
0.00465394
0.00437948
0.00383258
0.00353787
0.00432033
0.0039161
0.000170972
0.00271799
0.00384294
0.00426085
0.00430762
0.00363243
0.0121469
0.0125551
0.0123347
0.0119312
0.0112435
0.0102512
0.00902859
0.00766452
0.00620466
0.00468229
0.00329468
0.00324742
0.00414581
0.00548823
0.00661929
0.00722634
0.0073022
0.00701901
0.0065823
0.00613228
0.0057355
0.00542104
0.00520744
0.00510316
0.00506238
0.00488151
0.00411605
0.00214422
0.00406597
0.00617172
0.00449007
0.00207381
0.00234184
0.00380728
0.00462994
0.00494316
0.00499856
0.00497175
0.00494672
0.00494883
0.00497812
0.00503017
0.00510511
0.00521
0.00534483
0.00550689
0.00568152
0.00582624
0.00585381
0.00562855
0.00499284
0.00383799
0.00234304
0.00217058
0.00222106
0.00111569
0.00191887
0.00206506
0.00323869
0.00466922
0.00393671
0.00319734
0.00338954
0.00476912
0.00716199
0.0103632
0.0128545
0.0111271
0.00408467
0.00273186
0.00556695
0.00423717
0.00955748
0.00795981
0.00675413
0.00614922
0.00545142
0.00411942
0.00159404
0.00260209
0.00382198
0.00432387
0.00437965
0.00410612
0.0035028
0.00389632
0.00444137
0.00465311
0.00438231
0.00387251
0.00341937
0.00387351
0.00533324
0.00439389
0.000269781
0.00269499
0.00381806
0.00421495
0.0042602
0.00362915
0.0128406
0.0130864
0.0125526
0.0118911
0.0110324
0.00995441
0.00869585
0.00731323
0.0058423
0.00431241
0.0026973
0.000848516
0.00243568
0.00443573
0.00609395
0.00704829
0.00732326
0.00711941
0.00669078
0.00621961
0.00579447
0.0054475
0.00519044
0.00502504
0.00492381
0.00476015
0.00420781
0.00267633
0.00219723
0.00604844
0.00395053
0.00197691
0.00295977
0.00404128
0.0045428
0.00468209
0.00467145
0.004633
0.00461308
0.00462067
0.00465104
0.00470047
0.0047675
0.00485699
0.00496816
0.0050987
0.00524051
0.00537139
0.00544266
0.00536986
0.00503986
0.00433856
0.00319331
0.00183932
0.0017111
0.00116436
0.000878634
0.00113815
0.00348829
0.00507355
0.00433735
0.00380699
0.00386588
0.00464828
0.00666443
0.00968874
0.0124687
0.0114216
0.00394887
0.00243678
0.00519169
0.00440153
0.00964732
0.00876965
0.00741915
0.00601051
0.00438884
0.0021238
0.000743542
0.00291273
0.00395539
0.00433334
0.00435928