/*--------------------------------*- C++ -*----------------------------------*\
| =========                 |                                                 |
| \\      /  F ield         | OpenFOAM: The Open Source CFD Toolbox           |
|  \\    /   O peration     | Version:  4.1                                   |
|   \\  /    A nd           | Web:      www.OpenFOAM.org                      |
|    \\/     M anipulation  |                                                 |
\*---------------------------------------------------------------------------*/
FoamFile
{
    version     2.0;
    format      ascii;
    class       volScalarField;
    location    "100";
    object      p_rgh;
}
// * * * * * * * * * * * * * * * * * * * * * * * * * * * * * * * * * * * * * //

dimensions      [0 2 -2 0 0 0 0];

internalField   nonuniform List<scalar> 
5000
(
0.0492433
0.0492514
0.0492685
0.0492688
0.0492588
0.0492427
0.049228
0.0492177
0.0492118
0.0492092
0.0492087
0.0492096
0.0492116
0.049215
0.0492198
0.0492264
0.0492327
0.0492388
0.0492393
0.0492365
0.0492335
0.0492314
0.0492303
0.0492296
0.0492288
0.0492286
0.0492276
0.0492324
0.0492394
0.0492347
0.0492311
0.0492391
0.0492495
0.0492518
0.0492487
0.0492533
0.0492673
0.0492878
0.0493049
0.049312
0.0493114
0.0493031
0.0492832
0.0492538
0.049232
0.0492199
0.04921
0.0491999
0.0491986
0.0492021
0.0492089
0.0492175
0.0492261
0.0492336
0.0492395
0.0492432
0.0492445
0.0492421
0.0492338
0.049223
0.0492136
0.0492136
0.0492163
0.0492207
0.049227
0.049236
0.049248
0.0492638
0.0492829
0.049297
0.0493013
0.0492828
0.0492639
0.0492526
0.0492481
0.0492505
0.0492606
0.0492677
0.0492773
0.0492874
0.0492969
0.0492925
0.0492856
0.0492818
0.0492796
0.0492776
0.0492736
0.049266
0.0492519
0.0492332
0.0492136
0.049197
0.0491854
0.0491785
0.0491756
0.0491761
0.0491793
0.0491841
0.0491889
0.0491929
0.049235
0.0492562
0.0492618
0.0492622
0.0492537
0.0492419
0.0492322
0.0492269
0.0492259
0.0492272
0.0492293
0.0492312
0.0492313
0.0492273
0.0492188
0.0492318
0.0492441
0.049248
0.04925
0.0492509
0.0492528
0.0492566
0.0492595
0.0492603
0.0492581
0.0492463
0.049231
0.0492548
0.049273
0.0492654
0.0492486
0.0492542
0.049267
0.0492606
0.0492526
0.0492573
0.0492782
0.0493034
0.0493164
0.0493226
0.0493237
0.0493157
0.0492964
0.0492659
0.0492261
0.0492023
0.0492148
0.0492309
0.0492396
0.0492433
0.0492457
0.0492501
0.0492557
0.0492611
0.0492658
0.0492686
0.0492686
0.0492651
0.0492555
0.0492346
0.049214
0.0492248
0.049232
0.0492328
0.0492377
0.0492474
0.049256
0.0492641
0.0492749
0.0492866
0.0492905
0.0492735
0.0492642
0.04926
0.0492586
0.0492569
0.0492559
0.0492538
0.0492741
0.0492913
0.0492979
0.0492944
0.0492922
0.0492931
0.0492942
0.0492939
0.0492904
0.0492827
0.0492688
0.0492511
0.0492329
0.0492158
0.0492031
0.0491959
0.0491944
0.0491984
0.049207
0.0492178
0.0492208
0.0492054
0.0492231
0.0492476
0.0492515
0.0492472
0.0492373
0.049227
0.0492199
0.0492171
0.0492182
0.0492222
0.0492278
0.0492331
0.0492349
0.0492263
0.0492036
0.0492601
0.0492527
0.0492466
0.0492444
0.0492449
0.0492481
0.049254
0.0492611
0.0492669
0.0492639
0.049237
0.0492335
0.0492707
0.0492823
0.0492769
0.0492701
0.0492674
0.0492651
0.0492556
0.0492535
0.0492635
0.0492883
0.049311
0.0493218
0.0493292
0.049332
0.0493251
0.0493055
0.0492704
0.0492073
0.0491672
0.0491888
0.0492241
0.0492369
0.049239
0.0492403
0.0492459
0.0492522
0.0492582
0.049264
0.0492692
0.0492707
0.0492696
0.0492637
0.0492487
0.0492165
0.0492316
0.0492487
0.0492475
0.0492432
0.0492477
0.0492528
0.0492576
0.0492622
0.0492735
0.0492806
0.0492599
0.0492546
0.0492518
0.0492516
0.0492479
0.0492365
0.049225
0.0492592
0.0492808
0.0492929
0.0492891
0.049288
0.0492899
0.0492918
0.0492922
0.0492891
0.049283
0.0492691
0.0492527
0.0492379
0.0492266
0.0492172
0.0492121
0.0492114
0.0492151
0.0492224
0.0492313
0.0492322
0.0492012
0.0492166
0.0492384
0.0492445
0.0492343
0.0492212
0.0492116
0.0492068
0.0492064
0.0492094
0.0492154
0.0492233
0.0492307
0.0492327
0.0492173
0.0491816
0.0492719
0.0492543
0.0492402
0.0492345
0.0492352
0.04924
0.0492485
0.0492592
0.0492641
0.0492473
0.0492308
0.0492437
0.0492842
0.0492915
0.0492854
0.0492805
0.0492734
0.049265
0.0492589
0.0492598
0.0492747
0.0493012
0.0493197
0.0493279
0.0493348
0.0493384
0.0493322
0.0493089
0.0492601
0.0491775
0.0491426
0.049166
0.0491875
0.0491946
0.0492018
0.0492155
0.0492296
0.0492419
0.0492515
0.0492591
0.0492653
0.0492696
0.0492742
0.0492733
0.0492691
0.0492342
0.0492294
0.0492446
0.0492552
0.0492477
0.0492489
0.0492482
0.0492521
0.0492541
0.0492664
0.0492808
0.0492546
0.0492499
0.0492439
0.0492353
0.0492298
0.0492123
0.0491946
0.049239
0.0492676
0.0492927
0.0492883
0.0492871
0.0492897
0.0492927
0.0492946
0.0492945
0.0492859
0.049269
0.0492508
0.0492356
0.0492258
0.0492207
0.0492182
0.0492182
0.0492209
0.0492257
0.0492317
0.049229
0.0491835
0.0492195
0.0492361
0.0492416
0.0492244
0.0492081
0.0491998
0.0491982
0.0492008
0.049205
0.0492133
0.0492227
0.0492303
0.049227
0.0491987
0.0491596
0.049254
0.0492397
0.0492241
0.0492184
0.0492207
0.049229
0.049243
0.049254
0.0492484
0.049234
0.0492324
0.04926
0.0492992
0.0493035
0.0492936
0.0492878
0.0492821
0.0492756
0.0492688
0.0492687
0.0492854
0.0493102
0.0493221
0.0493266
0.0493336
0.0493423
0.0493431
0.049324
0.0492711
0.0491732
0.0491403
0.0491605
0.0491688
0.0491714
0.0491782
0.0491894
0.0492023
0.0492161
0.0492305
0.0492445
0.0492563
0.0492641
0.0492682
0.0492708
0.0492721
0.0492623
0.0492346
0.0492352
0.0492353
0.0492356
0.0492428
0.0492463
0.0492463
0.049249
0.0492645
0.0492905
0.0492593
0.0492488
0.0492388
0.0492253
0.0492135
0.0491941
0.0491727
0.0492202
0.0492565
0.049299
0.0492941
0.0492932
0.049297
0.0493015
0.0493031
0.0492982
0.0492836
0.049262
0.0492399
0.0492215
0.0492092
0.0492046
0.0492049
0.0492079
0.0492121
0.0492172
0.0492221
0.0492167
0.0491582
0.0492285
0.0492456
0.049244
0.0492177
0.0492003
0.0491953
0.0491979
0.0492057
0.0492122
0.0492169
0.0492211
0.0492201
0.0492093
0.0491841
0.0491465
0.0492405
0.0492265
0.0492088
0.0492051
0.0492115
0.0492259
0.0492379
0.0492413
0.0492333
0.0492271
0.049241
0.0492804
0.0493194
0.0493199
0.0493077
0.0493044
0.0493035
0.0492998
0.0492881
0.0492744
0.0492878
0.0493103
0.0493167
0.0493173
0.0493264
0.0493452
0.0493607
0.0493647
0.0493575
0.0493358
0.0491726
0.0491991
0.0492084
0.0492202
0.0492292
0.0492329
0.0492332
0.0492344
0.0492375
0.0492417
0.0492466
0.0492521
0.0492582
0.0492636
0.0492666
0.0492671
0.0492415
0.0492352
0.0492347
0.0492394
0.0492481
0.0492511
0.0492501
0.0492505
0.0492659
0.0493049
0.0492703
0.0492532
0.049244
0.0492279
0.049208
0.0491853
0.049164
0.0492088
0.0492537
0.0493123
0.0493078
0.0493078
0.049312
0.0493151
0.0493122
0.0493009
0.0492806
0.0492552
0.0492297
0.0492077
0.049192
0.0491843
0.0491858
0.0491915
0.0491982
0.0492044
0.0492087
0.0492007
0.0491304
0.0492397
0.0492622
0.0492495
0.049214
0.0491997
0.0491967
0.0491986
0.0492021
0.0492034
0.0492045
0.0492039
0.0492003
0.0491927
0.049178
0.0491489
0.0492377
0.0492207
0.0492018
0.0492028
0.0492125
0.049223
0.0492298
0.0492286
0.0492226
0.0492256
0.049252
0.0492985
0.0493357
0.0493335
0.0493178
0.0493139
0.0493245
0.0493372
0.0493367
0.0492963
0.0492786
0.0493013
0.0493039
0.049302
0.0493128
0.0493437
0.0493718
0.0493895
0.0494034
0.0494165
0.0493882
0.0494014
0.0494073
0.0493923
0.0493728
0.0493528
0.0493319
0.04931
0.0492908
0.0492763
0.049267
0.0492621
0.0492607
0.0492616
0.0492633
0.0492649
0.0492521
0.0492455
0.049247
0.0492543
0.049263
0.0492645
0.04926
0.0492563
0.049272
0.049319
0.0492877
0.0492608
0.0492505
0.0492334
0.04921
0.0491867
0.0491714
0.0492117
0.04927
0.0493299
0.0493261
0.0493264
0.0493284
0.0493267
0.0493183
0.0493023
0.0492793
0.0492526
0.0492253
0.049201
0.0491825
0.0491712
0.0491725
0.0491798
0.0491873
0.0491928
0.0491951
0.0491837
0.0491022
0.0492487
0.0492806
0.0492525
0.0492164
0.0492012
0.0491929
0.0491872
0.0491834
0.0491819
0.0491812
0.049181
0.0491813
0.0491819
0.0491795
0.0491666
0.0492498
0.0492219
0.0492013
0.0492016
0.0492097
0.049218
0.0492215
0.0492187
0.0492155
0.0492254
0.0492592
0.0493091
0.049345
0.0493395
0.0493255
0.0493105
0.0493201
0.0493389
0.0493508
0.0493335
0.0492769
0.0492841
0.0492914
0.0492864
0.049298
0.0493417
0.0493782
0.049399
0.0494111
0.0494263
0.0494456
0.0494372
0.0494198
0.0494
0.0493815
0.0493645
0.0493478
0.0493299
0.0493122
0.049296
0.0492829
0.0492734
0.0492676
0.0492651
0.0492649
0.0492659
0.0492618
0.0492592
0.0492629
0.0492712
0.0492793
0.0492801
0.0492721
0.0492637
0.0492831
0.0493339
0.0493073
0.0492763
0.0492589
0.0492394
0.0492179
0.0492005
0.049197
0.0492389
0.0493167
0.0493466
0.0493424
0.0493406
0.0493388
0.0493335
0.049323
0.0493065
0.0492842
0.0492577
0.0492299
0.0492043
0.0491843
0.0491724
0.0491693
0.0491737
0.049179
0.0491816
0.0491808
0.0491657
0.0490736
0.0492508
0.0492962
0.049255
0.0492208
0.0492027
0.0491906
0.0491821
0.0491765
0.049174
0.0491747
0.0491791
0.0491882
0.049202
0.0492191
0.0492473
0.0492745
0.049227
0.0492005
0.0491972
0.0492044
0.0492114
0.0492134
0.0492104
0.049209
0.0492216
0.0492571
0.0493072
0.0493482
0.0493355
0.0493262
0.049307
0.0493111
0.0493346
0.0493479
0.0493319
0.0492674
0.049275
0.0492823
0.0492731
0.0492944
0.0493454
0.0493848
0.0494056
0.049414
0.0494221
0.0494341
0.0494287
0.0494156
0.0493994
0.0493826
0.0493664
0.0493509
0.0493358
0.0493208
0.0493064
0.0492934
0.0492827
0.049275
0.0492706
0.049269
0.0492693
0.0492692
0.0492707
0.0492765
0.0492857
0.0492941
0.0492948
0.0492829
0.0492693
0.0493004
0.0493508
0.0493211
0.0492812
0.0492646
0.0492485
0.0492351
0.0492303
0.0492447
0.0492967
0.0493614
0.0493573
0.0493518
0.0493479
0.0493442
0.0493387
0.0493298
0.0493162
0.049297
0.0492729
0.0492457
0.0492184
0.049194
0.0491752
0.0491644
0.0491638
0.0491661
0.0491656
0.0491629
0.0491453
0.0490449
0.049248
0.0493074
0.0492615
0.0492385
0.0492285
0.0492212
0.0492164
0.0492156
0.0492195
0.0492291
0.0492454
0.0492692
0.0492995
0.049328
0.0493329
0.0492859
0.0492382
0.0492029
0.0491921
0.0491971
0.0492032
0.0492047
0.0492016
0.0492
0.0492114
0.0492454
0.049303
0.049349
0.049326
0.0493163
0.0493016
0.0493096
0.0493412
0.049346
0.0493188
0.0492712
0.0492766
0.0492833
0.0492761
0.0493133
0.0493607
0.0493949
0.0494115
0.0494161
0.0494189
0.0494272
0.0494264
0.0494185
0.049406
0.0493908
0.0493744
0.0493568
0.0493385
0.0493224
0.049309
0.0492974
0.0492876
0.0492802
0.0492756
0.0492739
0.0492744
0.0492764
0.0492808
0.0492886
0.0492989
0.0493079
0.0493074
0.0492913
0.0492719
0.0493255
0.0493686
0.049327
0.0492826
0.0492689
0.0492598
0.0492585
0.0492698
0.0492998
0.0493461
0.0493676
0.0493612
0.0493559
0.0493517
0.0493479
0.0493441
0.0493387
0.0493301
0.0493165
0.0492972
0.0492729
0.0492448
0.049215
0.0491857
0.0491597
0.0491421
0.0491398
0.0491391
0.0491366
0.0491183
0.0490205
0.049297
0.0493187
0.0492747
0.0492616
0.0492612
0.0492643
0.0492697
0.0492782
0.0492901
0.0493054
0.0493233
0.0493416
0.0493552
0.0493585
0.0493463
0.0493136
0.0492688
0.0492215
0.0491928
0.0491905
0.0491943
0.0491951
0.0491917
0.0491899
0.049201
0.0492419
0.0493267
0.0493515
0.0493162
0.0493039
0.0492995
0.0493191
0.0493544
0.0493517
0.0493293
0.0493053
0.0492783
0.0492835
0.0492963
0.0493503
0.0493895
0.0494117
0.0494187
0.0494173
0.0494168
0.0494239
0.0494275
0.0494243
0.0494149
0.049402
0.0493881
0.0493727
0.0493537
0.0493329
0.0493159
0.049303
0.0492932
0.0492862
0.049282
0.0492807
0.049282
0.0492853
0.0492914
0.0493008
0.0493117
0.0493202
0.0493176
0.0492966
0.0492709
0.0493538
0.0493839
0.049327
0.0492811
0.0492701
0.0492683
0.0492789
0.0493023
0.0493356
0.049362
0.0493641
0.0493602
0.0493576
0.0493549
0.0493511
0.0493482
0.049347
0.0493445
0.0493385
0.0493274
0.0493101
0.0492862
0.0492557
0.049219
0.0491776
0.0491369
0.0491084
0.049103
0.049102
0.0490867
0.049005
0.0493549
0.0493253
0.0492788
0.0492726
0.0492819
0.0492942
0.0493068
0.0493193
0.0493315
0.0493431
0.049354
0.0493632
0.0493716
0.0493772
0.0493741
0.0493568
0.0493224
0.0492708
0.0492158
0.0491926
0.0491886
0.0491866
0.0491824
0.04918
0.0491901
0.0492294
0.0493299
0.0493584
0.0493108
0.0492941
0.0493032
0.0493338
0.0493687
0.0493684
0.0493572
0.0493396
0.0492889
0.0492817
0.0493562
0.0493995
0.0494217
0.0494291
0.0494246
0.0494169
0.0494157
0.0494236
0.0494294
0.0494275
0.049418
0.0494056
0.049395
0.0493864
0.049378
0.0493649
0.0493462
0.0493278
0.0493129
0.0493024
0.0492961
0.0492935
0.049294
0.0492973
0.0493039
0.0493136
0.049324
0.0493306
0.0493248
0.0492983
0.0492664
0.0493771
0.0493942
0.0493266
0.0492775
0.0492669
0.0492698
0.0492887
0.0493175
0.0493446
0.0493563
0.0493562
0.0493567
0.0493597
0.0493616
0.0493573
0.0493507
0.0493512
0.0493539
0.0493557
0.0493544
0.0493486
0.0493363
0.0493153
0.0492833
0.0492386
0.0491827
0.0491239
0.0490811
0.049071
0.0490588
0.0490005
0.0493681
0.0493199
0.0492751
0.0492721
0.0492875
0.049305
0.0493198
0.0493309
0.0493389
0.049345
0.0493508
0.0493584
0.04937
0.0493838
0.0493948
0.0493965
0.0493815
0.0493435
0.0492817
0.0492181
0.0491945
0.0491852
0.0491788
0.0491767
0.0491902
0.0492418
0.049329
0.0493717
0.0493217
0.0492957
0.0493028
0.0493416
0.0493816
0.0493873
0.0493918
0.0494
0.0493956
0.0493048
0.0494113
0.0494388
0.0494454
0.0494407
0.0494256
0.0494141
0.0494166
0.0494268
0.049432
0.049428
0.049415
0.0493994
0.0493893
0.0493843
0.0493811
0.0493761
0.0493659
0.0493516
0.0493367
0.0493241
0.0493152
0.0493103
0.049309
0.0493113
0.0493172
0.049326
0.0493346
0.0493382
0.0493287
0.0492963
0.0492586
0.0493917
0.0493999
0.0493295
0.0492729
0.0492603
0.0492627
0.0492856
0.0493158
0.0493364
0.0493418
0.0493433
0.0493481
0.0493596
0.0493726
0.049373
0.0493562
0.0493516
0.0493554
0.0493619
0.0493673
0.0493718
0.0493737
0.0493706
0.0493584
0.0493317
0.049287
0.0492243
0.0491512
0.0490895
0.0490585
0.0490124
0.0493655
0.0493139
0.0492672
0.049263
0.0492807
0.0493003
0.0493145
0.049322
0.0493242
0.0493244
0.0493265
0.0493341
0.0493503
0.0493736
0.0493992
0.0494193
0.0494246
0.0494083
0.0493669
0.0492892
0.0492233
0.049196
0.0491856
0.049184
0.0491989
0.0492825
0.0493288
0.0493874
0.0493529
0.0493072
0.0492941
0.0493203
0.0493699
0.0493819
0.0493917
0.0494185
0.0494455
0.0494589
0.049463
0.0494616
0.0494572
0.0494459
0.0494213
0.0494115
0.0494221
0.0494332
0.049436
0.0494281
0.0494093
0.0493874
0.049376
0.0493745
0.0493747
0.0493734
0.0493688
0.0493607
0.0493503
0.0493395
0.0493305
0.0493249
0.0493228
0.0493244
0.0493295
0.0493367
0.0493426
0.0493427
0.049329
0.0492906
0.0492488
0.0493993
0.0494025
0.0493365
0.049269
0.0492537
0.0492495
0.0492705
0.0493008
0.0493172
0.0493175
0.049318
0.0493258
0.0493475
0.0493777
0.0493925
0.0493756
0.0493552
0.0493523
0.0493617
0.049369
0.0493768
0.0493836
0.04939
0.0493961
0.0493995
0.0493933
0.0493711
0.0493291
0.0492587
0.0491742
0.0490921
0.04936
0.0493084
0.0492583
0.0492491
0.0492662
0.0492865
0.0493
0.0493047
0.0493022
0.0492966
0.0492935
0.0492997
0.0493187
0.0493502
0.0493893
0.0494261
0.0494476
0.0494476
0.0494312
0.0493889
0.0492957
0.0492221
0.0492036
0.049204
0.049223
0.0492716
0.0493353
0.0493942
0.0493888
0.0493353
0.0493094
0.0492988
0.0493221
0.0493441
0.0493594
0.0494002
0.0494405
0.0494619
0.0494653
0.0494647
0.049461
0.0494486
0.0494141
0.0494158
0.0494323
0.0494414
0.0494407
0.0494287
0.0494036
0.0493725
0.0493586
0.0493611
0.0493615
0.0493607
0.049362
0.0493607
0.0493554
0.0493474
0.0493398
0.0493355
0.0493344
0.0493362
0.0493403
0.0493451
0.0493474
0.0493434
0.0493257
0.0492805
0.0492401
0.049402
0.0494033
0.0493454
0.0492679
0.0492515
0.0492391
0.0492503
0.0492761
0.0492927
0.0492866
0.0492767
0.0492861
0.0493202
0.0493713
0.0494015
0.0493998
0.0493777
0.0493464
0.0493588
0.0493679
0.0493793
0.0493892
0.0493966
0.0494006
0.0494041
0.0494173
0.0494349
0.049452
0.0494652
0.0494428
0.0493486
0.049356
0.0493039
0.0492508
0.0492346
0.0492487
0.0492688
0.0492825
0.0492869
0.0492838
0.0492768
0.0492708
0.0492722
0.0492858
0.0493191
0.0493701
0.0494237
0.0494588
0.0494663
0.0494627
0.0494458
0.0493976
0.0492849
0.0492365
0.0492336
0.0492503
0.049294
0.0493554
0.0494053
0.0494108
0.0493698
0.0493408
0.0493027
0.0493024
0.0493041
0.0493142
0.0493815
0.049434
0.049459
0.0494659
0.0494671
0.0494647
0.0494531
0.0494099
0.049429
0.0494444
0.0494495
0.0494454
0.0494303
0.0494003
0.0493591
0.0493396
0.0493451
0.0493426
0.0493388
0.0493439
0.0493503
0.0493524
0.0493484
0.0493452
0.0493444
0.0493444
0.0493452
0.049347
0.0493488
0.0493473
0.04934
0.0493178
0.0492659
0.0492383
0.0494039
0.049403
0.0493533
0.0492675
0.0492552
0.0492386
0.0492379
0.0492533
0.049267
0.0492644
0.0492442
0.0492374
0.0492902
0.0493624
0.0494034
0.0494064
0.0493968
0.0493704
0.0493478
0.0493636
0.0493784
0.0493933
0.0494049
0.0494112
0.0494069
0.0494
0.0494171
0.0494457
0.0494835
0.0495273
0.0495451
0.0493519
0.0493
0.0492457
0.0492227
0.0492321
0.049251
0.0492649
0.0492701
0.0492681
0.0492633
0.0492629
0.0492707
0.0492711
0.0492878
0.0493455
0.0494176
0.049466
0.0494758
0.0494772
0.0494708
0.0494508
0.0493933
0.0492704
0.0492668
0.0492822
0.0493406
0.0493955
0.0494283
0.0494263
0.0493907
0.049364
0.0493149
0.0492991
0.049296
0.0493074
0.0493766
0.049434
0.0494603
0.0494688
0.0494706
0.0494692
0.04946
0.0494184
0.0494448
0.0494554
0.0494566
0.04945
0.0494336
0.0494025
0.0493548
0.0493209
0.0493296
0.0493289
0.0493221
0.0493204
0.0493312
0.0493428
0.0493443
0.0493493
0.0493493
0.0493463
0.0493439
0.0493442
0.0493451
0.0493417
0.0493323
0.0493017
0.0492559
0.0492481
0.0494068
0.049402
0.0493562
0.0492653
0.0492638
0.0492498
0.0492376
0.0492413
0.04925
0.0492505
0.0492351
0.0492161
0.0492761
0.0493609
0.0494063
0.0494076
0.0494005
0.0493812
0.0493508
0.0493409
0.049374
0.0493941
0.04941
0.0494221
0.0494196
0.0494054
0.0493961
0.0494178
0.0494648
0.0495157
0.0495377
0.0493478
0.0492962
0.0492429
0.0492153
0.0492196
0.0492364
0.0492505
0.0492572
0.0492587
0.0492612
0.0492877
0.0493035
0.0492935
0.0492831
0.0493233
0.0494127
0.0494725
0.0494817
0.0494858
0.0494849
0.0494745
0.0494439
0.0493478
0.0492961
0.0493432
0.0494125
0.0494453
0.0494542
0.0494373
0.0493965
0.0493705
0.0493197
0.0492966
0.0492911
0.0493281
0.0494004
0.0494466
0.0494672
0.0494738
0.0494749
0.0494739
0.0494682
0.0494442
0.04946
0.0494643
0.0494624
0.0494547
0.0494389
0.0494113
0.0493681
0.0493127
0.0493194
0.049321
0.0493084
0.049295
0.0493152
0.0493351
0.0493384
0.049347
0.0493403
0.0493303
0.0493281
0.0493328
0.0493366
0.0493321
0.0493187
0.0492867
0.0492551
0.049273
0.0494105
0.0494028
0.0493514
0.0492618
0.0492748
0.0492692
0.0492485
0.0492403
0.0492428
0.0492445
0.0492337
0.0492246
0.0492926
0.0493733
0.0494147
0.0494067
0.049396
0.0493804
0.0493467
0.0493313
0.0493626
0.0493935
0.0494119
0.0494305
0.0494298
0.04941
0.0493794
0.0493934
0.0494585
0.0495099
0.0495281
0.0493444
0.0492933
0.0492424
0.0492132
0.0492135
0.0492287
0.049245
0.0492603
0.0492841
0.0493279
0.0493577
0.0493545
0.0493395
0.0493271
0.0493421
0.0494201
0.0494778
0.0494849
0.0494906
0.0494947
0.0494948
0.049486
0.0494548
0.049328
0.0494468
0.049478
0.0494789
0.0494675
0.0494353
0.0493887
0.0493639
0.049314
0.0492882
0.0492877
0.0493741
0.0494367
0.0494654
0.0494764
0.0494794
0.0494796
0.0494786
0.0494758
0.0494692
0.0494718
0.0494709
0.0494673
0.0494598
0.049446
0.0494243
0.0493938
0.0493394
0.0493361
0.0493203
0.0492922
0.0492845
0.0493103
0.0493276
0.0493307
0.0493352
0.049308
0.0492994
0.049308
0.0493202
0.0493259
0.0493197
0.049305
0.0492772
0.0492641
0.0493115
0.049415
0.049406
0.0493475
0.0492611
0.0492848
0.0492864
0.0492623
0.0492439
0.0492402
0.0492417
0.0492323
0.0492463
0.0493313
0.0494025
0.0494298
0.0494023
0.0493844
0.0493658
0.0493323
0.0493242
0.0493586
0.0493943
0.0494124
0.0494391
0.0494455
0.0494277
0.0493931
0.0493666
0.0494695
0.0495109
0.0495238
0.0493426
0.0492925
0.0492452
0.0492174
0.0492166
0.0492339
0.0492606
0.0493006
0.0493574
0.0494053
0.0494181
0.0494174
0.049419
0.0494237
0.0494337
0.0494542
0.0494803
0.0494859
0.0494917
0.0494976
0.0495033
0.049508
0.0495083
0.0494804
0.0495089
0.0495014
0.0494856
0.0494655
0.0494213
0.0493805
0.0493579
0.049316
0.0492888
0.0493236
0.0494341
0.049469
0.0494803
0.049484
0.0494846
0.049484
0.049483
0.0494815
0.0494799
0.0494782
0.0494758
0.049472
0.0494653
0.0494541
0.0494366
0.0494115
0.0493776
0.0493496
0.0493031
0.0492714
0.0492857
0.049304
0.049315
0.0493187
0.0493217
0.0492809
0.0492777
0.0492938
0.0493085
0.0493146
0.0493081
0.0492937
0.0492723
0.0492786
0.0493499
0.0494183
0.049413
0.0493529
0.049263
0.0492922
0.0492929
0.0492674
0.0492426
0.0492354
0.0492366
0.0492282
0.0492929
0.0493826
0.0494375
0.0494468
0.0493901
0.0493634
0.0493357
0.0493213
0.0493242
0.0493666
0.0494002
0.0494122
0.0494449
0.0494655
0.0494597
0.0494354
0.0493478
0.0494891
0.0495158
0.0495226
0.0493429
0.0492952
0.0492532
0.0492299
0.0492326
0.0492574
0.0492996
0.0493564
0.0494115
0.0494425
0.0494524
0.0494552
0.0494585
0.0494642
0.04947
0.049475
0.04948
0.0494855
0.0494912
0.0494968
0.0495023
0.0495074
0.0495118
0.0495146
0.0495091
0.0494989
0.0494808
0.0494573
0.0494074
0.0493836
0.0493721
0.0493463
0.0493361
0.0494359
0.0494748
0.0494837
0.0494876
0.0494891
0.049489
0.0494882
0.0494872
0.0494859
0.0494845
0.0494827
0.0494804
0.049477
0.0494712
0.0494612
0.0494444
0.049419
0.0493846
0.0493343
0.049287
0.0492847
0.0493074
0.0493323
0.0493535
0.0493687
0.0493129
0.0492628
0.0492681
0.0492848
0.0492986
0.0493047
0.0492983
0.0492842
0.0492686
0.0492897
0.0493704
0.0494187
0.0494233
0.0493668
0.0492679
0.0492967
0.0492884
0.0492605
0.049234
0.0492254
0.0492264
0.0492347
0.0493582
0.0494334
0.0494687
0.0494617
0.0493646
0.0493166
0.0493227
0.0493192
0.0493402
0.0493891
0.0494138
0.0494204
0.0494326
0.0494794
0.0494924
0.0495027
0.0495055
0.0495174
0.0495212
0.0495222
0.0493447
0.0493018
0.0492671
0.0492513
0.0492607
0.0492932
0.0493418
0.0493928
0.049427
0.0494384
0.0494389
0.0494397
0.0494446
0.0494532
0.0494625
0.0494708
0.0494779
0.0494843
0.0494902
0.0494957
0.0495008
0.0495051
0.0495084
0.0495094
0.0495052
0.0494954
0.0494753
0.0494465
0.0493975
0.0493885
0.0493906
0.049385
0.0493915
0.0494625
0.0494768
0.0494864
0.0494913
0.049493
0.049493
0.0494923
0.0494913
0.0494902
0.0494889
0.0494873
0.0494852
0.0494822
0.0494771
0.0494675
0.0494502
0.0494214
0.0493795
0.0493296
0.0492966
0.0493024
0.0493341
0.0493639
0.0493729
0.0493452
0.0492869
0.0492571
0.049266
0.049282
0.0492936
0.049298
0.0492894
0.0492748
0.0492628
0.0492909
0.0493688
0.0494149
0.0494351
0.0493865
0.0492745
0.0492983
0.0492826
0.0492525
0.0492258
0.049214
0.0492127
0.0492985
0.0494235
0.0494719
0.049491
0.0494732
0.0493219
0.0493166
0.0493249
0.0493383
0.0493929
0.049421
0.0494367
0.0494398
0.0494308
0.0494494
0.0494885
0.0495055
0.0495162
0.0495191
0.0495212
0.0495216
0.0493467
0.0493105
0.0492845
0.0492768
0.0492917
0.0493258
0.0493676
0.0494008
0.0494146
0.049414
0.0494115
0.0494136
0.0494221
0.0494361
0.0494512
0.0494644
0.0494746
0.0494825
0.049489
0.0494946
0.0494994
0.0495033
0.0495059
0.0495063
0.0495028
0.049493
0.0494708
0.0494353
0.0493869
0.0493864
0.0493948
0.0493975
0.0494165
0.0494519
0.0494746
0.0494882
0.0494946
0.0494967
0.0494969
0.0494963
0.0494955
0.0494945
0.0494933
0.0494919
0.0494902
0.0494877
0.0494832
0.0494744
0.0494575
0.0494283
0.0493859
0.0493372
0.0493041
0.04931
0.049344
0.0493703
0.0493689
0.0493384
0.0492827
0.0492596
0.0492709
0.0492872
0.0492957
0.0492937
0.0492792
0.0492638
0.0492537
0.0492817
0.0493505
0.0494067
0.0494467
0.049411
0.0492793
0.0493027
0.0492896
0.0492599
0.0492302
0.0492109
0.0492001
0.0494063
0.0494698
0.0494943
0.0495041
0.049481
0.0493093
0.0493241
0.0493811
0.0494249
0.0494458
0.0494568
0.0494622
0.0494588
0.0494399
0.0494358
0.0494777
0.0495013
0.0495142
0.0495189
0.049521
0.0495214
0.0493476
0.0493186
0.0493006
0.0492989
0.0493149
0.0493427
0.0493697
0.0493831
0.049381
0.0493731
0.0493697
0.0493748
0.0493894
0.0494118
0.0494355
0.0494557
0.0494704
0.0494806
0.049488
0.0494939
0.0494986
0.0495023
0.0495046
0.0495051
0.0495021
0.0494921
0.0494686
0.0494283
0.0493746
0.049379
0.0493873
0.049386
0.0494122
0.0494476
0.0494755
0.0494913
0.0494983
0.0495005
0.0495007
0.0495003
0.0494996
0.0494987
0.0494978
0.0494966
0.0494952
0.0494932
0.0494897
0.0494824
0.0494677
0.0494415
0.0494021
0.0493535
0.049311
0.0493061
0.0493362
0.0493644
0.0493715
0.0493536
0.0492912
0.0492677
0.0492817
0.0492988
0.0493006
0.049288
0.0492661
0.0492509
0.0492427
0.0492662
0.0493211
0.0493948
0.0494559
0.0494365
0.0492778
0.0493076
0.0493088
0.0492924
0.0492675
0.0492424
0.049217
0.0494445
0.0494892
0.0495047
0.0495113
0.0495009
0.0493563
0.0494247
0.0494586
0.0494752
0.0494806
0.0494813
0.0494794
0.0494688
0.0494433
0.0494298
0.0494627
0.0494986
0.0495133
0.049519
0.0495211
0.0495216
0.0493468
0.0493245
0.0493123
0.049313
0.0493253
0.0493419
0.0493514
0.049346
0.0493293
0.0493142
0.0493109
0.0493215
0.0493455
0.0493797
0.049415
0.0494445
0.0494652
0.0494785
0.0494873
0.0494937
0.0494986
0.0495023
0.0495047
0.0495056
0.0495035
0.0494945
0.0494713
0.0494263
0.0493661
0.0493703
0.0493752
0.0493749
0.0494096
0.0494519
0.0494811
0.0494964
0.0495027
0.0495045
0.0495046
0.0495042
0.0495036
0.0495029
0.0495021
0.0495011
0.0495
0.0494986
0.0494962
0.049491
0.04948
0.0494592
0.0494255
0.049379
0.0493255
0.0493003
0.0493154
0.049343
0.04937
0.0493792
0.0493078
0.0492792
0.0492961
0.0493116
0.0493028
0.0492792
0.0492526
0.0492373
0.0492316
0.049249
0.0492882
0.0493824
0.0494619
0.0494572
0.0492666
0.0493021
0.0493201
0.0493287
0.0493309
0.0493266
0.0493132
0.0494689
0.0494984
0.0495097
0.049515
0.0495179
0.049508
0.049509
0.0495093
0.0495052
0.0494967
0.0494888
0.0494798
0.0494654
0.0494369
0.0494229
0.0494662
0.0494973
0.049513
0.0495193
0.0495214
0.049522
0.0493453
0.0493284
0.0493194
0.0493194
0.0493254
0.0493299
0.0493237
0.0493024
0.0492704
0.0492395
0.0492273
0.0492556
0.0492907
0.04934
0.0493899
0.0494309
0.0494592
0.0494766
0.0494872
0.0494942
0.0494994
0.0495032
0.049506
0.0495074
0.0495067
0.0495001
0.0494804
0.049438
0.0493695
0.0493628
0.0493642
0.0493754
0.0494227
0.0494651
0.0494909
0.0495031
0.0495075
0.0495086
0.0495085
0.049508
0.0495075
0.0495069
0.0495062
0.0495055
0.0495047
0.0495037
0.0495023
0.0494993
0.0494927
0.049479
0.0494545
0.049416
0.0493629
0.0493092
0.0492994
0.0493132
0.0493547
0.0494062
0.0493281
0.0492917
0.0493114
0.0493236
0.0493058
0.0492739
0.0492429
0.0492255
0.0492217
0.049233
0.0492642
0.0493738
0.0494659
0.0494706
0.0492495
0.0492832
0.0493074
0.04933
0.0493583
0.0493928
0.0494328
0.0494822
0.0495016
0.0495122
0.0495172
0.0495194
0.0495209
0.0495194
0.0495151
0.0495044
0.0494878
0.0494743
0.0494627
0.0494503
0.0494223
0.0494175
0.049472
0.0494982
0.0495133
0.0495199
0.0495221
0.0495227
0.0493442
0.0493316
0.0493239
0.0493214
0.0493206
0.0493148
0.0492974
0.0492658
0.0492252
0.0491856
0.0491586
0.0491659
0.0492309
0.0492952
0.0493614
0.0494155
0.0494526
0.0494749
0.0494877
0.0494956
0.0495011
0.0495051
0.0495081
0.0495102
0.0495109
0.0495076
0.0494941
0.0494606
0.0493963
0.049355
0.0493604
0.0493952
0.049449
0.0494844
0.0495027
0.0495101
0.0495123
0.0495126
0.0495122
0.0495118
0.0495113
0.0495107
0.0495101
0.0495095
0.0495089
0.0495083
0.0495076
0.0495064
0.0495036
0.0494973
0.0494843
0.0494603
0.0494199
0.0493567
0.049314
0.0493078
0.0493729
0.0494262
0.0493462
0.0493034
0.049326
0.0493383
0.0493176
0.0492805
0.0492432
0.049219
0.0492134
0.0492196
0.0492576
0.0493757
0.0494704
0.0494789
0.0492375
0.0492603
0.0492801
0.0493005
0.0493328
0.0493843
0.0494456
0.04948
0.0495026
0.0495144
0.0495192
0.0495208
0.049521
0.0495192
0.0495135
0.0494971
0.0494699
0.0494473
0.0494371
0.0494293
0.0494051
0.0494165
0.0494729
0.0494991
0.049514
0.0495208
0.0495231
0.0495237
0.0493449
0.0493357
0.049328
0.0493222
0.0493151
0.0493012
0.0492764
0.049241
0.0492006
0.0491633
0.0491388
0.0491391
0.0491777
0.0492495
0.0493324
0.0493989
0.0494455
0.0494735
0.049489
0.0494978
0.0495035
0.0495077
0.049511
0.0495135
0.0495153
0.049515
0.0495086
0.0494869
0.0494354
0.0493474
0.0493764
0.0494383
0.0494817
0.049504
0.0495134
0.0495162
0.0495166
0.0495163
0.0495158
0.0495153
0.0495148
0.0495143
0.0495138
0.0495133
0.0495129
0.0495125
0.0495121
0.0495118
0.0495112
0.04951
0.0495069
0.0495001
0.0494863
0.0494601
0.0494071
0.0493777
0.0494684
0.0494424
0.0493576
0.0493124
0.049339
0.0493579
0.0493424
0.0493054
0.049261
0.0492245
0.0492091
0.0492088
0.0492661
0.0493928
0.0494804
0.0494854
0.0492421
0.0492465
0.0492555
0.0492686
0.0493008
0.0493616
0.0494299
0.0494781
0.049505
0.0495174
0.0495219
0.0495228
0.0495222
0.0495199
0.0495125
0.0494886
0.0494456
0.0494131
0.0494096
0.0494062
0.0493918
0.0494191
0.0494725
0.0494997
0.0495151
0.0495219
0.0495243
0.049525
0.0493474
0.0493413
0.049333
0.0493238
0.0493114
0.0492923
0.0492649
0.0492307
0.0491946
0.0491626
0.0491417
0.0491405
0.0491677
0.0492278
0.0493069
0.0493825
0.0494383
0.0494723
0.0494907
0.0495007
0.0495067
0.0495109
0.0495142
0.049517
0.0495193
0.0495209
0.0495201
0.0495097
0.0494716
0.0493565
0.0494254
0.0494845
0.0495095
0.0495186
0.0495209
0.0495208
0.0495203
0.0495196
0.049519
0.0495185
0.049518
0.0495176
0.0495171
0.0495167
0.0495164
0.0495162
0.049516
0.0495159
0.0495159
0.049516
0.0495161
0.0495159
0.0495151
0.049513
0.0495084
0.0494984
0.0494786
0.0494306
0.0493628
0.0493175
0.0493474
0.0493787
0.0493775
0.0493498
0.0493033
0.049252
0.0492162
0.0492007
0.0492938
0.0494249
0.0494982
0.0494926
0.0492706
0.0492458
0.0492405
0.0492501
0.0492891
0.0493596
0.0494337
0.0494842
0.0495108
0.0495219
0.0495254
0.0495257
0.0495245
0.0495219
0.0495125
0.0494802
0.049416
0.0493769
0.0493864
0.0493868
0.0493803
0.0494244
0.0494718
0.0495009
0.0495168
0.0495236
0.0495259
0.0495266
0.0493521
0.0493481
0.0493391
0.0493272
0.0493114
0.0492901
0.0492632
0.0492326
0.0492017
0.0491743
0.0491552
0.0491519
0.0491728
0.0492249
0.049299
0.0493745
0.0494338
0.0494718
0.0494929
0.049504
0.0495102
0.0495144
0.0495177
0.0495204
0.0495228
0.0495251
0.0495271
0.0495263
0.0495102
0.0494146
0.0494959
0.0495207
0.049526
0.0495262
0.0495252
0.0495242
0.0495233
0.0495226
0.049522
0.0495215
0.049521
0.0495206
0.0495202
0.0495199
0.0495197
0.0495195
0.0495194
0.0495194