/*--------------------------------*- C++ -*----------------------------------*\
| =========                 |                                                 |
| \\      /  F ield         | OpenFOAM: The Open Source CFD Toolbox           |
|  \\    /   O peration     | Version:  4.1                                   |
|   \\  /    A nd           | Web:      www.OpenFOAM.org                      |
|    \\/     M anipulation  |                                                 |
\*---------------------------------------------------------------------------*/
FoamFile
{
    version     2.0;
    format      ascii;
    class       surfaceScalarField;
    location    "100";
    object      phi;
}
// * * * * * * * * * * * * * * * * * * * * * * * * * * * * * * * * * * * * * //

dimensions      [0 3 -1 0 0 0 0];

internalField   nonuniform List<scalar> 
760
(
-4.52087e-10
4.52044e-10
-2.25742e-10
-2.26335e-10
-5.45024e-11
-1.71233e-10
-1.57936e-11
-3.87138e-11
9.00305e-12
-2.47958e-11
1.8946e-11
-9.94287e-12
2.32838e-11
-4.34094e-12
2.47343e-11
-1.45315e-12
5.54357e-12
1.91915e-11
-1.01197e-11
1.56644e-11
-1.35413e-11
3.42161e-12
-1.14933e-11
-2.04859e-12
-9.01651e-12
-2.47722e-12
-5.95848e-12
-3.05909e-12
-3.96164e-12
-1.99853e-12
-5.57221e-12
1.60932e-12
-4.4102e-12
-1.16371e-12
-2.41503e-12
-1.99818e-12
-1.06352e-11
8.21591e-12
-1.0639e-11
3.74052e-11
4.14635e-10
-9.79914e-12
-1.79122e-10
-4.47759e-11
-1.36257e-10
-2.43437e-11
-5.91408e-11
-1.06343e-11
-3.85067e-11
-4.10304e-12
-1.64758e-11
9.80864e-14
-8.54299e-12
-3.12459e-12
1.76297e-12
-4.3594e-12
2.04254e-11
-3.22173e-12
1.45268e-11
-3.15508e-12
3.35289e-12
-3.08242e-12
-2.12418e-12
-2.92811e-12
-2.63494e-12
-4.64205e-12
-1.34966e-12
-5.9661e-12
-6.78604e-13
-5.4015e-12
1.04282e-12
-1.22354e-12
-5.34244e-12
2.81884e-12
-6.03794e-12
-3.20841e-12
1.42479e-11
-1.3855e-11
2.17855e-10
1.96781e-10
9.79848e-11
-5.92493e-11
1.24805e-11
-5.07503e-11
5.58383e-12
-5.22479e-11
-2.05432e-12
-3.08706e-11
-8.66617e-12
-9.87042e-12
-1.12361e-11
-5.97884e-12
-1.52156e-11
5.7415e-12
-5.2324e-12
1.0441e-11
4.37982e-12
4.91184e-12
5.62409e-12
2.1057e-12
3.88472e-12
-3.87979e-13
1.57315e-12
-3.27112e-13
-3.65469e-12
3.8744e-12
-8.02016e-12
3.68251e-12
-8.71071e-12
1.72814e-12
-7.4687e-12
-6.59014e-12
-5.05042e-14
-1.34614e-11
4.66105e-12
9.54546e-12
-9.1949e-12
9.90925e-11
9.76925e-11
5.31426e-11
-1.32955e-11
2.20978e-11
-1.96959e-11
9.26885e-12
-3.94201e-11
-5.87502e-13
-2.10114e-11
-5.75635e-12
-4.69384e-12
-1.3126e-11
1.39046e-12
-1.05178e-11
3.13804e-12
-1.0147e-12
9.42377e-13
4.1621e-12
-2.61532e-13
4.79787e-12
1.4738e-12
2.9568e-12
1.45639e-12
5.72425e-14
2.5754e-12
-3.7793e-12
7.71504e-12
-6.31725e-12
6.22377e-12
-6.64236e-12
2.05626e-12
-7.92974e-12
-5.30219e-12
-4.97498e-12
-1.64194e-11
3.10533e-12
1.46745e-12
-6.08826e-12
4.66843e-11
5.1015e-11
3.43144e-11
-9.20775e-13
2.41543e-11
-9.53414e-12
6.68539e-12
-2.19547e-11
-4.63897e-12
-9.68947e-12
-6.0697e-12
-3.26265e-12
-8.65272e-12
3.97779e-12
-4.49749e-12
-1.01489e-12
5.32766e-13
-4.08729e-12
2.35597e-12
-2.08358e-12
3.12354e-12
7.07952e-13
1.56577e-13
4.42448e-12
-4.00675e-12
6.7395e-12
-5.431e-12
9.14077e-12
-4.88192e-12
5.6764e-12
-1.34518e-12
-1.47814e-12
-1.41968e-12
-5.22631e-12
-2.75441e-12
-1.50861e-11
1.54354e-12
-2.82777e-12
-4.54317e-12
2.86922e-11
2.23221e-11
2.4472e-11
3.29919e-12
1.66521e-11
-1.71516e-12
4.29947e-12
-9.6015e-12
-3.63758e-12
-1.74969e-12
-9.26517e-12
2.36035e-12
-4.37323e-12
-9.11561e-13
-1.22822e-13
-5.26503e-12
-4.14815e-13
-3.79627e-12
8.33165e-14
-2.58231e-12
7.00454e-13
8.99613e-14
-2.70284e-12
7.82693e-12
-6.92841e-12
1.09634e-11
-7.21235e-12
9.42219e-12
-5.20697e-12
3.6692e-12
4.63834e-13
-7.15127e-12
2.04478e-12
-6.80569e-12
2.85621e-13
-1.33253e-11
1.61272e-12
-4.15146e-12
-2.92876e-12
1.70889e-11
5.2296e-12
1.30076e-11
7.37978e-12
6.52398e-12
4.76702e-12
-7.44695e-13
-2.33579e-12
-3.49243e-12
9.98645e-13
-6.35622e-12
5.22714e-12
-2.54911e-12
-4.71968e-12
-3.26822e-13
-7.48873e-12
-1.64488e-12
-2.47811e-12
-2.06417e-12
-2.1631e-12
-3.10996e-12
1.13495e-12
-5.80824e-12
1.05258e-11
-7.12455e-12
1.22803e-11
-4.84441e-12
7.1431e-12
-2.89735e-12
1.72132e-12
1.01024e-12
-1.10604e-11
2.04688e-12
-7.84129e-12
2.6963e-13
-1.15467e-11
1.318e-12
-5.19609e-12
-1.60949e-12
6.98902e-12
-1.76077e-12
4.18455e-12
1.01893e-11
2.23815e-12
6.71775e-12
-3.21e-12
3.11465e-12
-5.68952e-12
3.47581e-12
-5.22421e-13
6.55111e-14
-8.64106e-13
-4.37875e-12
-2.55716e-12
-5.79626e-12
-1.53284e-12
-3.50116e-12
-2.56442e-12
-1.13106e-12
-5.93653e-12
4.50651e-12
-7.46607e-12
1.20554e-11
-7.15408e-12
1.19677e-11
-1.64091e-12
1.62928e-12
1.32997e-12
-1.24794e-12
2.29305e-12
-1.20238e-11
8.6477e-13
-6.41068e-12
-6.59847e-13
-1.00194e-11
1.64382e-12
-7.49686e-12
3.45266e-14
-4.24939e-13
-1.33751e-12
-9.52994e-13
1.07167e-11
-5.68354e-13
6.33057e-12
-2.08095e-12
4.62804e-12
-2.73136e-12
4.12758e-12
1.46105e-12
-4.12838e-12
-9.14332e-13
-2.00346e-12
-3.45504e-12
-3.25465e-12
-1.67209e-12
-5.28258e-12
-3.21457e-12
4.13311e-13
-6.6681e-12
7.96225e-12
-5.98888e-12
1.13781e-11
-4.4602e-12
1.04422e-11
-1.19809e-13
-2.71196e-12
2.57587e-12
-3.94349e-12
2.21979e-12
-1.16667e-11
1.22638e-12
-5.41342e-12
8.26603e-13
-9.61708e-12
2.6414e-12
-9.31066e-12
2.67555e-12
-2.93469e-12
1.59868e-12
-8.00277e-13
8.58359e-12
-1.20387e-12
6.73387e-12
-1.65185e-12
5.0741e-12
1.51241e-12
9.67267e-13
-1.39114e-13
-2.47915e-12
-1.25108e-12
-8.88877e-13
-1.68135e-12
-2.82224e-12
-3.20266e-12
-3.76148e-12
-6.15719e-12
3.368e-12
-7.26462e-12
9.07155e-12
-3.90013e-12
8.01587e-12
4.42886e-13
6.10088e-12
2.57659e-12
-4.84495e-12
3.46335e-12
-4.82869e-12
3.32137e-12
-1.15231e-11
3.82345e-12
-5.91259e-12
3.24014e-12
-9.03263e-12
3.03363e-12
-9.10443e-12
5.70889e-12
-2.13231e-12
3.72887e-12
-3.41982e-13
6.78793e-12
3.58857e-13
6.03209e-12
1.57196e-13
5.27547e-12
6.67713e-13
4.54514e-13
-2.37387e-12
5.61989e-13
-3.04287e-13
-2.9561e-12
7.01566e-13
-3.82561e-12
-3.04859e-12
-9.32393e-15
-6.06607e-12
6.38769e-12
-6.69823e-12
9.70363e-12
-2.66274e-12
3.98034e-12
2.82065e-12
6.17837e-13
5.49913e-12
-7.52346e-12
6.30276e-12
-5.63132e-12
5.84651e-12
-1.10662e-11
6.69228e-12
-6.75678e-12
5.21846e-12
-7.55832e-12
2.55952e-12
-6.44597e-12
8.2683e-12
2.77782e-13
3.45121e-12
-9.73911e-13
8.03755e-12
-9.79232e-13
6.0355e-12
1.52504e-12
2.77454e-12
-2.49263e-13
2.22799e-12
1.51819e-13
1.64704e-13
2.86836e-12
-5.6727e-12
2.77848e-13
-1.23727e-12
-4.39494e-12
4.66113e-12
-4.14045e-12
6.13348e-12
-3.53486e-12
9.09988e-12
-3.37173e-13
7.81389e-13
4.26249e-12
-3.98355e-12
7.19716e-12
-1.04601e-11
8.54865e-12
-6.98277e-12
8.2794e-12
-1.07969e-11
8.7926e-12
-7.26914e-12
6.09365e-12
-4.85903e-12
1.51863e-12
-1.87123e-12
9.78695e-12
2.89434e-14
3.41921e-12
-7.89098e-14
8.1445e-12
-6.15466e-13
6.57058e-12
7.39325e-13
1.41629e-12
1.66988e-12
1.29666e-12
5.14168e-12
-3.30662e-12
4.05645e-12
-4.58939e-12
-4.63703e-13
3.28324e-12
-4.80581e-12
9.00479e-12
-3.23416e-12
4.55999e-12
-2.28114e-13
6.09365e-12
1.80754e-12
-1.25678e-12
4.74979e-12
-6.92845e-12
7.79475e-12
-1.35072e-11
1.03648e-11
-9.55281e-12
1.02488e-11
-1.06809e-11
9.07885e-12
-6.0989e-12
4.73953e-12
-5.19486e-13
-2.37605e-13
3.10595e-12
9.54951e-12
-1.97055e-12
5.38771e-12
-5.51981e-13
6.72286e-12
1.07325e-12
4.94661e-12
5.91751e-13
1.89612e-12
4.9202e-12
-3.02862e-12
6.41523e-12
-4.8018e-12
1.17749e-12
6.46881e-13
-6.4741e-13
5.10776e-12
-5.16878e-13
8.87671e-12
-9.37077e-13
4.97942e-12
1.45938e-12
3.69635e-12
3.29737e-12
-3.0962e-12
6.10534e-12
-9.73806e-12
9.31252e-12
-1.67163e-11
1.17393e-11
-1.198e-11
1.01937e-11
-9.13561e-12
6.54658e-12
-2.45172e-12
1.53532e-12
4.49232e-12
-2.24678e-12
6.88848e-12
7.30286e-12
-6.18169e-13
6.00668e-12
2.96408e-13
5.80824e-12
1.32108e-12
3.9211e-12
2.23506e-12
9.83523e-13
5.68563e-12
-6.47927e-12
3.84574e-12
-2.96337e-12
-3.36576e-13
4.83072e-12
-1.81666e-13
4.95414e-12
3.2642e-12
5.43218e-12
2.45877e-12
5.78578e-12
3.89171e-12
2.26307e-12
5.9099e-12
-5.11488e-12
8.86848e-12
-1.26977e-11
1.08293e-11
-1.86788e-11
1.08828e-11
-1.20344e-11
6.97776e-12
-5.23078e-12
1.98945e-12
2.53712e-12
-1.89304e-12
8.37577e-12
-3.43068e-12
8.4266e-12
3.87197e-12
2.41748e-13
5.76336e-12
1.91193e-12
4.13917e-12
1.2622e-12
4.57013e-12
3.44042e-12
-1.19292e-12
1.27459e-12
-4.31625e-12
-1.02212e-12
-6.6756e-13
1.72037e-12
2.09082e-12
3.5215e-12
3.15535e-12
5.79422e-12
3.15901e-12
5.01246e-12
6.56858e-12
7.04773e-12
2.28198e-13
8.86929e-12
-6.93627e-12
1.02322e-11
-1.40616e-11
9.62011e-12
-1.80684e-11
7.19455e-12
-9.60918e-12
2.07254e-12
-1.08256e-13
-2.37853e-12
6.98918e-12
-4.10883e-12
1.01069e-11
-3.50363e-12
7.82128e-12
3.67604e-13
-8.06984e-13
6.57067e-12
1.23793e-12
2.09383e-12
2.43134e-12
3.37826e-12
2.8922e-12
-1.65492e-12
-1.92099e-12
4.95856e-13
-2.34819e-12
-2.39861e-13
4.32278e-12
-4.57962e-12
7.14774e-12
3.31818e-13
7.17574e-12
3.13031e-12
5.61669e-12
8.12828e-12
7.78286e-12
-1.93761e-12
1.002e-11
-9.1724e-12
9.16233e-12
-1.3204e-11
5.52679e-12
-1.4434e-11
1.64051e-12
-5.72292e-12
-2.65711e-12
4.19036e-12
-5.10952e-12
9.44249e-12
-4.6291e-12
9.62645e-12
-2.79262e-12
5.98369e-12
-2.42625e-12
4.46169e-13
6.12566e-12
1.40745e-12
1.13022e-12
3.33499e-12
1.45155e-12
1.59177e-12
8.69851e-14
2.37582e-14
2.06545e-12
1.95622e-12
-2.17113e-12
4.55055e-12
-7.17626e-12
5.7216e-12
-8.40659e-13
5.65052e-12
3.20176e-12
5.93907e-12
7.84263e-12
6.67721e-12
-2.67457e-12
7.64953e-12
-1.01437e-11
5.17702e-12
-1.07309e-11
-2.10498e-13
-9.04685e-12
-4.41559e-12
-1.51776e-12
-6.33664e-12
6.11212e-12
-5.84956e-12
8.95569e-12
-3.55291e-12
7.32888e-12
-1.36561e-12
3.79438e-12
-3.79337e-12
2.30901e-12
3.81581e-12
2.62401e-12
8.14921e-13
3.24302e-12
8.30814e-13
2.61124e-12
7.1872e-13
4.36706e-12
3.10574e-13
5.29934e-12
-3.1035e-12
2.3004e-12
-4.17867e-12
1.2669e-12
1.92019e-13
2.56077e-12
1.90879e-12
6.23042e-12
4.1772e-12
5.53241e-12
-1.97415e-12
2.3773e-12
-6.98818e-12
-2.23476e-12
-6.11866e-12
-7.67226e-12
-3.6094e-12
-9.96144e-12
7.71563e-13
-8.43754e-12
4.58848e-12
-4.79438e-12
5.31208e-12
-1.23449e-12
3.76732e-12
7.49224e-13
1.80806e-12
-3.04574e-12
3.81761e-12
4.63277e-12
5.46393e-12
6.18332e-12
6.4936e-12
3.38872e-12
-7.90068e-13
-5.96336e-13
1.31371e-12
5.49259e-12
3.51932e-12
-3.46924e-12
-9.58832e-12
-1.31977e-11
-1.24259e-11
-7.83762e-12
-2.52644e-12
1.23936e-12
3.04574e-12
)
;

boundaryField
{
    floor
    {
        type            calculated;
        value           uniform 0;
    }
    ceiling
    {
        type            calculated;
        value           uniform 0;
    }
    fixedWalls
    {
        type            calculated;
        value           uniform 0;
    }
    frontAndBack
    {
        type            empty;
        value           nonuniform 0();
    }
}


// ************************************************************************* //
