/*--------------------------------*- C++ -*----------------------------------*\
| =========                 |                                                 |
| \\      /  F ield         | OpenFOAM: The Open Source CFD Toolbox           |
|  \\    /   O peration     | Version:  4.1                                   |
|   \\  /    A nd           | Web:      www.OpenFOAM.org                      |
|    \\/     M anipulation  |                                                 |
\*---------------------------------------------------------------------------*/
FoamFile
{
    version     2.0;
    format      ascii;
    class       surfaceScalarField;
    location    "100";
    object      phi;
}
// * * * * * * * * * * * * * * * * * * * * * * * * * * * * * * * * * * * * * //

dimensions      [0 3 -1 0 0 0 0];

internalField   nonuniform List<scalar> 
3120
(
-7.14584e-06
7.14584e-06
-9.16814e-06
2.0223e-06
-9.04473e-06
-1.23407e-07
-7.11458e-06
-1.93015e-06
-1.9144e-06
-5.20018e-06
6.29522e-06
-8.20962e-06
1.08315e-05
-4.53627e-06
1.17875e-05
-9.55968e-07
9.86032e-06
1.92715e-06
4.57799e-06
5.28233e-06
-3.8783e-06
8.45628e-06
-7.45568e-06
3.57739e-06
-6.57476e-06
-8.80924e-07
-4.48215e-06
-2.09261e-06
-2.61532e-06
-1.86683e-06
-4.92038e-06
2.30506e-06
-9.92912e-06
5.00875e-06
-1.03156e-05
3.86498e-07
-8.66321e-06
-1.65241e-06
-6.13291e-06
-2.5303e-06
-1.29721e-06
-4.8357e-06
4.65623e-06
-5.95344e-06
1.30995e-05
-8.44329e-06
1.70093e-05
-3.90974e-06
1.65309e-05
4.78393e-07
1.15966e-05
4.93422e-06
1.81588e-06
9.78076e-06
-5.13481e-06
6.95069e-06
-5.47323e-06
3.38426e-07
-1.66618e-06
-3.80705e-06
-1.01695e-06
-6.4923e-07
-5.13279e-06
4.11584e-06
-2.526e-06
-2.60679e-06
9.05507e-07
-3.4315e-06
-5.04875e-06
5.95426e-06
-4.58734e-06
-4.61413e-07
9.49256e-07
-5.53659e-06
2.41827e-07
7.07429e-07
-5.79023e-06
6.03206e-06
-5.79023e-06
-6.15147e-06
1.32973e-05
-8.07942e-06
3.95025e-06
-8.04706e-06
-1.55767e-07
-6.05131e-06
-3.9259e-06
-6.38627e-07
-1.06129e-05
6.04663e-06
-1.48949e-05
9.95241e-06
-8.44205e-06
1.06009e-05
-1.60443e-06
8.44486e-06
4.08315e-06
2.74028e-06
1.09869e-05
-4.36723e-06
1.55638e-05
-7.35484e-06
6.565e-06
-7.26986e-06
-9.65905e-07
-6.32154e-06
-3.04094e-06
-5.88454e-06
-2.30382e-06
-7.39414e-06
3.81466e-06
-9.94338e-06
7.55798e-06
-1.03413e-05
7.84451e-07
-9.11858e-06
-2.87515e-06
-6.64295e-06
-5.00594e-06
-2.47301e-06
-9.00564e-06
3.1872e-06
-1.16136e-05
1.03079e-05
-1.5564e-05
1.44733e-05
-8.07511e-06
1.43509e-05
6.00788e-07
1.05343e-05
8.75081e-06
4.20547e-06
1.61096e-05
-1.5954e-06
1.27516e-05
-3.60717e-06
2.3502e-06
-1.88124e-06
-5.53299e-06
-3.74154e-07
-2.15632e-06
-2.48738e-06
6.22906e-06
-2.26609e-06
-2.82808e-06
-1.14803e-07
-5.58279e-06
-3.83206e-06
9.67151e-06
-3.59383e-06
-6.99635e-07
-2.54229e-08
-9.105e-06
4.27793e-07
2.54213e-07
-3.93051e-06
1.03904e-05
-9.72074e-06
-4.95741e-06
1.82547e-05
-6.73665e-06
5.7295e-06
-6.88551e-06
-6.90316e-09
-4.94561e-06
-5.86581e-06
1.32977e-07
-1.56915e-05
5.33823e-06
-2.01001e-05
8.66865e-06
-1.17725e-05
8.91222e-06
-1.848e-06
6.59596e-06
6.39942e-06
1.0383e-06
1.65446e-05
-4.78064e-06
2.13827e-05
-7.20795e-06
8.99231e-06
-7.88173e-06
-2.92128e-07
-7.68087e-06
-3.2418e-06
-7.45549e-06
-2.5292e-06
-7.77862e-06
4.13778e-06
-9.30362e-06
9.08299e-06
-9.68091e-06
1.16174e-06
-8.82255e-06
-3.73352e-06
-6.59366e-06
-7.23482e-06
-2.90676e-06
-1.26925e-05
2.00069e-06
-1.65211e-05
7.48955e-06
-2.10528e-05
1.14325e-05
-1.20181e-05
1.15404e-05
4.92886e-07
9.01436e-06
1.12769e-05
5.51453e-06
1.96094e-05
2.28852e-06
1.59776e-05
1.26565e-07
4.51215e-06
-3.38381e-07
-5.06804e-06
6.38149e-07
-3.13285e-06
-2.20213e-07
7.08742e-06
-7.63827e-07
-2.28446e-06
1.98467e-07
-6.54509e-06
-1.65918e-06
1.15292e-05
-2.58751e-06
2.28698e-07
-7.9323e-07
-1.08993e-05
-1.55447e-07
-3.8357e-07
-2.84812e-06
1.3083e-05
-1.25689e-05
-4.06752e-06
2.23222e-05
-5.67902e-06
7.34099e-06
-5.87983e-06
1.93909e-07
-3.95101e-06
-7.79463e-06
5.5252e-07
-2.0195e-05
4.51691e-06
-2.40645e-05
7.3392e-06
-1.45948e-05
7.24807e-06
-1.75687e-06
4.67213e-06
8.97535e-06
-5.92706e-07
2.18094e-05
-5.16485e-06
2.59549e-05
-7.21447e-06
1.10419e-05
-8.29278e-06
7.8618e-07
-8.41939e-06
-3.11519e-06
-8.02575e-06
-2.92284e-06
-7.2247e-06
3.33673e-06
-8.46515e-06
1.03234e-05
-8.9432e-06
1.63979e-06
-8.37888e-06
-4.29784e-06
-6.50201e-06
-9.11168e-06
-3.25925e-06
-1.59353e-05
9.74798e-07
-2.07552e-05
4.8447e-06
-2.49227e-05
8.41299e-06
-1.55864e-05
8.73551e-06
1.70372e-07
7.42507e-06
1.25873e-05
6.04836e-06
2.09861e-05
4.86501e-06
1.71609e-05
3.3045e-06
6.07266e-06
1.85767e-06
-3.62121e-06
2.12744e-06
-3.40261e-06
2.1825e-06
7.03236e-06
7.93763e-07
-8.95726e-07
1.17837e-06
-6.92969e-06
1.28472e-07
1.25791e-05
-1.29613e-06
1.6533e-06
-9.59836e-07
-1.12356e-05
-4.47151e-07
-8.96255e-07
-2.10074e-06
1.47366e-05
-1.46696e-05
-3.38709e-06
2.57093e-05
-4.80839e-06
8.76229e-06
-4.92469e-06
3.10212e-07
-3.07886e-06
-9.64046e-06
6.92817e-07
-2.39667e-05
3.63193e-06
-2.70036e-05
5.9514e-06
-1.69142e-05
5.62485e-06
-1.43033e-06
2.72739e-06
1.18728e-05
-2.01635e-06
2.65531e-05
-5.35333e-06
2.92919e-05
-7.04248e-06
1.27311e-05
-8.30924e-06
2.05294e-06
-8.61853e-06
-2.8059e-06
-7.98842e-06
-3.55295e-06
-6.1897e-06
1.53802e-06
-7.46988e-06
1.16036e-05
-8.14667e-06
2.31658e-06
-7.88132e-06
-4.56318e-06
-6.3685e-06
-1.06245e-05
-3.55221e-06
-1.87516e-05
8.24675e-09
-2.43156e-05
2.58975e-06
-2.75042e-05
5.56517e-06
-1.85618e-05
6.24134e-06
-5.05799e-07
6.0101e-06
1.28186e-05
6.26383e-06
2.07324e-05
6.4051e-06
1.70197e-05
5.82704e-06
6.65072e-06
4.33752e-06
-2.13169e-06
3.68518e-06
-2.75027e-06
3.67728e-06
7.04026e-06
2.06327e-06
7.18281e-07
1.87971e-06
-6.74613e-06
2.17843e-06
1.22803e-05
4.91559e-07
3.34017e-06
-3.37813e-07
-1.04062e-05
-3.6651e-07
-8.67557e-07
-1.45916e-06
1.58293e-05
-1.61288e-05
-2.83325e-06
2.85426e-05
-4.04169e-06
9.97072e-06
-4.00713e-06
2.75651e-07
-2.3347e-06
-1.13129e-05
5.95315e-07
-2.68967e-05
2.68026e-06
-2.90886e-05
4.4841e-06
-1.87181e-05
4.01821e-06
-9.64436e-07
8.85285e-07
1.50057e-05
-3.0698e-06
3.05082e-05
-5.26739e-06
3.14894e-05
-6.49236e-06
1.3956e-05
-7.88567e-06
3.44625e-06
-8.37031e-06
-2.32126e-06
-7.51898e-06
-4.40428e-06
-4.90052e-06
-1.08044e-06
-6.36029e-06
1.30634e-05
-7.27659e-06
3.23288e-06
-7.30533e-06
-4.53445e-06
-6.15638e-06
-1.17735e-05
-3.72551e-06
-2.11825e-05
-6.44439e-07
-2.73967e-05
1.06096e-06
-2.92096e-05
3.17196e-06
-2.06728e-05
4.33425e-06
-1.66809e-06
4.97448e-06
1.21783e-05
6.35829e-06
1.93486e-05
7.29566e-06
1.60823e-05
7.40159e-06
6.54479e-06
6.17591e-06
-9.06016e-07
4.94852e-06
-1.52288e-06
4.52782e-06
7.46096e-06
3.10274e-06
2.14336e-06
2.5087e-06
-6.15209e-06
3.1185e-06
1.16705e-05
1.74902e-06
4.70965e-06
4.77399e-07
-9.13458e-06
4.49288e-08
-4.35087e-07
-8.90166e-07
1.67644e-05
-1.70189e-05
-2.3668e-06
3.09094e-05
-3.35818e-06
1.09621e-05
-3.14017e-06
5.76384e-08
-1.72941e-06
-1.27236e-05
3.00831e-07
-2.89269e-05
1.64342e-06
-3.04312e-05
2.89441e-06
-1.99691e-05
2.10578e-06
-1.75802e-07
-1.14127e-06
1.82528e-05
-3.7768e-06
3.31438e-05
-4.84774e-06
3.25604e-05
-5.39883e-06
1.45071e-05
-6.95228e-06
4.9997e-06
-7.77084e-06
-1.50271e-06
-6.82989e-06
-5.34523e-06
-3.66552e-06
-4.24481e-06
-5.15266e-06
1.45505e-05
-6.29624e-06
4.37645e-06
-6.62197e-06
-4.20872e-06
-5.84396e-06
-1.25515e-05
-3.80622e-06
-2.32202e-05
-1.22437e-06
-2.99785e-05
4.93359e-08
-3.04833e-05
1.47109e-06
-2.20946e-05
2.98165e-06
-3.17865e-06
4.24739e-06
1.09126e-05
6.26778e-06
1.73282e-05
7.51988e-06
1.48302e-05
8.04474e-06
6.01994e-06
7.09065e-06
4.80673e-08
5.64193e-06
-7.41522e-08
4.71418e-06
8.3887e-06
3.78089e-06
3.07665e-06
2.98192e-06
-5.35312e-06
3.51471e-06
1.11377e-05
2.67369e-06
5.55067e-06
1.3248e-06
-7.7857e-06
7.78385e-07
1.11327e-07
-4.02368e-07
1.79451e-05
-1.74213e-05
-1.96566e-06
3.2875e-05
-2.73191e-06
1.17283e-05
-2.35498e-06
-3.19288e-07
-1.30267e-06
-1.3776e-05
-1.14769e-07
-3.01148e-05
4.91914e-07
-3.10378e-05
1.08223e-06
-2.05594e-05
1.23424e-08
8.94087e-07
-2.87037e-06
2.11355e-05
-4.19851e-06
3.44719e-05
-4.10837e-06
3.24702e-05
-3.63219e-06
1.4031e-05
-5.36303e-06
6.73054e-06
-6.85088e-06
-1.48607e-08
-6.01692e-06
-6.17919e-06
-2.58864e-06
-7.67309e-06
-3.82118e-06
1.57831e-05
-5.15984e-06
5.71511e-06
-5.80477e-06
-3.56379e-06
-5.41148e-06
-1.29447e-05
-3.79534e-06
-2.48364e-05
-1.70912e-06
-3.20648e-05
-5.90839e-07
-3.16016e-05
4.1309e-07
-2.30985e-05
1.82436e-06
-4.58992e-06
3.48057e-06
9.25639e-06
5.71473e-06
1.5094e-05
6.92662e-06
1.36183e-05
7.81897e-06
5.12759e-06
7.17979e-06
6.87247e-07
5.75818e-06
1.34745e-06
4.37016e-06
9.77673e-06
4.06335e-06
3.38346e-06
3.2858e-06
-4.57557e-06
3.50178e-06
1.09218e-05
3.21185e-06
5.84061e-06
2.15278e-06
-6.72662e-06
1.32978e-06
9.34325e-07
-2.62116e-08
1.93011e-05
-1.74475e-05
-1.62068e-06
3.44957e-05
-2.04703e-06
1.21547e-05
-1.57555e-06
-7.90776e-07
-1.11921e-06
-1.42323e-05
-6.77712e-07
-3.05563e-05
-6.24359e-07
-3.10912e-05
-6.952e-07
-2.04885e-05
-1.89073e-06
2.08961e-06
-4.05478e-06
2.32995e-05
-4.4351e-06
3.48522e-05
-3.23029e-06
3.12654e-05
-1.35597e-06
1.21567e-05
-2.72532e-06
8.09989e-06
-5.16926e-06
2.42907e-06
-5.04592e-06
-6.30252e-06
-1.68665e-06
-1.10324e-05
-2.32285e-06
1.64193e-05
-3.80173e-06
7.194e-06
-4.81495e-06
-2.55057e-06
-4.83307e-06
-1.29266e-05
-3.68393e-06
-2.59855e-05
-2.11262e-06
-3.36361e-05
-1.22638e-06
-3.24879e-05
-5.54521e-07
-2.37704e-05
7.77403e-07
-5.92185e-06
2.35891e-06
7.67489e-06
4.44836e-06
1.30046e-05
5.61946e-06
1.24472e-05
7.13932e-06
3.60772e-06
6.95997e-06
8.66593e-07
5.61589e-06
2.69154e-06
3.75689e-06
1.16357e-05
4.0056e-06
3.13475e-06
3.42578e-06
-3.99575e-06
3.16945e-06
1.11781e-05
3.46847e-06
5.54159e-06
2.84065e-06
-6.09881e-06
1.69947e-06
2.0755e-06
2.09983e-07
2.07906e-05
-1.72375e-05
-1.38118e-06
3.58769e-05
-1.39767e-06
1.21712e-05
-9.55735e-07
-1.23271e-06
-1.22177e-06
-1.39663e-05
-1.37576e-06
-3.04023e-05
-1.72133e-06
-3.07456e-05
-2.11846e-06
-2.00914e-05
-3.11485e-06
3.086e-06
-4.83028e-06
2.5015e-05
-4.59942e-06
3.46214e-05
-2.51502e-06
2.9181e-05
7.55781e-07
8.88586e-06
-1.82832e-07
9.0385e-06
-2.92528e-06
5.17152e-06
-3.85585e-06
-5.37195e-06
-9.40197e-07
-1.3948e-05
-6.97516e-07
1.61766e-05
-2.10999e-06
8.60647e-06
-3.5726e-06
-1.08796e-06
-4.07462e-06
-1.24246e-05
-3.45395e-06
-2.66062e-05
-2.42426e-06
-3.46658e-05
-1.84317e-06
-3.30689e-05
-1.55423e-06
-2.40593e-05
-4.02503e-07
-7.07358e-06
8.23593e-07
6.44879e-06
2.38889e-06
1.14393e-05
4.24093e-06
1.05952e-05
6.7259e-06
1.12276e-06
6.88405e-06
7.08436e-07
5.40168e-06
4.17391e-06
2.94427e-06
1.40931e-05
3.73439e-06
2.34463e-06
3.40602e-06
-3.66738e-06
2.68967e-06
1.18944e-05
3.5264e-06
4.70486e-06
3.33492e-06
-5.90732e-06
1.96074e-06
3.44968e-06
3.56921e-07
2.23944e-05
-1.68806e-05
-1.28388e-06
3.71608e-05
-1.50234e-06
1.23896e-05
-1.29558e-06
-1.43947e-06
-1.57883e-06
-1.3683e-05
-2.14169e-06
-2.98395e-05
-2.75185e-06
-3.01355e-05
-3.24646e-06
-1.95968e-05
-3.83865e-06
3.67819e-06
-5.24602e-06
2.64223e-05
-4.72547e-06
3.41008e-05
-2.16686e-06
2.66224e-05
1.93544e-06
4.78356e-06
1.96937e-06
9.00457e-06
-5.43635e-07
7.68453e-06
-2.38167e-06
-3.53391e-06
-3.64954e-07
-1.59647e-05
1.17558e-06
1.46361e-05
8.02555e-08
9.70179e-06
-1.90795e-06
9.00238e-07
-3.07522e-06
-1.12573e-05
-3.08181e-06
-2.65996e-05
-2.6248e-06
-3.51228e-05
-2.42657e-06
-3.32672e-05
-2.42281e-06
-2.40631e-05
-1.70841e-06
-7.78798e-06
-1.28879e-06
6.02917e-06
-1.62531e-07
1.0313e-05
3.50513e-06
6.92751e-06
6.71932e-06
-2.09143e-06
6.82329e-06
6.04472e-07
5.04606e-06
5.95113e-06
2.02347e-06
1.71157e-05
3.3311e-06
1.03699e-06
3.22927e-06
-3.56554e-06
2.11848e-06
1.30052e-05
3.42174e-06
3.40159e-06
3.60822e-06
-6.0938e-06
2.15155e-06
4.90635e-06
3.97934e-07
2.4148e-05
-1.64827e-05
-1.26504e-06
3.84258e-05
-1.76537e-06
1.289e-05
-1.9341e-06
-1.27074e-06
-2.05401e-06
-1.35631e-05
-2.91515e-06
-2.89783e-05
-3.67256e-06
-2.93781e-05
-4.08307e-06
-1.91863e-05
-4.16687e-06
3.76199e-06
-5.29904e-06
2.75545e-05
-4.77194e-06
3.35737e-05
-2.04614e-06
2.38966e-05
2.29796e-06
4.39461e-07
2.93955e-06
8.36297e-06
1.35191e-06
9.27217e-06
-5.59075e-07
-1.62293e-06
2.09763e-07
-1.67336e-05
2.86024e-06
1.19856e-05
2.78233e-06
9.7797e-06
6.16474e-07
3.06609e-06
-1.75884e-06
-8.88201e-06
-2.55154e-06
-2.58069e-05
-2.69408e-06
-3.49802e-05
-2.91334e-06
-3.30479e-05
-3.17312e-06
-2.38033e-05
-3.13618e-06
-7.82492e-06
-3.60687e-06
6.49986e-06
-3.52021e-06
1.02264e-05
2.60848e-06
7.98817e-07
6.43565e-06
-5.9186e-06
6.3581e-06
6.82022e-07
4.39628e-06
7.91296e-06
1.21451e-06
2.02975e-05
2.96709e-06
-7.1559e-07
2.92959e-06
-3.52804e-06
1.53345e-06
1.44014e-05
3.17298e-06
1.76206e-06
3.64893e-06
-6.56975e-06
2.24872e-06
6.30657e-06
3.50747e-07
2.6046e-05
-1.61319e-05
-1.28335e-06
3.97092e-05
-2.01934e-06
1.3626e-05
-2.50145e-06
-7.88625e-07
-2.58927e-06
-1.34753e-05
-3.65755e-06
-2.791e-05
-4.47328e-06
-2.85623e-05
-4.69575e-06
-1.89638e-05
-4.19269e-06
3.25892e-06
-4.9574e-06
2.83192e-05
-4.68101e-06
3.32973e-05
-1.66014e-06
2.08758e-05
2.08975e-06
-3.31043e-06
3.30514e-06
7.14758e-06
2.26142e-06
1.03159e-05
7.76568e-07
-1.38079e-07
6.62137e-07
-1.66191e-05
4.08704e-06
8.56068e-06
4.50983e-06
9.35692e-06
2.79892e-06
4.777e-06
2.30675e-08
-6.10616e-06
-1.87067e-06
-2.39131e-05
-2.62195e-06
-3.4229e-05
-3.24292e-06
-3.24269e-05
-3.71877e-06
-2.33274e-05
-4.04239e-06
-7.50129e-06
-4.6103e-06
7.06777e-06
-3.89807e-06
9.51412e-06
2.92667e-06
-6.02592e-06
5.67775e-06
-8.66968e-06
5.32473e-06
1.03504e-06
3.36169e-06
9.876e-06
6.98858e-07
2.29603e-05
2.8047e-06
-2.82143e-06
2.50826e-06
-3.2316e-06
1.0133e-06
1.58963e-05
2.78768e-06
-1.23168e-08
3.45798e-06
-7.24005e-06
2.25354e-06
7.51101e-06
2.74443e-07
2.80251e-05
-1.58575e-05
-1.3327e-06
4.10419e-05
-2.29822e-06
1.45915e-05
-3.00313e-06
-8.37211e-08
-3.16018e-06
-1.33182e-05
-4.34475e-06
-2.67255e-05
-5.15712e-06
-2.775e-05
-5.15753e-06
-1.89634e-05
-4.02139e-06
2.12278e-06
-4.20765e-06
2.85055e-05
-4.42416e-06
3.35138e-05
-1.01916e-06
1.74708e-05
1.81446e-06
-6.14404e-06
3.3203e-06
5.64174e-06
2.67003e-06
1.09662e-05
1.81634e-06
7.15613e-07
1.07776e-06
-1.58806e-05
4.91088e-06
4.72756e-06
5.69319e-06
8.5746e-06
4.28764e-06
6.18256e-06
1.47934e-06
-3.29786e-06
-1.06994e-06
-2.13639e-05
-2.41859e-06
-3.28803e-05
-3.39062e-06
-3.14549e-05
-3.95316e-06
-2.27649e-05
-4.18189e-06
-7.27256e-06
-4.59721e-06
7.48309e-06
-3.24544e-06
8.16236e-06
2.72006e-06
-1.19914e-05
4.64046e-06
-1.05901e-05
3.82571e-06
1.84979e-06
1.87189e-06
1.18298e-05
3.6491e-07
2.44673e-05
2.69399e-06
-5.15051e-06
1.90194e-06
-2.43955e-06
6.09627e-07
1.71886e-05
2.28232e-06
-1.68501e-06
3.01865e-06
-7.97638e-06
2.1776e-06
8.35206e-06
2.04261e-07
2.99984e-05
-1.56532e-05
-1.41833e-06
4.24602e-05
-2.61228e-06
1.57854e-05
-3.44708e-06
7.51077e-07
-3.74549e-06
-1.30198e-05
-4.9567e-06
-2.55142e-05
-5.72675e-06
-2.69799e-05
-5.51959e-06
-1.91706e-05
-3.74679e-06
3.49983e-07
-3.09072e-06
2.78494e-05
-3.90603e-06
3.43291e-05
-3.21017e-07
1.38857e-05
1.6934e-06
-8.15846e-06
3.23513e-06
4.10001e-06
2.86619e-06
1.13351e-05
2.53068e-06
1.05113e-06
1.53481e-06
-1.48847e-05
5.46853e-06
7.93838e-07
6.42585e-06
7.61728e-06
5.10937e-06
7.49904e-06
2.48579e-06
-6.74282e-07
-2.47531e-07
-1.86305e-05
-2.1224e-06
-3.10054e-05
-3.38472e-06
-3.01926e-05
-3.95369e-06
-2.21959e-05
-3.78818e-06
-7.43808e-06
-3.92882e-06
7.62373e-06
-2.69413e-06
6.92766e-06
1.88865e-06
-1.65742e-05
3.16937e-06
-1.18708e-05
1.88426e-06
3.1349e-06
-8.00249e-08
1.37941e-05
6.5815e-08
2.43215e-05
2.41623e-06
-7.50093e-06
1.0096e-06
-1.03292e-06
2.49798e-07
1.79484e-05
1.62039e-06
-3.0556e-06
2.30669e-06
-8.66268e-06
2.00572e-06
8.65303e-06
1.56869e-07
3.18473e-05
-1.54963e-05
-1.5359e-06
4.39961e-05
-2.92228e-06
1.71718e-05
-3.82033e-06
1.64912e-06
-4.31651e-06
-1.25237e-05
-5.47297e-06
-2.43578e-05
-6.18058e-06
-2.62723e-05
-5.805e-06
-1.95462e-05
-3.45083e-06
-2.00418e-06
-1.77041e-06
2.6169e-05
-2.98011e-06
3.55388e-05
8.16391e-07
1.00892e-05
1.87e-06
-9.21208e-06
3.23712e-06
2.73289e-06
2.99044e-06
1.15818e-05
3.11228e-06
9.29296e-07
2.25227e-06
-1.40247e-05
5.92572e-06
-2.87961e-06
6.7995e-06
6.7435e-06
5.47909e-06
8.81945e-06
3.03713e-06
1.76768e-06
4.04553e-07
-1.5998e-05
-1.7772e-06
-2.88237e-05
-3.27065e-06
-2.86992e-05
-3.84618e-06
-2.16204e-05
-3.19866e-06
-8.0856e-06
-2.88395e-06
7.30901e-06
-2.11326e-06
6.15698e-06
9.08922e-07
-1.95964e-05
1.24834e-06
-1.22102e-05
-2.65078e-07
4.64831e-06
-2.00441e-06
1.55334e-05
-1.62271e-07
2.24793e-05
1.73194e-06
-9.39514e-06
-1.69244e-07
8.68261e-07
-2.62995e-07
1.80422e-05
6.77206e-07
-3.9958e-06
1.33589e-06
-9.32136e-06
1.6407e-06
8.34822e-06
1.36814e-07
3.33512e-05
-1.53595e-05
-1.6599e-06
4.5656e-05
-3.15338e-06
1.86653e-05
-4.13249e-06
2.62824e-06
-4.82671e-06
-1.18294e-05
-5.87402e-06
-2.33105e-05
-6.51679e-06
-2.56295e-05
-6.03923e-06
-2.00237e-05
-3.27806e-06
-4.76536e-06
-6.07229e-07
2.34982e-05
-1.67679e-06
3.66084e-05
1.89734e-06
6.5151e-06
2.448e-06
-9.76273e-06
3.32833e-06
1.85256e-06
3.08507e-06
1.1825e-05
3.61236e-06
4.02011e-07
3.18542e-06
-1.35978e-05
6.20321e-06
-5.8974e-06
6.8499e-06
6.09681e-06
5.37926e-06
1.02901e-05
3.17995e-06
3.96699e-06
8.70619e-07
-1.36886e-05
-1.41706e-06
-2.6536e-05
-3.08744e-06
-2.70288e-05
-3.71658e-06
-2.09912e-05
-2.66496e-06
-9.13722e-06
-1.71164e-06
6.35569e-06
-1.51776e-06
5.9631e-06
-2.80721e-08
-2.10861e-05
-4.61183e-07
-1.17771e-05
-2.13626e-06
6.32339e-06
-3.49001e-06
1.68872e-05
-2.36799e-07
1.92261e-05
8.68603e-07
-1.05005e-05
-1.16101e-06
2.89787e-06
-9.75835e-07
1.7857e-05
-2.72853e-07
-4.69879e-06
2.3485e-07
-9.82906e-06
9.41442e-07
7.64163e-06
1.57041e-07
3.41356e-05
-1.52025e-05
-1.77104e-06
4.7427e-05
-3.31114e-06
2.02054e-05
-4.42371e-06
3.74081e-06
-5.22322e-06
-1.10299e-05
-6.14276e-06
-2.23909e-05
-6.73464e-06
-2.50377e-05
-6.26891e-06
-2.04894e-05
-3.49379e-06
-7.54048e-06
3.28961e-07
1.96754e-05
-1.45397e-07
3.70828e-05
2.82373e-06
3.54598e-06
3.24941e-06
-1.01884e-05
3.34238e-06
1.75959e-06
3.13446e-06
1.2033e-05
4.00187e-06
-4.65398e-07
3.96402e-06
-1.35599e-05
6.17499e-06
-8.10837e-06
6.55729e-06
5.71451e-06
4.93786e-06
1.19095e-05
3.07486e-06
5.82998e-06
1.19978e-06
-1.18135e-05
-1.06573e-06
-2.42705e-05
-2.86032e-06
-2.52342e-05
-3.59619e-06
-2.02554e-05
-2.36755e-06
-1.03658e-05
-7.11736e-07
4.69987e-06
-8.92605e-07
6.14397e-06
-5.54953e-07
-2.14237e-05
-1.4271e-06
-1.0905e-05
-2.98883e-06
7.88513e-06
-4.41912e-06
1.83175e-05
-2.76528e-07
1.50835e-05
2.87501e-07
-1.10646e-05
-1.72399e-06
4.90937e-06
-1.55383e-06
1.76868e-05
-1.10157e-06
-5.15104e-06
-1.32887e-06
-9.60177e-06
-6.12938e-08
6.37405e-06
2.41567e-07
3.38327e-05
-1.49609e-05
-1.85984e-06
4.92869e-05
-3.41257e-06
2.17582e-05
-4.64826e-06
4.97651e-06
-5.46547e-06
-1.02127e-05
-6.26317e-06
-2.15932e-05
-6.82565e-06
-2.44752e-05
-6.5375e-06
-2.07776e-05
-4.25636e-06
-9.82162e-06
5.55857e-07
1.48632e-05
9.57886e-07
3.66807e-05
3.63563e-06
8.68234e-07
3.97952e-06
-1.05323e-05
3.14912e-06
2.58999e-06
3.12347e-06
1.20586e-05
4.26865e-06
-1.61058e-06
4.51718e-06
-1.38084e-05
6.02389e-06
-9.61508e-06
6.00136e-06
5.73704e-06
4.24409e-06
1.36668e-05
2.82373e-06
7.25035e-06
1.4172e-06
-1.0407e-05
-7.32489e-07
-2.21208e-05
-2.60045e-06
-2.33662e-05
-3.49917e-06
-1.93567e-05
-2.47627e-06
-1.13887e-05
-1.79033e-07
2.40263e-06
-1.89403e-07
6.15434e-06
-9.22969e-07
-2.06902e-05
-1.94572e-06
-9.88221e-06
-3.1095e-06
9.04891e-06
-4.66397e-06
1.98719e-05
-4.06099e-08
1.04602e-05
-3.37239e-08
-1.10715e-05
-2.00004e-06
6.87569e-06
-2.04979e-06
1.77366e-05
-2.18789e-06
-5.01294e-06
-2.57005e-06
-9.21961e-06
-9.27071e-07
4.73107e-06
3.90701e-07
3.25149e-05
-1.45702e-05
-1.92034e-06
5.12072e-05
-3.45779e-06
2.32956e-05
-4.76174e-06
6.28045e-06
-5.54095e-06
-9.43352e-06
-6.22159e-06
-2.09126e-05
-6.76369e-06
-2.39331e-05
-6.77506e-06
-2.07662e-05
-5.26514e-06
-1.13315e-05
1.23705e-07
9.47437e-06
2.00859e-06
3.47959e-05
4.33566e-06
-1.45884e-06
4.44115e-06
-1.06378e-05
2.7451e-06
4.28603e-06
3.04916e-06
1.17546e-05
4.41402e-06
-2.97544e-06
4.8168e-06
-1.42112e-05
5.75138e-06
-1.05497e-05
5.24095e-06
6.24748e-06
3.38629e-06
1.55214e-05
2.51776e-06
8.11887e-06
1.56192e-06
-9.45117e-06
-4.16722e-07
-2.01422e-05
-2.30745e-06
-2.14755e-05
-3.42213e-06
-1.8242e-05
-3.02872e-06
-1.17822e-05
-1.67362e-07
-4.58726e-07
3.65585e-07
5.62139e-06
-1.06813e-06
-1.92564e-05
-2.03621e-06
-8.91413e-06
-2.68329e-06
9.69599e-06
-4.14999e-06
2.13386e-05
5.79876e-07
5.7303e-06
-2.15022e-07
-1.02766e-05
-2.07307e-06
8.73373e-06
-2.54295e-06
1.82065e-05
-3.2968e-06
-4.25908e-06
-3.62718e-06
-8.88923e-06
-1.7987e-06
2.90259e-06
6.02591e-07
3.01137e-05
-1.39676e-05
-1.94689e-06
5.31541e-05
-3.44049e-06
2.47892e-05
-4.74153e-06
7.58149e-06
-5.4444e-06
-8.73065e-06
-6.01246e-06
-2.03445e-05
-6.51978e-06
-2.34258e-05
-6.77832e-06
-2.05077e-05
-5.83011e-06
-1.22797e-05
-4.88585e-07
4.13285e-06
2.88211e-06
3.14252e-05
4.73521e-06
-3.31193e-06
4.56157e-06
-1.04642e-05
2.17785e-06
6.66975e-06
2.94317e-06
1.09892e-05
4.4523e-06
-4.48457e-06
4.87813e-06
-1.4637e-05
5.349e-06
-1.10205e-05
4.30573e-06
7.29075e-06
2.46548e-06
1.73617e-05
2.24161e-06
8.34274e-06
1.66795e-06
-8.87751e-06
-1.07411e-07
-1.83668e-05
-1.97784e-06
-1.96051e-05
-3.27905e-06
-1.69408e-05
-3.41817e-06
-1.1643e-05
-4.87508e-07
-3.38938e-06
8.81326e-07
4.25256e-06
-1.08319e-06
-1.72919e-05
-1.91772e-06
-8.0796e-06
-2.03476e-06
9.81303e-06
-3.14888e-06
2.24528e-05
1.35039e-06
1.23103e-06
-1.76416e-07
-8.74975e-06
-1.9902e-06
1.05475e-05
-2.98333e-06
1.91996e-05
-4.23507e-06
-3.00734e-06
-4.50146e-06
-8.62285e-06
-2.54335e-06
9.44484e-07
9.03898e-07
2.66664e-05
-1.30637e-05
-1.93301e-06
5.50871e-05
-3.34737e-06
2.62036e-05
-4.5716e-06
8.80572e-06
-5.17175e-06
-8.1305e-06
-5.6401e-06
-1.98762e-05
-6.09339e-06
-2.29725e-05
-6.44812e-06
-2.0153e-05
-5.71928e-06
-1.30086e-05
-1.30529e-06
-2.81143e-07
3.43419e-06
2.66857e-05
4.766e-06
-4.64374e-06
4.30838e-06
-1.00065e-05
1.60049e-06
9.37765e-06
2.89329e-06
9.69643e-06
4.40195e-06
-5.99323e-06
4.71845e-06
-1.49535e-05
4.80585e-06
-1.11079e-05
3.21818e-06
8.87842e-06
1.59745e-06
1.89824e-05
2.06965e-06
7.87055e-06
1.75539e-06
-8.56324e-06
1.49616e-07
-1.6761e-05
-1.62439e-06
-1.78311e-05
-2.98374e-06
-1.55814e-05
-3.23824e-06
-1.13885e-05
-1.10034e-06
-5.52728e-06
1.01338e-06
2.13884e-06
-1.20919e-06
-1.50694e-05
-1.90094e-06
-7.38785e-06
-1.4834e-06
9.3955e-06
-2.04857e-06
2.30179e-05
1.59435e-06
-2.41189e-06
-4.45678e-08
-7.11083e-06
-1.77294e-06
1.22759e-05
-3.2829e-06
2.07096e-05
-4.87218e-06
-1.41806e-06
-5.11587e-06
-8.37916e-06
-3.16403e-06
-1.00736e-06
1.14836e-06
2.2354e-05
-1.19154e-05
-1.87072e-06
5.69578e-05
-3.16661e-06
2.74995e-05
-4.23791e-06
9.87702e-06
-4.71908e-06
-7.64933e-06
-5.11231e-06
-1.94829e-05
-5.50799e-06
-2.25768e-05
-5.86897e-06
-1.9792e-05
-5.34354e-06
-1.3534e-05
-2.21898e-06
-3.4057e-06
3.46477e-06
2.10019e-05
4.34176e-06
-5.52074e-06
3.69275e-06
-9.35752e-06
1.19914e-06
1.18713e-05
3.00581e-06
7.88975e-06
4.28171e-06
-7.26912e-06
4.36669e-06
-1.50385e-05
4.1178e-06
-1.0859e-05
2.02118e-06
1.0975e-05
8.96836e-07
2.01068e-05
2.03931e-06
6.72807e-06
1.8496e-06
-8.37353e-06
3.81592e-07
-1.5293e-05
-1.2814e-06
-1.61681e-05
-2.61746e-06
-1.42453e-05
-3.01457e-06
-1.09914e-05
-1.68368e-06
-6.85817e-06
5.33607e-07
-7.84497e-08
-1.62093e-06
-1.29148e-05
-2.18117e-06
-6.82761e-06
-1.20054e-06
8.41487e-06
-1.03468e-06
2.28521e-05
1.49758e-06
-4.94416e-06
1.27332e-07
-5.74058e-06
-1.43874e-06
1.3842e-05
-3.39163e-06
2.26625e-05
-5.13611e-06
3.26419e-07
-5.38242e-06
-8.13286e-06
-3.62685e-06
-2.76292e-06
1.28705e-06
1.74401e-05
-1.06283e-05
-1.74876e-06
5.87066e-05
-2.88801e-06
2.86387e-05
-3.72735e-06
1.07164e-05
-4.08312e-06
-7.29355e-06
-4.43588e-06
-1.91302e-05
-4.78924e-06
-2.22234e-05
-5.12772e-06
-1.94535e-05
-4.89158e-06
-1.37702e-05
-2.97683e-06
-5.32045e-06
3.01666e-06
1.50084e-05
3.53377e-06
-6.03784e-06
2.79844e-06
-8.62219e-06
1.06648e-06
1.36032e-05
3.28652e-06
5.66971e-06
4.10077e-06
-8.08337e-06
3.85107e-06
-1.47888e-05
3.29044e-06
-1.02984e-05
8.28083e-07
1.34374e-05
4.38288e-07
2.04965e-05
2.10754e-06
5.05882e-06
1.9496e-06
-8.21559e-06
5.86905e-07
-1.39303e-05
-9.70146e-07
-1.4611e-05
-2.24422e-06
-1.29713e-05
-2.8023e-06
-1.04333e-05
-2.39387e-06
-7.2666e-06
-4.51102e-07
-2.02122e-06
-2.20133e-06
-1.11646e-05
-2.69745e-06
-6.33149e-06
-1.15463e-06
6.87205e-06
-3.31739e-08
2.17306e-05
1.45243e-06
-6.42976e-06
3.97876e-07
-4.68603e-06
-1.03226e-06
1.52721e-05
-3.3147e-06
2.49449e-05
-5.0388e-06
2.05052e-06
-5.30564e-06
-7.86602e-06
-3.87756e-06
-4.191e-06
1.27278e-06
1.22898e-05
-9.35554e-06
-1.55091e-06
6.02575e-05
-2.49992e-06
2.95877e-05
-3.02993e-06
1.12464e-05
-3.26346e-06
-7.06002e-06
-3.61724e-06
-1.87764e-05
-3.96046e-06
-2.18802e-05
-4.27362e-06
-1.91403e-05
-4.27836e-06
-1.37654e-05
-3.26016e-06
-6.33866e-06
2.35913e-06
9.38914e-06
2.57004e-06
-6.24875e-06
1.77935e-06
-7.8315e-06
1.16362e-06
1.42189e-05
3.56234e-06
3.27099e-06
3.8296e-06
-8.35064e-06
3.19421e-06
-1.41534e-05
2.28589e-06
-9.39009e-06
-3.37549e-07
1.60608e-05
2.06994e-07
1.9952e-05
2.2066e-06
3.05922e-06
2.04119e-06
-8.05018e-06
7.57516e-07
-1.26466e-05
-7.002e-07
-1.31533e-05
-1.90106e-06
-1.17704e-05
-2.58283e-06
-9.75157e-06
-2.6969e-06
-7.15253e-06
-1.20362e-06
-3.5145e-06
-2.71001e-06
-9.6582e-06
-3.21339e-06
-5.82811e-06
-1.24083e-06
4.8995e-06
8.95433e-07
1.95943e-05
1.62982e-06
-7.16415e-06
6.83245e-07
-3.73945e-06
-6.15747e-07
1.65711e-05
-3.09226e-06
2.74214e-05
-4.65502e-06
3.61328e-06
-4.8942e-06
-7.62684e-06
-3.79863e-06
-5.28658e-06
1.10671e-06
7.38443e-06
-8.24883e-06
-1.2566e-06
6.15141e-05
-1.98386e-06
3.0315e-05
-2.1458e-06
1.14083e-05
-2.26293e-06
-6.94289e-06
-2.66383e-06
-1.83755e-05
-3.04255e-06
-2.15015e-05
-3.35361e-06
-1.88293e-05
-3.48417e-06
-1.36349e-05
-2.89508e-06
-6.92775e-06
1.79385e-06
4.70022e-06
1.66512e-06
-6.12003e-06
8.09806e-07
-6.97618e-06
1.40022e-06
1.36285e-05
3.60079e-06
1.07042e-06
3.42163e-06
-8.17147e-06
2.42952e-06
-1.31613e-05
1.18699e-06
-8.14755e-06
-1.30803e-06
1.85558e-05
2.92408e-07
1.83516e-05
2.31273e-06
1.03889e-06
2.11498e-06
-7.85244e-06
8.92404e-07
-1.14241e-05
-4.74669e-07
-1.17863e-05
-1.60253e-06
-1.06425e-05
-2.33547e-06
-9.01864e-06
-2.6041e-06
-6.8839e-06
-1.68463e-06
-4.43397e-06
-3.03024e-06
-8.3126e-06
-3.51525e-06
-5.34309e-06
-1.48075e-06
2.86499e-06
1.74088e-06
1.63727e-05
1.90713e-06
-7.3304e-06
8.84835e-07
-2.71715e-06
-2.39813e-07
1.76957e-05
-2.76589e-06
2.99475e-05
-4.06143e-06
4.90881e-06
-4.22253e-06
-7.46574e-06
-3.35852e-06
-6.15058e-06
8.57202e-07
3.16871e-06
-7.39163e-06
-8.48487e-07
6.23626e-05
-1.29562e-06
3.07621e-05
-1.10947e-06
1.12222e-05
-1.07758e-06
-6.97477e-06
-1.58254e-06
-1.78705e-05
-2.04962e-06
-2.10344e-05
-2.40351e-06
-1.84754e-05
-2.59313e-06
-1.34452e-05
-2.15382e-06
-7.36706e-06
1.38658e-06
1.15981e-06
9.55784e-07
-5.68923e-06
9.64775e-08
-6.11688e-06
1.84914e-06
1.18759e-05
3.3699e-06
-4.50338e-07
2.88243e-06
-7.684e-06
1.60034e-06
-1.18792e-05
1.3674e-07
-6.68396e-06
-1.60321e-06
2.02958e-05
8.17809e-07
1.59305e-05
2.45083e-06
-5.94133e-07
2.17002e-06
-7.57162e-06
9.91903e-07
-1.0246e-05
-2.92835e-07
-1.05015e-05
-1.35452e-06
-9.58086e-06
-2.1026e-06
-8.27055e-06
-2.45175e-06
-6.53476e-06
-1.99648e-06
-4.88923e-06
-3.14649e-06
-7.16259e-06
-3.54888e-06
-4.9407e-06
-1.67176e-06
9.87869e-07
2.22713e-06
1.24738e-05
1.90905e-06
-7.01233e-06
8.87097e-07
-1.6952e-06
1.32104e-07
1.84507e-05
-2.36318e-06
3.24428e-05
-3.31747e-06
5.86311e-06
-3.40043e-06
-7.38278e-06
-2.67947e-06
-6.87154e-06
5.95108e-07
-1.05874e-07
-6.79652e-06
-3.4354e-07
6.27061e-05
-3.62083e-07
3.07806e-05
1.17106e-07
1.0743e-05
1.48117e-07
-7.00578e-06
-3.41878e-07
-1.73805e-05
-9.88282e-07
-2.0388e-05
-1.44176e-06
-1.80219e-05
-1.68776e-06
-1.31992e-05
-1.34597e-06
-7.70884e-06
1.09904e-06
-1.28521e-06
5.11257e-07
-5.10144e-06
-3.01493e-07
-5.30413e-06
2.15108e-06
9.4233e-06
3.01212e-06
-1.31138e-06
2.28444e-06
-6.95632e-06
7.66571e-07
-1.03613e-05
-4.9185e-07
-5.42554e-06
-1.27493e-06
2.10789e-05
1.64878e-06
1.30068e-05
2.6512e-06
-1.59656e-06
2.20434e-06
-7.12475e-06
1.05558e-06
-9.0972e-06
-1.51357e-07
-9.29457e-06
-1.15222e-06
-8.58e-06
-1.89475e-06
-7.52802e-06
-2.29582e-06
-6.13368e-06
-2.17878e-06
-5.00628e-06
-3.12e-06
-6.22137e-06
-3.4426e-06
-4.6181e-06
-1.91657e-06
-5.3816e-07
2.09804e-06
8.45923e-06
1.43861e-06
-6.3529e-06
6.66706e-07
-9.23298e-07
4.65556e-07
1.86519e-05
-1.91261e-06
3.48209e-05
-2.45429e-06
6.40479e-06
-2.51576e-06
-7.32131e-06
-1.95076e-06
-7.43654e-06
3.67284e-07
-2.42392e-06
-6.42924e-06
3.78004e-07
6.23281e-05
7.15309e-07
3.04433e-05
1.43026e-06
1.0028e-05
1.39447e-06
-6.96999e-06
8.50321e-07
-1.68364e-05
1.24037e-07
-1.96617e-05
-4.79518e-07
-1.74183e-05
-8.14199e-07
-1.28646e-05
-6.06241e-07
-7.9168e-06
9.59644e-07
-2.85109e-06
3.66973e-07
-4.50877e-06
-3.14604e-07
-4.62255e-06
2.23348e-06
6.87522e-06
2.61776e-06
-1.69566e-06
1.71428e-06
-6.05284e-06
3.64325e-08
-8.6835e-06
-1.03322e-06
-4.35588e-06
-5.13172e-07
2.05588e-05
2.48547e-06
1.00082e-05
2.87068e-06
-1.98176e-06
2.20538e-06
-6.45946e-06
1.08355e-06
-7.97536e-06
-4.64399e-08
-8.16459e-06
-9.89532e-07
-7.63691e-06
-1.71603e-06
-6.80152e-06
-2.15668e-06
-5.69303e-06
-2.27203e-06
-4.89093e-06
-3.03756e-06
-5.45584e-06
-3.32515e-06
-4.33052e-06
-2.31537e-06
-1.54793e-06
1.25439e-06
4.88947e-06
5.18494e-07
-5.61701e-06
3.20397e-07
-7.25201e-07
6.62048e-07
1.83102e-05
-1.39652e-06
3.68795e-05
-1.49231e-06
6.50058e-06
-1.61781e-06
-7.19581e-06
-1.27348e-06
-7.78087e-06
2.50391e-07
-3.94779e-06
-6.17885e-06
1.18344e-06
6.11447e-05
1.95683e-06
2.96699e-05
2.81158e-06
9.17326e-06
2.78337e-06
-6.94179e-06
2.1447e-06
-1.61977e-05
1.25946e-06
-1.87765e-05
4.87944e-07
-1.66468e-05
1.42168e-08
-1.23908e-05
5.44273e-08
-7.95701e-06
9.69968e-07
-3.76663e-06
4.82036e-07
-4.02084e-06
-5.6009e-08
-4.08451e-06
2.15011e-06
4.6691e-06
2.22061e-06
-1.76616e-06
1.25325e-06
-5.08549e-06
-3.73724e-07
-7.05652e-06
-1.41342e-06
-3.31618e-06
1.28146e-07
1.90173e-05
2.97633e-06
7.16e-06
2.98309e-06
-1.98853e-06
2.1575e-06
-5.63386e-06
1.07851e-06
-6.89638e-06
2.9726e-08
-7.1158e-06
-8.59951e-07
-6.74723e-06
-1.56792e-06
-6.09355e-06