/*--------------------------------*- C++ -*----------------------------------*\
| =========                 |                                                 |
| \\      /  F ield         | OpenFOAM: The Open Source CFD Toolbox           |
|  \\    /   O peration     | Version:  4.1                                   |
|   \\  /    A nd           | Web:      www.OpenFOAM.org                      |
|    \\/     M anipulation  |                                                 |
\*---------------------------------------------------------------------------*/
FoamFile
{
    version     2.0;
    format      ascii;
    class       surfaceScalarField;
    location    "100";
    object      phi;
}
// * * * * * * * * * * * * * * * * * * * * * * * * * * * * * * * * * * * * * //

dimensions      [0 3 -1 0 0 0 0];

internalField   nonuniform List<scalar> 
9850
(
-3.22101e-06
3.22101e-06
-2.78764e-06
-4.33368e-07
1.13314e-06
-3.92079e-06
4.38132e-06
-3.24817e-06
6.6586e-06
-2.27728e-06
8.13982e-06
-1.48122e-06
9.0244e-06
-8.84573e-07
9.45959e-06
-4.35194e-07
9.56923e-06
-1.0964e-07
9.40747e-06
1.61756e-07
9.01836e-06
3.8911e-07
8.36843e-06
6.49933e-07
7.27108e-06
1.09735e-06
5.21395e-06
2.05713e-06
1.26422e-06
3.94973e-06
-6.04814e-07
1.86903e-06
5.16244e-07
-1.12106e-06
2.13379e-06
-1.61754e-06
3.30499e-06
-1.1712e-06
3.995e-06
-6.90011e-07
4.3181e-06
-3.231e-07
4.39649e-06
-7.83928e-08
4.26911e-06
1.27379e-07
3.94575e-06
3.23367e-07
3.28577e-06
6.59981e-07
1.51639e-06
1.76938e-06
-1.66443e-06
3.18082e-06
-2.58924e-06
9.24814e-07
-1.39614e-06
-1.19311e-06
-1.29726e-06
-9.88757e-08
-2.50537e-06
1.20811e-06
-2.7099e-06
2.04532e-07
-1.36976e-06
-1.34014e-06
-1.07831e-06
-2.91447e-07
-3.02602e-06
1.9477e-06
-5.41761e-06
2.3916e-06
-6.17817e-06
7.6056e-07
-5.0732e-06
-1.10497e-06
-3.01903e-06
-2.05417e-06
-6.71912e-07
-2.34712e-06
1.94787e-06
-2.61979e-06
4.64347e-06
-2.69559e-06
7.05702e-06
-2.41355e-06
7.73547e-06
-6.78454e-07
5.21317e-06
2.5223e-06
-4.02029e-07
5.6152e-06
-4.36558e-06
3.96355e-06
-6.0248e-06
1.65922e-06
-6.6149e-06
5.90105e-07
-6.70676e-06
9.18617e-08
-6.47553e-06
-2.31238e-07
-5.95073e-06
-5.24797e-07
-5.20601e-06
-7.44719e-07
-4.32231e-06
-8.83703e-07
-3.333e-06
-9.89309e-07
-2.27984e-06
-1.05316e-06
-1.07841e-06
-1.20143e-06
1.93692e-07
-1.27211e-06
1.05169e-06
-8.57993e-07
-3.7636e-07
1.42804e-06
-3.92435e-06
3.54799e-06
-5.98905e-06
2.0647e-06
-7.17674e-06
1.18769e-06
-8.06189e-06
8.8515e-07
-8.48944e-06
4.27542e-07
-8.21862e-06
-2.70819e-07
-7.49327e-06
-7.25351e-07
-6.29874e-06
-1.19452e-06
-4.21604e-06
-2.0827e-06
-3.16071e-07
-3.89997e-06
4.49806e-06
-4.81413e-06
6.45569e-06
-1.95763e-06
7.38605e-06
-9.30359e-07
7.69691e-06
-3.10862e-07
7.24006e-06
4.56848e-07
5.60972e-06
1.63034e-06
2.09119e-06
3.51853e-06
-2.973e-06
5.06419e-06
-4.92394e-06
1.95094e-06
-3.93892e-06
-9.85023e-07
-8.47685e-07
-3.09123e-06
1.39185e-06
-2.23953e-06
2.45433e-06
-1.06248e-06
3.22927e-06
-7.74942e-07
4.00929e-06
-7.80022e-07
4.99855e-06
-9.89257e-07
6.22236e-06
-1.22382e-06
7.82971e-06
-1.60734e-06
9.38319e-06
-1.55348e-06
1.05894e-05
-1.2062e-06
1.12428e-05
-6.53379e-07
1.12025e-05
4.02574e-08
1.04793e-05
7.23172e-07
9.20448e-06
1.27486e-06
7.62353e-06
1.58095e-06
6.06052e-06
1.56301e-06
4.81951e-06
1.24101e-06
3.98197e-06
8.37548e-07
2.93776e-06
1.0442e-06
2.93776e-06
-1.69979e-06
4.92081e-06
-3.97136e-07
-1.73602e-06
1.93477e-06
-6.25269e-06
4.19399e-06
-5.5074e-06
5.93977e-06
-4.02306e-06
7.12982e-06
-2.67127e-06
7.84997e-06
-1.60472e-06
8.19912e-06
-7.84345e-07
8.24641e-06
-1.56936e-07
8.04278e-06
3.65385e-07
7.60613e-06
8.25765e-07
6.90891e-06
1.34715e-06
5.7904e-06
2.21586e-06
3.88292e-06
3.96462e-06
1.04802e-06
6.78462e-06
1.87394e-06
1.04311e-06
2.99737e-06
-2.24449e-06
3.74239e-06
-2.36256e-06
4.19445e-06
-1.62327e-06
4.30576e-06
-8.0132e-07
4.14378e-06
-1.61118e-07
3.79009e-06
2.75298e-07
3.3262e-06
5.91266e-07
2.73564e-06
9.13926e-07
1.66811e-06
1.72751e-06
-6.48195e-07
4.08568e-06
-2.33607e-06
4.8687e-06
-2.37238e-06
9.61126e-07
-1.92685e-06
-1.63864e-06
-1.46791e-06
-5.57813e-07
-1.1171e-06
8.57295e-07
-1.31356e-06
4.00996e-07
-1.82144e-06
-8.3226e-07
-3.48247e-06
1.36958e-06
-4.88244e-06
3.34767e-06
-5.5621e-06
3.07126e-06
-5.59351e-06
7.91977e-07
-5.00195e-06
-1.69653e-06
-4.1383e-06
-2.91782e-06
-2.80805e-06
-3.67738e-06
-8.15852e-07
-4.61198e-06
1.6858e-06
-5.19724e-06
4.12816e-06
-4.85592e-06
5.47089e-06
-2.02119e-06
3.52387e-06
4.46932e-06
1.10108e-07
9.02897e-06
-2.71657e-06
6.79022e-06
-3.94764e-06
2.8903e-06
-4.12592e-06
7.68385e-07
-4.00817e-06
-2.58926e-08
-3.84984e-06
-3.89565e-07
-3.57914e-06
-7.95496e-07
-3.21528e-06
-1.10858e-06
-2.80437e-06
-1.29462e-06
-2.34524e-06
-1.44844e-06
-1.89816e-06
-1.50023e-06
-1.39766e-06
-1.70193e-06
-9.38357e-07
-1.73141e-06
-8.35168e-07
-9.61181e-07
-1.21807e-06
1.81095e-06
-2.37383e-06
4.70375e-06
-3.60221e-06
3.29308e-06
-3.98903e-06
1.57452e-06
-4.27797e-06
1.17408e-06
-4.767e-06
9.16573e-07
-4.98421e-06
-5.36093e-08
-4.87794e-06
-8.31618e-07
-4.19749e-06
-1.87498e-06
-2.96503e-06
-3.31515e-06
-7.81095e-07
-6.08391e-06
2.35467e-06
-7.94989e-06
3.72432e-06
-3.32729e-06
4.5365e-06
-1.74254e-06
4.91824e-06
-6.92592e-07
4.7275e-06
6.47586e-07
3.47903e-06
2.87881e-06
8.95498e-07
6.10206e-06
-2.27061e-06
8.23029e-06
-3.88441e-06
3.56474e-06
-3.3439e-06
-1.52553e-06
-1.63265e-06
-4.80248e-06
-5.57067e-07
-3.31511e-06
2.64432e-07
-1.88398e-06
9.12387e-07
-1.4229e-06
1.59625e-06
-1.46388e-06
2.49054e-06
-1.88355e-06
3.68544e-06
-2.41872e-06
5.30817e-06
-3.23007e-06
6.77653e-06
-3.02184e-06
7.89725e-06
-2.32693e-06
8.61906e-06
-1.37519e-06
8.88216e-06
-2.22848e-07
8.75267e-06
8.52667e-07
8.28921e-06
1.73832e-06
7.6151e-06
2.25506e-06
6.80521e-06
2.3729e-06
5.86255e-06
2.18367e-06
4.70778e-06
1.99231e-06
3.00331e-06
2.74868e-06
5.94107e-06
-7.27482e-07
5.64829e-06
1.04803e-06
-3.51154e-06
2.3997e-06
-7.60436e-06
3.82821e-06
-6.93591e-06
4.93695e-06
-5.13181e-06
5.69091e-06
-3.42523e-06
6.14406e-06
-2.05786e-06
6.34073e-06
-9.81023e-07
6.3102e-06
-1.26405e-07
6.02839e-06
6.47196e-07
5.56679e-06
1.28736e-06
4.91048e-06
2.00347e-06
3.90423e-06
3.2221e-06
2.19351e-06
5.67534e-06
-7.76444e-10
8.97891e-06
2.6812e-06
-1.63886e-06
3.85854e-06
-3.42183e-06
4.42819e-06
-2.93221e-06
4.55981e-06
-1.75488e-06
4.35409e-06
-5.95595e-07
3.83969e-06
3.5328e-07
3.05878e-06
1.05621e-06
2.15815e-06
1.49189e-06
9.42494e-07
2.12959e-06
-1.15265e-06
3.82266e-06
-2.92775e-06
5.86077e-06
-3.03994e-06
4.9809e-06
-2.64422e-06
5.65403e-07
-2.71268e-06
-1.57018e-06
-2.48618e-06
-7.84309e-07
-1.80417e-06
1.75284e-07
-1.89583e-06
4.92651e-07
-3.53617e-06
8.08081e-07
-4.92699e-06
2.7604e-06
-5.49205e-06
3.91274e-06
-5.56824e-06
3.14744e-06
-5.4078e-06
6.31543e-07
-5.28185e-06
-1.82248e-06
-4.89671e-06
-3.30296e-06
-3.8507e-06
-4.72338e-06
-2.27547e-06
-6.18722e-06
-3.65481e-07
-7.10723e-06
1.54706e-06
-6.76846e-06
3.34162e-06
-3.81575e-06
2.39985e-06
5.4111e-06
1.27489e-06
1.01539e-05
7.25427e-08
7.99257e-06
-8.48315e-07
3.81115e-06
-1.4682e-06
1.38827e-06
-1.55418e-06
6.00891e-08
-1.27219e-06
-6.71559e-07
-9.79704e-07
-1.08798e-06
-7.94247e-07
-1.29404e-06
-6.94824e-07
-1.39404e-06
-7.2715e-07
-1.41611e-06
-8.93805e-07
-1.33358e-06
-1.16729e-06
-1.42844e-06
-1.40899e-06
-1.48971e-06
-1.52054e-06
-8.49629e-07
-8.15903e-07
1.10631e-06
-6.0962e-07
4.49747e-06
-1.50311e-06
4.18657e-06
-2.1116e-06
2.183e-06
-1.62878e-06
6.9126e-07
-1.26807e-06
5.55863e-07
-8.83115e-07
-4.38562e-07
-1.49902e-06
-2.15713e-07
-1.96145e-06
-1.41254e-06
-1.74231e-06
-3.5343e-06
-9.00672e-07
-6.92555e-06
6.88344e-07
-9.53891e-06
1.48691e-06
-4.12585e-06
2.1745e-06
-2.43014e-06
2.58435e-06
-1.10244e-06
2.38998e-06
8.41954e-07
1.53997e-06
3.72882e-06
-9.40253e-08
7.73605e-06
-2.16037e-06
1.02966e-05
-3.31391e-06
4.71828e-06
-3.2005e-06
-1.63894e-06
-2.43158e-06
-5.5714e-06
-2.00084e-06
-3.74585e-06
-1.49914e-06
-2.38568e-06
-9.44709e-07
-1.97733e-06
-2.21126e-07
-2.18746e-06
7.84761e-07
-2.88943e-06
2.29286e-06
-3.92683e-06
3.90046e-06
-4.83766e-06
5.19747e-06
-4.31885e-06
6.16378e-06
-3.29324e-06
6.83094e-06
-2.04235e-06
7.31064e-06
-7.02552e-07
7.56437e-06
5.9894e-07
7.60888e-06
1.69382e-06
7.42509e-06
2.43884e-06
6.95534e-06
2.84265e-06
6.08418e-06
3.05483e-06
4.69117e-06
3.38532e-06
2.73471e-06
4.70514e-06
8.67578e-06
6.80809e-08
5.58021e-06
1.61806e-06
-5.06151e-06
2.50814e-06
-8.49445e-06
3.15705e-06
-7.58481e-06
3.59905e-06
-5.57381e-06
3.883e-06
-3.70919e-06
4.06316e-06
-2.23802e-06
4.1409e-06
-1.05876e-06
4.07444e-06
-5.99518e-08
3.84059e-06
8.81047e-07
3.48972e-06
1.63823e-06
2.9927e-06
2.50049e-06
2.07052e-06
4.14428e-06
4.72696e-07
7.27317e-06
-7.69919e-07
1.02215e-05
2.24077e-06
-4.64955e-06
3.3902e-06
-4.57126e-06
3.7253e-06
-3.26732e-06
3.67193e-06
-1.70151e-06
3.31188e-06
-2.35543e-07
2.60635e-06
1.05881e-06
1.66931e-06
1.99325e-06
2.79739e-07
2.88146e-06
-1.76995e-06
4.17927e-06
-3.83323e-06
5.88594e-06
-4.47016e-06
6.4977e-06
-3.87539e-06
4.38613e-06
-3.31138e-06
1.39629e-09
-3.40883e-06
-1.47273e-06
-3.64568e-06
-5.47463e-07
-3.67538e-06
2.04982e-07
-3.91756e-06
7.34836e-07
-4.71071e-06
1.60124e-06
-5.08232e-06
3.13201e-06
-5.28767e-06
4.11808e-06
-5.30748e-06
3.16726e-06
-5.29898e-06
6.23038e-07
-5.43037e-06
-1.69109e-06
-5.26772e-06
-3.46561e-06
-4.59415e-06
-5.39695e-06
-3.52276e-06
-7.25861e-06
-2.38346e-06
-8.24653e-06
-1.34835e-06
-7.80357e-06
3.42254e-07
-5.50635e-06
1.60321e-06
4.15014e-06
2.20432e-06
9.55282e-06
2.97898e-06
7.21791e-06
3.17052e-06
3.61961e-06
3.16699e-06
1.3918e-06
3.02884e-06
1.98241e-07
2.86056e-06
-5.03279e-07
2.5972e-06
-8.2462e-07
2.24649e-06
-9.43329e-07
1.8421e-06
-9.89653e-07
1.43884e-06
-1.01285e-06
1.03409e-06
-9.28831e-07
4.05835e-07
-8.00187e-07
-3.87973e-07
-6.95905e-07
-8.81737e-07
-3.55865e-07
-1.18536e-07
3.43113e-07
1.33648e-06
3.04245e-06
1.05983e-06
4.46322e-06
3.48137e-07
2.89469e-06
-1.09389e-07
1.14879e-06
3.31059e-07
1.15415e-07
1.13658e-06
-1.24408e-06
1.18846e-06
-2.67591e-07
4.87776e-07
-7.11862e-07
-3.56426e-07
-2.6901e-06
-7.32058e-07
-6.54992e-06
-3.01963e-07
-9.969e-06
3.9489e-08
-4.4673e-06
2.16137e-07
-2.60678e-06
2.67249e-07
-1.15355e-06
1.2376e-07
9.85443e-07
-2.67683e-07
4.12026e-06
-1.08478e-06
8.55315e-06
-2.09097e-06
1.13028e-05
-2.88936e-06
5.51667e-06
-3.09836e-06
-1.42995e-06
-2.92385e-06
-5.74591e-06
-2.77504e-06
-3.89465e-06
-2.37883e-06
-2.78189e-06
-1.68844e-06
-2.66772e-06
-6.33934e-07
-3.24197e-06
7.23748e-07
-4.24712e-06
2.1837e-06
-5.38678e-06
3.28701e-06
-5.94098e-06
4.24233e-06
-5.27416e-06
5.06242e-06
-4.11334e-06
5.71862e-06
-2.69855e-06
6.20079e-06
-1.18472e-06
6.52566e-06
2.74066e-07
6.64153e-06
1.57795e-06
6.54303e-06
2.53734e-06
6.15618e-06
3.2295e-06
5.38075e-06
3.83027e-06
4.1336e-06
4.63247e-06
2.38454e-06
6.4542e-06
1.10603e-05
8.05248e-07
4.77496e-06
1.76977e-06
-6.02604e-06
2.16993e-06
-8.8946e-06
2.06505e-06
-7.47993e-06
1.86453e-06
-5.37329e-06
1.72825e-06
-3.57291e-06
1.69634e-06
-2.20611e-06
1.72891e-06
-1.09133e-06
1.68846e-06
-1.95005e-08
1.59895e-06
9.70557e-07
1.37789e-06
1.85929e-06
8.99332e-07
2.97905e-06
1.29456e-07
4.91416e-06
-7.56852e-07
8.15948e-06
-8.39933e-07
1.03046e-05
1.28571e-06
-6.77519e-06
2.0566e-06
-5.34215e-06
2.1189e-06
-3.32962e-06
1.929e-06
-1.5116e-06
1.35714e-06
3.36315e-07
5.16671e-07
1.89928e-06
-6.90212e-07
3.20013e-06
-2.45327e-06
4.64452e-06
-4.40921e-06
6.13521e-06
-5.64865e-06
7.12538e-06
-5.63336e-06
6.48242e-06
-4.63552e-06
3.38828e-06
-3.81378e-06
-8.20337e-07
-3.74738e-06
-1.53914e-06
-4.20847e-06
-8.63658e-08
-4.55796e-06
5.54466e-07
-4.66984e-06
8.46714e-07
-4.53823e-06
1.46962e-06
-4.17496e-06
2.76874e-06
-4.17835e-06
4.12147e-06
-4.50883e-06
3.49773e-06
-4.85185e-06
9.66057e-07
-5.20901e-06
-1.33393e-06
-5.32523e-06
-3.34939e-06
-5.07428e-06
-5.64789e-06
-4.54108e-06
-7.79181e-06
-4.03304e-06
-8.75458e-06
-3.4901e-06
-8.34651e-06
-2.64855e-06
-6.34789e-06
1.05734e-06
4.44249e-07
2.89045e-06
7.7197e-06
5.05278e-06
5.05558e-06
6.35219e-06
2.3202e-06
7.19494e-06
5.49052e-07
7.75499e-06
-3.61806e-07
7.90482e-06
-6.5311e-07
7.62735e-06
-5.47149e-07
6.97223e-06
-2.88205e-07
6.00431e-06
-2.17328e-08
4.81193e-06
1.79521e-07
3.63305e-06
2.50053e-07
2.63036e-06
2.025e-07
1.77853e-06
1.55927e-07
1.14213e-06
2.80542e-07
9.12441e-07
5.72799e-07
2.28679e-06
1.6681e-06
2.809e-06
3.94101e-06
2.67029e-06
3.0334e-06
2.26811e-06
1.55097e-06
2.17024e-06
2.13286e-07
2.0665e-06
-1.14034e-06
2.52881e-06
-7.299e-07
2.33154e-06
-5.14598e-07
1.18733e-06
-1.54588e-06
-1.84493e-07
-5.1781e-06
-5.76668e-07
-9.57683e-06
-6.65657e-07
-4.37831e-06
-1.02118e-06
-2.25126e-06
-1.26353e-06
-9.11206e-07
-1.44507e-06
1.16698e-06
-1.70041e-06
4.37561e-06
-1.75981e-06
8.61254e-06
-1.84071e-06
1.13837e-05
-2.29584e-06
5.9718e-06
-2.65014e-06
-1.07564e-06
-2.88612e-06
-5.50993e-06
-2.84541e-06
-3.93536e-06
-2.38866e-06
-3.23864e-06
-1.55769e-06
-3.49869e-06
-4.70884e-07
-4.32877e-06
6.58966e-07
-5.37696e-06
1.53378e-06
-6.26159e-06
2.10646e-06
-6.51366e-06
2.69531e-06
-5.86301e-06
3.31388e-06
-4.73191e-06
3.90836e-06
-3.29302e-06
4.4026e-06
-1.67896e-06
4.71627e-06
-3.96058e-08
4.84982e-06
1.44441e-06
4.84973e-06
2.53743e-06
4.66924e-06
3.40999e-06
4.20691e-06
4.2926e-06
3.34645e-06
5.49294e-06
1.98387e-06
7.81677e-06
1.30442e-05
1.25556e-06
3.5194e-06
1.7422e-06
-6.51267e-06
1.41101e-06
-8.56342e-06
5.28826e-07
-6.59774e-06
-1.9923e-07
-4.64524e-06
-6.07802e-07
-3.16434e-06
-8.00366e-07
-2.01354e-06
-9.36003e-07
-9.5569e-07
-1.06783e-06
1.12329e-07
-1.17831e-06
1.08104e-06
-1.38668e-06
2.06766e-06
-1.72583e-06
3.3182e-06
-2.00387e-06
5.1922e-06
-1.59536e-06
7.75096e-06
-4.27373e-07
9.13662e-06
3.88922e-07
-7.59149e-06
5.42067e-07
-5.49529e-06
2.6488e-07
-3.05244e-06
-3.116e-07
-9.35126e-07
-1.06682e-06
1.09154e-06
-1.96695e-06
2.7994e-06
-3.23757e-06
4.47075e-06
-4.80282e-06
6.20977e-06
-6.21791e-06
7.5503e-06
-6.85612e-06
7.76359e-06
-6.39258e-06
6.01888e-06
-5.10638e-06
2.10208e-06
-3.7648e-06
-2.16192e-06
-3.39883e-06
-1.90511e-06
-3.8402e-06
3.55012e-07
-4.39161e-06
1.10588e-06
-4.42756e-06
8.82658e-07
-3.66651e-06
7.08572e-07
-2.33611e-06
1.43834e-06
-1.92585e-06
3.71122e-06
-2.85734e-06
4.42922e-06
-3.7616e-06
1.87032e-06
-4.38385e-06
-7.11672e-07
-4.71834e-06
-3.0149e-06
-4.75693e-06
-5.60931e-06
-4.53266e-06
-8.01608e-06
-4.4578e-06
-8.82944e-06
-4.79946e-06
-8.00485e-06
-5.13908e-06
-6.00828e-06
-1.39975e-06
-3.29508e-06
3.23908e-06
3.08088e-06
6.42376e-06
1.87089e-06
8.49401e-06
2.49962e-07
9.81569e-06
-7.7263e-07
1.0602e-05
-1.14811e-06
1.09383e-05
-9.8946e-07
1.08904e-05
-4.99189e-07
1.04745e-05
1.27681e-07
9.74202e-06
7.10744e-07
8.75502e-06
1.16652e-06
7.55046e-06
1.45461e-06
6.17978e-06
1.57318e-06
4.79019e-06
1.54552e-06
3.61226e-06
1.45847e-06
2.75063e-06
1.43443e-06
2.83488e-06
1.58385e-06
3.53354e-06
3.24235e-06
3.69799e-06
2.86895e-06
3.61301e-06
1.63595e-06
3.54637e-06
2.79921e-07
3.27487e-06
-8.6884e-07
3.38516e-06
-8.40187e-07
3.20896e-06
-3.38397e-07
2.19771e-06
-5.34627e-07
5.91383e-07
-3.57177e-06
-3.5404e-07
-8.6314e-06
-6.58255e-07
-4.0741e-06
-1.34168e-06
-1.56783e-06
-2.00213e-06
-2.50759e-07
-2.50545e-06
1.67031e-06
-2.74765e-06
4.61781e-06
-2.38884e-06
8.25373e-06
-1.61383e-06
1.06087e-05
-1.58094e-06
5.93891e-06
-1.87181e-06
-7.84774e-07
-2.49721e-06
-4.88454e-06
-2.62183e-06
-3.81074e-06
-2.27942e-06
-3.58105e-06
-1.63989e-06
-4.13822e-06
-9.05811e-07
-5.06285e-06
-2.88465e-07
-5.99431e-06
8.52581e-08
-6.63531e-06
3.19269e-07
-6.74767e-06
6.39532e-07
-6.18327e-06
1.07906e-06
-5.17144e-06
1.6022e-06
-3.81616e-06
2.14545e-06
-2.22221e-06
2.53728e-06
-4.3144e-07
2.77342e-06
1.20827e-06
3.00569e-06
2.30516e-06
3.15871e-06
3.25697e-06
3.0834e-06
4.36791e-06
2.61859e-06
5.95774e-06
1.61693e-06
8.81843e-06
1.46611e-05
1.37695e-06
2.14244e-06
1.34106e-06
-6.47678e-06
8.40384e-08
-7.3064e-06
-1.36895e-06
-5.14475e-06
-2.41424e-06
-3.59994e-06
-3.12471e-06
-2.45387e-06
-3.68016e-06
-1.45809e-06
-4.15022e-06
-4.85638e-07
-4.42817e-06
3.90278e-07
-4.55323e-06
1.2061e-06
-4.56788e-06
2.0823e-06
-4.40792e-06
3.15824e-06
-3.82708e-06
4.61137e-06
-2.38333e-06
6.30721e-06
1.24933e-07
6.62835e-06
-1.77288e-08
-7.44883e-06
-6.67637e-07
-4.84539e-06
-1.43129e-06
-2.28879e-06
-2.2662e-06
-1.00211e-07
-2.98762e-06
1.81296e-06
-3.89041e-06
3.70219e-06
-5.06557e-06
5.64592e-06
-6.29018e-06
7.43437e-06
-7.20863e-06
8.46876e-06
-7.40156e-06
7.95652e-06
-6.61588e-06
5.2332e-06
-5.00756e-06
4.93763e-07
-3.13095e-06
-4.03853e-06
-2.52023e-06
-2.51584e-06
-2.68436e-06
5.19149e-07
-3.42958e-06
1.85109e-06
-3.63736e-06
1.09045e-06
-2.61502e-06
-3.13772e-07
-4.87748e-07
-6.88928e-07
7.66029e-07
2.45744e-06
-3.14139e-07
5.50938e-06
-1.78564e-06
3.34182e-06
-2.82559e-06
3.28273e-07
-3.31212e-06
-2.52837e-06
-3.48346e-06
-5.43797e-06
-3.30535e-06
-8.19418e-06
-3.18645e-06
-8.94835e-06
-3.35211e-06
-7.83919e-06
-3.46156e-06
-5.89883e-06
-2.48125e-06
-4.27539e-06
2.2141e-06
-1.61447e-06
5.51117e-06
-1.42618e-06
7.52902e-06
-1.76789e-06
8.77548e-06
-2.01909e-06
9.5974e-06
-1.97002e-06
1.01505e-05
-1.54256e-06
1.0433e-05
-7.81733e-07
1.04023e-05
1.58429e-07
1.0069e-05
1.04401e-06
9.47624e-06
1.75931e-06
8.67447e-06
2.25638e-06
7.7171e-06
2.53055e-06
6.65667e-06
2.60595e-06
5.57513e-06
2.54001e-06
4.59322e-06
2.41634e-06
3.85136e-06
2.32571e-06
4.11597e-06
2.97775e-06
4.30077e-06
2.68415e-06
4.28474e-06
1.65198e-06
4.12547e-06
4.39191e-07
3.83614e-06
-5.7951e-07
3.67836e-06
-6.82405e-07
3.32595e-06
1.40038e-08
2.38499e-06
4.06339e-07
1.14199e-06
-2.32878e-06
7.23073e-08
-7.56172e-06
-3.51317e-07
-3.65047e-06
-1.25262e-06
-6.6653e-07
-2.34111e-06
8.37731e-07
-3.31625e-06
2.64544e-06
-3.71281e-06
5.01437e-06
-3.14597e-06
7.6869e-06
-1.72778e-06
9.19053e-06
-1.09298e-06
5.30411e-06
-1.11057e-06
-7.67184e-07
-2.13679e-06
-3.85832e-06
-2.50471e-06
-3.44282e-06
-2.44058e-06
-3.64518e-06
-2.17801e-06
-4.40079e-06
-1.90063e-06
-5.34023e-06
-1.72615e-06
-6.16879e-06
-1.67049e-06
-6.69098e-06
-1.6598e-06
-6.75836e-06
-1.51837e-06
-6.32471e-06
-1.21942e-06
-5.47039e-06
-7.66521e-07
-4.26906e-06
-1.81349e-07
-2.80738e-06
5.47303e-07
-1.16009e-06
1.16737e-06
5.88205e-07
1.6181e-06
1.85443e-06
2.03874e-06
2.83633e-06
2.23883e-06
4.16782e-06
2.04662e-06
6.14995e-06
1.30634e-06
9.5587e-06
1.59675e-05
1.14665e-06
9.95795e-07
4.68409e-07
-5.79854e-06
-1.56527e-06
-5.27273e-06
-3.39635e-06
-3.31367e-06
-4.82293e-06
-2.17336e-06
-5.97706e-06
-1.29974e-06
-6.88258e-06
-5.52564e-07
-7.46213e-06
9.39116e-08
-7.72221e-06
6.50356e-07
-7.7139e-06
1.19779e-06
-7.40059e-06
1.76899e-06
-6.65545e-06
2.4131e-06
-5.22581e-06
3.18172e-06
-2.78416e-06
3.86557e-06
7.91606e-07
3.05258e-06
-5.50325e-07
-6.10689e-06
-1.67454e-06
-3.72117e-06
-2.67345e-06
-1.28987e-06
-3.52059e-06
7.46928e-07
-4.28843e-06
2.5808e-06
-5.11607e-06
4.52982e-06
-6.02829e-06
6.55814e-06
-6.86553e-06
8.27162e-06
-7.37046e-06
8.97368e-06
-7.23821e-06
7.82427e-06
-6.23571e-06
4.2307e-06
-4.33474e-06
-1.40721e-06
-2.39128e-06
-5.98199e-06
-1.83327e-06
-3.07385e-06
-1.69876e-06
3.84634e-07
-2.29961e-06
2.45194e-06
-2.59751e-06
1.38834e-06
-1.69705e-06
-1.21423e-06
5.73974e-08
-2.44338e-06
2.08605e-06
4.28789e-07
1.61976e-06
5.97567e-06
6.36629e-07
4.32495e-06
-4.64136e-07
1.42904e-06
-1.49128e-06
-1.50122e-06
-1.57574e-06
-5.35352e-06
-1.49634e-06
-8.27357e-06
-1.3998e-06
-9.0449e-06
-1.34128e-06
-7.8977e-06
-1.32336e-06
-5.91676e-06
-8.69822e-07
-4.72892e-06
1.73348e-06
-4.21778e-06
3.9764e-06
-3.66909e-06
5.54675e-06
-3.33824e-06
6.6192e-06
-3.09154e-06
7.38655e-06
-2.73738e-06
8.00828e-06
-2.16429e-06
8.5387e-06
-1.31214e-06
8.9146e-06
-2.17471e-07
9.04481e-06
9.13801e-07
8.91847e-06
1.88565e-06
8.56062e-06
2.61422e-06
8.00817e-06
3.08301e-06
7.30476e-06
3.30935e-06
6.50899e-06
3.33579e-06
5.69709e-06
3.22824e-06
4.95814e-06
3.06466e-06
4.83367e-06
3.10222e-06
4.81934e-06
2.69847e-06
4.68601e-06
1.78532e-06
4.41642e-06
7.08778e-07
4.03779e-06
-2.0088e-07
3.65224e-06
-2.96852e-07
3.06663e-06
5.99609e-07
2.0699e-06
1.40307e-06
1.38212e-06
-1.641e-06
4.36821e-07
-6.61642e-06
-1.59102e-07
-3.05455e-06
-1.48157e-06
6.55938e-07
-2.9273e-06
2.28346e-06
-4.13437e-06
3.85252e-06
-4.60438e-06
5.48438e-06
-3.96916e-06
7.05167e-06
-2.25491e-06
7.47628e-06
-1.06209e-06
4.11129e-06
-9.95694e-07
-8.33576e-07
-2.16497e-06
-2.68904e-06
-2.68212e-06
-2.92567e-06
-2.88425e-06
-3.44305e-06
-2.97876e-06
-4.30629e-06
-3.07362e-06
-5.24536e-06
-3.21507e-06
-6.02734e-06
-3.38587e-06
-6.52017e-06
-3.50754e-06
-6.63669e-06
-3.47754e-06
-6.35471e-06
-3.23967e-06
-5.70826e-06
-2.7647e-06
-4.74402e-06
-2.05507e-06
-3.51702e-06
-1.1394e-06
-2.07576e-06
-9.48332e-08
-4.56362e-07
6.91174e-07
1.06842e-06
1.24353e-06
2.28397e-06
1.56468e-06
3.84667e-06
1.52586e-06
6.18878e-06
9.81376e-07
1.01032e-05
1.69488e-05
6.45337e-07
3.50458e-07
-7.34362e-07
-4.41884e-06
-3.27337e-06
-2.73371e-06
-5.44062e-06
-1.14642e-06
-7.18925e-06
-4.24736e-07
-8.51144e-06
2.24529e-08
-9.41283e-06
3.48826e-07
-9.92548e-06
6.06562e-07
-1.00988e-05
8.23635e-07
-9.90495e-06
1.00397e-06
-9.27086e-06
1.13491e-06
-8.0542e-06
1.19643e-06
-5.991e-06
1.11852e-06
-2.92126e-06
7.95832e-07
3.16442e-07
-1.85118e-07
-1.78851e-06
-4.00194e-06
-2.95838e-06
-2.55131e-06
-3.7463e-06
-5.0194e-07
-4.41153e-06
1.41215e-06
-5.01865e-06
3.18792e-06
-5.6267e-06
5.13787e-06
-6.20481e-06
7.13625e-06
-6.64944e-06
8.71625e-06
-6.80239e-06
9.12663e-06
-6.45342e-06
7.4753e-06
-5.33021e-06
3.1075e-06
-3.38138e-06
-3.35604e-06
-1.9384e-06
-7.42497e-06
-1.64895e-06
-3.3633e-06
-1.68124e-06
4.16927e-07
-1.97631e-06
2.74702e-06
-2.04035e-06
1.45238e-06
-1.33308e-06
-1.92151e-06
-6.23406e-07
-3.15304e-06
9.91789e-07
-1.18641e-06
1.98903e-06
4.97843e-06
1.97841e-06
4.33557e-06
1.54354e-06
1.86391e-06
7.81752e-07
-7.39433e-07
6.30649e-07
-5.20241e-06
5.03089e-07
-8.14601e-06
3.90364e-07
-8.93217e-06
3.60444e-07
-7.86778e-06
3.95641e-07
-5.95196e-06
5.57786e-07
-4.89107e-06
1.58465e-06
-5.24464e-06
2.96763e-06
-5.05208e-06
4.22885e-06
-4.59946e-06
5.19307e-06
-4.05576e-06
5.86678e-06
-3.41108e-06
6.37002e-06
-2.66754e-06
6.83782e-06
-1.77994e-06
7.29829e-06
-6.7794e-07
7.65383e-06
5.58261e-07
7.82357e-06
1.71591e-06
7.78871e-06
2.64908e-06
7.56352e-06
3.3082e-06
7.1782e-06
3.69468e-06
6.67749e-06
3.83649e-06
6.1222e-06
3.78353e-06
5.59102e-06
3.59584e-06
5.31879e-06
3.37446e-06
5.14119e-06
2.87608e-06
4.89329e-06
2.03322e-06
4.53678e-06
1.06529e-06
4.05786e-06
2.78031e-07
3.48727e-06
2.7374e-07
2.6958e-06
1.39108e-06
1.54423e-06
2.55465e-06
1.37029e-06
-1.46706e-06
6.95791e-07
-5.94192e-06
-2.70495e-07
-2.08826e-06
-1.92206e-06
2.3075e-06
-3.50432e-06
3.86573e-06
-4.73299e-06
5.08119e-06
-5.2183e-06
5.96969e-06
-4.63121e-06
6.46458e-06
-3.00872e-06
5.85379e-06
-1.75375e-06
2.85632e-06
-1.94147e-06
-6.45864e-07
-2.73986e-06
-1.89065e-06
-3.14509e-06
-2.52044e-06
-3.41521e-06
-3.17293e-06
-3.69948e-06
-4.02202e-06
-4.02217e-06
-4.92267e-06
-4.3759e-06
-5.67361e-06
-4.72501e-06
-6.17106e-06
-4.99394e-06
-6.36776e-06
-5.09408e-06
-6.25456e-06
-4.94837e-06
-5.85397e-06
-4.50403e-06
-5.18837e-06
-3.74641e-06
-4.27464e-06
-2.70993e-06
-3.11224e-06
-1.47129e-06
-1.695e-06
-3.58409e-07
-4.44543e-08
2.83634e-07
1.64193e-06
6.96989e-07
3.43331e-06
7.82648e-07
6.10312e-06
5.15661e-07
1.03702e-05
1.74645e-05
2.80153e-07
7.03057e-08
-1.79329e-06
-2.3454e-06
-4.65436e-06
1.27363e-07
-6.90803e-06
1.10724e-06
-8.59423e-06
1.26147e-06
-9.82491e-06
1.25313e-06
-1.06774e-05
1.20135e-06
-1.11806e-05
1.10969e-06
-1.13202e-05
9.63248e-07
-1.10634e-05
7.47247e-07
-1.03743e-05
4.4577e-07
-9.21888e-06
4.10076e-08
-7.58861e-06
-5.11749e-07
-5.57182e-06
-1.22096e-06
-3.44771e-06
-2.30923e-06
-4.14893e-06
-3.30072e-06
-4.43682e-06
-2.26342e-06
-4.62202e-06
-3.16742e-07
-4.90954e-06
1.69968e-06
-5.24876e-06
3.52714e-06
-5.56412e-06
5.45323e-06
-5.79545e-06
7.36758e-06
-5.87829e-06
8.79909e-06
-5.73485e-06
8.98319e-06
-5.25024e-06
6.99069e-06
-4.28085e-06
2.1381e-06
-2.41299e-06
-5.22389e-06
-1.83977e-06
-7.9982e-06
-1.97662e-06
-3.22644e-06
-2.38115e-06
8.21453e-07
-2.49785e-06
2.86372e-06
-2.27052e-06
1.22505e-06
-1.91892e-06
-2.27311e-06
-1.73719e-06
-3.33478e-06
-6.66245e-07
-2.25735e-06
1.75466e-06
2.55753e-06
1.97594e-06
4.11429e-06
1.66963e-06
2.17022e-06
2.10833e-06
-1.17813e-06
2.28614e-06
-5.38023e-06
2.14408e-06
-8.00395e-06
1.90866e-06
-8.69674e-06
1.67633e-06
-7.63545e-06
1.53326e-06
-5.80889e-06
1.51231e-06
-4.87012e-06
1.86287e-06
-5.5952e-06
2.74189e-06
-5.9311e-06
3.78278e-06
-5.64035e-06
4.64908e-06
-4.92207e-06
5.20364e-06
-3.96564e-06
5.50092e-06
-2.96482e-06
5.70241e-06
-1.98143e-06
5.9558e-06
-9.31332e-07
6.28129e-06
2.32775e-07
6.56431e-06
1.43289e-06
6.72776e-06
2.48563e-06
6.74411e-06
3.29184e-06
6.61847e-06
3.82033e-06
6.37752e-06
4.07744e-06
6.06306e-06
4.09799e-06
5.72595e-06
3.93294e-06
5.46396e-06
3.63645e-06
5.22826e-06
3.11177e-06
4.92833e-06
2.33315e-06
4.52116e-06
1.47246e-06
3.96733e-06
8.31859e-07
3.25846e-06
9.82607e-07
2.2987e-06
2.35084e-06
1.00247e-06
3.85088e-06
1.22098e-06
-1.68557e-06
7.64566e-07
-5.48551e-06
-5.77939e-07
-7.45756e-07
-2.1532e-06
3.88276e-06
-3.68561e-06
5.39814e-06
-4.88771e-06
6.28329e-06
-5.40677e-06
6.48875e-06
-4.99178e-06
6.04959e-06
-3.79149e-06
4.6535e-06
-2.97402e-06
2.03886e-06
-3.30991e-06
-3.09981e-07
-3.63625e-06
-1.5643e-06
-3.71401e-06
-2.44269e-06
-3.77452e-06
-3.11242e-06
-4.03955e-06
-3.75699e-06
-4.47779e-06
-4.48443e-06
-4.98734e-06
-5.16406e-06
-5.50394e-06
-5.65446e-06
-5.95343e-06
-5.91827e-06
-6.25539e-06
-5.9526e-06
-6.32602e-06
-5.78334e-06
-6.09798e-06
-5.41641e-06
-5.53193e-06
-4.84068e-06
-4.63481e-06
-4.00936e-06
-3.47598e-06
-2.85383e-06
-2.21524e-06
-1.3052e-06
-1.25307e-06
6.79756e-07
-7.10887e-07
2.89113e-06
-3.69793e-07
5.76202e-06
-2.08739e-07
1.02091e-05
1.72558e-05
1.68955e-07
-9.86488e-08
-2.30346e-06
1.27023e-07
-4.95829e-06
2.78218e-06
-7.03466e-06
3.18362e-06
-8.70443e-06
2.93124e-06
-1.00023e-05
2.55102e-06
-1.09338e-05
2.1328e-06
-1.15064e-05
1.68237e-06
-1.17286e-05
1.1854e-06
-1.16061e-05
6.24754e-07
-1.11404e-05
-1.99124e-08
-1.03341e-05
-7.65357e-07
-9.21132e-06
-1.63448e-06
-7.83829e-06
-2.594e-06
-6.64237e-06
-3.50514e-06
-6.17371e-06
-3.76938e-06
-5.67765e-06
-2.75949e-06
-5.2207e-06
-7.73683e-07
-5.04801e-06
1.52698e-06
-5.06951e-06
3.54863e-06
-5.08761e-06
5.47134e-06
-5.00912e-06
7.28908e-06
-4.79046e-06
8.58043e-06
-4.42261e-06
8.61534e-06
-3.86178e-06
6.42985e-06
-3.07562e-06
1.35194e-06
-1.9669e-06
-6.3326e-06
-2.13249e-06
-7.83262e-06
-2.56202e-06
-2.79691e-06
-3.14037e-06
1.39981e-06
-3.20082e-06
2.92416e-06
-3.0919e-06
1.11614e-06
-3.30208e-06
-2.06293e-06
-3.55944e-06
-3.07742e-06
-3.21219e-06
-2.60459e-06
-1.12443e-07
-5.4222e-07
1.4575e-06
2.54435e-06
1.37165e-06
2.25607e-06
2.57281e-06
-2.3793e-06
3.15172e-06
-5.95913e-06
3.14667e-06
-7.99891e-06
2.87857e-06
-8.42865e-06
2.4727e-06
-7.22958e-06
2.13622e-06
-5.47241e-06
2.09073e-06
-4.82463e-06
2.33869e-06
-5.84316e-06
3.01248e-06
-6.60489e-06
3.89439e-06
-6.52225e-06
4.66353e-06
-5.69121e-06
5.12837e-06
-4.43047e-06
5.27551e-06
-3.11197e-06
5.2263e-06
-1.93222e-06
5.19293e-06
-8.97958e-07
5.30878e-06
1.16917e-07
5.54148e-06
1.20019e-06
5.77428e-06
2.25283e-06
5.92949e-06
3.13663e-06
5.97994e-06
3.76987e-06
5.9292e-06
4.12819e-06
5.7969e-06
4.23028e-06
5.60862e-06
4.12122e-06
5.40644e-06
3.83863e-06
5.17463e-06
3.34358e-06
4.86454e-06
2.64325e-06
4.43105e-06
1.90595e-06
3.82256e-06
1.44035e-06
3.01282e-06
1.79234e-06
1.93808e-06
3.42558e-06
5.89433e-07
5.19953e-06
9.97389e-07
-2.09352e-06
6.53096e-07
-5.14122e-06
-7.11514e-07
6.18853e-07
-2.05248e-06
5.22373e-06
-3.41337e-06
6.75902e-06
-4.57883e-06
7.44875e-06
-5.20852e-06
7.11844e-06
-5.12825e-06
5.96932e-06
-4.58351e-06
4.10875e-06
-4.37061e-06
1.82596e-06
-4.59473e-06
-8.58627e-08
-4.58233e-06
-1.5767e-06
-4.24414e-06
-2.78089e-06
-3.83261e-06
-3.52395e-06
-3.81317e-06
-3.77642e-06
-4.28451e-06
-4.01309e-06
-4.92356e-06
-4.52502e-06
-5.59725e-06
-4.98077e-06
-6.23561e-06
-5.27991e-06
-6.7833e-06
-5.40491e-06
-7.16894e-06
-5.3977e-06
-7.32398e-06
-5.26138e-06
-7.18216e-06
-4.9825e-06
-6.70349e-06
-4.48803e-06
-5.89423e-06
-3.6631e-06
-4.8253e-06
-2.37412e-06
-3.65377e-06
-4.91779e-07
-2.72482e-06
1.96218e-06
-1.95901e-06
4.99621e-06
-1.15758e-06
9.40769e-06
1.60982e-05
-2.26641e-07
1.27992e-07
-2.50175e-06
2.40214e-06
-4.57817e-06
4.8586e-06
-6.49434e-06
5.09979e-06
-8.13807e-06
4.57497e-06
-9.45212e-06
3.86506e-06
-1.04287e-05
3.10938e-06
-1.10784e-05
2.33206e-06
-1.14169e-05
1.5239e-06
-1.14574e-05
6.65232e-07
-1.11918e-05
-2.85473e-07
-1.06733e-05
-1.2839e-06
-9.93149e-06
-2.37625e-06
-9.04899e-06
-3.4765e-06
-8.20054e-06
-4.3536e-06
-7.42215e-06
-4.54776e-06
-6.51856e-06
-3.66308e-06
-5.56398e-06
-1.72826e-06
-4.84367e-06
8.06676e-07
-4.52791e-06
3.23287e-06
-4.30224e-06
5.24568e-06
-4.00198e-06
6.98882e-06
-3.57079e-06
8.14924e-06
-3.06629e-06
8.11084e-06
-2.58367e-06
5.94723e-06
-1.96695e-06
7.35224e-07
-1.91409e-06
-6.38546e-06
-2.38208e-06
-7.36463e-06
-2.83259e-06
-2.3464e-06
-3.20805e-06
1.77527e-06
-3.45315e-06
3.16926e-06
-3.8916e-06
1.55459e-06
-4.5911e-06
-1.36343e-06
-5.09949e-06
-2.56903e-06
-4.74981e-06
-2.95428e-06
-2.63755e-06
-2.65449e-06
3.99345e-07
-4.92545e-07
1.30916e-06
1.34625e-06
2.87295e-06
-3.94308e-06
3.44217e-06
-6.52835e-06
3.44648e-06
-8.00321e-06
3.16888e-06
-8.15105e-06
2.63649e-06
-6.69719e-06
2.2179e-06
-5.05383e-06
2.34333e-06
-4.95006e-06
2.74771e-06
-6.24753e-06
3.35832e-06
-7.2155e-06
4.08181e-06
-7.24574e-06
4.72389e-06
-6.33329e-06
5.11406e-06
-4.82064e-06
5.22925e-06
-3.22716e-06
5.15384e-06
-1.85681e-06
5.03138e-06
-7.75496e-07
4.97909e-06
1.69209e-07
5.04978e-06
1.1295e-06
5.20506e-06
2.09755e-06
5.36621e-06
2.97549e-06
5.47776e-06
3.65832e-06
5.51817e-06
4.08777e-06
5.4878e-06
4.26065e-06
5.39175e-06
4.21728e-06
5.24438e-06
3.986e-06
5.03718e-06
3.55078e-06
4.73422e-06
2.9462e-06
4.2832e-06
2.35697e-06
3.62864e-06
2.09491e-06
2.74948e-06
2.6715e-06
1.61824e-06
4.55683e-06
3.28622e-07
6.48914e-06
7.51243e-07
-2.51614e-06
4.4308e-07
-4.83306e-06
-5.47537e-07
1.60947e-06
-1.62464e-06
6.30083e-06
-2.73121e-06
7.86559e-06
-3.84266e-06
8.5602e-06
-4.66433e-06
7.94011e-06
-5.0392e-06
6.3442e-06
-5.16565e-06
4.2352e-06
-5.40354e-06
2.06386e-06
-5.56301e-06