/*--------------------------------*- C++ -*----------------------------------*\
| =========                 |                                                 |
| \\      /  F ield         | OpenFOAM: The Open Source CFD Toolbox           |
|  \\    /   O peration     | Version:  4.1                                   |
|   \\  /    A nd           | Web:      www.OpenFOAM.org                      |
|    \\/     M anipulation  |                                                 |
\*---------------------------------------------------------------------------*/
FoamFile
{
    version     2.0;
    format      ascii;
    class       surfaceScalarField;
    location    "1780";
    object      phi;
}
// * * * * * * * * * * * * * * * * * * * * * * * * * * * * * * * * * * * * * //

dimensions      [0 3 -1 0 0 0 0];

internalField   nonuniform List<scalar> 
9850
(
-4.20119e-06
4.20119e-06
-4.98128e-06
7.80092e-07
-4.4629e-06
-5.18387e-07
-3.96192e-06
-5.00974e-07
-3.57375e-06
-3.88174e-07
-3.23273e-06
-3.41016e-07
-2.90562e-06
-3.27112e-07
-2.58341e-06
-3.22209e-07
-2.26315e-06
-3.20265e-07
-1.94056e-06
-3.22586e-07
-1.60914e-06
-3.31416e-07
-1.26136e-06
-3.47779e-07
-8.90025e-07
-3.71339e-07
-4.89026e-07
-4.00999e-07
-5.39281e-08
-4.35098e-07
4.21032e-07
-4.7496e-07
9.44955e-07
-5.23923e-07
1.4972e-06
-5.52249e-07
2.05347e-06
-5.56269e-07
2.57483e-06
-5.21359e-07
3.06539e-06
-4.90557e-07
3.52477e-06
-4.59383e-07
3.95056e-06
-4.2579e-07
4.34067e-06
-3.90111e-07
4.69408e-06
-3.53409e-07
5.01125e-06
-3.17173e-07
5.29427e-06
-2.83018e-07
5.54661e-06
-2.52338e-07
5.77274e-06
-2.26126e-07
5.97768e-06
-2.04939e-07
6.1666e-06
-1.88928e-07
6.34452e-06
-1.77917e-07
6.51599e-06
-1.71467e-07
6.68494e-06
-1.68953e-07
6.85455e-06
-1.69612e-07
7.02715e-06
-1.72602e-07
7.20419e-06
-1.7704e-07
7.38624e-06
-1.82046e-07
7.57302e-06
-1.86779e-07
7.76348e-06
-1.90464e-07
7.9559e-06
-1.92414e-07
8.14794e-06
-1.92043e-07
8.33681e-06
-1.88872e-07
8.51934e-06
-1.82525e-07
8.69206e-06
-1.72726e-07
8.85135e-06
-1.59287e-07
8.99346e-06
-1.42108e-07
9.11464e-06
-1.21184e-07
9.21129e-06
-9.66518e-08
9.28024e-06
-6.89479e-08
9.31937e-06
-3.91276e-08
9.32776e-06
-8.38743e-09
9.30757e-06
2.01867e-08
9.25739e-06
5.01828e-08
9.17592e-06
8.14705e-08
9.06182e-06
1.14095e-07
8.91364e-06
1.48179e-07
8.72909e-06
1.84551e-07
8.50291e-06
2.26183e-07
8.22095e-06
2.81963e-07
7.84286e-06
3.78087e-07
7.24719e-06
5.95672e-07
6.03901e-06
1.20818e-06
3.04192e-06
2.99708e-06
-2.20228e-06
5.2442e-06
-5.24529e-06
3.04301e-06
-5.64168e-06
3.96395e-07
-5.417e-06
-2.24683e-07
-5.14394e-06
-2.73053e-07
-4.87305e-06
-2.70895e-07
-4.58273e-06
-2.90322e-07
-4.25256e-06
-3.30167e-07
-3.87067e-06
-3.81891e-07
-3.43371e-06
-4.3696e-07
-2.94665e-06
-4.87062e-07
-2.42144e-06
-5.25205e-07
-1.87458e-06
-5.4686e-07
-1.32387e-06
-5.50715e-07
-7.85326e-07
-5.38542e-07
-2.70975e-07
-5.14351e-07
2.13985e-07
-4.8496e-07
6.70991e-07
-4.57005e-07
1.09499e-06
-4.24001e-07
1.48409e-06
-3.89096e-07
1.83315e-06
-3.49065e-07
2.13375e-06
-3.00595e-07
2.37602e-06
-2.42268e-07
2.54865e-06
-1.72631e-07
2.63913e-06
-9.04781e-08
2.62602e-06
1.31032e-08
2.48969e-06
1.36333e-07
2.19822e-06
2.91465e-07
1.81436e-06
3.83865e-07
1.49867e-06
3.15685e-07
1.32011e-06
1.7856e-07
1.25857e-06
6.15455e-08
1.39795e-06
-1.39378e-07
2.26729e-06
-8.69348e-07
3.00895e-06
-7.41653e-07
3.00895e-06
-3.07113e-06
7.27233e-06
-3.84737e-06
1.55633e-06
-3.71822e-06
-6.47541e-07
-3.52217e-06
-6.97019e-07
-3.283e-06
-6.27344e-07
-3.02978e-06
-5.94242e-07
-2.77043e-06
-5.86461e-07
-2.50281e-06
-5.89831e-07
-2.22268e-06
-6.00389e-07
-1.9256e-06
-6.19673e-07
-1.60708e-06
-6.49932e-07
-1.26285e-06
-6.92015e-07
-8.89025e-07
-7.45159e-07
-4.81898e-07
-8.08127e-07
-3.6301e-08
-8.80695e-07
4.43474e-07
-9.54735e-07
9.38595e-07
-1.01904e-06
1.44338e-06
-1.05704e-06
1.949e-06
-1.06188e-06
2.45786e-06
-1.03022e-06
2.94976e-06
-9.82466e-07
3.41808e-06
-9.27702e-07
3.8587e-06
-8.66407e-07
4.26936e-06
-8.00772e-07
4.64974e-06
-7.33793e-07
5.00108e-06
-6.68504e-07
5.3258e-06
-6.07745e-07
5.6273e-06
-5.5384e-07
5.90955e-06
-5.08376e-07
6.17675e-06
-4.72134e-07
6.43299e-06
-4.4517e-07
6.68204e-06
-4.26968e-07
6.92717e-06
-4.16596e-07
7.17106e-06
-4.12842e-07
7.41577e-06
-4.14317e-07
7.6627e-06
-4.19532e-07
7.91263e-06
-4.2697e-07
8.16571e-06
-4.3513e-07
8.42151e-06
-4.4258e-07
8.67904e-06
-4.47991e-07
8.93679e-06
-4.50168e-07
9.19282e-06
-4.48071e-07
9.44478e-06
-4.40826e-07
9.68998e-06
-4.27727e-07
9.92548e-06
-4.08225e-07
1.01481e-05
-3.81924e-07
1.03546e-05
-3.48577e-07
1.05415e-05
-3.08102e-07
1.07055e-05
-2.60675e-07
1.08435e-05
-2.06962e-07
1.09528e-05
-1.48398e-07
1.103e-05
-8.56143e-08
1.10677e-05
-1.74518e-08
1.10615e-05
5.63257e-08
1.10076e-05
1.35406e-07
1.09018e-05
2.19929e-07
1.07394e-05
3.10534e-07
1.05141e-05
4.09828e-07
1.02149e-05
5.25459e-07
9.81925e-06
6.77567e-07
9.27883e-06
9.18505e-07
8.48569e-06
1.38881e-06
7.21003e-06
2.48384e-06
5.0603e-06
5.14682e-06
1.21917e-06
9.08533e-06
-3.28189e-06
7.54406e-06
-4.49675e-06
1.61126e-06
-4.61082e-06
-1.10622e-07
-4.48115e-06
-4.02713e-07
-4.26095e-06
-4.91096e-07
-3.9877e-06
-5.63575e-07
-3.66823e-06
-6.49637e-07
-3.29942e-06
-7.50705e-07
-2.87901e-06
-8.57367e-07
-2.41058e-06
-9.55488e-07
-1.90474e-06
-1.03105e-06
-1.37728e-06
-1.07432e-06
-8.4544e-07
-1.08255e-06
-3.24027e-07
-1.05996e-06
1.79529e-07
-1.01791e-06
6.64023e-07
-9.69455e-07
1.1209e-06
-9.13883e-07
1.55219e-06
-8.55293e-07
1.9557e-06
-7.92604e-07
2.32718e-06
-7.20542e-07
2.65735e-06
-6.30766e-07
2.93052e-06
-5.1544e-07
3.12883e-06
-3.70942e-07
3.23847e-06
-2.0012e-07
3.26495e-06
-1.33735e-08
3.20881e-06
1.92472e-07
3.0862e-06
4.14073e-07
2.8946e-06
5.75464e-07
2.62758e-06
5.8271e-07
2.34131e-06
4.64828e-07
2.13883e-06
2.64025e-07
2.08768e-06
-8.8229e-08
1.99734e-06
-7.79004e-07
2.13552e-06
-8.79841e-07
5.14447e-06
-2.06221e-06
9.33454e-06
-2.6424e-06
2.13652e-06
-2.89748e-06
-3.92467e-07
-2.93555e-06
-6.58949e-07
-2.86001e-06
-7.02885e-07
-2.72779e-06
-7.26459e-07
-2.56616e-06
-7.48088e-07
-2.38499e-06
-7.71005e-07
-2.18504e-06
-8.00331e-07
-1.96302e-06
-8.417e-07
-1.71421e-06
-8.98739e-07
-1.43412e-06
-9.72102e-07
-1.1194e-06
-1.05988e-06
-7.68763e-07
-1.15876e-06
-3.84377e-07
-1.26508e-06
3.48783e-08
-1.37399e-06
4.83633e-07
-1.4678e-06
9.53234e-07
-1.52664e-06
1.43587e-06
-1.54453e-06
1.92504e-06
-1.51938e-06
2.40883e-06
-1.46626e-06
2.87614e-06
-1.39501e-06
3.31971e-06
-1.30998e-06
3.73513e-06
-1.21619e-06
4.12039e-06
-1.11905e-06
4.47567e-06
-1.02378e-06
4.803e-06
-9.35074e-07
5.1058e-06
-8.56636e-07
5.38835e-06
-7.90929e-07
5.6553e-06
-7.39086e-07
5.91122e-06
-7.01086e-07
6.16029e-06
-6.76041e-07
6.40616e-06
-6.62468e-07
6.65182e-06
-6.58504e-07
6.89957e-06
-6.62061e-07
7.15097e-06
-6.7093e-07
7.40687e-06
-6.82874e-07
7.66743e-06
-6.95687e-07
7.93211e-06
-7.07265e-07
8.19978e-06
-7.15656e-07
8.46872e-06
-7.19112e-07
8.73677e-06
-7.1612e-07
9.00137e-06
-7.05422e-07
9.25966e-06
-6.86017e-07
9.50858e-06
-6.5715e-07
9.74494e-06
-6.18284e-07
9.96544e-06
-5.69077e-07
1.01667e-05
-5.0936e-07
1.03452e-05
-4.3914e-07
1.04968e-05
-3.58616e-07
1.06166e-05
-2.68131e-07
1.06987e-05
-1.67731e-07
1.07377e-05
-5.65265e-08
1.07278e-05
6.62519e-08
1.06629e-05
2.00344e-07
1.0537e-05
3.45774e-07
1.03438e-05
5.03727e-07
1.00756e-05
6.7808e-07
9.72223e-06
8.78816e-07
9.26963e-06
1.13017e-06
8.69748e-06
1.49065e-06
7.97955e-06
2.10675e-06
7.09033e-06
3.37306e-06
5.93748e-06
6.29966e-06
4.10686e-06
1.0916e-05
2.5921e-07
1.13917e-05
-3.06163e-06
4.9321e-06
-3.56884e-06
3.96589e-07
-3.62988e-06
-3.41666e-07
-3.54175e-06
-5.79225e-07
-3.3569e-06
-7.48433e-07
-3.0902e-06
-9.16332e-07
-2.74721e-06
-1.0937e-06
-2.33561e-06
-1.26896e-06
-1.86879e-06
-1.42231e-06
-1.36589e-06
-1.53395e-06
-8.48763e-07
-1.59145e-06
-3.36861e-07
-1.59446e-06
1.58804e-07
-1.55562e-06
6.33242e-07
-1.49234e-06
1.08323e-06
-1.41945e-06
1.51621e-06
-1.34686e-06
1.93906e-06
-1.27814e-06
2.35509e-06
-1.20863e-06
2.76095e-06
-1.1264e-06
3.1445e-06
-1.01431e-06
3.48564e-06
-8.56588e-07
3.75923e-06
-6.44528e-07
3.9395e-06
-3.80386e-07
4.00541e-06
-7.92854e-08
3.96401e-06
2.33871e-07
3.84983e-06
5.28256e-07
3.66707e-06
7.58221e-07
3.38206e-06
8.67718e-07
3.00244e-06
8.44453e-07
2.57647e-06
6.89992e-07
2.13913e-06
3.49106e-07
1.63606e-06
-2.7593e-07
1.28605e-06
-5.29829e-07
6.43052e-06
-1.59203e-06
1.09266e-05
-2.05828e-06
2.60276e-06
-2.38273e-06
-6.80168e-08
-2.53102e-06
-5.10659e-07
-2.56768e-06
-6.6622e-07
-2.54195e-06
-7.52191e-07
-2.48104e-06
-8.09003e-07
-2.39529e-06
-8.56749e-07
-2.28505e-06
-9.10576e-07
-2.14588e-06
-9.80868e-07
-1.9721e-06
-1.07252e-06
-1.7588e-06
-1.1854e-06
-1.50301e-06
-1.31567e-06
-1.20444e-06
-1.45734e-06
-8.66235e-07
-1.60328e-06
-4.95076e-07
-1.74515e-06
-9.0267e-08
-1.87261e-06
3.51432e-07
-1.96834e-06
8.19685e-07
-2.01278e-06
1.30154e-06
-2.00124e-06
1.78435e-06
-1.94907e-06
2.2559e-06
-1.86656e-06
2.70617e-06
-1.76026e-06
3.1286e-06
-1.63862e-06
3.51965e-06
-1.5101e-06
3.87852e-06
-1.38265e-06
4.20694e-06
-1.2635e-06
4.50864e-06
-1.15834e-06
4.78863e-06
-1.07092e-06
5.05244e-06
-1.00289e-06
5.30551e-06
-9.5415e-07
5.55279e-06
-9.23326e-07
5.79857e-06
-9.08244e-07
6.04629e-06
-9.06226e-07
6.29853e-06
-9.14296e-07
6.55692e-06
-9.29329e-07
6.82221e-06
-9.48165e-07
7.09423e-06
-9.67703e-07
7.37197e-06
-9.85007e-07
7.65371e-06
-9.97394e-07
7.9371e-06
-1.0025e-06
8.21934e-06
-9.98356e-07
8.49728e-06
-9.83358e-07
8.76757e-06
-9.56313e-07
9.0268e-06
-9.16373e-07
9.2715e-06
-8.62993e-07
9.49829e-06
-7.95863e-07
9.70377e-06
-7.14844e-07
9.88453e-06
-6.19892e-07
1.00369e-05
-5.1098e-07
1.01567e-05
-3.8796e-07
1.02393e-05
-2.50288e-07
1.02794e-05
-9.66844e-08
1.02713e-05
7.44002e-08
1.02076e-05
2.64013e-07
1.00805e-05
4.729e-07
9.88131e-06
7.02904e-07
9.60106e-06
9.58333e-07
9.23111e-06
1.24877e-06
8.76545e-06
1.59584e-06
8.20676e-06
2.04933e-06
7.58215e-06
2.73136e-06
6.97208e-06
3.98312e-06
6.44996e-06
6.82179e-06
5.5997e-06
1.17662e-05
3.43152e-06
1.35599e-05
-8.02238e-07
9.16586e-06
-2.92868e-06
2.52303e-06
-3.03078e-06
-2.39563e-07
-2.97806e-06
-6.31947e-07
-2.83304e-06
-8.93452e-07
-2.59224e-06
-1.15713e-06
-2.264e-06
-1.42195e-06
-1.86247e-06
-1.67049e-06
-1.40853e-06
-1.87625e-06
-9.28732e-07
-2.01374e-06
-4.49795e-07
-2.07039e-06
9.96605e-09
-2.05422e-06
4.41639e-07
-1.98729e-06
8.48299e-07
-1.89901e-06
1.24226e-06
-1.81341e-06
1.63964e-06
-1.74424e-06
2.05336e-06
-1.69186e-06
2.48876e-06
-1.64403e-06
2.94118e-06
-1.57882e-06
3.39298e-06
-1.46611e-06
3.8167e-06
-1.28031e-06
4.17964e-06
-1.00747e-06
4.44866e-06
-6.49404e-07
4.59655e-06
-2.2718e-07
4.61095e-06
2.19473e-07
4.50321e-06
6.35998e-07
4.28075e-06
9.80686e-07
3.93983e-06
1.20863e-06
3.48891e-06
1.29538e-06
2.95332e-06
1.22558e-06
2.33732e-06
9.65107e-07
1.62422e-06
4.37162e-07
1.01224e-06
8.21581e-08
7.44276e-06
-1.29935e-06
1.22259e-05
-1.71578e-06
3.0192e-06
-2.05058e-06
2.66779e-07
-2.26862e-06
-2.92613e-07
-2.39415e-06
-5.40691e-07
-2.46581e-06
-6.80528e-07
-2.50451e-06
-7.70306e-07
-2.51566e-06
-8.45604e-07
-2.49582e-06
-9.30416e-07
-2.4381e-06
-1.03858e-06
-2.33561e-06
-1.17501e-06
-2.18329e-06
-1.33773e-06
-1.97866e-06
-1.5203e-06
-1.72219e-06
-1.71381e-06
-1.41743e-06
-1.90804e-06
-1.07065e-06
-2.09193e-06
-6.89571e-07
-2.25369e-06
-2.76153e-07
-2.38175e-06
1.76784e-07
-2.46571e-06
6.58698e-07
-2.48315e-06
1.14507e-06
-2.43543e-06
1.6243e-06
-2.3458e-06
2.08456e-06
-2.22051e-06
2.51744e-06
-2.0715e-06
2.91793e-06
-1.9106e-06
3.2841e-06
-1.74882e-06
3.61732e-06
-1.59673e-06
3.92176e-06
-1.46278e-06
4.20349e-06
-1.35264e-06
4.46928e-06
-1.26868e-06
4.72572e-06
-1.2106e-06
4.97873e-06
-1.17634e-06
5.23324e-06
-1.16275e-06
5.49304e-06
-1.16603e-06
5.76073e-06
-1.18199e-06
6.03766e-06
-1.20627e-06
6.32399e-06
-1.23449e-06
6.61874e-06
-1.26245e-06
6.91998e-06
-1.28624e-06
7.22498e-06
-1.30239e-06
7.53045e-06
-1.30798e-06
7.83274e-06
-1.30064e-06
8.12801e-06
-1.27863e-06
8.4124e-06
-1.24071e-06
8.68215e-06
-1.18612e-06
8.93365e-06
-1.11449e-06
9.16349e-06
-1.02571e-06
9.36846e-06
-9.19806e-07
9.54543e-06
-7.96865e-07
9.6913e-06
-6.56855e-07
9.80282e-06
-4.99479e-07
9.87649e-06
-3.23952e-07
9.90856e-06
-1.28755e-07
9.8945e-06
8.84526e-08
9.82835e-06
3.30167e-07
9.70263e-06
5.98625e-07
9.50872e-06
8.96805e-07
9.23772e-06
1.22934e-06
8.88216e-06
1.60433e-06
8.4399e-06
2.03809e-06
7.92231e-06
2.56692e-06
7.37207e-06
3.2816e-06
6.89975e-06
4.45544e-06
6.68834e-06
7.03321e-06
6.47587e-06
1.19787e-05
5.19913e-06
1.48366e-05
1.94719e-06
1.24178e-05
-1.81803e-06
6.28825e-06
-2.47458e-06
4.16993e-07
-2.52689e-06
-5.79638e-07
-2.41198e-06
-1.00836e-06
-2.18499e-06
-1.38413e-06
-1.86869e-06
-1.73825e-06
-1.48369e-06
-2.05549e-06
-1.05827e-06
-2.30167e-06
-6.26925e-07
-2.44508e-06
-2.19612e-07
-2.4777e-06
1.49931e-07
-2.42376e-06
4.85779e-07
-2.32314e-06
8.07004e-07
-2.22023e-06
1.13943e-06
-2.14583e-06
1.50604e-06
-2.11085e-06
1.9233e-06
-2.10912e-06
2.3941e-06
-2.11483e-06
2.90697e-06
-2.09169e-06
3.43497e-06
-1.99411e-06
3.9432e-06
-1.78854e-06
4.39326e-06
-1.45753e-06
4.74608e-06
-1.00222e-06
4.96704e-06
-4.48145e-07
5.03463e-06
1.51886e-07
4.94463e-06
7.26001e-07
4.70552e-06
1.21979e-06
4.32523e-06
1.58893e-06
3.81639e-06
1.80421e-06
3.19651e-06
1.84547e-06
2.47733e-06
1.68429e-06
1.65619e-06
1.2583e-06
8.55958e-07
8.8239e-07
8.29872e-06
-1.08692e-06
1.33128e-05
-1.48811e-06
3.42039e-06
-1.83914e-06
6.17804e-07
-2.11426e-06
-1.74884e-08
-2.321e-06
-3.33954e-07
-2.48488e-06
-5.16647e-07
-2.61984e-06
-6.35343e-07
-2.7242e-06
-7.41246e-07
-2.78952e-06
-8.65103e-07
-2.80632e-06
-1.02178e-06
-2.76695e-06
-1.21437e-06
-2.66668e-06
-1.438e-06
-2.50383e-06
-1.68315e-06
-2.27972e-06
-1.93791e-06
-1.99844e-06
-2.18932e-06
-1.6664e-06
-2.42397e-06
-1.29154e-06
-2.62855e-06
-8.8245e-07
-2.79084e-06
-4.47159e-07
-2.90101e-06
2.30179e-08
-2.95333e-06
5.18111e-07
-2.93053e-06
1.00799e-06
-2.83567e-06
1.48181e-06
-2.69434e-06
1.9299e-06
-2.51958e-06
2.34572e-06
-2.32642e-06
2.7258e-06
-2.1289e-06
3.07079e-06
-1.94171e-06
3.38523e-06
-1.77723e-06
3.67661e-06
-1.64402e-06
3.95324e-06
-1.54531e-06
4.22305e-06
-1.48041e-06
4.49286e-06
-1.44615e-06
4.76806e-06
-1.43794e-06
5.05243e-06
-1.4504e-06
5.34811e-06
-1.47766e-06
5.65561e-06
-1.51377e-06
5.97398e-06
-1.55287e-06
6.30102e-06
-1.58949e-06
6.63355e-06
-1.61877e-06
6.96771e-06
-1.63656e-06
7.29925e-06
-1.63952e-06
7.62376e-06
-1.62515e-06
7.93687e-06
-1.59175e-06
8.23442e-06
-1.53825e-06
8.5125e-06
-1.4642e-06
8.76755e-06
-1.36954e-06
8.99634e-06
-1.2545e-06
9.19598e-06
-1.11944e-06
9.36381e-06
-9.64697e-07
9.49737e-06
-7.90418e-07
9.59428e-06
-5.9639e-07
9.65217e-06
-3.81839e-07
9.66862e-06
-1.45206e-07
9.64072e-06
1.16359e-07
9.56444e-06
4.06446e-07
9.43427e-06
7.28787e-07
9.24344e-06
1.08764e-06
8.9847e-06
1.48808e-06
8.6521e-06
1.93693e-06
8.24464e-06
2.44555e-06
7.77351e-06
3.03805e-06
7.27754e-06
3.77757e-06
6.86232e-06
4.87066e-06
6.76751e-06
7.12802e-06
6.92858e-06
1.18176e-05
6.31007e-06
1.54551e-05
4.13221e-06
1.45957e-05
2.9388e-07
1.01266e-05
-2.26553e-06
2.9764e-06
-2.26265e-06
-5.82517e-07
-2.1011e-06
-1.16992e-06
-1.86926e-06
-1.61597e-06
-1.56371e-06
-2.04379e-06
-1.20389e-06
-2.41531e-06
-8.26386e-07
-2.67917e-06
-4.72945e-07
-2.79853e-06
-1.71253e-07
-2.77939e-06
7.84319e-08
-2.67344e-06
3.03512e-07
-2.54822e-06
5.3959e-07
-2.45631e-06
8.23147e-07
-2.42939e-06
1.1788e-06
-2.46651e-06
1.61956e-06
-2.54988e-06
2.13788e-06
-2.63315e-06
2.71144e-06
-2.66525e-06
3.30509e-06
-2.58775e-06
3.88157e-06
-2.36503e-06
4.40208e-06
-1.97804e-06
4.82491e-06
-1.42505e-06
5.10881e-06
-7.32041e-07
5.22145e-06
3.92401e-08
5.15098e-06
7.96472e-07
4.90765e-06
1.46312e-06
4.50585e-06
1.99073e-06
3.96277e-06
2.34729e-06
3.29663e-06
2.51161e-06
2.52176e-06
2.45916e-06
1.64904e-06
2.13102e-06
7.53073e-07
1.77836e-06
9.05179e-06
-9.36272e-07
1.42491e-05
-1.33504e-06
3.81916e-06
-1.71477e-06
9.97528e-07
-2.04102e-06
3.08761e-07
-2.32919e-06
-4.57773e-08
-2.58357e-06
-2.62274e-07
-2.80967e-06
-4.09239e-07
-2.99971e-06
-5.51202e-07
-3.14092e-06
-7.23896e-07
-3.22223e-06
-9.40473e-07
-3.23612e-06
-1.20048e-06
-3.17872e-06
-1.4954e-06
-3.04942e-06
-1.81245e-06
-2.85036e-06
-2.13697e-06
-2.58614e-06
-2.45354e-06
-2.26343e-06
-2.74668e-06
-1.89054e-06
-3.00145e-06
-1.47701e-06
-3.20437e-06
-1.03324e-06
-3.34478e-06
-5.70499e-07
-3.41606e-06
-8.48405e-08
-3.41619e-06
4.16977e-07
-3.33749e-06
9.08807e-07
-3.18616e-06
1.37719e-06
-2.98796e-06
1.81513e-06
-2.76436e-06
2.21731e-06
-2.53108e-06
2.58296e-06
-2.30736e-06
2.91679e-06
-2.11106e-06
3.22795e-06
-1.95518e-06
3.52645e-06
-1.84381e-06
3.8214e-06
-1.77536e-06
4.12024e-06
-1.74498e-06
4.42832e-06
-1.74602e-06
4.74885e-06
-1.77092e-06
5.08292e-06
-1.81174e-06
5.42977e-06
-1.86061e-06
5.78701e-06
-1.91011e-06
6.15109e-06
-1.95358e-06
6.51765e-06
-1.98533e-06
6.88188e-06
-2.00079e-06
7.23884e-06
-1.99648e-06
7.58367e-06
-1.96999e-06
7.9118e-06
-1.91987e-06
8.21899e-06
-1.84544e-06
8.50146e-06
-1.74667e-06
8.75586e-06
-1.62395e-06
8.97932e-06
-1.47796e-06
9.16934e-06
-1.30946e-06
9.32381e-06
-1.11917e-06
9.44092e-06
-9.07521e-07
9.51908e-06
-6.7455e-07
9.5569e-06
-4.19665e-07
9.55314e-06
-1.41444e-07
9.50625e-06
1.63249e-07
9.41404e-06
4.98657e-07
9.27323e-06
8.69597e-07
9.07947e-06
1.28139e-06
8.8279e-06
1.73966e-06
8.51435e-06
2.25048e-06
8.13818e-06
2.82173e-06
7.70779e-06
3.46844e-06
7.25324e-06
4.23212e-06
6.86237e-06
5.26153e-06
6.7809e-06
7.20949e-06
7.12239e-06
1.14761e-05
6.96988e-06
1.56076e-05
5.48552e-06
1.608e-05
2.67767e-06
1.29344e-05
-1.07287e-06
6.72694e-06
-1.96624e-06
3.10857e-07
-1.85798e-06
-1.27818e-06
-1.63099e-06
-1.84295e-06
-1.34231e-06
-2.33248e-06
-1.02171e-06
-2.73592e-06
-7.17135e-07
-2.98375e-06
-4.73418e-07
-3.04224e-06
-3.04648e-07
-2.94816e-06
-1.86305e-07
-2.79179e-06
-6.98214e-08
-2.6647e-06
9.91954e-08
-2.62532e-06
3.57354e-07
-2.68755e-06
7.21879e-07
-2.83104e-06
1.19179e-06
-3.01979e-06
1.74393e-06
-3.18529e-06
2.34862e-06
-3.26995e-06
2.97125e-06
-3.21038e-06
3.5802e-06
-2.97398e-06
4.14223e-06
-2.54007e-06
4.61688e-06
-1.89969e-06
4.95596e-06
-1.07112e-06
5.11373e-06
-1.18536e-07
5.06971e-06
8.40494e-07
4.836e-06
1.69683e-06
4.43488e-06
2.39185e-06
3.88931e-06
2.89287e-06
3.22028e-06
3.18063e-06
2.44533e-06
3.2341e-06
1.58144e-06
2.99491e-06
6.83595e-07
2.67621e-06
9.73539e-06
-8.30792e-07
1.50799e-05
-1.2393e-06
4.22767e-06
-1.65673e-06
1.41496e-06
-2.03826e-06
6.90295e-07
-2.3995e-06
3.15457e-07
-2.74398e-06
8.22091e-08
-3.05614e-06
-9.70808e-08
-3.32167e-06
-2.85669e-07
-3.52735e-06
-5.18217e-07
-3.66226e-06
-8.05563e-07
-3.71995e-06
-1.14279e-06
-3.69778e-06
-1.51757e-06
-3.59609e-06
-1.91414e-06
-3.41762e-06
-2.31544e-06
-3.16715e-06
-2.70401e-06
-2.85134e-06
-3.06249e-06
-2.47858e-06
-3.37421e-06
-2.05889e-06
-3.62406e-06
-1.60381e-06
-3.79986e-06
-1.12597e-06
-3.89391e-06
-6.37646e-07
-3.90451e-06
-1.3818e-07
-3.83695e-06
3.68713e-07
-3.69306e-06
8.6226e-07
-3.48151e-06
1.32867e-06
-3.23077e-06
1.7615e-06
-2.96391e-06
2.15738e-06
-2.70324e-06
2.52072e-06
-2.4744e-06
2.86258e-06
-2.29704e-06
3.19439e-06
-2.17562e-06
3.52601e-06
-2.10698e-06
3.86486e-06
-2.08383e-06
4.21567e-06
-2.09684e-06
4.58052e-06
-2.13577e-06
4.9591e-06
-2.19033e-06
5.34918e-06
-2.25068e-06
5.74702e-06
-2.30795e-06
6.14795e-06
-2.3545e-06
6.54674e-06
-2.38413e-06
6.93805e-06
-2.39209e-06
7.31659e-06
-2.37502e-06
7.67743e-06
-2.33083e-06
8.01603e-06
-2.25847e-06
8.32835e-06
-2.15777e-06
8.61089e-06
-2.0292e-06
8.86065e-06
-1.87371e-06
9.07515e-06
-1.69245e-06
9.25235e-06
-1.48667e-06
9.39068e-06
-1.2575e-06
9.48893e-06
-1.00576e-06
9.54622e-06
-7.31842e-07
9.56201e-06
-4.35456e-07
9.53596e-06
-1.15391e-07
9.46766e-06
2.31546e-07
9.35633e-06
6.09984e-07
9.20064e-06
1.02529e-06
8.99855e-06
1.48348e-06
8.74756e-06
1.99065e-06
8.44542e-06
2.55262e-06
8.09191e-06
3.17523e-06
7.69294e-06
3.86741e-06
7.27021e-06
4.65485e-06
6.89114e-06
5.6406e-06
6.77426e-06
7.32638e-06
7.15872e-06
1.10917e-05
7.31104e-06
1.54553e-05
6.38681e-06
1.70043e-05
4.26561e-06
1.50556e-05
8.17566e-07
1.0175e-05
-1.7658e-06
2.89422e-06
-1.69456e-06
-1.34942e-06
-1.45699e-06
-2.08052e-06
-1.19505e-06
-2.59441e-06
-9.34189e-07
-2.99678e-06
-7.32332e-07
-3.1856e-06
-6.27503e-07
-3.14707e-06
-6.0651e-07
-2.96915e-06
-6.13919e-07
-2.78438e-06
-5.82261e-07
-2.69636e-06
-4.57675e-07
-2.74991e-06
-2.1086e-07
-2.93436e-06
1.61581e-07
-3.20348e-06
6.32027e-07
-3.49023e-06
1.17105e-06
-3.72432e-06
1.75062e-06
-3.84952e-06
2.34768e-06
-3.80743e-06
2.94108e-06
-3.56738e-06
3.50762e-06
-3.10662e-06
4.01356e-06
-2.40563e-06
4.40601e-06
-1.46357e-06
4.62016e-06
-3.32691e-07
4.62074e-06
8.39913e-07
4.41964e-06
1.89793e-06
4.05228e-06
2.75921e-06
3.54818e-06
3.39697e-06
2.93043e-06
3.79838e-06
2.21854e-06
3.946e-06
1.43373e-06
3.77972e-06
6.19216e-07
3.49072e-06
1.03546e-05
-7.55306e-07
1.58352e-05
-1.1856e-06
4.65797e-06
-1.64874e-06
1.87809e-06
-2.09293e-06
1.13449e-06
-2.52945e-06
7.51984e-07
-2.95341e-06
5.0617e-07
-3.34003e-06
2.89537e-07
-3.67064e-06
4.49419e-08
-3.92864e-06
-2.60219e-07
-4.1069e-06
-6.27302e-07
-4.20055e-06
-1.04915e-06
-4.20808e-06
-1.51004e-06
-4.13041e-06
-1.99181e-06
-3.97036e-06
-2.47549e-06
-3.73243e-06
-2.94194e-06
-3.42286e-06
-3.37206e-06
-3.04977e-06
-3.7473e-06
-2.62325e-06
-4.05057e-06
-2.1554e-06
-4.26771e-06
-1.65991e-06
-4.38939e-06
-1.15102e-06
-4.4134e-06
-6.41478e-07
-4.3465e-06
-1.30153e-07
-4.20438e-06
3.84369e-07
-3.99603e-06
8.84214e-07
-3.73061e-06
1.35518e-06
-3.43488e-06
1.7903e-06
-3.13837e-06
2.19271e-06
-2.8768e-06
2.57552e-06
-2.67985e-06
2.95096e-06
-2.55106e-06
3.32882e-06
-2.48484e-06
3.71584e-06
-2.47085e-06
4.11559e-06
-2.49658e-06
4.52872e-06
-2.5489e-06
4.9535e-06
-2.61511e-06
5.38638e-06
-2.68357e-06
5.82263e-06
-2.7442e-06
6.25686e-06
-2.78873e-06
6.68343e-06
-2.8107e-06
7.09681e-06
-2.80546e-06
7.49175e-06
-2.76997e-06
7.86347e-06
-2.70255e-06
8.20771e-06
-2.6027e-06
8.52076e-06
-2.47082e-06
8.79949e-06
-2.30793e-06
9.04132e-06
-2.11553e-06
9.24418e-06
-1.89532e-06
9.40653e-06
-1.64901e-06
9.52724e-06
-1.37821e-06
9.60566e-06
-1.08418e-06
9.64151e-06
-7.67692e-07
9.6349e-06
-4.28849e-07
9.58633e-06
-6.68193e-08
9.49608e-06
3.21793e-07
9.36452e-06
7.4155e-07
9.19177e-06
1.19804e-06
8.97769e-06
1.69756e-06
8.72184e-06
2.2465e-06
8.4237e-06
2.85077e-06
8.08372e-06
3.51521e-06
7.70612e-06
4.24501e-06
7.30596e-06
5.05501e-06
6.93237e-06
6.01419e-06
6.76328e-06
7.49547e-06
7.10258e-06
1.07523e-05
7.42826e-06
1.51296e-05
6.91539e-06
1.75171e-05
5.31343e-06
1.66576e-05
2.70795e-06
1.27805e-05
-7.0605e-07
6.30822e-06
-1.52378e-06
-5.31687e-07
-1.33494e-06
-2.26936e-06
-1.11119e-06
-2.81817e-06
-9.35327e-07
-3.17264e-06
-8.6713e-07
-3.2538e-06
-9.21191e-07
-3.09301e-06
-1.04615e-06
-2.84419e-06
-1.15892e-06
-2.67161e-06
-1.18611e-06
-2.66917e-06
-1.08758e-06
-2.84844e-06
-8.60066e-07
-3.16188e-06
-5.27455e-07
-3.53609e-06
-1.19621e-07
-3.89807e-06
3.42206e-07
-4.18614e-06
8.3339e-07
-4.3407e-06
1.34808e-06
-4.32212e-06
1.87294e-06
-4.09224e-06
2.4003e-06
-3.63398e-06
2.90968e-06
-2.91501e-06
3.35352e-06
-1.9074e-06
3.64553e-06
-6.24699e-07
3.72128e-06
7.64158e-07
3.58689e-06
2.03232e-06
3.30239e-06
3.04371e-06
2.90022e-06
3.79913e-06
2.40147e-06
4.29713e-06
1.82458e-06
4.52288e-06
1.194e-06
4.41029e-06
5.39299e-07
4.14543e-06
1.08939e-05
-7.00408e-07
1.65356e-05
-1.16304e-06
5.1206e-06
-1.67844e-06
2.39349e-06
-2.18914e-06
1.64518e-06
-2.69966e-06
1.26251e-06
-3.19423e-06
1.00074e-06
-3.64547e-06
7.40769e-07
-4.02674e-06
4.26219e-07
-4.32694e-06
3.99819e-08
-4.53965e-06
-4.14598e-07
-4.66338e-06
-9.25411e-07
-4.69704e-06
-1.47638e-06
-4.6415e-06
-2.04735e-06
-4.4991e-06
-2.61789e-06
-4.27363e-06
-3.1674e-06
-3.97061e-06
-3.67508e-06
-3.59755e-06
-4.12035e-06
-3.16435e-06
-4.48378e-06
-2.68333e-06
-4.74872e-06
-2.16904e-06
-4.90369e-06
-1.6372e-06
-4.94525e-06
-1.10276e-06
-4.88093e-06
-5.76902e-07
-4.73025e-06
-5.17924e-08
-4.52114e-06
4.78732e-07
-4.26113e-06
9.92754e-07
-3.9489e-06
1.47451e-06
-3.62013e-06
1.92399e-06
-3.32628e-06
2.35634e-06
-3.1122e-06
2.7835e-06
-2.97822e-06
3.21434e-06
-2.91567e-06
3.65431e-06
-2.91082e-06
4.10554e-06
-2.94782e-06
4.56729e-06
-3.01065e-06
5.0366e-06
-3.08441e-06
5.50901e-06
-3.15598e-06
5.97922e-06
-3.21441e-06
6.44154e-06
-3.25105e-06
6.8903e-06
-3.25947e-06
7.32012e-06
-3.23528e-06
7.72602e-06
-3.17587e-06
8.10358e-06
-3.08011e-06
8.44893e-06
-2.94806e-06
8.7588e-06
-2.78069e-06
9.03049e-06
-2.57962e-06
9.26185e-06
-2.3469e-06
9.45127e-06
-2.08473e-06
9.59761e-06
-1.79535e-06
9.70021e-06
-1.48082e-06
9.75887e-06
-1.14284e-06
9.77382e-06
-7.82641e-07
9.74576e-06
-4.00791e-07
9.67543e-06
3.50854e-09
9.56389e-06
4.33332e-07
9.41226e-06
8.9318e-07
9.22181e-06
1.38849e-06
8.99381e-06
1.92556e-06
8.72935e-06
2.51095e-06
8.42937e-06
3.15075e-06
8.09507e-06
3.84951e-06
7.72963e-06
4.61045e-06
7.34332e-06
5.44132e-06
6.97074e-06
6.38677e-06
6.74883e-06
7.71739e-06
6.99365e-06
1.05075e-05
7.39039e-06
1.47329e-05
7.17224e-06
1.77353e-05
6.00059e-06
1.78292e-05
3.90026e-06
1.48808e-05
8.13363e-07
9.39512e-06
-1.40795e-06
1.68962e-06
-1.23255e-06
-2.44475e-06
-1.06527e-06
-2.98544e-06
-1.01188e-06
-3.22603e-06
-1.10685e-06
-3.15883e-06
-1.32708e-06
-2.87278e-06
-1.58352e-06
-2.58775e-06
-1.78021e-06
-2.47492e-06
-1.85727e-06
-2.59211e-06
-1.80218e-06
-2.90353e-06
-1.63711e-06
-3.32694e-06
-1.39661e-06
-3.77659e-06
-1.11033e-06
-4.18435e-06
-7.96575e-07
-4.4999e-06
-4.55391e-07
-4.68189e-06
-7.99382e-08
-4.69757e-06
3.3633e-07
-4.5085e-06
7.77568e-07
-4.07522e-06
1.24448e-06
-3.38193e-06
1.7197e-06
-2.38261e-06
2.1186e-06
-1.0236e-06
2.31327e-06
5.69486e-07
2.29014e-06
2.05545e-06
2.16066e-06
3.17319e-06
1.93918e-06
4.02062e-06
1.63914e-06
4.59717e-06
1.27342e-06
4.8886e-06
8.69687e-07
4.81403e-06
4.37797e-07
4.57732e-06
1.13317e-05
-6.60651e-07
1.71963e-05
-1.16351e-06
5.62346e-06
-1.73427e-06
2.96425e-06
-2.31036e-06
2.22127e-06
-2.88775e-06
1.83991e-06
-3.44198e-06
1.55497e-06
-3.94315e-06
1.24194e-06
-4.36864e-06
8.51706e-07
-4.70515e-06
3.76496e-07
-4.9457e-06
-1.74054e-07
-5.0955e-06
-7.75608e-07
-5.15304e-06
-1.41884e-06
-5.11857e-06
-2.08182e-06
-4.99357e-06
-2.7429e-06
-4.78088e-06
-3.38009e-06
-4.48512e-06
-3.97085e-06
-4.11308e-06
-4.49239e-06
-3.67418e-06
-4.92268e-06
-3.1807e-06
-5.2422e-06
-2.64776e-06
-5.43663e-06
-2.09239e-06
-5.50061e-06
-1.53139e-06
-5.44193e-06
-9.77677e-07
-5.28396e-06
-4.36538e-07
-5.06228e-06
1.11296e-07
-4.80897e-06
6.69221e-07
-4.50683e-06
1.20217e-06
-4.15308e-06
1.70473e-06
-3.82885e-06
2.19289e-06
-3.60035e-06
2.67708e-06
-3.46242e-06
3.16452e-06
-3.40311e-06
3.65904e-06
-3.40534e-06
4.16131e-06
-3.45008e-06
4.66938e-06
-3.51872e-06
5.17943e-06
-3.59447e-06
5.68652e-06
-3.66307e-06
6.18514e-06
-3.71303e-06
6.6697e-06
-3.7356e-06
7.13478e-06
-3.72455e-06
7.57539e-06
-3.67589e-06
7.987e-06
-3.58748e-06
8.36568e-06
-3.45878e-06
8.70805e-06
-3.29043e-06
9.01133e-06
-3.08397e-06
9.2733e-06
-2.8416e-06
9.49227e-06
-2.56586e-06
9.66702e-06
-2.25949e-06
9.79685e-06
-1.92518e-06
9.88148e-06
-1.56544e-06
9.92108e-06
-1.18243e-06
9.91628e-06
-7.77837e-07
9.86819e-06
-3.5271e-07
9.77774e-06
9.39592e-08
9.6464e-06
5.64673e-07
9.47592e-06
1.06367e-06
9.26832e-06
1.59608e-06
9.02585e-06
2.16803e-06
8.7507e-06
2.7861e-06
8.44487e-06
3.45658e-06
8.11024e-06
4.18415e-06
7.74947e-06
4.97121e-06
7.36952e-06
5.82127e-06
6.99426e-06
6.76202e-06
6.72521e-06
7.98644e-06
6.85488e-06
1.03779e-05
7.24574e-06
1.4342e-05
7.22033e-06
1.77607e-05
6.37606e-06
1.86735e-05
4.67516e-06
1.65817e-05
2.27827e-06
1.1792e-05
-6.53686e-07
4.62157e-06
-1.053e-06
-2.04543e-06
-1.04318e-06
-2.99527e-06
-1.15259e-06
-3.11663e-06
-1.42958e-06
-2.88184e-06
-1.81125e-06
-2.49111e-06
-2.18336e-06
-2.21565e-06
-2.45778e-06
-2.20049e-06
-2.60388e-06
-2.44602e-06
-2.63868e-06
-2.86873e-06
-2.5983e-06
-3.36732e-06
-2.51332e-06
-3.86157e-06
-2.39948e-06
-4.29819e-06
-2.25974e-06
-4.63964e-06
-2.08841e-06
-4.85322e-06
-1.8796e-06
-4.90638e-06
-1.62538e-06
-4.76272e-06
-1.31436e-06
-4.38624e-06
-9.51762e-07
-3.74452e-06
-5.38113e-07
-2.79626e-06
-6.33097e-08
-1.4984e-06
3.62887e-07
1.43289e-07
5.76946e-07
1.84139e-06
6.80876e-07
3.06926e-06
7.24816e-07
3.97668e-06
7.03344e-07
4.61864e-06
6.16153e-07
4.97579e-06
4.97158e-07
4.93302e-06
3.22627e-07
4.75185e-06
1.16543e-05
-6.32349e-07
1.78286e-05
-1.18023e-06
6.17134e-06
-1.80553e-06
3.58955e-06
-2.44148e-06
2.85722e-06
-3.07541e-06
2.47383e-06
-3.67717e-06
2.15672e-06
-4.2168e-06
1.78158e-06
-4.67427e-06
1.30918e-06
-5.03958e-06
7.41798e-07
-5.31065e-06
9.70165e-08
-5.48433e-06
-6.0192e-07
-5.56402e-06
-1.33916e-06
-5.54949e-06
-2.09635e-06
-5.44137e-06
-2.85101e-06
-5.24162e-06
-3.57984e-06
-4.954e-06
-4.25847e-06
-4.58451e-06
-4.86188e-06
-4.14188e-06
-5.36531e-06
-3.63801e-06
-5.74607e-06
-3.08819e-06
-5.98645e-06
-2.5105e-06
-6.0783e-06
-1.92361e-06
-6.02882e-06
-1.34243e-06
-5.86514e-06
-7.72973e-07
-5.63174e-06
-2.07844e-07
-5.3741e-06
3.80282e-07
-5.09495e-06
9.66932e-07
-4.73973e-06
1.52641e-06
-4.38833e-06
2.07386e-06
-4.1478e-06
2.61738e-06
-4.00594e-06
3.16206e-06
-3.94779e-06
3.71002e-06
-3.95331e-06
4.2606e-06
-4.00066e-06
4.81091e-06
-4.06903e-06
5.35663e-06
-4.1402e-06
5.89268e-06
-4.19911e-06
6.41369e-06
-4.23404e-06
6.91442e-06
-4.23634e-06
7.38998e-06
-4.20011e-06
7.83588e-06
-4.12179e-06
8.24822e-06
-3.99982e-06
8.62363e-06
-3.83419e-06
8.9593e-06
-3.6261e-06
9.25299e-06
-3.37766e-06
9.50298e-06
-3.09158e-06
9.70802e-06
-2.7709e-06
9.86733e-06
-2.41881e-06
9.98056e-06
-2.03841e-06
1.00478e-05
-1.63265e-06
1.00694e-05
-1.20408e-06
1.00464e-05
-7.54831e-07
9.9801e-06
-2.86395e-07
9.8716e-06
2.02451e-07
9.7226e-06
7.13673e-07
9.53519e-06
1.25108e-06
9.31189e-06
1.81938e-06
9.05553e-06
2.42439e-06
8.76902e-06
3.07262e-06
8.45508e-06
3.77052e-06
8.11608e-06
4.52314e-06
7.75446e-06
5.33283e-06
7.37498e-06
6.20076e-06
6.99385e-06
7.14315e-06
6.6844e-06
8.29589e-06
6.69715e-06
1.03651e-05
7.02798e-06
1.40112e-05
7.11096e-06
1.76777e-05
6.50792e-06
1.92765e-05
5.1235e-06
1.79661e-05
3.07681e-06
1.38387e-05
3.5209e-07
7.3463e-06
-9.57549e-07
-7.35793e-07
-1.06093e-06
-2.89188e-06
-1.34185e-06
-2.8357e-06
-1.80678e-06
-2.41691e-06
-2.34241e-06
-1.95548e-06
-2.8261e-06
-1.73195e-06
-3.19514e-06
-1.83145e-06
-3.45255e-06
-2.18862e-06
-3.63437e-06