/*--------------------------------*- C++ -*----------------------------------*\
| =========                 |                                                 |
| \\      /  F ield         | OpenFOAM: The Open Source CFD Toolbox           |
|  \\    /   O peration     | Version:  4.1                                   |
|   \\  /    A nd           | Web:      www.OpenFOAM.org                      |
|    \\/     M anipulation  |                                                 |
\*---------------------------------------------------------------------------*/
FoamFile
{
    version     2.0;
    format      ascii;
    class       volScalarField;
    location    "1780";
    object      T;
}
// * * * * * * * * * * * * * * * * * * * * * * * * * * * * * * * * * * * * * //

dimensions      [0 0 0 1 0 0 0];

internalField   nonuniform List<scalar> 
5000
(
287.964
287.628
287.33
287.246
287.233
287.2
287.157
287.116
287.079
287.045
287.011
286.976
286.938
286.898
286.857
286.812
286.763
286.73
286.716
286.731
286.752
286.778
286.81
286.849
286.893
286.941
286.992
287.044
287.096
287.147
287.194
287.238
287.278
287.313
287.344
287.371
287.394
287.415
287.434
287.452
287.471
287.491
287.514
287.54
287.571
287.608
287.651
287.703
287.764
287.836
287.92
288.013
288.106
288.197
288.288
288.379
288.47
288.562
288.656
288.754
288.855
288.964
289.086
289.244
289.07
288.519
288.29
288.043
287.866
287.731
287.589
287.441
287.295
287.159
287.041
286.943
286.866
286.81
286.773
286.75
286.741
286.741
286.749
286.764
286.789
286.824
286.872
286.933
287.013
287.118
287.212
287.281
287.314
287.302
287.277
287.259
287.134
286.719
286.794
287.197
286.909
285.434
284.868
284.853
284.854
284.857
284.86
284.863
284.867
284.87
284.874
284.878
284.882
284.886
284.89
284.894
284.898
284.903
284.907
284.91
284.913
284.915
284.916
284.917
284.918
284.919
284.919
284.919
284.919
284.919
284.919
284.919
284.919
284.918
284.918
284.918
284.918
284.917
284.917
284.916
284.916
284.915
284.915
284.914
284.913
284.913
284.912
284.911
284.911
284.91
284.91
284.912
284.925
284.952
284.992
285.047
285.118
285.207
285.317
285.454
285.633
285.897
286.363
287.27
288.186
286.775
285.153
284.778
284.743
284.731
284.727
284.729
284.734
284.74
284.748
284.755
284.763
284.771
284.779
284.786
284.794
284.802
284.809
284.815
284.82
284.825
284.828
284.83
284.83
284.829
284.863
284.93
284.977
284.95
284.882
284.818
284.786
284.765
284.785
286.178
286.523
285.115
284.825
284.821
284.827
284.834
284.841
284.848
284.855
284.862
284.868
284.875
284.882
284.888
284.894
284.901
284.907
284.914
284.919
284.924
284.927
284.929
284.931
284.932
284.933
284.933
284.932
284.932
284.931
284.93
284.929
284.928
284.927
284.926
284.924
284.923
284.922
284.921
284.919
284.918
284.916
284.914
284.912
284.91
284.908
284.906
284.903
284.901
284.898
284.895
284.892
284.889
284.886
284.884
284.884
284.887
284.896
284.912
284.941
284.989
285.07
285.218
285.537
286.319
287.469
286.948
284.909
284.698
284.687
284.693
284.703
284.715
284.726
284.737
284.749
284.76
284.771
284.783
284.795
284.807
284.819
284.831
284.842
284.852
284.861
284.868
284.872
284.875
284.874
284.872
284.867
284.863
284.861
284.852
284.838
284.821
284.8
284.774
284.762
285.879
286.31
285.014
284.82
284.82
284.828
284.837
284.847
284.856
284.865
284.874
284.883
284.891
284.899
284.907
284.914
284.921
284.927
284.934
284.941
284.946
284.951
284.954
284.957
284.959
284.96
284.961
284.961
284.96
284.959
284.958
284.957
284.955
284.954
284.952
284.95
284.949
284.946
284.944
284.942
284.939
284.936
284.933
284.93
284.927
284.923
284.919
284.916
284.912
284.908
284.905
284.901
284.898
284.894
284.891
284.888
284.885
284.883
284.883
284.888
284.901
284.933
285.007
285.199
285.771
286.861
286.892
285.566
284.695
284.686
284.696
284.709
284.722
284.734
284.746
284.758
284.771
284.786
284.801
284.818
284.836
284.853
284.869
284.884
284.897
284.908
284.915
284.92
284.922
284.922
284.919
284.913
284.906
284.896
284.885
284.872
284.856
284.837
284.808
284.775
285.714
286.173
284.967
284.817
284.819
284.83
284.841
284.853
284.864
284.875
284.886
284.896
284.905
284.913
284.921
284.929
284.936
284.942
284.949
284.955
284.962
284.967
284.972
284.976
284.98
284.982
284.983
284.983
284.983
284.982
284.981
284.979
284.977
284.975
284.972
284.97
284.967
284.964
284.96
284.956
284.952
284.947
284.943
284.938
284.933
284.927
284.922
284.917
284.912
284.908
284.903
284.899
284.895
284.892
284.889
284.885
284.882
284.879
284.877
284.876
284.879
284.891
284.927
285.039
285.432
286.365
286.712
285.953
284.999
284.684
284.694
284.708
284.722
284.734
284.747
284.762
284.778
284.797
284.818
284.841
284.864
284.886
284.907
284.924
284.937
284.946
284.951
284.953
284.952
284.95
284.947
284.943
284.936
284.927
284.916
284.902
284.885
284.863
284.832
284.788
285.604
286.077
284.94
284.814
284.819
284.831
284.845
284.859
284.872
284.885
284.896
284.906
284.915
284.923
284.931
284.938
284.944
284.951
284.957
284.964
284.97
284.978
284.984
284.99
284.994
284.998
285
285.001
285.001
285
284.998
284.996
284.994
284.991
284.987
284.983
284.979
284.974
284.969
284.963
284.957
284.951
284.944
284.937
284.931
284.924
284.917
284.911
284.905
284.899
284.894
284.889
284.885
284.881
284.878
284.875
284.873
284.87
284.869
284.867
284.868
284.872
284.891
284.956
285.218
285.972
286.475
286.114
285.397
284.694
284.69
284.704
284.719
284.732
284.747
284.764
284.786
284.811
284.839
284.869
284.897
284.922
284.943
284.959
284.968
284.971
284.97
284.966
284.961
284.956
284.952
284.95
284.947
284.941
284.932
284.92
284.904
284.882
284.849
284.799
285.522
286.004
284.921
284.813
284.819
284.834
284.849
284.865
284.88
284.893
284.904
284.913
284.921
284.928
284.935
284.941
284.947
284.953
284.96
284.967
284.974
284.981
284.989
284.997
285.003
285.008
285.012
285.014
285.014
285.014
285.012
285.009
285.006
285.002
284.997
284.992
284.986
284.98
284.972
284.965
284.957
284.949
284.94
284.932
284.923
284.915
284.907
284.899
284.892
284.885
284.879
284.874
284.869
284.866
284.862
284.86
284.858
284.857
284.856
284.856
284.857
284.86
284.87
284.909
285.081
285.666
286.224
286.142
285.635
284.995
284.686
284.699
284.714
284.73
284.747
284.769
284.797
284.83
284.866
284.9
284.931
284.956
284.974
284.983
284.984
284.978
284.969
284.958
284.948
284.94
284.935
284.935
284.936
284.936
284.933
284.926
284.913
284.893
284.86
284.807
285.457
285.946
284.907
284.812
284.82
284.837
284.854
284.871
284.886
284.899
284.909
284.917
284.923
284.928
284.933
284.938
284.943
284.949
284.956
284.963
284.972
284.981
284.99
284.999
285.008
285.015
285.02
285.023
285.024
285.024
285.022
285.019
285.015
285.01
285.004
284.997
284.989
284.981
284.972
284.963
284.953
284.943
284.932
284.922
284.912
284.903
284.893
284.884
284.876
284.869
284.862
284.856
284.851
284.847
284.844
284.842
284.84
284.84
284.841
284.842
284.844
284.847
284.855
284.88
284.993
285.432
285.982
286.089
285.77
285.258
284.737
284.695
284.71
284.728
284.749
284.777
284.814
284.855
284.897
284.934
284.963
284.983
284.992
284.991
284.982
284.968
284.952
284.935
284.921
284.909
284.903
284.904
284.91
284.916
284.921
284.92
284.914
284.898
284.866
284.811
285.403
285.897
284.895
284.811
284.822
284.84
284.86
284.877
284.891
284.902
284.91
284.916
284.92
284.923
284.927
284.93
284.934
284.94
284.947
284.955
284.965
284.975
284.986
284.997
285.008
285.017
285.024
285.029
285.031
285.031
285.029
285.026
285.021
285.015
285.007
284.999
284.99
284.98
284.969
284.957
284.946
284.934
284.922
284.91
284.899
284.888
284.877
284.867
284.858
284.85
284.843
284.836
284.831
284.827
284.823
284.821
284.821
284.821
284.823
284.826
284.829
284.834
284.841
284.859
284.934
285.257
285.763
285.991
285.83
285.429
284.954
284.692
284.707
284.727
284.753
284.79
284.836
284.885
284.93
284.965
284.988
284.997
284.996
284.986
284.969
284.949
284.928
284.907
284.889
284.875
284.867
284.866
284.875
284.888
284.9
284.908
284.908
284.897
284.868
284.812
285.359
285.855
284.885
284.812
284.825
284.844
284.864
284.881
284.894
284.902
284.908
284.911
284.912
284.914
284.915
284.917
284.921
284.926
284.934
284.943
284.953
284.966
284.979
284.992
285.004
285.016
285.025
285.032
285.035
285.036
285.034
285.03
285.024
285.017
285.008
284.998
284.987
284.975
284.963
284.949
284.936
284.923
284.909
284.896
284.883
284.871
284.86
284.849
284.839
284.83
284.822
284.815
284.81
284.805
284.802
284.8
284.8
284.801
284.804
284.808
284.813
284.819
284.828
284.842
284.894
285.128
285.572
285.87
285.836
285.542
285.137
284.731
284.704
284.727
284.761
284.807
284.862
284.916
284.96
284.989
285.001
285
284.989
284.972
284.951
284.928
284.905
284.882
284.862
284.846
284.834
284.83
284.84
284.858
284.878
284.893
284.899
284.892
284.866
284.811
285.323
285.817
284.877
284.813
284.827
284.848
284.868
284.883
284.894
284.899
284.902
284.902
284.901
284.9
284.9
284.901
284.904
284.909
284.917
284.927
284.939
284.953
284.968
284.984
284.999
285.012
285.023
285.032
285.037
285.038
285.037
285.032
285.026
285.017
285.007
284.995
284.982
284.969
284.954
284.939
284.924
284.909
284.894
284.88
284.866
284.852
284.84
284.829
284.818
284.809
284.801
284.794
284.788
284.784
284.781
284.779
284.779
284.78
284.784
284.789
284.796
284.804
284.813
284.827
284.865
285.034
285.411
285.742
285.807
285.61
285.265
284.885
284.703
284.729
284.772
284.829
284.891
284.946
284.984
285.003
285.005
284.995
284.978
284.957
284.934
284.911
284.887
284.865
284.845
284.828
284.814
284.806
284.809
284.834
284.86
284.88
284.89
284.886
284.861
284.805
285.293
285.783
284.87
284.814
284.83
284.852
284.87
284.883
284.891
284.893
284.893
284.89
284.886
284.884
284.882
284.882
284.885
284.89
284.898
284.909
284.922
284.938
284.956
284.974
284.992
285.007
285.02
285.031
285.037
285.039
285.037
285.032
285.025
285.015
285.003
284.99
284.975
284.96
284.943
284.927
284.91
284.893
284.877
284.861
284.846
284.832
284.819
284.807
284.797
284.787
284.779
284.772
284.766
284.762
284.759
284.757
284.757
284.76
284.764
284.77
284.778
284.787
284.798
284.812
284.842
284.966
285.279
285.617
285.755
285.642
285.357
285.01
284.712
284.733
284.786
284.853
284.92
284.972
285.001
285.01
285.003
284.988
284.968
284.946
284.924
284.901
284.879
284.858
284.839
284.822
284.81
284.802
284.802
284.819
284.85
284.872
284.883
284.88
284.853
284.797
285.27
285.751
284.865
284.816
284.833
284.854
284.871
284.881
284.885
284.884
284.88
284.875
284.87
284.866
284.863
284.863
284.865
284.87
284.878
284.889
284.904
284.922
284.942
284.963
284.983
285.001
285.015
285.028
285.036
285.038
285.036
285.031
285.022
285.011
284.998
284.983
284.966
284.949
284.93
284.912
284.894
284.875
284.858
284.841
284.825
284.811
284.797
284.785
284.774
284.764
284.756
284.749
284.744
284.74
284.737
284.736
284.736
284.739
284.744
284.75
284.759
284.77
284.783
284.797
284.823
284.915
285.172
285.501
285.69
285.649
285.421
285.1
284.774
284.738
284.802
284.879
284.947
284.992
285.012
285.011
285
284.983
284.964
284.944
284.924
284.903
284.883
284.863
284.845
284.83
284.819
284.813
284.814
284.825
284.846
284.865
284.875
284.87
284.844
284.787
285.253
285.722
284.86
284.817
284.835
284.855
284.87
284.877
284.877
284.873
284.866
284.859
284.852
284.847
284.844
284.844
284.846
284.85
284.858
284.87
284.885
284.905
284.927
284.951
284.974
284.994
285.01
285.024
285.034
285.036
285.034
285.028
285.018
285.005
284.99
284.973
284.955
284.935
284.915
284.895
284.875
284.856
284.837
284.819
284.803
284.788
284.774
284.762
284.751
284.741
284.733
284.727
284.721
284.717
284.715
284.714
284.715
284.718
284.724
284.731
284.741
284.753
284.767
284.783
284.806
284.878
285.087
285.398
285.62
285.638
285.463
285.169
284.846
284.744
284.821
284.905
284.97
285.007
285.018
285.012
285
284.984
284.968
284.952
284.935
284.917
284.899
284.881
284.864
284.849
284.837
284.83
284.829
284.834
284.846
284.857
284.863
284.856
284.832
284.793
285.238
285.694
284.856
284.819
284.837
284.856
284.867
284.871
284.867
284.86
284.852
284.843
284.836
284.83
284.827
284.826
284.828
284.832
284.84
284.851
284.867
284.888
284.912
284.939
284.965
284.988
285.005
285.019
285.031
285.034
285.031
285.023
285.012
284.998
284.981
284.962
284.942
284.92
284.898
284.877
284.855
284.834
284.815
284.797
284.78
284.764
284.75
284.738
284.727
284.718
284.71
284.704
284.699
284.695
284.693
284.693
284.695
284.698
284.704
284.712
284.723
284.736
284.751
284.768
284.791
284.848
285.02
285.307
285.55
285.616
285.487
285.221
284.897
284.751
284.841
284.931
284.992
285.019
285.023
285.016
285.005
284.993
284.982
284.969
284.957
284.943
284.928
284.912
284.896
284.879
284.864
284.851
284.841
284.837
284.839
284.844
284.846
284.839
284.82
284.815
285.222
285.667
284.853
284.82
284.838
284.855
284.863
284.863
284.857
284.848
284.837
284.828
284.821
284.815
284.812
284.811
284.812
284.816
284.822
284.833
284.849
284.871
284.897
284.927
284.957
284.981
285.001
285.016
285.028
285.03
285.027
285.018
285.005
284.989
284.97
284.949
284.927
284.903
284.88
284.856
284.833
284.812
284.791
284.773
284.756
284.74
284.727
284.715
284.704
284.695
284.688
284.682
284.677
284.674
284.673
284.673
284.675
284.679
284.685
284.694
284.705
284.719
284.735
284.754
284.777
284.825
284.967
285.229
285.483
285.588
285.5
285.258
284.933
284.767
284.875
284.964
285.013
285.031
285.031
285.025
285.017
285.01
285.004
284.997
284.989
284.98
284.97
284.958
284.944
284.928
284.912
284.894
284.876
284.858
284.843
284.832
284.825
284.82
284.815
284.853
285.205
285.642
284.851
284.822
284.839
284.853
284.859
284.856
284.847
284.835
284.824
284.815
284.808
284.803
284.8
284.799
284.8
284.802
284.808
284.817
284.832
284.854
284.883
284.916
284.949
284.976
284.997
285.012
285.025
285.027
285.022
285.012
284.998
284.979
284.958
284.935
284.91
284.885
284.859
284.834
284.811
284.788
284.768
284.749
284.732
284.716
284.703
284.692
284.682
284.673
284.666
284.661
284.657
284.654
284.653
284.653
284.656
284.661
284.667
284.677
284.688
284.703
284.72
284.74
284.763
284.806
284.925
285.163
285.421
285.556
285.503
285.284
284.956
284.783
284.899
284.984
285.028
285.043
285.044
285.041
285.037
285.034
285.032
285.03
285.027
285.023
285.018
285.012
285.004
284.994
284.982
284.967
284.951
284.932
284.911
284.888
284.863
284.84
284.834
284.906
285.187
285.618
284.849
284.823
284.838
284.851
284.854
284.848
284.837
284.824
284.813
284.804
284.798
284.794
284.792
284.791
284.791
284.792
284.796
284.804
284.818
284.839
284.869
284.905
284.942
284.972
284.994
285.01
285.022
285.023
285.017
285.005
284.989
284.968
284.945
284.919
284.892
284.865
284.838
284.812
284.787
284.764
284.744
284.725
284.708
284.694
284.681
284.67
284.66
284.652
284.646
284.641
284.637
284.635
284.634
284.635
284.638
284.643
284.65
284.66
284.672
284.688
284.706
284.726
284.75
284.789
284.891
285.107
285.365
285.524
285.501
285.301
284.968
284.797
284.919
285.002
285.042
285.056
285.059
285.06
285.061
285.062
285.062
285.063
285.063
285.062
285.061
285.059
285.056
285.052
285.048
285.041
285.034
285.024
285.011
284.995
284.975
284.954
284.937
284.968
285.167
285.595
284.848
284.824
284.838
284.848
284.848
284.84
284.828
284.815
284.804
284.797
284.792
284.789
284.787
284.786
284.785
284.786
284.788
284.793
284.805
284.825
284.856
284.895
284.936
284.969
284.992
285.008
285.019
285.019
285.011
284.998
284.979
284.956
284.93
284.902
284.873
284.844
284.815
284.788
284.763
284.741
284.72
284.702
284.686
284.672
284.66
284.65
284.641
284.633
284.627
284.623
284.619
284.617
284.617
284.619
284.622
284.627
284.634
284.644
284.657
284.673
284.692
284.713
284.738
284.774
284.864
285.061
285.316
285.493
285.496
285.312
284.969
284.812
284.937
285.017
285.054
285.069
285.074
285.078
285.081
285.083
285.084
285.085
285.085
285.084
285.084
285.083
285.083
285.083
285.083
285.083
285.082
285.08
285.077
285.072
285.064
285.053
285.042
285.04
285.143
285.573
284.847
284.824
284.837
284.845
284.843
284.833
284.82
284.808
284.798
284.792
284.788
284.786
284.785
284.784
284.783
284.782
284.782
284.785
284.794
284.813
284.845
284.887
284.931
284.966
284.991
285.006
285.016
285.015
285.006
284.99
284.969
284.943
284.914
284.884
284.853
284.822
284.793
284.765
284.74
284.718
284.698
284.68
284.665
284.652
284.641
284.631
284.623
284.616
284.611
284.607
284.604
284.602
284.602
284.603
284.607
284.612
284.62
284.63
284.643
284.659
284.679
284.701
284.726
284.762
284.842
285.022
285.272
285.464
285.488
285.318
284.962
284.827
284.952
285.03
285.065
285.079
285.085
285.089
285.091
285.092
285.092
285.091
285.089
285.087
285.085
285.084
285.084
285.085
285.087
285.089
285.093
285.096
285.099
285.101
285.102
285.101
285.098
285.096
285.109
285.552
284.846
284.825
284.835
284.841
284.838
284.827
284.814
284.802
284.794
284.789
284.787
284.786
284.786
284.785
284.783
284.781
284.779
284.779
284.786
284.803
284.835
284.879
284.927
284.965
284.99
285.005
285.013
285.011
285
284.981
284.957
284.929
284.898
284.865
284.832
284.8
284.77
284.742
284.718
284.696
284.677
284.661
284.647
284.635
284.625
284.616
284.608
284.602
284.597
284.593
284.59
284.588
284.588
284.59
284.593
284.599
284.606
284.617
284.63
284.647
284.667
284.69
284.716
284.75
284.823
284.989
285.234
285.437
285.48
285.321
284.951
284.84
284.965
285.04
285.074
285.087
285.092
285.094
285.093
285.091
285.088
285.083
285.079
285.075
285.071
285.069
285.069
285.07
285.073
285.077
285.082
285.088
285.094
285.101
285.106
285.111
285.114
285.113
285.108
285.532
284.846
284.825
284.834
284.838
284.833
284.822
284.809
284.798
284.791
284.788
284.787
284.787
284.787
284.786
284.784
284.781
284.778
284.776
284.78
284.794
284.826
284.873
284.925
284.965
284.991
285.005
285.011
285.006
284.993
284.972
284.946
284.914
284.881
284.846
284.811
284.778
284.748
284.721
284.697
284.677
284.659
284.644
284.631
284.62
284.611
284.603
284.596
284.59
284.584
284.58
284.578
284.576
284.576
284.578
284.581
284.586
284.594
284.605
284.618
284.635
284.655
284.679
284.706
284.74
284.807
284.962
285.201
285.413
285.472
285.322
284.937
284.852
284.976
285.048
285.08
285.092
285.094
285.093
285.089
285.083
285.076
285.068
285.061
285.056
285.051
285.048
285.047
285.048
285.051
285.056
285.063
285.07
285.079
285.088
285.097
285.106
285.114
285.12
285.126
285.513
284.846
284.825
284.832
284.835
284.829
284.817
284.805
284.795
284.79
284.788
284.788
284.788
284.788
284.788
284.786
284.782
284.778
284.774
284.775
284.787
284.819
284.869
284.924
284.967
284.992
285.004
285.008
285.002
284.987
284.963
284.933
284.899
284.863
284.826
284.79
284.757
284.727
284.701
284.679
284.66
284.644
284.63
284.618
284.608
284.6
284.592
284.585
284.579
284.574
284.57
284.567
284.566
284.565
284.567
284.57
284.576
284.583
284.594
284.608
284.625
284.645
284.669
284.697
284.731
284.794
284.939
285.173
285.391
285.463
285.32
284.925
284.862
284.984
285.054
285.084
285.093
285.094
285.089
285.081
285.071
285.061
285.05
285.041
285.034
285.028
285.024
285.023
285.024
285.028
285.034
285.041
285.051
285.062
285.073
285.085
285.096
285.105
285.113
285.12
285.495
284.846
284.825
284.83
284.832
284.826
284.814
284.802
284.794
284.789
284.788
284.788
284.789
284.789
284.789
284.787
284.784
284.779
284.773
284.772
284.782
284.813
284.867
284.925
284.969
284.994
285.004
285.005
284.997
284.98
284.953
284.921
284.884
284.845
284.807
284.77
284.737
284.708
284.683
284.663
284.645
284.631
284.619
284.608
284.599
284.591
284.583
284.577
284.571
284.566
284.561
284.558
284.556
284.556
284.557
284.56
284.566
284.574
284.584
284.598
284.615
284.636
284.661
284.689
284.723
284.783
284.919
285.148
285.372
285.455
285.314
284.917
284.87
284.99
285.058
285.086
285.093
285.091
285.082
285.071
285.058
285.044
285.031
285.02
285.011
285.005
285
284.999
285
285.004
285.011
285.02
285.031
285.044
285.058
285.073
285.086
285.098
285.108
285.115
285.477
284.847
284.825
284.829
284.829
284.823
284.811
284.8
284.792
284.788
284.787
284.788
284.788
284.789
284.79
284.788
284.785
284.779
284.773
284.77
284.778
284.81
284.866
284.928
284.972
284.996
285.004
285.003
284.993
284.972
284.943
284.908
284.869
284.828
284.788
284.752
284.719
284.691
284.668
284.649
284.634
284.621
284.61
284.6
284.591
284.583
284.576
284.57
284.564
284.558
284.554
284.55
284.548
284.548
284.549
284.552
284.557
284.565
284.576
284.59
284.607
284.628
284.653
284.681
284.715
284.773
284.902
285.126
285.354
285.448
285.308
284.911
284.876
284.994
285.061
285.087
285.092
285.086
285.075
285.06
285.044
285.028
285.013
285
284.99
284.982
284.977
284.974
284.976
284.98
284.988
284.999
285.012
285.027
285.044
285.061
285.077
285.092
285.103
285.111
285.461
284.847
284.825
284.827
284.827
284.82
284.809
284.799
284.791
284.788
284.786
284.787
284.787
284.789
284.79
284.789
284.786
284.78
284.773
284.769
284.776
284.808
284.867
284.931
284.976
284.998
285.004
285
284.988
284.965
284.933
284.895
284.853
284.811
284.771
284.734
284.703
284.677
284.656
284.639
284.625
284.613
284.603
284.594
284.586
284.578
284.571
284.564
284.558
284.552
284.547
284.543
284.541
284.54
284.541
284.544
284.549
284.557
284.568
284.582
284.6
284.621
284.646
284.675
284.709
284.765
284.888
285.107
285.338
285.44
285.301
284.908
284.88
284.996
285.062
285.087
285.09
285.082
285.067
285.05
285.031
285.013
284.996
284.981
284.969
284.96
284.954
284.951
284.952
284.957
284.966
284.978
284.993
285.011
285.03
285.05
285.069
285.086
285.099
285.108
285.445
284.849
284.825
284.825
284.825
284.818
284.808
284.798
284.79
284.787
284.785
284.784
284.785
284.788
284.79
284.789
284.786
284.78
284.773
284.768
284.774
284.807
284.87
284.936
284.981
285
285.003
284.997
284.983
284.958
284.923
284.882
284.839
284.796
284.755
284.719
284.689
284.665
284.646
284.631
284.618
284.608
284.598
284.589
284.581
284.574
284.566
284.559
284.552
284.546
284.541
284.536
284.533
284.532
284.533
284.537
284.542
284.551
284.562
284.576
284.594
284.615
284.641
284.67
284.704
284.758
284.876
285.09
285.323
285.433
285.295
284.906
284.882
284.996
285.061
285.086
285.088
285.077
285.06
285.04
285.019
284.999
284.98
284.963
284.95
284.94
284.932
284.929
284.93
284.935
284.944
284.958
284.975
284.995
285.017
285.04
285.062
285.081
285.096
285.105
285.429
284.85
284.825
284.823
284.823
284.817
284.807
284.797
284.79
284.786
284.783
284.782
284.783
284.787
284.789
284.789
284.785
284.78
284.772
284.767
284.773
284.809
284.875
284.943
284.986
285.003
285.003
284.994
284.978
284.95
284.913
284.87
284.825
284.781
284.741
284.706
284.678
284.656
284.639
284.625
284.614
284.604
284.595
284.586
284.578
284.57
284.562
284.555
284.548
284.541
284.534
284.529
284.526
284.525
284.526
284.53
284.536
284.545
284.556
284.571
284.589
284.611
284.636
284.665
284.699
284.752
284.865
285.075
285.31
285.427
285.29
284.905
284.883
284.994
285.06
285.085
285.085
285.073
285.054
285.032
285.009
284.986
284.965
284.947
284.932
284.92
284.912
284.908
284.908
284.914
284.924
284.939
284.958
284.981
285.005
285.03
285.055
285.077
285.093
285.102
285.414
284.852
284.825
284.822
284.821
284.816
284.807
284.797
284.79
284.785
284.782
284.78
284.782
284.787
284.789
284.789
284.785
284.779
284.772
284.766
284.774
284.812
284.882
284.95
284.991
285.005
285.002
284.991
284.973
284.943
284.904
284.859
284.813
284.769
284.729
284.696
284.67
284.65
284.634
284.621
284.611
284.602
284.593
284.584
284.576
284.568
284.56
284.552
284.544
284.536
284.528
284.523
284.519
284.518
284.52
284.524
284.531
284.54
284.552
284.567
284.585
284.607
284.632
284.661
284.695
284.747
284.857
285.062
285.297
285.42
285.287
284.906
284.881
284.99
285.057
285.083
285.083
285.07
285.049
285.025
285
284.976
284.953
284.933
284.916
284.903
284.894
284.888
284.888
284.894
284.905
284.922
284.943
284.968
284.994
285.022
285.049
285.073
285.091
285.1
285.399
284.854
284.826
284.82
284.819
284.815
284.807
284.798
284.791
284.785
284.781
284.779
284.782
284.787
284.789
284.788
284.784
284.778
284.77
284.765
284.774
284.817
284.89
284.958
284.997
285.007
285.001
284.988
284.968
284.937
284.896
284.85
284.803
284.758
284.72
284.688
284.664
284.645
284.631
284.619
284.609
284.6
284.592
284.583
284.575
284.566
284.558
284.549
284.54
284.532
284.523
284.516
284.513
284.512
284.515
284.52
284.527
284.537
284.549
284.564
284.583
284.604
284.63
284.659
284.693
284.743
284.849
285.05
285.286
285.413
285.286
284.908
284.879
284.985
285.053
285.08
285.081
285.068
285.046
285.021
284.994
284.967
284.942
284.92
284.902
284.887
284.877
284.87
284.869
284.875
284.887
284.906
284.929
284.956
284.985
285.014
285.043
285.069
285.089
285.097
285.385
284.856
284.826
284.819
284.817
284.814
284.807
284.799
284.792
284.787
284.783
284.781
284.785
284.789
284.79
284.787
284.783
284.776
284.769
284.764
284.776
284.823
284.899
284.966
285.003
285.01
285
284.985
284.963
284.931
284.888
284.841
284.794
284.75
284.712
284.683
284.66
284.643
284.63
284.619
284.609
284.6
284.592
284.583
284.574
284.566
284.557
284.548
284.539
284.529
284.519
284.512
284.508
284.509
284.512
284.518
284.526
284.536
284.548
284.563
284.582
284.603
284.629
284.657
284.691
284.74
284.843
285.04
285.275
285.406
285.288
284.911
284.875
284.978
285.047
285.077
285.08
285.066
285.044
285.018
284.99
284.961
284.935
284.911
284.89
284.874
284.862
284.854
284.852
284.858
284.871
284.891
284.916
284.945
284.976
285.008
285.039
285.066
285.086
285.095
285.371
284.859
284.828
284.817
284.815
284.813
284.808
284.801
284.794
284.789
284.786
284.786
284.788
284.79
284.79
284.786
284.781
284.774
284.767
284.764
284.779
284.831
284.909
284.976
285.009
285.012
284.999
284.982
284.959
284.925
284.882
284.835
284.787
284.744
284.708
284.68
284.658
284.642
284.63
284.619
284.61
284.601
284.592
284.584
284.575
284.566
284.557
284.548
284.539
284.529
284.519
284.511
284.508
284.508
284.512
284.518
284.526
284.536
284.549
284.564
284.582
284.604
284.628
284.657
284.689
284.738
284.838
285.031
285.264
285.399
285.292
284.917
284.871
284.97
285.041
285.073
285.078
285.066
285.044
285.017
284.988
284.958
284.93
284.904
284.881
284.863
284.849
284.84
284.837
284.843
284.857
284.879
284.906
284.936
284.969
285.002
285.035
285.063
285.085
285.093
285.357
284.862
284.829
284.815
284.813
284.812
284.808
284.803
284.797
284.792
284.79
284.79
284.791
284.791
284.789
284.785
284.779
284.772
284.765
284.763
284.783
284.841
284.921
284.985
285.015
285.015
284.999
284.979
284.955
284.921
284.878
284.83
284.783
284.741
284.706
284.679
284.658
284.643
284.631
284.621
284.612
284.603
284.594
284.586
284.577
284.568
284.559
284.55
284.541
284.531
284.523
284.516
284.512
284.512
284.515
284.521
284.529
284.539
284.551
284.566
284.584
284.605
284.629
284.657
284.689
284.736
284.834
285.023
285.254
285.392
285.297
284.926
284.867
284.96
285.032
285.068
285.076
285.066
285.045
285.018
284.989
284.958
284.928
284.9
284.875
284.854
284.839
284.828
284.825
284.831
284.846
284.869
284.897
284.929
284.963
284.998
285.031
285.061
285.083
285.091
285.343
284.866
284.832
284.814
284.81
284.811
284.809
284.804
284.799
284.796
284.794
284.794
284.794
284.792
284.788
284.783
284.776
284.77
284.763
284.764
284.789
284.851
284.933
284.996
285.023
285.019
284.999
284.977
284.952
284.918
284.875
284.828
284.782
284.74
284.706
284.68
284.66
284.645
284.633
284.623
284.614
284.606
284.597
284.589
284.581
284.572
284.563
284.554
284.545
284.537
284.529
284.523
284.52
284.519
284.522
284.527
284.534
284.544
284.556
284.57
284.587
284.608
284.632
284.658
284.69
284.736
284.832
285.016
285.244
285.384
285.303
284.94
284.864
284.949
285.022
285.062
285.073
285.066
285.047
285.022
284.993
284.962
284.93
284.899
284.871
284.848
284.832
284.82
284.815
284.821
284.838
284.862
284.891
284.924
284.959
284.995
285.029
285.059
285.081
285.089
285.33
284.87
284.834
284.813
284.806
284.809
284.808
284.805
284.801
284.798
284.797
284.796
284.794
284.791
284.786
284.78
284.773
284.767
284.761
284.765
284.795
284.863
284.945
285.006
285.031
285.023
285
284.976
284.951
284.917
284.874
284.827
284.782
284.742
284.708
284.683
284.663
284.648
284.636
284.627
284.618
284.61
284.602
284.594
284.585
284.577
284.569
284.561
284.553
284.545
284.538
284.533
284.53
284.529
284.531
284.535
284.542
284.551
284.562
284.576
284.593
284.612
284.635
284.661
284.691
284.736
284.83
285.01
285.234
285.376
285.307
284.961
284.861
284.938
285.01
285.054
285.069
285.065
285.049
285.025
284.997
284.967
284.935
284.903
284.873
284.848
284.829
284.816
284.811
284.817
284.833
284.857
284.887
284.921
284.957
284.993
285.027
285.057
285.08
285.088
285.318
284.875
284.838
284.812
284.803
284.806
284.807
284.805
284.802
284.8
284.798
284.796
284.793
284.788
284.783
284.776
284.77
284.764
284.76
284.767
284.803
284.875
284.958
285.018
285.04
285.029
285.002
284.976
284.951
284.917
284.875
284.83
284.785
284.745
284.713
284.687
284.667
284.653
284.641
284.631
284.623
284.615
284.607
284.599
284.592
284.584
284.576
284.569
284.562
284.555
284.549
284.545
284.542
284.541
284.542
284.546
284.552
284.56
284.571
284.584
284.599
284.618
284.639
284.664
284.693
284.737
284.828
285.005
285.225
285.367
285.311
284.986
284.862
284.926
284.997
285.044
285.063
285.062
285.049
285.029
285.003
284.974
284.942
284.91
284.879
284.852
284.831
284.817
284.812
284.817
284.833
284.857
284.887
284.92
284.956
284.992
285.026
285.056
285.078
285.086
285.307
284.882
284.843
284.811
284.799
284.803
284.804
284.803
284.801
284.799
284.797
284.794
284.79
284.785
284.778
284.772
284.766
284.761
284.76
284.771
284.813
284.888
284.972
285.032
285.052
285.036
285.005
284.977
284.952
284.919
284.879
284.834
284.791
284.751
284.719
284.693
284.673
284.658
284.647
284.637
284.629
284.621
284.614
284.607
284.6
284.593
284.586
284.579
284.572
284.567
284.562
284.558
284.555
284.555
284.556
284.559
284.564
284.572
284.581
284.593
284.608
284.625
284.645
284.668
284.697
284.74
284.828
285
285.217
285.359
285.313
285.015
284.868
284.915
284.982
285.032
285.054
285.057
285.048
285.03
285.007
284.98
284.95
284.919
284.888
284.86
284.837
284.821
284.816
284.821
284.836
284.86
284.889
284.922
284.957
284.993
285.027
285.056
285.077