/*--------------------------------*- C++ -*----------------------------------*\
| =========                 |                                                 |
| \\      /  F ield         | OpenFOAM: The Open Source CFD Toolbox           |
|  \\    /   O peration     | Version:  4.1                                   |
|   \\  /    A nd           | Web:      www.OpenFOAM.org                      |
|    \\/     M anipulation  |                                                 |
\*---------------------------------------------------------------------------*/
FoamFile
{
    version     2.0;
    format      ascii;
    class       volVectorField;
    location    "1780";
    object      U;
}
// * * * * * * * * * * * * * * * * * * * * * * * * * * * * * * * * * * * * * //

dimensions      [0 1 -1 0 0 0 0];

internalField   nonuniform List<vector> 
5000
(
(-0.00414953 0.00248818 0)
(-0.00478335 0.000301093 0)
(-0.00472065 -0.000334247 0)
(-0.00420502 -0.000303081 0)
(-0.00376809 -0.000229161 0)
(-0.00340424 -0.000197776 0)
(-0.00307043 -0.000186823 0)
(-0.00274608 -0.000181668 0)
(-0.00242534 -0.000178643 0)
(-0.00210448 -0.000178468 0)
(-0.00177791 -0.000182487 0)
(-0.00143838 -0.000191407 0)
(-0.00107806 -0.000205185 0)
(-0.000690502 -0.000223386 0)
(-0.000279571 -0.000245365 0)
(0.000171172 -0.000271094 0)
(0.000689955 -0.000302576 0)
(0.00122557 -0.000320085 0)
(0.00177637 -0.000322214 0)
(0.00231471 -0.000298246 0)
(0.00282317 -0.000276667 0)
(0.00329878 -0.000256829 0)
(0.00374202 -0.000236001 0)
(0.00415108 -0.000213675 0)
(0.00452375 -0.000190383 0)
(0.00485946 -0.000167049 0)
(0.0051595 -0.000144716 0)
(0.00542676 -0.000124313 0)
(0.00566528 -0.000106521 0)
(0.00587989 -9.17369e-05 0)
(0.00607579 -8.01029e-05 0)
(0.00625817 -7.15502e-05 0)
(0.00643188 -6.58502e-05 0)
(0.00660122 -6.26548e-05 0)
(0.0067698 -6.15301e-05 0)
(0.00694039 -6.19857e-05 0)
(0.00711489 -6.34997e-05 0)
(0.00729431 -6.55439e-05 0)
(0.00747879 -6.76053e-05 0)
(0.00766765 -6.92064e-05 0)
(0.0078595 -6.99204e-05 0)
(0.00805227 -6.93826e-05 0)
(0.00824339 -6.72956e-05 0)
(0.00842985 -6.34306e-05 0)
(0.00860831 -5.76254e-05 0)
(0.00877521 -4.97805e-05 0)
(0.00892685 -3.98581e-05 0)
(0.00905946 -2.78885e-05 0)
(0.00916931 -1.39997e-05 0)
(0.00925294 1.48109e-06 0)
(0.00930739 1.77701e-05 0)
(0.00933061 3.32569e-05 0)
(0.0093253 4.75734e-05 0)
(0.00929061 6.10126e-05 0)
(0.00922522 7.40102e-05 0)
(0.00912789 8.68307e-05 0)
(0.00899726 9.96615e-05 0)
(0.00883158 0.000112968 0)
(0.00862751 0.000128309 0)
(0.00837663 0.00015047 0)
(0.00805545 0.000194178 0)
(0.0075957 0.000307739 0)
(0.0067805 0.000671468 0)
(0.00572483 0.00187849 0)
(0.000305808 0.00343876 0)
(-0.0050329 0.00141967 0)
(-0.0055478 0.000135885 0)
(-0.00553968 -0.000125789 0)
(-0.00528276 -0.00013325 0)
(-0.00501433 -0.000126772 0)
(-0.00473639 -0.000136513 0)
(-0.00442781 -0.00015853 0)
(-0.00407202 -0.000187114 0)
(-0.00366144 -0.000217378 0)
(-0.00319728 -0.000245011 0)
(-0.00268864 -0.00026645 0)
(-0.00215033 -0.00027935 0)
(-0.0015999 -0.000282931 0)
(-0.00105436 -0.000277886 0)
(-0.000527936 -0.000266176 0)
(-3.07936e-05 -0.000251559 0)
(0.00044538 -0.000236469 0)
(0.000886549 -0.000217825 0)
(0.00129349 -0.000197491 0)
(0.00166244 -0.000173765 0)
(0.00198816 -0.000145282 0)
(0.00226162 -0.000112218 0)
(0.00247191 -7.48524e-05 0)
(0.00260671 -3.31443e-05 0)
(0.00264673 1.59326e-05 0)
(0.00257557 8.52354e-05 0)
(0.00236506 0.000168544 0)
(0.00202202 0.000203087 0)
(0.00165494 0.000124181 0)
(0.00139378 1.20295e-05 0)
(0.00126464 -5.03341e-05 0)
(0.00129145 -0.000168359 0)
(0.00181697 -0.000641702 0)
(0.00263429 -0.000571248 0)
(0.00287155 0.00162168 0)
(-0.00334264 0.00548627 0)
(-0.0034844 0.00102933 0)
(-0.00376121 -0.000664844 0)
(-0.0036274 -0.000655573 0)
(-0.00341146 -0.000546971 0)
(-0.00316257 -0.000497951 0)
(-0.00290496 -0.000482239 0)
(-0.002641 -0.000478407 0)
(-0.00236704 -0.000480444 0)
(-0.00207846 -0.000489384 0)
(-0.00177062 -0.000507393 0)
(-0.001439 -0.000535489 0)
(-0.00107914 -0.000573315 0)
(-0.000687386 -0.000619987 0)
(-0.00026786 -0.000675027 0)
(0.000193756 -0.000736152 0)
(0.000694905 -0.000794413 0)
(0.00119219 -0.000824974 0)
(0.0016951 -0.000824057 0)
(0.00220328 -0.000784712 0)
(0.00270449 -0.000739506 0)
(0.00318662 -0.000692072 0)
(0.00364253 -0.000641555 0)
(0.00406901 -0.000588875 0)
(0.00446502 -0.00053581 0)
(0.00483105 -0.000484374 0)
(0.00516893 -0.000436575 0)
(0.00548161 -0.000394125 0)
(0.00577283 -0.000358232 0)
(0.00604676 -0.000329522 0)
(0.00630762 -0.000308087 0)
(0.00655942 -0.000293578 0)
(0.00680574 -0.000285319 0)
(0.00704959 -0.000282394 0)
(0.00729337 -0.000283728 0)
(0.00753881 -0.000288153 0)
(0.00778702 -0.000294461 0)
(0.00803846 -0.000301453 0)
(0.00829298 -0.000307982 0)
(0.00854986 -0.000312987 0)
(0.00880784 -0.000315518 0)
(0.00906519 -0.000314756 0)
(0.00931973 -0.000310015 0)
(0.00956895 -0.000300748 0)
(0.00981002 -0.000286533 0)
(0.0100399 -0.000267071 0)
(0.0102552 -0.000242181 0)
(0.0104528 -0.000211817 0)
(0.0106291 -0.00017615 0)
(0.010781 -0.000135779 0)
(0.0109056 -9.21337e-05 0)
(0.0110006 -4.69633e-05 0)
(0.0110593 3.02051e-07 0)
(0.0110761 4.98465e-05 0)
(0.0110471 0.000102019 0)
(0.0109684 0.000157046 0)
(0.0108356 0.000215412 0)
(0.0106435 0.000278824 0)
(0.0103842 0.000352507 0)
(0.0100427 0.000450871 0)
(0.00958824 0.00061333 0)
(0.00895635 0.000951995 0)
(0.00798223 0.00180017 0)
(0.0067671 0.00398124 0)
(0.00383422 0.00718182 0)
(-0.00216402 0.00486011 0)
(-0.0041243 0.000794099 0)
(-0.00459544 -0.000257968 0)
(-0.00455382 -0.000383753 0)
(-0.0043803 -0.000413317 0)
(-0.00413468 -0.000451408 0)
(-0.00383939 -0.000508528 0)
(-0.00349552 -0.000580359 0)
(-0.00309985 -0.000657685 0)
(-0.0026531 -0.00072932 0)
(-0.00216294 -0.000784796 0)
(-0.00164339 -0.000816927 0)
(-0.00111155 -0.000823367 0)
(-0.000584072 -0.000806647 0)
(-7.43625e-05 -0.000774434 0)
(0.000424143 -0.000734957 0)
(0.000895157 -0.000690946 0)
(0.00133877 -0.000641331 0)
(0.00175616 -0.000587205 0)
(0.00214469 -0.000525015 0)
(0.00249766 -0.000449812 0)
(0.00280228 -0.000357832 0)
(0.00304205 -0.000247537 0)
(0.00320019 -0.000120542 0)
(0.0032708 1.90022e-05 0)
(0.00325554 0.000184125 0)
(0.0031635 0.000373606 0)
(0.00300246 0.00050155 0)
(0.0027809 0.00046658 0)
(0.00250361 0.00031988 0)
(0.00223679 0.000139085 0)
(0.00210191 -0.000176909 0)
(0.00204479 -0.000898337 0)
(0.00190929 -0.00089905 0)
(0.00237642 0.00382933 0)
(-0.00260163 0.00825048 0)
(-0.00216161 0.0018417 0)
(-0.00273325 -0.000572564 0)
(-0.0029401 -0.000719791 0)
(-0.00291364 -0.000697755 0)
(-0.00280336 -0.000688813 0)
(-0.00265345 -0.000694133 0)
(-0.00248101 -0.000706559 0)
(-0.00229031 -0.000725792 0)
(-0.00207947 -0.000755053 0)
(-0.00184415 -0.00079726 0)
(-0.00157957 -0.000853343 0)
(-0.00128163 -0.000922256 0)
(-0.00094781 -0.00100206 0)
(-0.000579599 -0.00109093 0)
(-0.000188351 -0.00118183 0)
(0.000256467 -0.00126365 0)
(0.000717507 -0.00131057 0)
(0.00119109 -0.00131635 0)
(0.0016786 -0.0012819 0)
(0.00216624 -0.00122881 0)
(0.00264366 -0.00116433 0)
(0.0031011 -0.00109067 0)
(0.003532 -0.00101114 0)
(0.00393318 -0.000929646 0)
(0.00430384 -0.000850135 0)
(0.00464511 -0.000776188 0)
(0.00495976 -0.000710668 0)
(0.00525172 -0.000655502 0)
(0.00552558 -0.000611611 0)
(0.00578605 -0.000579022 0)
(0.00603759 -0.000557065 0)
(0.0062842 -0.000544571 0)
(0.00652922 -0.000540049 0)
(0.00677534 -0.000541801 0)
(0.00702449 -0.000548026 0)
(0.0072779 -0.00055689 0)
(0.00753607 -0.000566584 0)
(0.00779879 -0.000575376 0)
(0.00806521 -0.000581659 0)
(0.00833391 -0.000583981 0)
(0.00860291 -0.000581073 0)
(0.00886984 -0.000571866 0)
(0.00913196 -0.000555489 0)
(0.0093863 -0.000531268 0)
(0.00962972 -0.000498708 0)
(0.00985895 -0.000457482 0)
(0.0100707 -0.00040744 0)
(0.0102614 -0.000348666 0)
(0.0104274 -0.000281614 0)
(0.0105643 -0.00020725 0)
(0.0106666 -0.000125965 0)
(0.0107292 -3.64916e-05 0)
(0.0107453 6.15458e-05 0)
(0.0107093 0.000167909 0)
(0.0106155 0.000282372 0)
(0.0104578 0.00040567 0)
(0.0102291 0.000540984 0)
(0.00992094 0.000697258 0)
(0.00952153 0.000897185 0)
(0.00901477 0.0011974 0)
(0.00838371 0.00174374 0)
(0.00759867 0.00293381 0)
(0.00684598 0.0057403 0)
(0.00549013 0.00999373 0)
(0.00199225 0.00972562 0)
(-0.00178692 0.00247582 0)
(-0.00340504 4.10884e-05 0)
(-0.00363231 -0.000413263 0)
(-0.00360498 -0.000567655 0)
(-0.00346778 -0.000678372 0)
(-0.00324113 -0.000797857 0)
(-0.00293418 -0.000932122 0)
(-0.00255361 -0.0010704 0)
(-0.00211034 -0.00119547 0)
(-0.00162135 -0.00129027 0)
(-0.00110794 -0.00134336 0)
(-0.000591595 -0.00135241 0)
(-9.08535e-05 -0.00132515 0)
(0.000398093 -0.00127391 0)
(0.000860041 -0.00121214 0)
(0.00130003 -0.00114465 0)
(0.00172646 -0.00107533 0)
(0.00214586 -0.00100213 0)
(0.00255803 -0.000917379 0)
(0.00295547 -0.0008096 0)
(0.00332215 -0.000667949 0)
(0.00363508 -0.000486636 0)
(0.00386795 -0.000268475 0)
(0.00399697 -2.78928e-05 0)
(0.00400956 0.000223718 0)
(0.00392959 0.000474362 0)
(0.00377929 0.000663349 0)
(0.00355068 0.000717449 0)
(0.00322012 0.000642024 0)
(0.00281156 0.000450198 0)
(0.00237576 6.49556e-05 0)
(0.00194466 -0.00062209 0)
(0.00105404 -0.000780142 0)
(0.00183655 0.00579223 0)
(-0.00212018 0.0102325 0)
(-0.0015349 0.00241801 0)
(-0.00223053 -0.00023958 0)
(-0.00248585 -0.000606747 0)
(-0.00256686 -0.000706821 0)
(-0.002565 -0.000761991 0)
(-0.00251865 -0.000801522 0)
(-0.00244455 -0.000836616 0)
(-0.00234678 -0.000877229 0)
(-0.00222253 -0.000931459 0)
(-0.00206639 -0.00100381 0)
(-0.00187288 -0.00109482 0)
(-0.00163798 -0.00120186 0)
(-0.00136004 -0.00132044 0)
(-0.00104067 -0.00144526 0)
(-0.000685768 -0.0015693 0)
(-0.000305233 -0.00167769 0)
(0.000123284 -0.00175723 0)
(0.000579785 -0.00178808 0)
(0.00105875 -0.00176506 0)
(0.00154147 -0.00170859 0)
(0.00202005 -0.00163013 0)
(0.00248343 -0.001534 0)
(0.00292174 -0.00142629 0)
(0.00332974 -0.00131364 0)
(0.00370534 -0.00120257 0)
(0.00404904 -0.00109895 0)
(0.00436365 -0.00100736 0)
(0.00465364 -0.000930804 0)
(0.00492445 -0.00087062 0)
(0.0051817 -0.000826767 0)
(0.00543073 -0.000798166 0)
(0.00567624 -0.000783045 0)
(0.00592213 -0.000779194 0)
(0.00617146 -0.000784145 0)
(0.00642635 -0.000795296 0)
(0.00668799 -0.000810004 0)
(0.00695666 -0.00082567 0)
(0.00723176 -0.000839809 0)
(0.0075119 -0.000850123 0)
(0.00779501 -0.000854558 0)
(0.00807849 -0.000851352 0)
(0.00835931 -0.000839052 0)
(0.00863422 -0.000816522 0)
(0.00889979 -0.000782918 0)
(0.00915258 -0.000737658 0)
(0.00938914 -0.00068038 0)
(0.00960609 -0.000610892 0)
(0.00980004 -0.000529144 0)
(0.00996748 -0.000435177 0)
(0.0101046 -0.000329004 0)
(0.0102069 -0.000210209 0)
(0.0102695 -7.76557e-05 0)
(0.0102874 6.95986e-05 0)
(0.0102535 0.000231847 0)
(0.0101602 0.000409246 0)
(0.0099994 0.000603143 0)
(0.00976223 0.000817639 0)
(0.0094397 0.00106276 0)
(0.00902407 0.00136208 0)
(0.00851255 0.00177133 0)
(0.00791991 0.00242872 0)
(0.00728662 0.00371341 0)
(0.00683462 0.00666174 0)
(0.00638489 0.0115146 0)
(0.00448664 0.012674 0)
(0.00152113 0.00730907 0)
(-0.00255895 0.000881977 0)
(-0.00303161 -0.000352619 0)
(-0.00302781 -0.000619677 0)
(-0.00292942 -0.000831679 0)
(-0.00273336 -0.00104612 0)
(-0.00244483 -0.00126648 0)
(-0.0020751 -0.00147848 0)
(-0.00164202 -0.00165959 0)
(-0.00117013 -0.00178757 0)
(-0.000687285 -0.00184954 0)
(-0.000218654 -0.00184798 0)
(0.00022649 -0.00179838 0)
(0.000647051 -0.00172227 0)
(0.00104339 -0.0016395 0)
(0.00143658 -0.00156208 0)
(0.00184047 -0.00149284 0)
(0.00226476 -0.00142478 0)
(0.00271032 -0.00134251 0)
(0.00316611 -0.00122357 0)
(0.00360938 -0.00104751 0)
(0.00400958 -0.000802739 0)
(0.00433306 -0.000491106 0)
(0.00454975 -0.000130622 0)
(0.00463457 0.000245355 0)
(0.00458902 0.000595833 0)
(0.0044241 0.000875683 0)
(0.00414425 0.00103842 0)
(0.00374766 0.00106624 0)
(0.00325045 0.000950753 0)
(0.0026819 0.000653384 0)
(0.00206516 7.44029e-05 0)
(0.000884524 -0.000255308 0)
(0.00145261 0.00704669 0)
(-0.00178021 0.0116713 0)
(-0.00118575 0.00284561 0)
(-0.00192917 9.87254e-05 0)
(-0.00218608 -0.000417614 0)
(-0.00234777 -0.000621319 0)
(-0.00243964 -0.00073613 0)
(-0.00249264 -0.000810532 0)
(-0.00251764 -0.000871835 0)
(-0.00251416 -0.00093978 0)
(-0.00247625 -0.0010269 0)
(-0.0023967 -0.0011385 0)
(-0.00226942 -0.00127386 0)
(-0.00209065 -0.00142802 0)
(-0.00185946 -0.00159356 0)
(-0.00157799 -0.0017618 0)
(-0.00125137 -0.00192306 0)
(-0.000886851 -0.00206592 0)
(-0.000491921 -0.00217582 0)
(-6.58908e-05 -0.00224281 0)
(0.000415542 -0.00224703 0)
(0.000901475 -0.00219393 0)
(0.00138384 -0.00210479 0)
(0.00185609 -0.00198778 0)
(0.00230498 -0.00185232 0)
(0.00272337 -0.00170793 0)
(0.0031077 -0.00156384 0)
(0.00345758 -0.00142876 0)
(0.00377587 -0.00130962 0)
(0.00406786 -0.00121094 0)
(0.00434023 -0.00113468 0)
(0.00459989 -0.00108067 0)
(0.00485324 -0.00104727 0)
(0.00510581 -0.00103193 0)
(0.00536203 -0.0010315 0)
(0.00562513 -0.00104253 0)
(0.0058971 -0.00106135 0)
(0.00617869 -0.00108427 0)
(0.00646946 -0.0011077 0)
(0.00676791 -0.00112822 0)
(0.00707167 -0.00114276 0)
(0.00737768 -0.00114864 0)
(0.00768241 -0.00114365 0)
(0.00798208 -0.00112606 0)
(0.00827281 -0.00109461 0)
(0.00855076 -0.00104844 0)
(0.00881223 -0.000987038 0)
(0.00905371 -0.000910163 0)
(0.00927188 -0.000817724 0)
(0.00946359 -0.000709703 0)
(0.00962577 -0.000586033 0)
(0.00975525 -0.00044644 0)
(0.00984869 -0.000290202 0)
(0.00990226 -0.000115888 0)
(0.0099127 7.8465e-05 0)
(0.00987457 0.000294703 0)
(0.00978081 0.000534304 0)
(0.00962346 0.000799557 0)
(0.00939373 0.00109484 0)
(0.00908304 0.00142901 0)
(0.00868567 0.00182131 0)
(0.008204 0.00231564 0)
(0.0076615 0.00302084 0)
(0.0071167 0.00425148 0)
(0.00679542 0.007009 0)
(0.00681719 0.0120285 0)
(0.00596339 0.0143895 0)
(0.00397531 0.0110615 0)
(-0.000266458 0.0041563 0)
(-0.00263532 -1.65936e-05 0)
(-0.00253762 -0.000604364 0)
(-0.00249438 -0.000957422 0)
(-0.00231947 -0.00127879 0)
(-0.00204291 -0.00158903 0)
(-0.0016862 -0.00187361 0)
(-0.00127431 -0.00210327 0)
(-0.00084018 -0.00224964 0)
(-0.000418049 -0.00230094 0)
(-3.15176e-05 -0.00227076 0)
(0.000320573 -0.00218763 0)
(0.000644211 -0.0020888 0)
(0.000966015 -0.00200177 0)
(0.00131228 -0.00193975 0)
(0.00170261 -0.00190176 0)
(0.00214707 -0.00187135 0)
(0.0026417 -0.00182075 0)
(0.00316671 -0.0017121 0)
(0.00369115 -0.00151464 0)
(0.00417797 -0.00121192 0)
(0.0045881 -0.000805463 0)
(0.00488451 -0.000318944 0)
(0.0050376 0.000200517 0)
(0.00502988 0.000691014 0)
(0.00486655 0.00110386 0)
(0.00455685 0.00139739 0)
(0.00411056 0.00154516 0)
(0.00354358 0.00152893 0)
(0.0028752 0.0013179 0)
(0.00216205 0.000849902 0)
(0.000851666 0.00048006 0)
(0.00115527 0.00794084 0)
(-0.00152082 0.0128269 0)
(-0.000956117 0.0032359 0)
(-0.00173399 0.000440204 0)
(-0.00199439 -0.000165532 0)
(-0.00223145 -0.000452333 0)
(-0.0024116 -0.000615123 0)
(-0.00256036 -0.000720453 0)
(-0.00268123 -0.000810653 0)
(-0.00276762 -0.000913354 0)
(-0.00280988 -0.00104355 0)
(-0.00279925 -0.00120571 0)
(-0.00272954 -0.00139664 0)
(-0.00259763 -0.00160845 0)
(-0.00240346 -0.00183071 0)
(-0.00214983 -0.00205178 0)
(-0.00184211 -0.00225939 0)
(-0.00148754 -0.0024411 0)
(-0.00109438 -0.00258499 0)
(-0.000671322 -0.00268078 0)
(-0.00023074 -0.00271906 0)
(0.000273201 -0.00268493 0)
(0.000762426 -0.00258997 0)
(0.00124621 -0.0024539 0)
(0.00170936 -0.0022907 0)
(0.00214324 -0.00211344 0)
(0.00254271 -0.00193413 0)
(0.00290565 -0.00176494 0)
(0.00323473 -0.001616 0)
(0.00353623 -0.0014942 0)
(0.00381848 -0.00140232 0)
(0.00408992 -0.00133994 0)
(0.00435814 -0.0013046 0)
(0.00462936 -0.00129257 0)
(0.00490823 -0.00129941 0)
(0.00519775 -0.00132021 0)
(0.00549922 -0.00134989 0)
(0.00581239 -0.00138341 0)
(0.00613563 -0.00141591 0)
(0.00646617 -0.00144297 0)
(0.00680041 -0.00146075 0)
(0.00713425 -0.00146606 0)
(0.00746329 -0.00145639 0)
(0.00778311 -0.00142995 0)
(0.0080894 -0.00138555 0)
(0.00837811 -0.00132254 0)
(0.0086455 -0.00124065 0)
(0.00888818 -0.00113993 0)
(0.00910308 -0.00102054 0)
(0.00928745 -0.000882655 0)
(0.00943875 -0.000726315 0)
(0.00955459 -0.000551227 0)
(0.00963258 -0.000356564 0)
(0.00967003 -0.000140751 0)
(0.00966521 9.88058e-05 0)
(0.0096148 0.000365247 0)
(0.00951339 0.000661631 0)
(0.00935498 0.000991577 0)
(0.00913263 0.00135992 0)
(0.0088393 0.00177409 0)
(0.00847048 0.00224792 0)
(0.00802893 0.00281171 0)
(0.00753537 0.00354274 0)
(0.00704222 0.00468215 0)
(0.00674942 0.00711799 0)
(0.00697467 0.0119872 0)
(0.00680199 0.0152817 0)
(0.00554513 0.0136681 0)
(0.002512 0.00852365 0)
(-0.00182911 0.000926539 0)
(-0.00234482 -0.000634061 0)
(-0.00219992 -0.00109457 0)
(-0.00200509 -0.0015061 0)
(-0.00173081 -0.00189964 0)
(-0.00139033 -0.00224778 0)
(-0.00101347 -0.00250909 0)
(-0.000642127 -0.00264858 0)
(-0.000313589 -0.00266202 0)
(-4.15309e-05 -0.0025842 0)
(0.000190349 -0.00246768 0)
(0.000413213 -0.00236274 0)
(0.000667343 -0.00230243 0)
(0.000983907 -0.00229329 0)
(0.0013822 -0.00232508 0)
(0.00186384 -0.00236448 0)
(0.00241392 -0.00236736 0)
(0.00300158 -0.00228019 0)
(0.00359266 -0.00206626 0)
(0.00414845 -0.00170666 0)
(0.00462943 -0.00120187 0)
(0.00499347 -0.000578896 0)
(0.0052072 0.000104731 0)
(0.00523448 0.000766084 0)
(0.0050789 0.00134169 0)
(0.00475492 0.00178648 0)
(0.00427943 0.00207032 0)
(0.00367146 0.0021722 0)
(0.00294653 0.00206568 0)
(0.0021841 0.00169141 0)
(0.000844563 0.00132897 0)
(0.000920192 0.0087048 0)
(-0.00131738 0.0138177 0)
(-0.000806751 0.00362694 0)
(-0.0016088 0.000805205 0)
(-0.00188808 0.000138517 0)
(-0.00219503 -0.000208128 0)
(-0.00246429 -0.000405861 0)
(-0.00270568 -0.000537038 0)
(-0.00291616 -0.000659955 0)
(-0.00308382 -0.000806514 0)
(-0.00319638 -0.000991091 0)
(-0.00324455 -0.0012154 0)
(-0.00322277 -0.00147287 0)
(-0.00312894 -0.00175233 0)
(-0.00296393 -0.00204044 0)
(-0.00273123 -0.00232295 0)
(-0.00243651 -0.00258536 0)
(-0.00208729 -0.00281359 0)
(-0.0016925 -0.00299492 0)
(-0.00126212 -0.00311928 0)
(-0.000807491 -0.00318037 0)
(-0.000340921 -0.00317223 0)
(0.000165189 -0.00308608 0)
(0.000664923 -0.00293683 0)
(0.00114645 -0.00274778 0)
(0.00160106 -0.00253784 0)
(0.00202313 -0.00232219 0)
(0.0024078 -0.00211709 0)
(0.00275686 -0.00193694 0)
(0.00307758 -0.00179214 0)
(0.00338024 -0.00168644 0)
(0.0036749 -0.00161886 0)
(0.00397007 -0.00158556 0)
(0.00427228 -0.00158111 0)
(0.00458584 -0.00159916 0)
(0.00491291 -0.00163292 0)
(0.00525358 -0.0016755 0)
(0.00560621 -0.00172026 0)
(0.00596772 -0.00176109 0)
(0.00633406 -0.00179265 0)
(0.00670056 -0.0018105 0)
(0.00706229 -0.00181116 0)
(0.00741429 -0.00179214 0)
(0.00775181 -0.00175177 0)
(0.00807043 -0.00168919 0)
(0.00836613 -0.00160408 0)
(0.00863534 -0.00149662 0)
(0.00887494 -0.00136724 0)
(0.00908227 -0.00121647 0)
(0.00925504 -0.00104483 0)
(0.00939128 -0.000852597 0)
(0.00948933 -0.000639652 0)
(0.00954771 -0.000405287 0)
(0.00956469 -0.000148006 0)
(0.00953996 0.000135223 0)
(0.00947167 0.000448409 0)
(0.00935643 0.000795933 0)
(0.00919063 0.00118266 0)
(0.00896982 0.00161398 0)
(0.00868913 0.00209627 0)
(0.00834525 0.00263901 0)
(0.00794009 0.00326142 0)
(0.0074891 0.00401509 0)
(0.00703296 0.00507614 0)
(0.00672623 0.00717874 0)
(0.00698769 0.011687 0)
(0.00722417 0.0156228 0)
(0.00654111 0.0154735 0)
(0.0043791 0.0116865 0)
(0.000606834 0.00490766 0)
(-0.00218281 -0.000397272 0)
(-0.00194137 -0.0012356 0)
(-0.00175801 -0.00173542 0)
(-0.00149732 -0.00219801 0)
(-0.0011831 -0.00259137 0)
(-0.000860942 -0.00285582 0)
(-0.000582344 -0.00295342 0)
(-0.000379117 -0.00290075 0)
(-0.000243631 -0.00276647 0)
(-0.000135149 -0.00263186 0)
(-2.46462e-06 -0.00255508 0)
(0.000206435 -0.00256343 0)
(0.000516953 -0.00264991 0)
(0.000939126 -0.00278501 0)
(0.00145294 -0.00291104 0)
(0.00203606 -0.00297182 0)
(0.00265044 -0.00290492 0)
(0.00327076 -0.00267552 0)
(0.00386147 -0.00226336 0)
(0.00438881 -0.00166384 0)
(0.00480817 -0.000901224 0)
(0.00507879 -3.95959e-05 0)
(0.0051494 0.000815312 0)
(0.0050108 0.00157424 0)
(0.0046894 0.00218459 0)
(0.0042107 0.00261395 0)
(0.00359853 0.00284142 0)
(0.00286674 0.00284365 0)
(0.00211044 0.00256181 0)
(0.000830752 0.00222562 0)
(0.000741434 0.00940674 0)
(-0.00115499 0.0146916 0)
(-0.000716472 0.00402651 0)
(-0.00153695 0.00120243 0)
(-0.00185054 0.000492143 0)
(-0.00222649 0.000123124 0)
(-0.00257959 -0.00010984 0)
(-0.00291056 -0.000269129 0)
(-0.00320302 -0.000429025 0)
(-0.00344092 -0.00062981 0)
(-0.00361233 -0.000880203 0)
(-0.00370895 -0.0011774 0)
(-0.00372647 -0.00151098 0)
(-0.00366391 -0.00186661 0)
(-0.00352291 -0.00222831 0)
(-0.00330728 -0.00257961 0)
(-0.00302277 -0.00290407 0)
(-0.00267687 -0.0031859 0)
(-0.0022788 -0.00341092 0)
(-0.00183932 -0.00356782 0)
(-0.00137059 -0.00364965 0)
(-0.000885565 -0.00365451 0)
(-0.000397043 -0.00358437 0)
(0.000113575 -0.00343694 0)
(0.000619767 -0.00322843 0)
(0.00110003 -0.00298856 0)
(0.00155183 -0.00273693 0)
(0.00196715 -0.0024947 0)
(0.00234609 -0.00228236 0)
(0.00269657 -0.00211539 0)
(0.0030309 -0.00199832 0)
(0.00336037 -0.00192903 0)
(0.0036939 -0.00190164 0)
(0.00403765 -0.00190829 0)
(0.00439504 -0.00194018 0)
(0.00476687 -0.00198822 0)
(0.00515178 -0.00204354 0)
(0.00554663 -0.00209793 0)
(0.00594712 -0.00214416 0)
(0.00634818 -0.00217622 0)
(0.00674446 -0.00218937 0)
(0.00713057 -0.00218014 0)
(0.00750138 -0.00214623 0)
(0.00785212 -0.00208637 0)
(0.00817849 -0.0020001 0)
(0.00847672 -0.00188763 0)
(0.00874356 -0.00174962 0)
(0.00897627 -0.00158697 0)
(0.00917261 -0.0014007 0)
(0.00933078 -0.0011917 0)
(0.00944939 -0.000960602 0)
(0.00952742 -0.000707592 0)
(0.00956416 -0.000432218 0)
(0.00955873 -0.000133244 0)
(0.00951204 0.000192699 0)
(0.00942306 0.000549967 0)
(0.00929025 0.000943783 0)
(0.00911222 0.00137993 0)
(0.00888687 0.00186431 0)
(0.0086116 0.00240288 0)
(0.0082845 0.00300231 0)
(0.00790688 0.00367415 0)
(0.00748957 0.00445105 0)
(0.00706266 0.00545678 0)
(0.00673256 0.00726633 0)
(0.00693407 0.011295 0)
(0.00737976 0.0155913 0)
(0.00712778 0.0166486 0)
(0.00560409 0.0141194 0)
(0.00276702 0.00870309 0)
(-0.00115014 0.00101514 0)
(-0.00190701 -0.00135879 0)
(-0.00157967 -0.00196951 0)
(-0.00133083 -0.00247576 0)
(-0.00105874 -0.00288711 0)
(-0.000816832 -0.00311529 0)
(-0.000663136 -0.00313189 0)
(-0.000609218 -0.00299451 0)
(-0.00061483 -0.00281523 0)
(-0.000612809 -0.00269602 0)
(-0.000539931 -0.00269333 0)
(-0.000355439 -0.00281171 0)
(-5.06942e-05 -0.0030197 0)
(0.000382417 -0.00326992 0)
(0.000888001 -0.00347693 0)
(0.00145183 -0.00358621 0)
(0.00203507 -0.00353562 0)
(0.00263328 -0.003296 0)
(0.00321391 -0.00284602 0)
(0.00375686 -0.00217077 0)
(0.00421971 -0.00128112 0)
(0.00455219 -0.0002368 0)
(0.00469025 0.000828493 0)
(0.00458831 0.00178401 0)
(0.00429558 0.00256526 0)
(0.00385062 0.00313948 0)
(0.00328288 0.00348879 0)
(0.00260332 0.00359312 0)
(0.00191777 0.00339292 0)
(0.00077534 0.0030874 0)
(0.000608251 0.0100544 0)
(-0.00102242 0.0154782 0)
(-0.000666218 0.00444273 0)
(-0.00150541 0.00164111 0)
(-0.00186641 0.000903943 0)
(-0.00231625 0.000523834 0)
(-0.00275268 0.00028485 0)
(-0.00316135 8.24073e-05 0)
(-0.00352023 -0.000133923 0)
(-0.00381858 -0.000395595 0)
(-0.00403765 -0.000721626 0)
(-0.00417357 -0.00110035 0)
(-0.00422372 -0.00151743 0)
(-0.00418794 -0.00195578 0)
(-0.00406814 -0.00239732 0)
(-0.00386799 -0.00282369 0)
(-0.00359283 -0.00321669 0)
(-0.00324979 -0.00355875 0)
(-0.00284794 -0.00383385 0)
(-0.00239839 -0.00402894 0)
(-0.00191408 -0.00413565 0)
(-0.00140915 -0.00415218 0)
(-0.000897735 -0.00408453 0)
(-0.000392773 -0.00394457 0)
(0.000126201 -0.0037337 0)
(0.000638986 -0.00347144 0)
(0.00112664 -0.00318717 0)
(0.00158045 -0.00290756 0)
(0.00199832 -0.00266246 0)
(0.00238852 -0.00247492 0)
(0.00276504 -0.00234929 0)
(0.00313945 -0.00228148 0)
(0.00352035 -0.00226281 0)
(0.00391295 -0.00228243 0)
(0.0043193 -0.00232868 0)
(0.00473873 -0.00239001 0)
(0.00516843 -0.00245563 0)
(0.00560413 -0.00251598 0)
(0.00604062 -0.00256302 0)
(0.00647231 -0.00259035 0)
(0.00689353 -0.00259322 0)
(0.00729887 -0.00256838 0)
(0.00768327 -0.00251394 0)
(0.0080422 -0.00242911 0)
(0.00837168 -0.00231397 0)
(0.00866828 -0.00216929 0)
(0.00892916 -0.00199627 0)
(0.00915199 -0.00179635 0)
(0.00933499 -0.00157101 0)
(0.00947681 -0.00132161 0)
(0.00957659 -0.00104919 0)
(0.00963385 -0.000754322 0)
(0.00964851 -0.000436902 0)
(0.00962049 -9.60557e-05 0)
(0.00955152 0.000271837 0)
(0.00944106 0.000671205 0)
(0.0092891 0.00110764 0)
(0.00909601 0.00158741 0)
(0.00886163 0.00211681 0)
(0.00858534 0.00270171 0)
(0.0082667 0.00334733 0)
(0.00790693 0.00406034 0)
(0.00751333 0.00486016 0)
(0.00710797 0.0058308 0)
(0.00675753 0.00740503 0)
(0.00685477 0.0109151 0)
(0.00736486 0.0153265 0)
(0.00741558 0.0173425 0)
(0.00638567 0.015963 0)
(0.00421757 0.0115953 0)
(0.000839363 0.00470104 0)
(-0.00179175 -0.00118207 0)
(-0.00144474 -0.00220076 0)
(-0.00120962 -0.00272529 0)
(-0.00100889 -0.00311192 0)
(-0.000877484 -0.00325559 0)
(-0.000877236 -0.00315778 0)
(-0.000982186 -0.00293711 0)
(-0.0011157 -0.00274669 0)
(-0.00119397 -0.00269159 0)
(-0.0011593 -0.00280436 0)
(-0.000992089 -0.00305683 0)
(-0.000706675 -0.00338614 0)
(-0.000337512 -0.00371678 0)
(9.86771e-05 -0.00399109 0)
(0.000578696 -0.00413874 0)
(0.00106971 -0.00410876 0)
(0.00159275 -0.0038729 0)
(0.00211229 -0.00341027 0)
(0.00263128 -0.002696 0)
(0.00311876 -0.00171652 0)
(0.00351827 -0.00050643 0)
(0.0037697 0.000780043 0)
(0.00373696 0.00194054 0)
(0.00351113 0.00288813 0)
(0.00315231 0.00359616 0)
(0.00269308 0.00405455 0)
(0.00213596 0.00424728 0)
(0.00159399 0.00411179 0)
(0.000657874 0.0038337 0)
(0.000507271 0.0106359 0)
(-0.000911704 0.0162008 0)
(-0.000643145 0.00488612 0)
(-0.00150489 0.0021288 0)
(-0.00192386 0.00138042 0)
(-0.00244836 0.000997138 0)
(-0.00295844 0.000745104 0)
(-0.00343913 0.000509733 0)
(-0.00385834 0.000229215 0)
(-0.00419441 -0.000119163 0)
(-0.00445479 -0.000525036 0)
(-0.00462289 -0.000990995 0)
(-0.004701 -0.00149654 0)
(-0.00468935 -0.00202235 0)
(-0.00458951 -0.00254866 0)
(-0.00440449 -0.00305559 0)
(-0.00413887 -0.00352323 0)
(-0.00379909 -0.00393206 0)
(-0.0033938 -0.00426389 0)
(-0.0029341 -0.00450343 0)
(-0.00243349 -0.0046404 0)
(-0.00190731 -0.00467214 0)
(-0.00137124 -0.00460587 0)
(-0.000839078 -0.00445909 0)
(-0.000322065 -0.00425408 0)
(0.000213402 -0.00398778 0)
(0.000743033 -0.00367942 0)
(0.0012419 -0.00336425 0)
(0.00170573 -0.00308628 0)
(0.00214381 -0.00288039 0)
(0.00257122 -0.00274876 0)
(0.00299822 -0.00268445 0)
(0.00343235 -0.00267552 0)
(0.00387751 -0.00270774 0)
(0.00433426 -0.00276649 0)
(0.00480055 -0.00283789 0)
(0.00527249 -0.00290947 0)
(0.00574506 -0.00297064 0)
(0.00621263 -0.00301285 0)
(0.00666945 -0.00302962 0)
(0.00710995 -0.00301639 0)
(0.00752891 -0.00297031 0)
(0.00792163 -0.00288997 0)
(0.00828395 -0.00277514 0)
(0.00861229 -0.0026265 0)
(0.00890368 -0.0024454 0)
(0.00915571 -0.00223359 0)
(0.0093665 -0.00199304 0)
(0.00953467 -0.00172573 0)
(0.00965934 -0.00143349 0)
(0.00974008 -0.00111781 0)
(0.00977691 -0.000779687 0)
(0.00977019 -0.000419453 0)
(0.00972078 -3.63829e-05 0)
(0.00963009 0.000372908 0)
(0.00949856 0.000812901 0)
(0.00932737 0.00128919 0)
(0.00911806 0.00180815 0)
(0.0088719 0.00237633 0)
(0.00858989 0.00299972 0)
(0.00827285 0.00368295 0)
(0.00792224 0.00442993 0)
(0.00754295 0.0052513 0)
(0.00715116 0.00620216 0)
(0.0067857 0.00759922 0)
(0.00676814 0.0106126 0)
(0.0072438 0.0149439 0)
(0.00748786 0.0176838 0)
(0.00683486 0.0173294 0)
(0.0051606 0.0139307 0)
(0.00250327 0.00805837 0)
(-0.000936651 3.89844e-05 0)
(-0.00146396 -0.00240896 0)
(-0.00110858 -0.00292668 0)
(-0.00101671 -0.00323139 0)
(-0.00103192 -0.00324441 0)
(-0.00120478 -0.00301714 0)
(-0.00146292 -0.00273918 0)
(-0.00170252 -0.00258606 0)
(-0.00184245 -0.00263946 0)
(-0.00184903 -0.00288861 0)
(-0.00173206 -0.0032659 0)
(-0.00152431 -0.00368749 0)
(-0.00125992 -0.00407945 0)
(-0.000962719 -0.00438346 0)
(-0.000641073 -0.00455553 0)
(-0.000290618 -0.00456258 0)
(0.000110515 -0.00435405 0)
(0.000520309 -0.00390625 0)
(0.000965164 -0.00319774 0)
(0.00143507 -0.00218897 0)
(0.0018844 -0.000865277 0)
(0.00232056 0.00063063 0)
(0.00240956 0.00199319 0)
(0.00230279 0.00308913 0)
(0.00210157 0.00391294 0)
(0.00183075 0.0044646 0)
(0.00147371 0.00473191 0)
(0.00115054 0.00464398 0)
(0.000480168 0.00439234 0)
(0.000427895 0.0111303 0)
(-0.0008175 0.0168773 0)
(-0.00063943 0.00536626 0)
(-0.00152748 0.0026706 0)
(-0.00200902 0.00192334 0)
(-0.00260405 0.00154138 0)
(-0.0031777 0.00126965 0)
(-0.00371319 0.000985363 0)
(-0.00418072 0.000634847 0)
(-0.00456152 0.000204645 0)
(-0.00484503 -0.000298392 0)
(-0.00504299 -0.000854052 0)
(-0.00514612 -0.00145099 0)
(-0.00515703 -0.00206755 0)
(-0.00507653 -0.00268267 0)
(-0.0049067 -0.00327507 0)
(-0.00465116 -0.00382311 0)
(-0.00431555 -0.00430515 0)
(-0.00390788 -0.00470051 0)
(-0.00343896 -0.00499119 0)
(-0.00292254 -0.00516441 0)
(-0.0023749 -0.00521596 0)
(-0.0018134 -0.00515361 0)
(-0.00125355 -0.00499879 0)
(-0.000706182 -0.0047829 0)
(-0.000174232 -0.00453042 0)
(0.00039486 -0.00421581 0)
(0.000945406 -0.00387132 0)
(0.00146004 -0.00356114 0)
(0.00195142 -0.00333939 0)
(0.00243595 -0.00320351 0)
(0.00292024 -0.00314314 0)
(0.00341028 -0.00314284 0)
(0.00390856 -0.00318505 0)
(0.00441428 -0.00325238 0)
(0.0049243 -0.00332888 0)
(0.00543407 -0.00340075 0)
(0.00593821 -0.0034567 0)
(0.00643108 -0.00348797 0)
(0.00690711 -0.00348821 0)
(0.00736108 -0.00345319 0)
(0.00778818 -0.00338054 0)
(0.0081842 -0.00326942 0)
(0.00854547 -0.00312018 0)
(0.00886892 -0.00293409 0)
(0.00915206 -0.00271306 0)
(0.00939292 -0.00245941 0)
(0.00959009 -0.0021756 0)
(0.00974259 -0.00186412 0)
(0.00984994 -0.00152726 0)
(0.00991209 -0.00116696 0)
(0.00992943 -0.000784673 0)
(0.0099027 -0.000381223 0)
(0.00983352 4.42442e-05 0)
(0.00972256 0.000494549 0)
(0.0095714 0.000974121 0)
(0.00938198 0.00148829 0)
(0.00915656 0.00204329 0)
(0.00889745 0.00264576 0)
(0.00860677 0.00330187 0)
(0.00828636 0.00401623 0)
(0.00793805 0.00479145 0)
(0.0075652 0.00563266 0)
(0.00717969 0.00657466 0)
(0.00680295 0.00784468 0)
(0.00667885 0.0104209 0)
(0.0070586 0.0145339 0)
(0.00740134 0.0177846 0)
(0.00702573 0.018318 0)