/*--------------------------------*- C++ -*----------------------------------*\
| =========                 |                                                 |
| \\      /  F ield         | OpenFOAM: The Open Source CFD Toolbox           |
|  \\    /   O peration     | Version:  4.1                                   |
|   \\  /    A nd           | Web:      www.OpenFOAM.org                      |
|    \\/     M anipulation  |                                                 |
\*---------------------------------------------------------------------------*/
FoamFile
{
    version     2.0;
    format      ascii;
    class       volScalarField;
    location    "260";
    object      p;
}
// * * * * * * * * * * * * * * * * * * * * * * * * * * * * * * * * * * * * * //

dimensions      [0 2 -2 0 0 0 0];

internalField   nonuniform List<scalar> 
5000
(
0
-1.21986e-05
-1.68791e-05
-1.8496e-05
-1.90866e-05
-1.94764e-05
-1.97909e-05
-2.00318e-05
-2.01341e-05
-2.0122e-05
-2.01092e-05
-2.02601e-05
-2.07324e-05
-2.16218e-05
-2.29263e-05
-2.45427e-05
-2.62971e-05
-2.79919e-05
-2.94481e-05
-3.05307e-05
-3.11556e-05
-3.12869e-05
-3.09304e-05
-3.01282e-05
-2.89536e-05
-2.7503e-05
-2.58685e-05
-2.4092e-05
-2.2179e-05
-2.02544e-05
-1.85353e-05
-1.72629e-05
-1.65272e-05
-1.63948e-05
-1.69225e-05
-1.81322e-05
-2.00009e-05
-2.24811e-05
-2.55236e-05
-2.90844e-05
-3.31201e-05
-3.75829e-05
-4.24213e-05
-4.75875e-05
-5.30548e-05
-5.88505e-05
-6.51089e-05
-7.2147e-05
-8.05252e-05
-9.0962e-05
-0.000103851
-0.000118357
-0.000133122
-0.000145773
-0.000155285
-0.000162205
-0.000167207
-0.000169356
-0.000167141
-0.000160779
-0.000152648
-0.000145208
-0.0001393
-0.000134583
-0.000130565
-0.000126689
-0.000122775
-0.000118969
-0.000115429
-0.000112223
-0.000109336
-0.000106727
-0.000104354
-0.000102191
-0.000100228
-9.84658e-05
-9.69085e-05
-9.55595e-05
-9.44155e-05
-9.3464e-05
-9.26817e-05
-9.2035e-05
-9.14816e-05
-9.09735e-05
-9.04659e-05
-8.9915e-05
-8.92757e-05
-8.84914e-05
-8.75235e-05
-8.63729e-05
-8.54241e-05
-8.59126e-05
-8.84115e-05
-8.78942e-05
-8.72418e-05
-9.25518e-05
-8.81455e-05
-8.06309e-05
-7.51862e-05
-8.44473e-05
-0.0984556
-0.0984733
-0.098482
-0.0984878
-0.0984922
-0.098496
-0.0984993
-0.0985022
-0.0985044
-0.0985061
-0.0985074
-0.0985086
-0.0985097
-0.0985109
-0.0985122
-0.0985136
-0.0985149
-0.0985159
-0.0985166
-0.0985169
-0.0985168
-0.0985162
-0.0985153
-0.0985141
-0.0985126
-0.098511
-0.0985093
-0.0985076
-0.0985061
-0.0985047
-0.0985034
-0.0985024
-0.0985018
-0.0985017
-0.0985022
-0.0985033
-0.0985051
-0.0985076
-0.0985107
-0.0985145
-0.0985188
-0.0985235
-0.0985285
-0.0985338
-0.0985393
-0.098545
-0.0985507
-0.0985567
-0.0985631
-0.09857
-0.0985777
-0.0985857
-0.0985928
-0.0985982
-0.0986021
-0.0986064
-0.0986124
-0.0986175
-0.0986182
-0.0986145
-0.0986088
-0.0986029
-0.0985981
-0.0985945
-0.098592
-0.0985898
-0.0985879
-0.0985861
-0.0985842
-0.0985823
-0.0985804
-0.0985786
-0.0985767
-0.0985748
-0.098573
-0.0985711
-0.0985692
-0.0985673
-0.0985654
-0.0985634
-0.0985615
-0.0985596
-0.0985576
-0.0985557
-0.0985537
-0.0985518
-0.09855
-0.0985482
-0.0985466
-0.0985452
-0.098544
-0.0985426
-0.0985421
-0.0985448
-0.0985614
-0.0985774
-0.0985835
-0.0985808
-0.0985778
-0.098578
-0.196954
-0.196973
-0.196984
-0.196992
-0.196998
-0.197004
-0.197008
-0.197011
-0.197014
-0.197015
-0.197017
-0.197018
-0.197019
-0.19702
-0.197022
-0.197023
-0.197024
-0.197025
-0.197026
-0.197026
-0.197026
-0.197025
-0.197024
-0.197023
-0.197021
-0.197019
-0.197018
-0.197016
-0.197014
-0.197013
-0.197011
-0.19701
-0.19701
-0.19701
-0.19701
-0.197011
-0.197013
-0.197016
-0.197019
-0.197023
-0.197027
-0.197032
-0.197037
-0.197042
-0.197048
-0.197053
-0.197059
-0.197064
-0.197069
-0.197074
-0.197078
-0.197082
-0.197083
-0.197083
-0.197083
-0.197085
-0.197091
-0.197098
-0.197103
-0.197104
-0.197103
-0.197101
-0.197099
-0.197097
-0.197095
-0.197094
-0.197093
-0.197092
-0.19709
-0.197089
-0.197088
-0.197086
-0.197084
-0.197083
-0.197081
-0.197079
-0.197077
-0.197075
-0.197074
-0.197072
-0.19707
-0.197068
-0.197066
-0.197064
-0.197062
-0.19706
-0.197058
-0.197056
-0.197054
-0.197052
-0.19705
-0.197048
-0.197045
-0.197043
-0.197052
-0.197067
-0.197079
-0.197079
-0.197076
-0.197067
-0.295469
-0.295485
-0.295494
-0.295501
-0.295508
-0.295513
-0.295517
-0.295521
-0.295523
-0.295525
-0.295527
-0.295528
-0.295529
-0.29553
-0.295531
-0.295533
-0.295534
-0.295535
-0.295535
-0.295535
-0.295535
-0.295534
-0.295533
-0.295531
-0.29553
-0.295528
-0.295526
-0.295524
-0.295522
-0.295521
-0.295519
-0.295518
-0.295518
-0.295517
-0.295518
-0.295519
-0.295521
-0.295523
-0.295527
-0.295531
-0.295535
-0.29554
-0.295545
-0.29555
-0.295556
-0.295561
-0.295567
-0.295572
-0.295576
-0.29558
-0.295583
-0.295585
-0.295584
-0.295583
-0.295581
-0.295582
-0.295586
-0.295592
-0.295597
-0.295601
-0.295602
-0.295603
-0.295602
-0.295602
-0.295601
-0.295601
-0.2956
-0.295599
-0.295598
-0.295596
-0.295595
-0.295594
-0.295592
-0.295591
-0.295589
-0.295587
-0.295586
-0.295584
-0.295582
-0.29558
-0.295579
-0.295577
-0.295575
-0.295573
-0.295571
-0.295569
-0.295567
-0.295565
-0.295563
-0.295561
-0.295558
-0.295556
-0.295552
-0.295549
-0.295551
-0.295558
-0.295565
-0.295566
-0.295562
-0.295551
-0.393986
-0.393999
-0.394005
-0.394012
-0.394018
-0.394023
-0.394027
-0.394031
-0.394033
-0.394035
-0.394036
-0.394038
-0.394039
-0.39404
-0.394041
-0.394043
-0.394044
-0.394045
-0.394045
-0.394045
-0.394044
-0.394043
-0.394041
-0.39404
-0.394038
-0.394036
-0.394034
-0.394032
-0.39403
-0.394028
-0.394027
-0.394026
-0.394025
-0.394025
-0.394025
-0.394026
-0.394028
-0.394031
-0.394034
-0.394038
-0.394043
-0.394048
-0.394053
-0.394058
-0.394064
-0.394069
-0.394075
-0.39408
-0.394084
-0.394088
-0.39409
-0.394091
-0.394091
-0.39409
-0.394089
-0.39409
-0.394093
-0.394097
-0.394102
-0.394105
-0.394107
-0.394108
-0.394109
-0.394109
-0.394108
-0.394108
-0.394107
-0.394106
-0.394105
-0.394104
-0.394103
-0.394101
-0.3941
-0.394099
-0.394097
-0.394096
-0.394094
-0.394092
-0.394091
-0.394089
-0.394087
-0.394086
-0.394084
-0.394082
-0.39408
-0.394078
-0.394076
-0.394074
-0.394071
-0.394069
-0.394066
-0.394064
-0.39406
-0.394056
-0.394054
-0.394054
-0.394054
-0.39405
-0.394046
-0.394037
-0.492502
-0.492512
-0.492518
-0.492523
-0.492529
-0.492533
-0.492537
-0.49254
-0.492543
-0.492545
-0.492546
-0.492547
-0.492549
-0.49255
-0.492551
-0.492553
-0.492554
-0.492554
-0.492554
-0.492554
-0.492553
-0.492552
-0.49255
-0.492548
-0.492546
-0.492544
-0.492542
-0.49254
-0.492538
-0.492536
-0.492534
-0.492533
-0.492532
-0.492532
-0.492533
-0.492534
-0.492535
-0.492538
-0.492541
-0.492545
-0.49255
-0.492555
-0.492561
-0.492566
-0.492572
-0.492577
-0.492583
-0.492588
-0.492592
-0.492595
-0.492598
-0.4926
-0.4926
-0.4926
-0.4926
-0.492602
-0.492604
-0.492607
-0.49261
-0.492613
-0.492615
-0.492616
-0.492616
-0.492616
-0.492616
-0.492615
-0.492615
-0.492614
-0.492613
-0.492612
-0.492611
-0.492609
-0.492608
-0.492607
-0.492605
-0.492604
-0.492602
-0.492601
-0.492599
-0.492598
-0.492596
-0.492594
-0.492593
-0.492591
-0.492589
-0.492587
-0.492585
-0.492582
-0.49258
-0.492577
-0.492575
-0.492572
-0.492568
-0.492564
-0.492559
-0.492555
-0.492549
-0.492541
-0.492534
-0.492529
-0.591017
-0.591026
-0.59103
-0.591035
-0.591039
-0.591044
-0.591047
-0.59105
-0.591053
-0.591054
-0.591056
-0.591057
-0.591059
-0.59106
-0.591061
-0.591063
-0.591063
-0.591064
-0.591064
-0.591063
-0.591062
-0.591061
-0.591059
-0.591057
-0.591055
-0.591052
-0.59105
-0.591048
-0.591046
-0.591044
-0.591042
-0.591041
-0.59104
-0.59104
-0.59104
-0.591041
-0.591043
-0.591045
-0.591049
-0.591053
-0.591057
-0.591062
-0.591068
-0.591074
-0.59108
-0.591085
-0.591091
-0.591096
-0.5911
-0.591104
-0.591107
-0.591109
-0.59111
-0.591111
-0.591112
-0.591114
-0.591116
-0.591118
-0.59112
-0.591122
-0.591124
-0.591125
-0.591125
-0.591125
-0.591124
-0.591124
-0.591123
-0.591122
-0.591121
-0.59112
-0.591119
-0.591118
-0.591116
-0.591115
-0.591114
-0.591112
-0.591111
-0.59111
-0.591108
-0.591107
-0.591105
-0.591103
-0.591102
-0.5911
-0.591098
-0.591096
-0.591093
-0.591091
-0.591089
-0.591086
-0.591083
-0.59108
-0.591077
-0.591072
-0.591067
-0.591059
-0.59105
-0.591039
-0.59103
-0.591027
-0.689531
-0.689538
-0.689542
-0.689546
-0.68955
-0.689554
-0.689557
-0.68956
-0.689562
-0.689564
-0.689566
-0.689567
-0.689568
-0.68957
-0.689571
-0.689572
-0.689573
-0.689573
-0.689573
-0.689572
-0.689571
-0.68957
-0.689568
-0.689566
-0.689564
-0.689561
-0.689559
-0.689556
-0.689554
-0.689552
-0.68955
-0.689548
-0.689547
-0.689547
-0.689547
-0.689548
-0.68955
-0.689552
-0.689556
-0.68956
-0.689564
-0.68957
-0.689575
-0.689581
-0.689587
-0.689593
-0.689599
-0.689604
-0.689608
-0.689612
-0.689616
-0.689618
-0.68962
-0.689622
-0.689623
-0.689625
-0.689627
-0.689629
-0.689631
-0.689632
-0.689633
-0.689633
-0.689634
-0.689633
-0.689633
-0.689632
-0.689631
-0.68963
-0.689629
-0.689628
-0.689627
-0.689626
-0.689625
-0.689624
-0.689622
-0.689621
-0.68962
-0.689619
-0.689617
-0.689616
-0.689614
-0.689612
-0.689611
-0.689609
-0.689607
-0.689605
-0.689602
-0.6896
-0.689597
-0.689595
-0.689592
-0.689588
-0.689585
-0.689581
-0.689575
-0.689567
-0.689556
-0.689544
-0.689534
-0.689532
-0.788045
-0.788051
-0.788053
-0.788057
-0.788061
-0.788064
-0.788067
-0.78807
-0.788072
-0.788074
-0.788075
-0.788077
-0.788078
-0.788079
-0.788081
-0.788082
-0.788082
-0.788082
-0.788082
-0.788082
-0.78808
-0.788079
-0.788077
-0.788075
-0.788073
-0.78807
-0.788068
-0.788065
-0.788063
-0.78806
-0.788058
-0.788056
-0.788055
-0.788055
-0.788055
-0.788056
-0.788057
-0.78806
-0.788063
-0.788067
-0.788072
-0.788077
-0.788083
-0.788089
-0.788095
-0.788101
-0.788107
-0.788112
-0.788117
-0.788121
-0.788125
-0.788128
-0.788131
-0.788133
-0.788135
-0.788136
-0.788138
-0.788139
-0.788141
-0.788142
-0.788142
-0.788143
-0.788142
-0.788142
-0.788141
-0.788141
-0.78814
-0.788139
-0.788138
-0.788137
-0.788135
-0.788134
-0.788133
-0.788132
-0.788131
-0.78813
-0.788129
-0.788127
-0.788126
-0.788125
-0.788123
-0.788122
-0.78812
-0.788118
-0.788116
-0.788114
-0.788112
-0.788109
-0.788106
-0.788104
-0.788101
-0.788097
-0.788094
-0.78809
-0.788084
-0.788076
-0.788065
-0.788053
-0.788044
-0.788041
-0.886557
-0.886562
-0.886564
-0.886568
-0.886571
-0.886574
-0.886577
-0.886579
-0.886581
-0.886583
-0.886584
-0.886586
-0.886587
-0.886589
-0.88659
-0.886591
-0.886592
-0.886592
-0.886592
-0.886591
-0.88659
-0.886589
-0.886587
-0.886585
-0.886583
-0.88658
-0.886577
-0.886575
-0.886572
-0.886569
-0.886567
-0.886565
-0.886564
-0.886563
-0.886563
-0.886564
-0.886565
-0.886567
-0.886571
-0.886575
-0.886579
-0.886585
-0.886591
-0.886597
-0.886603
-0.88661
-0.886616
-0.886621
-0.886626
-0.886631
-0.886635
-0.886638
-0.886641
-0.886643
-0.886645
-0.886647
-0.886649
-0.88665
-0.886651
-0.886651
-0.886652
-0.886652
-0.886651
-0.886651
-0.88665
-0.886649
-0.886648
-0.886647
-0.886646
-0.886645
-0.886644
-0.886643
-0.886642
-0.886641
-0.88664
-0.886639
-0.886638
-0.886636
-0.886635
-0.886634
-0.886632
-0.886631
-0.886629
-0.886627
-0.886626
-0.886623
-0.886621
-0.886619
-0.886616
-0.886613
-0.88661
-0.886607
-0.886603
-0.886599
-0.886594
-0.886586
-0.886576
-0.886564
-0.886555
-0.886553
-0.985069
-0.985073
-0.985075
-0.985078
-0.985081
-0.985084
-0.985087
-0.985089
-0.985091
-0.985092
-0.985094
-0.985095
-0.985097
-0.985098
-0.985099
-0.9851
-0.985101
-0.985101
-0.985101
-0.985101
-0.9851
-0.985099
-0.985097
-0.985095
-0.985093
-0.98509
-0.985087
-0.985084
-0.985081
-0.985079
-0.985076
-0.985074
-0.985072
-0.985071
-0.985071
-0.985072
-0.985074
-0.985076
-0.985079
-0.985083
-0.985088
-0.985093
-0.985099
-0.985106
-0.985112
-0.985118
-0.985125
-0.98513
-0.985136
-0.98514
-0.985145
-0.985148
-0.985151
-0.985154
-0.985156
-0.985158
-0.985159
-0.98516
-0.985161
-0.985161
-0.985161
-0.985161
-0.98516
-0.98516
-0.985159
-0.985158
-0.985157
-0.985155
-0.985154
-0.985153
-0.985152
-0.985151
-0.98515
-0.985149
-0.985148
-0.985147
-0.985146
-0.985145
-0.985144
-0.985143
-0.985142
-0.98514
-0.985139
-0.985137
-0.985135
-0.985133
-0.985131
-0.985128
-0.985125
-0.985122
-0.985119
-0.985116
-0.985113
-0.985109
-0.985104
-0.985097
-0.985088
-0.985077
-0.985068
-0.985066
-1.08358
-1.08358
-1.08359
-1.08359
-1.08359
-1.08359
-1.0836
-1.0836
-1.0836
-1.0836
-1.0836
-1.0836
-1.08361
-1.08361
-1.08361
-1.08361
-1.08361
-1.08361
-1.08361
-1.08361
-1.08361
-1.08361
-1.08361
-1.08361
-1.0836
-1.0836
-1.0836
-1.08359
-1.08359
-1.08359
-1.08359
-1.08358
-1.08358
-1.08358
-1.08358
-1.08358
-1.08358
-1.08358
-1.08359
-1.08359
-1.0836
-1.0836
-1.08361
-1.08362
-1.08362
-1.08363
-1.08363
-1.08364
-1.08365
-1.08365
-1.08365
-1.08366
-1.08366
-1.08366
-1.08367
-1.08367
-1.08367
-1.08367
-1.08367
-1.08367
-1.08367
-1.08367
-1.08367
-1.08367
-1.08367
-1.08367
-1.08366
-1.08366
-1.08366
-1.08366
-1.08366
-1.08366
-1.08366
-1.08366
-1.08366
-1.08366
-1.08366
-1.08365
-1.08365
-1.08365
-1.08365
-1.08365
-1.08365
-1.08365
-1.08364
-1.08364
-1.08364
-1.08364
-1.08364
-1.08363
-1.08363
-1.08363
-1.08362
-1.08362
-1.08361
-1.08361
-1.0836
-1.08359
-1.08358
-1.08358
-1.18209
-1.18209
-1.1821
-1.1821
-1.1821
-1.1821
-1.18211
-1.18211
-1.18211
-1.18211
-1.18211
-1.18211
-1.18212
-1.18212
-1.18212
-1.18212
-1.18212
-1.18212
-1.18212
-1.18212
-1.18212
-1.18212
-1.18212
-1.18212
-1.18211
-1.18211
-1.18211
-1.18211
-1.1821
-1.1821
-1.1821
-1.18209
-1.18209
-1.18209
-1.18209
-1.18209
-1.18209
-1.18209
-1.1821
-1.1821
-1.18211
-1.18211
-1.18212
-1.18213
-1.18213
-1.18214
-1.18214
-1.18215
-1.18216
-1.18216
-1.18217
-1.18217
-1.18217
-1.18218
-1.18218
-1.18218
-1.18218
-1.18218
-1.18218
-1.18218
-1.18218
-1.18218
-1.18218
-1.18218
-1.18218
-1.18217
-1.18217
-1.18217
-1.18217
-1.18217
-1.18217
-1.18217
-1.18217
-1.18217
-1.18217
-1.18216
-1.18216
-1.18216
-1.18216
-1.18216
-1.18216
-1.18216
-1.18216
-1.18216
-1.18215
-1.18215
-1.18215
-1.18215
-1.18215
-1.18214
-1.18214
-1.18214
-1.18213
-1.18213
-1.18213
-1.18212
-1.18211
-1.1821
-1.18209
-1.18209
-1.2806
-1.28061
-1.28061
-1.28061
-1.28061
-1.28061
-1.28061
-1.28062
-1.28062
-1.28062
-1.28062
-1.28062
-1.28062
-1.28063
-1.28063
-1.28063
-1.28063
-1.28063
-1.28063
-1.28063
-1.28063
-1.28063
-1.28063
-1.28063
-1.28063
-1.28062
-1.28062
-1.28062
-1.28061
-1.28061
-1.28061
-1.28061
-1.2806
-1.2806
-1.2806
-1.2806
-1.2806
-1.28061
-1.28061
-1.28061
-1.28062
-1.28062
-1.28063
-1.28064
-1.28064
-1.28065
-1.28066
-1.28066
-1.28067
-1.28067
-1.28068
-1.28068
-1.28068
-1.28069
-1.28069
-1.28069
-1.28069
-1.28069
-1.28069
-1.28069
-1.28069
-1.28069
-1.28069
-1.28069
-1.28068
-1.28068
-1.28068
-1.28068
-1.28068
-1.28068
-1.28068
-1.28068
-1.28067
-1.28067
-1.28067
-1.28067
-1.28067
-1.28067
-1.28067
-1.28067
-1.28067
-1.28067
-1.28067
-1.28067
-1.28066
-1.28066
-1.28066
-1.28066
-1.28066
-1.28065
-1.28065
-1.28065
-1.28064
-1.28064
-1.28064
-1.28063
-1.28062
-1.28061
-1.28061
-1.28061
-1.37911
-1.37912
-1.37912
-1.37912
-1.37912
-1.37912
-1.37912
-1.37913
-1.37913
-1.37913
-1.37913
-1.37913
-1.37913
-1.37914
-1.37914
-1.37914
-1.37914
-1.37914
-1.37914
-1.37914
-1.37914
-1.37914
-1.37914
-1.37914
-1.37914
-1.37914
-1.37913
-1.37913
-1.37913
-1.37912
-1.37912
-1.37912
-1.37912
-1.37911
-1.37911
-1.37911
-1.37911
-1.37912
-1.37912
-1.37913
-1.37913
-1.37914
-1.37914
-1.37915
-1.37916
-1.37916
-1.37917
-1.37917
-1.37918
-1.37918
-1.37919
-1.37919
-1.3792
-1.3792
-1.3792
-1.3792
-1.3792
-1.3792
-1.3792
-1.3792
-1.3792
-1.3792
-1.3792
-1.37919
-1.37919
-1.37919
-1.37919
-1.37919
-1.37919
-1.37918
-1.37918
-1.37918
-1.37918
-1.37918
-1.37918
-1.37918
-1.37918
-1.37918
-1.37918
-1.37918
-1.37918
-1.37918
-1.37918
-1.37918
-1.37918
-1.37917
-1.37917
-1.37917
-1.37917
-1.37916
-1.37916
-1.37916
-1.37916
-1.37915
-1.37915
-1.37914
-1.37913
-1.37913
-1.37912
-1.37912
-1.47762
-1.47763
-1.47763
-1.47763
-1.47763
-1.47763
-1.47763
-1.47764
-1.47764
-1.47764
-1.47764
-1.47764
-1.47764
-1.47765
-1.47765
-1.47765
-1.47765
-1.47765
-1.47765
-1.47765
-1.47765
-1.47765
-1.47765
-1.47765
-1.47765
-1.47765
-1.47765
-1.47764
-1.47764
-1.47764
-1.47763
-1.47763
-1.47763
-1.47763
-1.47763
-1.47763
-1.47763
-1.47763
-1.47763
-1.47764
-1.47764
-1.47765
-1.47766
-1.47766
-1.47767
-1.47768
-1.47768
-1.47769
-1.47769
-1.4777
-1.4777
-1.4777
-1.47771
-1.47771
-1.47771
-1.47771
-1.47771
-1.47771
-1.47771
-1.47771
-1.47771
-1.47771
-1.47771
-1.4777
-1.4777
-1.4777
-1.4777
-1.4777
-1.47769
-1.47769
-1.47769
-1.47769
-1.47769
-1.47769
-1.47769
-1.47769
-1.47769
-1.47769
-1.47769
-1.47769
-1.47769
-1.47769
-1.47769
-1.47769
-1.47769
-1.47768
-1.47768
-1.47768
-1.47768
-1.47768
-1.47767
-1.47767
-1.47767
-1.47766
-1.47766
-1.47766
-1.47765
-1.47764
-1.47763
-1.47763
-1.57613
-1.57613
-1.57614
-1.57614
-1.57614
-1.57614
-1.57614
-1.57614
-1.57615
-1.57615
-1.57615
-1.57615
-1.57615
-1.57616
-1.57616
-1.57616
-1.57616
-1.57616
-1.57616
-1.57617
-1.57617
-1.57617
-1.57617
-1.57617
-1.57616
-1.57616
-1.57616
-1.57616
-1.57616
-1.57615
-1.57615
-1.57615
-1.57614
-1.57614
-1.57614
-1.57614
-1.57614
-1.57614
-1.57615
-1.57615
-1.57616
-1.57616
-1.57617
-1.57618
-1.57618
-1.57619
-1.57619
-1.5762
-1.57621
-1.57621
-1.57621
-1.57622
-1.57622
-1.57622
-1.57622
-1.57623
-1.57623
-1.57622
-1.57622
-1.57622
-1.57622
-1.57622
-1.57621
-1.57621
-1.57621
-1.57621
-1.5762
-1.5762
-1.5762
-1.5762
-1.5762
-1.5762
-1.5762
-1.5762
-1.5762
-1.5762
-1.5762
-1.5762
-1.5762
-1.5762
-1.5762
-1.5762
-1.5762
-1.5762
-1.5762
-1.5762
-1.57619
-1.57619
-1.57619
-1.57619
-1.57618
-1.57618
-1.57618
-1.57618
-1.57617
-1.57617
-1.57615
-1.57614
-1.57614
-1.57614
-1.67464
-1.67464
-1.67465
-1.67465
-1.67465
-1.67465
-1.67465
-1.67465
-1.67466
-1.67466
-1.67466
-1.67466
-1.67466
-1.67467
-1.67467
-1.67467
-1.67467
-1.67467
-1.67468
-1.67468
-1.67468
-1.67468
-1.67468
-1.67468
-1.67468
-1.67468
-1.67468
-1.67467
-1.67467
-1.67467
-1.67466
-1.67466
-1.67466
-1.67466
-1.67465
-1.67465
-1.67465
-1.67466
-1.67466
-1.67467
-1.67467
-1.67468
-1.67468
-1.67469
-1.6747
-1.6747
-1.67471
-1.67471
-1.67472
-1.67472
-1.67473
-1.67473
-1.67473
-1.67474
-1.67474
-1.67474
-1.67474
-1.67474
-1.67473
-1.67473
-1.67473
-1.67473
-1.67472
-1.67472
-1.67472
-1.67471
-1.67471
-1.67471
-1.67471
-1.67471
-1.67471
-1.67471
-1.67471
-1.67471
-1.67471
-1.67471
-1.67471
-1.67471
-1.67471
-1.67471
-1.67471
-1.67471
-1.67471
-1.67471
-1.67471
-1.67471
-1.67471
-1.6747
-1.6747
-1.6747
-1.6747
-1.67469
-1.67469
-1.67469
-1.67468
-1.67467
-1.67466
-1.67465
-1.67465
-1.67465
-1.77315
-1.77315
-1.77316
-1.77316
-1.77316
-1.77316
-1.77316
-1.77316
-1.77317
-1.77317
-1.77317
-1.77317
-1.77317
-1.77318
-1.77318
-1.77318
-1.77318
-1.77319
-1.77319
-1.77319
-1.77319
-1.77319
-1.77319
-1.77319
-1.77319
-1.77319
-1.77319
-1.77319
-1.77319
-1.77318
-1.77318
-1.77318
-1.77317
-1.77317
-1.77317
-1.77317
-1.77317
-1.77317
-1.77318
-1.77318
-1.77319
-1.77319
-1.7732
-1.77321
-1.77321
-1.77322
-1.77322
-1.77323
-1.77323
-1.77324
-1.77324
-1.77325
-1.77325
-1.77325
-1.77325
-1.77325
-1.77325
-1.77325
-1.77324
-1.77324
-1.77324
-1.77324
-1.77323
-1.77323
-1.77322
-1.77322
-1.77322
-1.77322
-1.77321
-1.77321
-1.77321
-1.77321
-1.77321
-1.77321
-1.77321
-1.77321
-1.77322
-1.77322
-1.77322
-1.77322
-1.77322
-1.77322
-1.77322
-1.77322
-1.77322
-1.77322
-1.77322
-1.77322
-1.77321
-1.77321
-1.77321
-1.77321
-1.7732
-1.7732
-1.7732
-1.77318
-1.77317
-1.77316
-1.77315
-1.77315
-1.87166
-1.87166
-1.87167
-1.87167
-1.87167
-1.87167
-1.87167
-1.87167
-1.87168
-1.87168
-1.87168
-1.87168
-1.87168
-1.87169
-1.87169
-1.87169
-1.87169
-1.8717
-1.8717
-1.8717
-1.8717
-1.87171
-1.87171
-1.87171
-1.87171
-1.87171
-1.87171
-1.87171
-1.8717
-1.8717
-1.8717
-1.87169
-1.87169
-1.87169
-1.87169
-1.87168
-1.87169
-1.87169
-1.87169
-1.8717
-1.8717
-1.87171
-1.87171
-1.87172
-1.87173
-1.87173
-1.87174
-1.87174
-1.87175
-1.87175
-1.87176
-1.87176
-1.87176
-1.87176
-1.87176
-1.87176
-1.87176
-1.87176
-1.87176
-1.87175
-1.87175
-1.87174
-1.87174
-1.87174
-1.87173
-1.87173
-1.87173
-1.87172
-1.87172
-1.87172
-1.87172
-1.87172
-1.87172
-1.87172
-1.87172
-1.87172
-1.87172
-1.87172
-1.87173
-1.87173
-1.87173
-1.87173
-1.87173
-1.87173
-1.87173
-1.87173
-1.87173
-1.87173
-1.87173
-1.87173
-1.87172
-1.87172
-1.87172
-1.87171
-1.8717
-1.87169
-1.87167
-1.87166
-1.87166
-1.87166
-1.97017
-1.97017
-1.97018
-1.97018
-1.97018
-1.97018
-1.97018
-1.97018
-1.97019
-1.97019
-1.97019
-1.97019
-1.9702
-1.9702
-1.9702
-1.9702
-1.97021
-1.97021
-1.97021
-1.97022
-1.97022
-1.97022
-1.97022
-1.97022
-1.97022
-1.97022
-1.97022
-1.97022
-1.97022
-1.97022
-1.97021
-1.97021
-1.97021
-1.9702
-1.9702
-1.9702
-1.9702
-1.9702
-1.97021
-1.97021
-1.97022
-1.97022
-1.97023
-1.97023
-1.97024
-1.97025
-1.97025
-1.97026
-1.97026
-1.97027
-1.97027
-1.97027
-1.97027
-1.97028
-1.97028
-1.97027
-1.97027
-1.97027
-1.97027
-1.97026
-1.97026
-1.97025
-1.97025
-1.97024
-1.97024
-1.97023
-1.97023
-1.97023
-1.97023
-1.97022
-1.97022
-1.97022
-1.97022
-1.97023
-1.97023
-1.97023
-1.97023
-1.97023
-1.97024
-1.97024
-1.97024
-1.97024
-1.97024
-1.97025
-1.97025
-1.97025
-1.97025
-1.97024
-1.97024
-1.97024
-1.97024
-1.97023
-1.97023
-1.97022
-1.97021
-1.97019
-1.97018
-1.97017
-1.97017
-1.97017
-2.06868
-2.06869
-2.06869
-2.06869
-2.06869
-2.06869
-2.06869
-2.06869
-2.0687
-2.0687
-2.0687
-2.0687
-2.06871
-2.06871
-2.06871
-2.06871
-2.06872
-2.06872
-2.06872
-2.06873
-2.06873
-2.06873
-2.06874
-2.06874
-2.06874
-2.06874
-2.06874
-2.06874
-2.06874
-2.06873
-2.06873
-2.06873
-2.06872
-2.06872
-2.06872
-2.06872
-2.06872
-2.06872
-2.06872
-2.06873
-2.06873
-2.06874
-2.06874
-2.06875
-2.06875
-2.06876
-2.06877
-2.06877
-2.06878
-2.06878
-2.06878
-2.06879
-2.06879
-2.06879
-2.06879
-2.06879
-2.06878
-2.06878
-2.06878
-2.06877
-2.06877
-2.06876
-2.06876
-2.06875
-2.06875
-2.06874
-2.06874
-2.06873
-2.06873
-2.06873
-2.06873
-2.06873
-2.06873
-2.06873
-2.06873
-2.06874
-2.06874
-2.06874
-2.06875
-2.06875
-2.06875
-2.06876
-2.06876
-2.06876
-2.06876
-2.06876
-2.06876
-2.06876
-2.06876
-2.06875
-2.06875
-2.06874
-2.06874
-2.06873
-2.06871
-2.06869
-2.06868
-2.06867
-2.06867
-2.06867
-2.16719
-2.1672
-2.1672
-2.1672
-2.1672
-2.1672
-2.1672
-2.1672
-2.16721
-2.16721
-2.16721
-2.16721
-2.16722
-2.16722
-2.16722
-2.16723
-2.16723
-2.16723
-2.16724
-2.16724
-2.16724
-2.16725
-2.16725
-2.16725
-2.16726
-2.16726
-2.16726
-2.16726
-2.16725
-2.16725
-2.16725
-2.16724
-2.16724
-2.16724
-2.16723
-2.16723
-2.16723
-2.16723
-2.16724
-2.16724
-2.16725
-2.16725
-2.16726
-2.16726
-2.16727
-2.16727
-2.16728
-2.16728
-2.16729
-2.16729
-2.1673
-2.1673
-2.1673
-2.1673
-2.1673
-2.1673
-2.1673
-2.16729
-2.16729
-2.16728
-2.16728
-2.16727
-2.16726
-2.16726
-2.16725
-2.16725
-2.16724
-2.16724
-2.16724
-2.16724
-2.16723
-2.16723
-2.16723
-2.16724
-2.16724
-2.16724
-2.16725
-2.16725
-2.16726
-2.16726
-2.16726
-2.16727
-2.16727
-2.16727
-2.16727
-2.16727
-2.16727
-2.16727
-2.16727
-2.16726
-2.16726
-2.16725
-2.16724
-2.16723
-2.16721
-2.1672
-2.16719
-2.16718
-2.16718
-2.16718
-2.2657
-2.26571
-2.26571
-2.26571
-2.26571
-2.26571
-2.26571
-2.26571
-2.26572
-2.26572
-2.26572
-2.26572
-2.26573
-2.26573
-2.26573
-2.26574
-2.26574
-2.26574
-2.26575
-2.26575
-2.26576
-2.26576
-2.26576
-2.26577
-2.26577
-2.26577
-2.26577
-2.26577
-2.26577
-2.26577
-2.26576
-2.26576
-2.26576
-2.26575
-2.26575
-2.26575
-2.26575
-2.26575
-2.26575
-2.26575
-2.26576
-2.26576
-2.26577
-2.26578
-2.26578
-2.26579
-2.26579
-2.2658
-2.2658
-2.26581
-2.26581
-2.26581
-2.26581
-2.26581
-2.26581
-2.26581
-2.26581
-2.2658
-2.2658
-2.26579
-2.26578
-2.26578
-2.26577
-2.26576
-2.26576
-2.26575
-2.26575
-2.26574
-2.26574
-2.26574
-2.26574
-2.26574
-2.26574
-2.26574
-2.26575
-2.26575
-2.26575
-2.26576
-2.26576
-2.26577
-2.26577
-2.26578
-2.26578
-2.26578
-2.26578
-2.26578
-2.26578
-2.26578
-2.26578
-2.26577
-2.26576
-2.26575
-2.26574
-2.26573
-2.26571
-2.2657
-2.26569
-2.26568
-2.26568
-2.26568
-2.36422
-2.36422
-2.36422
-2.36422
-2.36422
-2.36422
-2.36422
-2.36422
-2.36423
-2.36423
-2.36423
-2.36423
-2.36424
-2.36424
-2.36424
-2.36425
-2.36425
-2.36426
-2.36426
-2.36426
-2.36427
-2.36427
-2.36428
-2.36428
-2.36429
-2.36429
-2.36429
-2.36429
-2.36429
-2.36428
-2.36428
-2.36428
-2.36427
-2.36427
-2.36427
-2.36426
-2.36426
-2.36426
-2.36426
-2.36427
-2.36427
-2.36428
-2.36428
-2.36429
-2.36429
-2.3643
-2.3643
-2.36431
-2.36431
-2.36432
-2.36432
-2.36432
-2.36432
-2.36433
-2.36432
-2.36432
-2.36432
-2.36431
-2.36431
-2.3643
-2.36429
-2.36428
-2.36428
-2.36427
-2.36426
-2.36426
-2.36425
-2.36425
-2.36425
-2.36424
-2.36424
-2.36424
-2.36425
-2.36425
-2.36425
-2.36426
-2.36426
-2.36426
-2.36427
-2.36427
-2.36428
-2.36428
-2.36428
-2.36428
-2.36429
-2.36429
-2.36428
-2.36428
-2.36428
-2.36427
-2.36426
-2.36425
-2.36424
-2.36423
-2.36421
-2.3642
-2.3642
-2.36419
-2.36419
-2.36419
-2.46273
-2.46273
-2.46273
-2.46273
-2.46273
-2.46273
-2.46273
-2.46274
-2.46274
-2.46274
-2.46274
-2.46274
-2.46275
-2.46275
-2.46275
-2.46276
-2.46276
-2.46277
-2.46277
-2.46278
-2.46278
-2.46279
-2.46279
-2.4628
-2.4628
-2.4628
-2.4628
-2.4628
-2.4628
-2.4628
-2.46279
-2.46279
-2.46279
-2.46278
-2.46278
-2.46278
-2.46278
-2.46278
-2.46278
-2.46278
-2.46278
-2.46279
-2.46279
-2.4628
-2.4628
-2.46281
-2.46281
-2.46282
-2.46282
-2.46283
-2.46283
-2.46283
-2.46283
-2.46283
-2.46283
-2.46283
-2.46283
-2.46282
-2.46281
-2.46281
-2.4628
-2.46279
-2.46278
-2.46278
-2.46277
-2.46276
-2.46276
-2.46275
-2.46275
-2.46275
-2.46275
-2.46275
-2.46275
-2.46275
-2.46276
-2.46276
-2.46276
-2.46276
-2.46277
-2.46277
-2.46278
-2.46278
-2.46278
-2.46278
-2.46278
-2.46278
-2.46278
-2.46278
-2.46277
-2.46277
-2.46276
-2.46275
-2.46274
-2.46272
-2.46271
-2.46271
-2.4627
-2.4627
-2.4627
-2.4627
-2.56124
-2.56124
-2.56124
-2.56124
-2.56124
-2.56124
-2.56124
-2.56125
-2.56125
-2.56125
-2.56125
-2.56126
-2.56126
-2.56126
-2.56126
-2.56127
-2.56127
-2.56128
-2.56128
-2.56129
-2.56129
-2.5613
-2.5613
-2.56131
-2.56131
-2.56132
-2.56132
-2.56132
-2.56131
-2.56131
-2.56131
-2.5613
-2.5613
-2.5613
-2.56129
-2.56129
-2.56129
-2.56129
-2.56129
-2.56129
-2.56129
-2.5613
-2.5613
-2.56131
-2.56131
-2.56132
-2.56132
-2.56133
-2.56133
-2.56134
-2.56134
-2.56134
-2.56134
-2.56134
-2.56134
-2.56134
-2.56133
-2.56133
-2.56132
-2.56131
-2.5613
-2.5613
-2.56129
-2.56128
-2.56127
-2.56127
-2.56126
-2.56126
-2.56126
-2.56125
-2.56125
-2.56125
-2.56125
-2.56126
-2.56126
-2.56126
-2.56126
-2.56126
-2.56127
-2.56127
-2.56127
-2.56127
-2.56128
-2.56128
-2.56128
-2.56128
-2.56127
-2.56127
-2.56126
-2.56126
-2.56125
-2.56124
-2.56123
-2.56122
-2.56121
-2.56121
-2.56121
-2.5612
-2.5612
-2.5612
-2.65975
-2.65975
-2.65975
-2.65975
-2.65975
-2.65976
-2.65976
-2.65976
-2.65976
-2.65976
-2.65976
-2.65977
-2.65977
-2.65977
-2.65977
-2.65978
-2.65978
-2.65979
-2.65979
-2.6598
-2.6598
-2.65981
-2.65981
-2.65982
-2.65982
-2.65983
-2.65983
-2.65983
-2.65983
-2.65982
-2.65982
-2.65982
-2.65981
-2.65981
-2.6598
-2.6598
-2.6598
-2.6598
-2.6598
-2.6598
-2.6598
-2.65981
-2.65981
-2.65981
-2.65982
-2.65982
-2.65983
-2.65983
-2.65984
-2.65984
-2.65985
-2.65985
-2.65985
-2.65985
-2.65985
-2.65984
-2.65984
-2.65983
-2.65982
-2.65982
-2.65981
-2.6598
-2.65979
-2.65979
-2.65978
-2.65977
-2.65977
-2.65977
-2.65976
-2.65976
-2.65976
-2.65976
-2.65976
-2.65976
-2.65976
-2.65976
-2.65976
-2.65976
-2.65976
-2.65977
-2.65977
-2.65977
-2.65977
-2.65977
-2.65977
-2.65976
-2.65976
-2.65976
-2.65975
-2.65974
-2.65974
-2.65973
-2.65972
-2.65972
-2.65971
-2.65971
-2.65971
-2.65971
-2.65971
-2.6597
-2.75826
-2.75826
-2.75826
-2.75826
-2.75827
-2.75827
-2.75827
-2.75827
-2.75827
-2.75827
-2.75827
-2.75828
-2.75828
-2.75828
-2.75828
-2.75829
-2.75829
-2.75829
-2.7583
-2.7583
-2.75831
-2.75832
-2.75832
-2.75833
-2.75834
-2.75834
-2.75834
-2.75834
-2.75834
-2.75834
-2.75833
-2.75833
-2.75832
-2.75832
-2.75831
-2.75831
-2.75831
-2.75831
-2.75831
-2.75831
-2.75831
-2.75831
-2.75832
-2.75832
-2.75833
-2.75833
-2.75834
-2.75834
-2.75834
-2.75835
-2.75835
-2.75835
-2.75835
-2.75835
-2.75835
-2.75835
-2.75834
-2.75834
-2.75833
-2.75832
-2.75831
-2.75831
-2.7583
-2.75829
-2.75829
-2.75828
-2.75828
-2.75827
-2.75827
-2.75827
-2.75826
-2.75826
-2.75826
-2.75826
-2.75826
-2.75826
-2.75826
-2.75826
-2.75826
-2.75826
-2.75826
-2.75826
-2.75826
-2.75825
-2.75825
-2.75825
-2.75824
-2.75824
-2.75824
-2.75823
-2.75823
-2.75822
-2.75822
-2.75822
-2.75821
-2.75821
-2.75821
-2.75821
-2.75821
-2.75821
-2.85677
-2.85677
-2.85677
-2.85678
-2.85678
-2.85678
-2.85678
-2.85678
-2.85678
-2.85678
-2.85678
-2.85679
-2.85679
-2.85679
-2.85679
-2.85679
-2.8568
-2.8568
-2.85681
-2.85681
-2.85682
-2.85683
-2.85683
-2.85684
-2.85684
-2.85685
-2.85685
-2.85685
-2.85685
-2.85685
-2.85684
-2.85684
-2.85683
-2.85683
-2.85682
-2.85682
-2.85682
-2.85681
-2.85681
-2.85681
-2.85681
-2.85682
-2.85682
-2.85682
-2.85683
-2.85683
-2.85684
-2.85684
-2.85685
-2.85685
-2.85685
-2.85686
-2.85686
-2.85685
-2.85685
-2.85685
-2.85684
-2.85684
-2.85683
-2.85682
-2.85682
-2.85681
-2.8568
-2.8568
-2.85679
-2.85679
-2.85678
-2.85678
-2.85677
-2.85677
-2.85677
-2.85677
-2.85676
-2.85676
-2.85676
-2.85676
-2.85676
-2.85676
-2.85676
-2.85676
-2.85675
-2.85675
-2.85675
-2.85674
-2.85674
-2.85673
-2.85673
-2.85672
-2.85672
-2.85672
-2.85672
-2.85671
-2.85671
-2.85671
-2.85671
-2.85671
-2.85671
-2.85671
-2.85671
-2.85671
-2.95528
-2.95529
-2.95529
-2.95529
-2.95529
-2.95529
-2.95529
-2.95529
-2.95529
-2.95529
-2.9553
-2.9553
-2.9553
-2.9553
-2.9553
-2.9553
-2.95531
-2.95531
-2.95531
-2.95532
-2.95533
-2.95533
-2.95534
-2.95535
-2.95535
-2.95535
-2.95536
-2.95536
-2.95536
-2.95535
-2.95535
-2.95534
-2.95534
-2.95533
-2.95533
-2.95532
-2.95532
-2.95532
-2.95532
-2.95532
-2.95532
-2.95532
-2.95532
-2.95533
-2.95533
-2.95534
-2.95534
-2.95534
-2.95535
-2.95535
-2.95535
-2.95536
-2.95536
-2.95535
-2.95535
-2.95535
-2.95534
-2.95534
-2.95533
-2.95533
-2.95532
-2.95531
-2.95531
-2.9553
-2.9553
-2.95529
-2.95529
-2.95528
-2.95528
-2.95528
-2.95527
-2.95527
-2.95527
-2.95527
-2.95527
-2.95526
-2.95526
-2.95526
-2.95526
-2.95525
-2.95525
-2.95524
-2.95524
-2.95523
-2.95522
-2.95522
-2.95522
-2.95521
-2.95521
-2.95521
-2.95521
-2.95521
-2.95521
-2.95521
-2.95521
-2.95521
-2.95521
-2.95521
-2.95521
-2.95521
-3.0538
-3.0538
-3.0538
-3.0538
-3.0538
-3.0538
-3.0538
-3.0538