/*--------------------------------*- C++ -*----------------------------------*\
| =========                 |                                                 |
| \\      /  F ield         | OpenFOAM: The Open Source CFD Toolbox           |
|  \\    /   O peration     | Version:  4.1                                   |
|   \\  /    A nd           | Web:      www.OpenFOAM.org                      |
|    \\/     M anipulation  |                                                 |
\*---------------------------------------------------------------------------*/
FoamFile
{
    version     2.0;
    format      ascii;
    class       volScalarField;
    location    "260";
    object      T;
}
// * * * * * * * * * * * * * * * * * * * * * * * * * * * * * * * * * * * * * //

dimensions      [0 0 0 1 0 0 0];

internalField   nonuniform List<scalar> 
5000
(
284.692
284.352
284.115
283.904
283.699
283.488
283.266
283.055
282.871
282.719
282.599
282.511
282.454
282.425
282.422
282.443
282.484
282.543
282.612
282.685
282.757
282.819
282.868
282.902
282.923
282.934
282.942
282.94
282.892
282.829
282.785
282.765
282.753
282.749
282.755
282.766
282.776
282.777
282.769
282.754
282.735
282.716
282.7
282.689
282.685
282.69
282.712
282.763
282.865
283.054
283.353
283.733
284.103
284.458
284.763
284.952
284.979
284.887
284.771
284.678
284.691
284.773
284.842
284.847
284.779
284.636
284.464
284.306
284.177
284.077
284.001
283.946
283.91
283.891
283.89
283.908
283.944
283.999
284.074
284.167
284.278
284.403
284.538
284.679
284.815
284.936
285.042
285.135
285.183
285.142
285.058
285.163
285.321
285.187
282.994
282.015
281.648
281.439
281.38
282.049
283.642
282.298
281.472
281.024
280.775
280.638
280.58
280.559
280.553
280.552
280.553
280.555
280.557
280.56
280.562
280.565
280.567
280.568
280.57
280.571
280.572
280.572
280.573
280.574
280.574
280.575
280.576
280.577
280.579
280.58
280.581
280.582
280.583
280.583
280.583
280.583
280.583
280.583
280.582
280.581
280.58
280.579
280.579
280.578
280.578
280.58
280.586
280.602
280.64
280.725
280.907
281.271
281.834
282.454
282.96
283.199
283.082
282.644
282.062
281.581
281.255
281.052
280.935
280.869
280.81
280.756
280.711
280.677
280.651
280.633
280.62
280.61
280.603
280.597
280.593
280.589
280.587
280.585
280.583
280.583
280.583
280.583
280.584
280.585
280.589
280.602
280.617
280.621
280.614
280.609
280.612
280.716
281.597
282.887
282.855
282.119
280.876
280.861
280.891
281.687
283.161
281.652
280.945
280.677
280.576
280.539
280.53
280.531
280.534
280.539
280.544
280.549
280.554
280.559
280.564
280.569
280.572
280.575
280.577
280.578
280.579
280.58
280.581
280.582
280.583
280.585
280.587
280.59
280.593
280.595
280.597
280.599
280.6
280.601
280.601
280.601
280.601
280.6
280.598
280.597
280.595
280.593
280.59
280.587
280.584
280.581
280.578
280.575
280.576
280.59
280.641
280.782
281.066
281.445
281.789
281.963
281.914
281.696
281.424
281.182
280.998
280.864
280.77
280.707
280.664
280.634
280.613
280.598
280.586
280.578
280.571
280.566
280.561
280.557
280.553
280.549
280.546
280.543
280.54
280.537
280.535
280.532
280.53
280.528
280.526
280.524
280.521
280.519
280.517
280.515
280.516
280.549
280.892
281.771
282.276
282.11
281.598
281.085
281.005
281.601
282.876
281.357
280.769
280.593
280.541
280.528
280.528
280.532
280.537
280.543
280.549
280.555
280.562
280.57
280.577
280.584
280.59
280.595
280.598
280.602
280.604
280.606
280.609
280.611
280.614
280.616
280.619
280.622
280.625
280.628
280.63
280.632
280.633
280.634
280.635
280.635
280.635
280.634
280.633
280.631
280.629
280.626
280.623
280.619
280.615
280.611
280.606
280.6
280.594
280.588
280.587
280.61
280.697
280.851
281.016
281.109
281.099
281.012
280.9
280.8
280.725
280.673
280.64
280.62
280.607
280.598
280.592
280.588
280.584
280.58
280.576
280.572
280.568
280.563
280.558
280.554
280.55
280.547
280.544
280.541
280.539
280.537
280.534
280.532
280.53
280.528
280.526
280.524
280.522
280.519
280.518
280.531
280.68
281.213
281.773
281.916
281.709
281.425
281.147
281.543
282.685
281.191
280.689
280.561
280.53
280.525
280.528
280.532
280.538
280.544
280.551
280.559
280.568
280.578
280.588
280.597
280.605
280.612
280.617
280.622
280.625
280.629
280.632
280.635
280.638
280.641
280.644
280.647
280.649
280.652
280.655
280.657
280.66
280.662
280.663
280.663
280.663
280.663
280.661
280.659
280.657
280.654
280.65
280.646
280.642
280.637
280.632
280.626
280.619
280.611
280.603
280.596
280.601
280.63
280.673
280.703
280.704
280.68
280.648
280.62
280.599
280.586
280.578
280.574
280.573
280.572
280.572
280.572
280.571
280.57
280.568
280.566
280.563
280.559
280.556
280.552
280.549
280.546
280.543
280.541
280.539
280.538
280.536
280.535
280.534
280.532
280.53
280.528
280.526
280.524
280.522
280.527
280.602
280.926
281.408
281.684
281.666
281.502
281.265
281.488
282.547
281.086
280.645
280.545
280.524
280.523
280.526
280.531
280.537
280.544
280.552
280.563
280.574
280.587
280.599
280.611
280.621
280.628
280.635
280.64
280.644
280.647
280.65
280.653
280.656
280.659
280.662
280.665
280.669
280.673
280.676
280.68
280.683
280.686
280.688
280.688
280.688
280.687
280.686
280.683
280.681
280.677
280.674
280.67
280.665
280.66
280.654
280.648
280.641
280.634
280.626
280.617
280.609
280.604
280.603
280.603
280.6
280.593
280.584
280.576
280.569
280.564
280.561
280.559
280.558
280.558
280.558
280.558
280.557
280.557
280.555
280.554
280.552
280.549
280.547
280.545
280.543
280.541
280.54
280.539
280.538
280.538
280.537
280.536
280.536
280.535
280.533
280.532
280.529
280.527
280.524
280.526
280.568
280.773
281.16
281.476
281.572
281.496
281.32
281.444
282.441
281.013
280.618
280.536
280.52
280.521
280.525
280.53
280.537
280.545
280.554
280.567
280.581
280.596
280.611
280.624
280.635
280.644
280.65
280.655
280.659
280.662
280.665
280.668
280.671
280.674
280.679
280.683
280.688
280.693
280.698
280.702
280.706
280.709
280.711
280.711
280.71
280.709
280.707
280.704
280.701
280.698
280.694
280.69
280.685
280.68
280.674
280.668
280.661
280.654
280.646
280.639
280.63
280.621
280.613
280.606
280.6
280.593
280.587
280.58
280.575
280.569
280.564
280.56
280.557
280.555
280.553
280.551
280.549
280.548
280.546
280.545
280.543
280.541
280.54
280.539
280.538
280.538
280.537
280.537
280.537
280.538
280.538
280.538
280.538
280.537
280.536
280.534
280.532
280.53
280.527
280.527
280.552
280.689
280.994
281.311
281.472
281.462
281.323
281.411
282.357
280.96
280.6
280.529
280.518
280.519
280.524
280.53
280.537
280.545
280.557
280.571
280.588
280.606
280.623
280.637
280.649
280.657
280.663
280.668
280.671
280.674
280.677
280.681
280.685
280.691
280.696
280.703
280.709
280.715
280.72
280.724
280.727
280.729
280.73
280.73
280.728
280.726
280.723
280.72
280.717
280.714
280.71
280.706
280.702
280.697
280.691
280.685
280.678
280.671
280.664
280.656
280.648
280.64
280.632
280.624
280.617
280.61
280.603
280.596
280.589
280.582
280.576
280.57
280.565
280.56
280.556
280.552
280.549
280.546
280.544
280.542
280.54
280.539
280.537
280.537
280.536
280.536
280.537
280.537
280.538
280.538
280.539
280.54
280.54
280.539
280.539
280.537
280.535
280.532
280.528
280.527
280.544
280.64
280.885
281.185
281.382
281.419
281.31
281.385
282.287
280.919
280.586
280.525
280.516
280.518
280.523
280.529
280.537
280.547
280.56
280.577
280.596
280.616
280.634
280.649
280.661
280.668
280.674
280.678
280.682
280.685
280.69
280.695
280.702
280.709
280.717
280.725
280.731
280.737
280.741
280.744
280.745
280.745
280.744
280.742
280.739
280.736
280.733
280.729
280.726
280.723
280.72
280.717
280.713
280.709
280.705
280.699
280.693
280.687
280.679
280.672
280.664
280.656
280.648
280.64
280.633
280.625
280.618
280.611
280.603
280.596
280.589
280.582
280.575
280.569
280.563
280.558
280.554
280.55
280.547
280.544
280.542
280.54
280.539
280.538
280.537
280.538
280.538
280.539
280.54
280.541
280.541
280.542
280.542
280.542
280.541
280.539
280.537
280.533
280.529
280.527
280.538
280.611
280.811
281.091
281.308
281.378
281.291
281.363
282.229
280.887
280.576
280.521
280.514
280.517
280.522
280.529
280.537
280.548
280.563
280.583
280.605
280.626
280.646
280.661
280.671
280.679
280.684
280.688
280.693
280.699
280.705
280.713
280.722
280.731
280.739
280.746
280.752
280.756
280.758
280.759
280.758
280.755
280.752
280.748
280.743
280.739
280.734
280.73
280.727
280.724
280.722
280.72
280.718
280.715
280.712
280.709
280.704
280.699
280.693
280.686
280.678
280.67
280.662
280.654
280.646
280.638
280.63
280.623
280.615
280.608
280.601
280.593
280.586
280.579
280.573
280.567
280.561
280.556
280.552
280.549
280.546
280.544
280.542
280.541
280.541
280.54
280.541
280.542
280.542
280.543
280.544
280.545
280.545
280.545
280.544
280.541
280.538
280.534
280.53
280.527
280.535
280.592
280.762
281.022
281.249
281.342
281.27
281.345
282.178
280.86
280.568
280.518
280.513
280.516
280.522
280.529
280.538
280.55
280.568
280.589
280.613
280.636
280.656
280.671
280.681
280.688
280.694
280.7
280.706
280.714
280.723
280.733
280.743
280.753
280.761
280.767
280.77
280.772
280.772
280.769
280.766
280.761
280.755
280.749
280.742
280.735
280.729
280.724
280.72
280.718
280.716
280.715
280.714
280.713
280.712
280.711
280.709
280.706
280.702
280.697
280.69
280.683
280.675
280.666
280.658
280.649
280.641
280.633
280.625
280.618
280.61
280.602
280.595
280.588
280.581
280.575
280.569
280.563
280.559
280.555
280.552
280.549
280.547
280.545
280.545
280.544
280.544
280.545
280.546
280.547
280.548
280.548
280.548
280.547
280.546
280.543
280.539
280.535
280.529
280.526
280.532
280.58
280.728
280.973
281.204
281.312
281.248
281.329
282.133
280.838
280.561
280.516
280.512
280.516
280.522
280.529
280.539
280.553
280.572
280.596
280.622
280.646
280.666
280.681
280.691
280.699
280.706
280.713
280.722
280.733
280.744
280.755
280.765
280.774
280.78
280.784
280.785
280.785
280.782
280.777
280.771
280.763
280.755
280.747
280.738
280.729
280.72
280.713
280.708
280.705
280.703
280.703
280.703
280.703
280.705
280.706
280.707
280.707
280.705
280.703
280.699
280.693
280.686
280.678
280.669
280.66
280.651
280.643
280.634
280.626
280.618
280.61
280.602
280.595
280.588
280.581
280.575
280.57
280.565
280.56
280.557
280.554
280.551
280.55
280.549
280.548
280.548
280.549
280.55
280.551
280.551
280.551
280.551
280.55
280.547
280.544
280.54
280.534
280.528
280.524
280.529
280.571
280.705
280.938
281.172
281.288
281.224
281.315
282.093
280.818
280.555
280.514
280.511
280.515
280.522
280.529
280.54
280.555
280.577
280.603
280.63
280.656
280.676
280.691
280.701
280.71
280.719
280.729
280.74
280.752
280.765
280.776
280.786
280.793
280.797
280.799
280.798
280.795
280.79
280.783
280.775
280.765
280.755
280.743
280.732
280.721
280.71
280.701
280.694
280.69
280.687
280.686
280.686
280.687
280.69
280.693
280.696
280.699
280.701
280.702
280.701
280.699
280.694
280.688
280.68
280.671
280.661
280.652
280.643
280.634
280.625
280.617
280.608
280.601
280.593
280.587
280.58
280.574
280.569
280.565
280.561
280.558
280.555
280.554
280.553
280.552
280.552
280.553
280.554
280.554
280.555
280.555
280.554
280.552
280.549
280.544
280.539
280.533
280.527
280.522
280.526
280.565
280.691
280.916
281.151
281.271
281.198
281.302
282.057
280.802
280.551
280.512
280.51
280.515
280.521
280.53
280.541
280.558
280.582
280.61
280.639
280.665
280.685
280.701
280.713
280.723
280.734
280.746
280.759
280.773
280.785
280.796
280.805
280.811
280.813
280.813
280.811
280.806
280.799
280.79
280.78
280.768
280.755
280.742
280.728
280.714
280.701
280.689
280.68
280.674
280.67
280.667
280.667
280.668
280.67
280.674
280.679
280.684
280.69
280.694
280.697
280.698
280.697
280.694
280.688
280.68
280.671
280.662
280.652
280.642
280.632
280.623
280.614
280.606
280.598
280.591
280.584
280.578
280.573
280.568
280.565
280.561
280.559
280.557
280.557
280.556
280.557
280.557
280.558
280.559
280.559
280.558
280.556
280.553
280.549
280.544
280.538
280.531
280.524
280.519
280.523
280.562
280.683
280.906
281.142
281.258
281.168
281.289
282.025
280.787
280.547
280.511
280.51
280.515
280.521
280.53
280.543
280.562
280.587
280.617
280.647
280.674
280.695
280.711
280.725
280.737
280.75
280.764
280.778
280.793
280.805
280.816
280.823
280.828
280.829
280.828
280.824
280.817
280.809
280.799
280.787
280.773
280.758
280.742
280.726
280.709
280.694
280.679
280.668
280.66
280.653
280.649
280.647
280.647
280.649
280.652
280.658
280.665
280.672
280.679
280.686
280.691
280.695
280.695
280.692
280.687
280.68
280.671
280.661
280.651
280.641
280.631
280.621
280.612
280.604
280.596
280.589
280.582
280.577
280.572
280.568
280.565
280.563
280.562
280.561
280.561
280.562
280.562
280.563
280.563
280.562
280.561
280.558
280.554
280.549
280.543
280.536
280.528
280.521
280.516
280.521
280.561
280.683
280.907
281.143
281.248
281.131
281.277
281.994
280.774
280.543
280.51
280.509
280.514
280.521
280.531
280.545
280.565
280.592
280.623
280.655
280.683
280.705
280.723
280.737
280.752
280.767
280.782
280.798
280.813
280.825
280.835
280.842
280.845
280.845
280.843
280.838
280.831
280.822
280.811
280.797
280.782
280.765
280.746
280.726
280.707
280.688
280.672
280.658
280.647
280.639
280.632
280.628
280.626
280.626
280.629
280.634
280.641
280.65
280.66
280.669
280.678
280.686
280.69
280.692
280.69
280.686
280.679
280.67
280.66
280.65
280.639
280.629
280.619
280.61
280.601
280.594
280.587
280.582
280.577
280.573
280.57
280.569
280.568
280.567
280.567
280.568
280.568
280.568
280.568
280.566
280.563
280.559
280.554
280.547
280.54
280.532
280.524
280.517
280.512
280.519
280.562
280.69
280.921
281.156
281.239
281.085
281.265
281.966
280.762
280.54
280.509
280.508
280.514
280.522
280.532
280.547
280.568
280.597
280.63
280.662
280.692
280.715
280.734
280.751
280.767
280.784
280.801
280.817
280.832
280.845
280.854
280.86
280.863
280.862
280.86
280.854
280.847
280.837
280.825
280.811
280.794
280.774
280.752
280.729
280.706
280.685
280.667
280.651
280.638
280.627
280.618
280.611
280.607
280.605
280.606
280.61
280.617
280.626
280.637
280.648
280.66
280.671
280.68
280.686
280.689
280.688
280.684
280.677
280.669
280.659
280.648
280.638
280.627
280.618
280.609
280.601
280.594
280.588
280.584
280.58
280.578
280.576
280.575
280.575
280.575
280.575
280.575
280.574
280.572
280.569
280.564
280.558
280.552
280.544
280.536
280.528
280.52
280.512
280.509
280.519
280.569
280.708
280.953
281.174
281.22
281.034
281.254
281.94
280.752
280.537
280.508
280.508
280.514
280.522
280.532
280.549
280.572
280.602
280.636
280.67
280.7
280.725
280.746
280.764
280.782
280.801
280.819
280.837
280.852
280.864
280.873
280.879
280.881
280.881
280.878
280.873
280.865
280.855
280.842
280.827
280.808
280.786
280.761
280.735
280.708
280.684
280.663
280.646
280.631
280.617
280.606
280.597
280.589
280.585
280.584
280.587
280.592
280.601
280.612
280.625
280.639
280.653
280.666
280.676
280.683
280.686
280.686
280.682
280.675
280.667
280.657
280.647
280.637
280.627
280.618
280.61
280.603
280.597
280.592
280.589
280.587
280.585
280.585
280.584
280.584
280.583
280.581
280.579
280.575
280.57
280.563
280.556
280.548
280.539
280.53
280.522
280.514
280.508
280.507
280.521
280.583
280.748
281.004
281.185
281.191
280.977
281.242
281.916
280.742
280.535
280.507
280.508
280.514
280.522
280.533
280.551
280.575
280.606
280.642
280.677
280.709
280.735
280.757
280.778
280.798
280.818
280.838
280.856
280.871
280.883
280.893
280.898
280.901
280.9
280.897
280.892
280.884
280.874
280.861
280.844
280.824
280.8
280.772
280.742
280.712
280.685
280.661
280.643
280.626
280.61
280.596
280.584
280.575
280.568
280.565
280.565
280.569
280.577
280.588
280.601
280.617
280.633
280.649
280.663
280.674
280.681
280.684
280.684
280.68
280.674
280.665
280.656
280.646
280.637
280.628
280.62
280.613
280.607
280.603
280.6
280.597
280.596
280.595
280.594
280.592
280.59
280.586
280.581
280.575
280.567
280.559
280.55
280.541
280.532
280.523
280.515
280.509
280.504
280.507
280.531
280.618
280.82
281.05
281.186
281.152
280.915
281.231
281.893
280.733
280.532
280.506
280.507
280.514
280.522
280.534
280.553
280.578
280.611
280.647
280.684
280.717
280.745
280.769
280.791
280.813
280.835
280.856
280.875
280.891
280.903
280.912
280.918
280.92
280.92
280.917
280.911
280.903
280.893
280.88
280.863
280.841
280.816
280.785
280.752
280.718
280.687
280.661
280.641
280.623
280.605
280.589
280.574
280.562
280.553
280.547
280.545
280.548
280.554
280.565
280.578
280.595
280.612
280.63
280.647
280.662
280.673
280.68
280.683
280.682
280.678
280.672
280.663
280.655
280.646
280.637
280.63
280.623
280.618
280.614
280.61
280.608
280.606
280.604
280.602
280.598
280.593
280.586
280.578
280.569
280.56
280.55
280.541
280.532
280.523
280.516
280.51
280.505
280.504
280.514
280.559
280.692
280.893
281.085
281.174
281.102
280.851
281.22
281.871
280.725
280.53
280.505
280.507
280.514
280.523
280.535
280.555
280.581
280.615
280.652
280.69
280.724
280.754
280.78
280.804
280.828
280.851
280.873
280.893
280.91
280.922
280.931
280.937
280.939
280.938
280.935
280.929
280.921
280.911
280.898
280.881
280.86
280.832
280.8
280.763
280.725
280.691
280.662
280.64
280.621
280.603
280.584
280.567
280.552
280.541
280.532
280.528
280.529
280.535
280.544
280.558
280.574
280.593
280.612
280.632
280.649
280.664
280.674
280.68
280.682
280.681
280.676
280.669
280.662
280.654
280.646
280.639
280.632
280.627
280.623
280.62
280.617
280.614
280.61
280.605
280.597
280.588
280.578
280.567
280.556
280.546
280.538
280.53
280.523
280.518
280.512
280.509
280.508
280.514
280.541
280.626
280.776
280.958
281.107
281.149
281.041
280.791
281.209
281.85
280.718
280.528
280.505
280.507
280.514
280.523
280.536
280.557
280.584
280.618
280.657
280.695
280.731
280.763
280.791
280.817
280.842
280.867
280.89
280.911
280.928
280.941
280.95
280.955
280.956
280.954
280.95
280.944
280.936
280.926
280.914
280.898
280.877
280.85
280.816
280.776
280.734
280.696
280.665
280.641
280.621
280.601
280.582
280.563
280.545
280.531
280.521
280.515
280.514
280.518
280.527
280.54
280.557
280.576
280.597
280.618
280.637
280.655
280.668
280.677
280.681
280.682
280.679
280.674
280.667
280.66
280.653
280.646
280.64
280.635
280.631
280.627
280.623
280.616
280.607
280.595
280.583
280.57
280.558
280.548
280.541
280.537
280.533
280.529
280.525
280.522
280.519
280.518
280.524
280.545
280.603
280.708
280.855
281.009
281.114
281.111
280.972
280.738
281.198
281.83
280.711
280.527
280.504
280.506
280.513
280.523
280.537
280.558
280.587
280.622
280.661
280.7
280.738
280.771
280.801
280.829
280.856
280.882
280.907
280.928
280.945
280.958
280.966
280.97
280.971
280.967
280.962
280.954
280.946
280.937
280.927
280.913
280.894
280.868
280.833
280.79
280.745
280.703
280.669
280.643
280.622
280.601
280.581
280.561
280.542
280.525
280.512
280.505
280.502
280.506
280.514
280.527
280.544
280.563
280.584
280.606
280.628
280.647
280.662
280.674
280.68
280.682
280.681
280.677
280.671
280.664
280.658
280.651
280.646
280.64
280.635
280.629
280.619
280.604
280.588
280.574
280.561
280.553
280.553
280.556
280.557
280.556
280.552
280.548
280.544
280.541
280.54
280.546
280.565
280.606
280.681
280.791
280.923
281.043
281.104
281.06
280.898
280.697
281.189
281.811
280.704
280.525
280.504
280.506
280.513
280.523
280.538
280.56
280.589
280.624
280.664
280.705
280.743
280.779
280.811
280.84
280.869
280.896
280.921
280.943
280.961
280.973
280.981
280.983
280.981
280.976
280.968
280.96
280.951
280.943
280.935
280.925
280.909
280.885
280.85
280.806
280.758
280.712
280.675
280.647
280.624
280.603
280.582
280.561
280.541
280.522
280.508
280.498
280.495
280.498
280.506
280.519
280.535
280.554
280.576
280.598
280.621
280.642
280.659
280.671
280.679
280.683
280.682
280.679
280.673
280.667
280.66
280.654
280.648
280.641
280.632
280.616
280.598
280.581
280.566
280.569
280.588
280.6
280.604
280.604
280.602
280.597
280.591
280.585
280.581
280.579
280.583
280.598
280.628
280.682
280.762
280.866
280.975
281.06
281.08
281.002
280.824
280.669
281.182
281.793
280.698
280.524
280.503
280.506
280.513
280.524
280.539
280.561
280.591
280.626
280.666
280.708
280.748
280.785
280.819
280.85
280.88
280.909
280.935
280.957
280.974
280.986
280.992
280.992
280.988
280.98
280.969
280.959
280.949
280.943
280.937
280.932
280.921
280.902
280.869
280.824
280.772
280.722
280.681
280.651
280.628
280.606
280.584
280.562
280.541
280.522
280.506
280.496
280.491
280.494
280.503
280.516
280.532
280.551
280.572
280.595
280.618
280.64
280.658
280.671
280.68
280.683
280.683
280.68
280.674
280.668
280.661
280.653
280.645
280.632
280.613
280.585
280.57
280.607
280.631
280.645
280.657
280.663
280.665
280.663
280.658
280.652
280.645
280.639
280.636
280.637
280.646
280.667
280.704
280.761
280.838
280.926
281.01
281.061
281.046
280.943
280.762
280.652
281.178
281.775
280.693
280.523
280.503
280.505
280.513
280.524
280.54
280.562
280.592
280.627
280.668
280.71
280.752
280.79
280.826
280.859
280.89
280.919
280.946
280.968
280.985
280.996
281
280.998
280.99
280.978
280.964
280.951
280.941
280.935
280.933
280.933
280.929
280.916
280.887
280.842
280.788
280.734
280.689
280.657
280.633
280.611
280.588
280.566
280.544
280.524
280.508
280.497
280.492
280.495
280.505
280.519
280.535
280.553
280.573
280.596
280.62
280.641
280.66
280.673
280.681
280.684
280.683
280.679
280.673
280.666
280.658
280.646
280.629
280.597
280.589
280.624
280.651
280.678
280.699
280.714
280.724
280.729
280.731
280.729
280.724
280.718
280.712
280.707
280.705
280.708
280.72
280.743
280.781
280.835
280.901
280.972
281.029
281.05
281.007
280.887
280.72
280.643
281.178
281.759
280.688
280.522
280.502
280.505
280.513
280.524
280.54
280.562
280.591
280.627
280.667
280.71
280.753
280.794
280.831
280.866
280.898
280.928
280.955
280.977
280.993
281.003
281.005
280.999
280.987
280.971
280.953
280.937
280.926
280.92
280.922
280.928
280.933
280.927
280.904
280.862
280.806
280.747
280.699
280.664
280.638
280.616
280.594
280.571
280.549
280.529
280.512
280.501
280.497
280.501
280.512
280.527
280.543
280.56
280.58
280.602
280.625
280.647
280.664
280.676
280.683
280.684
280.682
280.677
280.669
280.659
280.644
280.621
280.608
280.625
280.655
280.689
280.719
280.744
280.763
280.778
280.788
280.794
280.796
280.796
280.793
280.788
280.783
280.779
280.778
280.783
280.795
280.817
280.851
280.897
280.95
281.001
281.035
281.031
280.968
280.84
280.701
280.641
281.181
281.743
280.684
280.521
280.502
280.504
280.512
280.523
280.539
280.561
280.59
280.624
280.664
280.708
280.752
280.794
280.833
280.869
280.903
280.933
280.96
280.982
280.998
281.006
281.006
280.997
280.981
280.96
280.938
280.918
280.905
280.9
280.904
280.916
280.93
280.934
280.92
280.882
280.825
280.763
280.709
280.671
280.645
280.623
280.601
280.578
280.556
280.535
280.518
280.507
280.503
280.509
280.522
280.538
280.556
280.573
280.591
280.612
280.634
280.653
280.668
280.678
280.682
280.682
280.678
280.67
280.657
280.641
280.626
280.626
280.648
280.681
280.717
280.749
280.777
280.8
280.818
280.832
280.842
280.85
280.854
280.855
280.855
280.852
280.849
280.847
280.847
280.851
280.862
280.881
280.909
280.944
280.983
281.017
281.031
281.008
280.932
280.802
280.696
280.645
281.183
281.729
280.68
280.52
280.501
280.504
280.511
280.522
280.538
280.559
280.586
280.619
280.658
280.701
280.746
280.789
280.831
280.869
280.903
280.934
280.961
280.983
280.999
281.005
281.003
280.991
280.97
280.945
280.919
280.896
280.88
280.874
280.88
280.898
280.92
280.937
280.933
280.902
280.846
280.78
280.722
280.68
280.652
280.63
280.608
280.586
280.564
280.543
280.526
280.514
280.511
280.518
280.533
280.552
280.57
280.588
280.606
280.625
280.644
280.66
280.672
280.678
280.68
280.676
280.668
280.656
280.642
280.633
280.64
280.665
280.699
280.735
280.769
280.798
280.822
280.841
280.856
280.869
280.878
280.885
280.89
280.894
280.896
280.897
280.897
280.898
280.899
280.904
280.913
280.928
280.949
280.975
281.001
281.019
281.017
280.981
280.894
280.775
280.697
280.648
281.185
281.715
280.677
280.519
280.5
280.503
280.51
280.521
280.535
280.555
280.58
280.611
280.647
280.689
280.733
280.778
280.821
280.861
280.897
280.93
280.957
280.979
280.994
281
280.995
280.981
280.957
280.928
280.898
280.871
280.852
280.845
280.851
280.873
280.904
280.933
280.943
280.922
280.869
280.8
280.736
280.69
280.66
280.638
280.617
280.595
280.573
280.552
280.535
280.523
280.52
280.527
280.543
280.564
280.585
280.603
280.62
280.636
280.652
280.664
280.672
280.674
280.672
280.665
280.654
280.643
280.64
280.651
280.675
280.709
280.744
280.778
280.806
280.829
280.847
280.86
280.871
280.878
280.884
280.889
280.894
280.899
280.904
280.909
280.914
280.919
280.925
280.931
280.94
280.953
280.969
280.986
281.001
281.007
280.992
280.944
280.85
280.761
280.697
280.648
281.185
281.702
280.674
280.519
280.5
280.502
280.509
280.519
280.532
280.55
280.572
280.599
280.632
280.67
280.712
280.757
280.802
280.844
280.882
280.916
280.944
280.967
280.982
280.987
280.982
280.966
280.939
280.907
280.875
280.846
280.825
280.815
280.82
280.844
280.882
280.924
280.949
280.94
280.893
280.823
280.752
280.701
280.669
280.647
280.626
280.605
280.584
280.563
280.545
280.533
280.528
280.534
280.55
280.572
280.595
280.614
280.63
280.644
280.655
280.663
280.667
280.665
280.66
280.651
280.644
280.645
280.657
280.682
280.714
280.747
280.779
280.805
280.826
280.841
280.85
280.856
280.858
280.859
280.859
280.859
280.862
280.866
280.873
280.882
280.893
280.904
280.916
280.927
280.939
280.952
280.965
280.976
280.982
280.978
280.953
280.892
280.812
280.746
280.694
280.648
281.18
281.691
280.673
280.519
280.499
280.501
280.507
280.516
280.528
280.543
280.563
280.585
280.612
280.644
280.682
280.724
280.768
280.811
280.852
280.888
280.918
280.942
280.958
280.964
280.96
280.943
280.915
280.883
280.85
280.821
280.798
280.785
280.788
280.811
280.854
280.907
280.948
280.955
280.918
280.847
280.771
280.713
280.678
280.655
280.636
280.616
280.595
280.575
280.557
280.543
280.537
280.54
280.554
280.575
280.598
280.618
280.634
280.645
280.652
280.656
280.656
280.653
280.648
280.644
280.648
280.661
280.685
280.714
280.746
280.775
280.8
280.818
280.83
280.836
280.838
280.836
280.832
280.827
280.823
280.82
280.819
280.821
280.826
280.835
280.847
280.862
280.878
280.895
280.912
280.927
280.939
280.947
280.947
280.934
280.898
280.838
280.778
280.729
280.687
280.647
281.169
281.681
280.672
280.519
280.499
280.5
280.505
280.513
280.523
280.536
280.552
280.571
280.591
280.615
280.645
280.68
280.719
280.761
280.802
280.84
280.873
280.899
280.917
280.926
280.923
280.908
280.882
280.852
280.822
280.795
280.772
280.757
280.757
280.778
280.823
280.884
280.942
280.967
280.942
280.875
280.793
280.727
280.687
280.664
280.646
280.627
280.607
280.588
280.57
280.555
280.546
280.546
280.554
280.571
280.592
280.612
280.627
280.637
280.642
280.645
280.644
280.643
280.643
280.649
280.663
280.685
280.713
280.742
280.769
280.792
280.809
280.82
280.824
280.824
280.82
280.815
280.809
280.804
280.8
280.797
280.795
280.796
280.799
280.805
280.813
280.825
280.839
280.855
280.872
280.889
280.902
280.907
280.903
280.882
280.844
280.794
280.749
280.712
280.679
280.645
281.153
281.672
280.671
280.519
280.498
280.498
280.503
280.51
280.518
280.529
280.541
280.556
280.573
280.59
280.609
280.632
280.661
280.696
280.732
280.768
280.802
280.83
280.851
280.863
280.864
280.852
280.834
280.813
280.79
280.767
280.747
280.732
280.728
280.745
280.789
280.856
280.928
280.973
280.965
280.905
280.819
280.744
280.698
280.673
280.656
280.638
280.62
280.602
280.584
280.569
280.558
280.553
280.556
280.567
280.583
280.599
280.614
280.623
280.63
280.633
280.636
280.641
280.649
280.664
280.685
280.71
280.737
280.763
280.784
280.8
280.81
280.814
280.813
280.809
280.803
280.796
280.789
280.783
280.778
280.775
280.774
280.777
280.783
280.79
280.798
280.807
280.817
280.829
280.842
280.856
280.867
280.87
280.861
280.839
280.805
280.764
280.728
280.699
280.672
280.642
281.135
281.665
280.672
280.52
280.497
280.497
280.501
280.507
280.513
280.521
280.53
280.542
280.556
280.572
280.586
280.599
280.613
280.632
280.656
280.684
280.713
280.739
280.761
280.776
280.781
280.776
280.771
280.762
280.751
280.737
280.723
280.709
280.703
280.715
280.755
280.824
280.907
280.972
280.986
280.937
280.849
280.764
280.71
280.682
280.666
280.65
280.633
280.616
280.6
280.585
280.572
280.565
280.563
280.567
280.576
280.589
280.601
280.612
280.621
280.629
280.637
280.648
280.664
280.684
280.707
280.732
280.755
280.776
280.791
280.801
280.805
280.804
280.8
280.793
280.784
280.776
280.768
280.761
280.756
280.754
280.756
280.762
280.771
280.781
280.793
280.805
280.814
280.822
280.83
280.839
280.845
280.843
280.833
280.812
280.782
280.748
280.715
280.689
280.665
280.639
281.115
281.659
280.673
280.52
280.497
280.496
280.499
280.503
280.508
280.514
280.52
280.528
280.538
280.553
280.569
280.58
280.591
280.599
280.61
280.616
280.634
280.651
280.67
280.684
280.693
280.7
280.707
280.71
280.708
280.704
280.697
280.688
280.682
280.688
280.722
280.79
280.881
280.964
281.002
280.97
280.883
280.789
280.724
280.692
280.675
280.661
280.646
280.631
280.616
280.602
280.59
280.581
280.576
280.576
280.58
280.589
280.599
280.611
280.623
280.634
280.648
280.663
280.682
280.704
280.726
280.748
280.768
280.783
280.793
280.797
280.797
280.792
280.785
280.775
280.765
280.755
280.747
280.74
280.736
280.737
280.742
280.75
280.762
280.777
280.793
280.808
280.819
280.826
280.829
280.834
280.835
280.83
280.818
280.799
280.772
280.741
280.708
280.681
280.658
280.635
281.094
281.654
280.675
280.522
280.497
280.494
280.497
280.5
280.504
280.507
280.511
280.515
280.521
280.533
280.549
280.562
280.573
280.583
280.593
280.597
280.604
280.609
280.615
280.624
280.634
280.646
280.657
280.666
280.671
280.672
280.671
280.666
280.662
280.666
280.694
280.757
280.85
280.948
281.011
281.002
280.923
280.818
280.74
280.702
280.684
280.672
280.659
280.646
280.632
280.62
280.609
280.6
280.594
280.592
280.594
280.6
280.609
280.621
280.634
280.648
280.664
280.682
280.701
280.722
280.742
280.76
280.775
280.785
280.79
280.79
280.786
280.779
280.769
280.758
280.747
280.736
280.727
280.721
280.72
280.723
280.73
280.741
280.756
280.775
280.796
280.815
280.828
280.833
280.833
280.833
280.831
280.824
280.812