/*--------------------------------*- C++ -*----------------------------------*\
| =========                 |                                                 |
| \\      /  F ield         | OpenFOAM: The Open Source CFD Toolbox           |
|  \\    /   O peration     | Version:  4.1                                   |
|   \\  /    A nd           | Web:      www.OpenFOAM.org                      |
|    \\/     M anipulation  |                                                 |
\*---------------------------------------------------------------------------*/
FoamFile
{
    version     2.0;
    format      ascii;
    class       volScalarField;
    location    "460";
    object      mag(U);
}
// * * * * * * * * * * * * * * * * * * * * * * * * * * * * * * * * * * * * * //

dimensions      [0 1 -1 0 0 0 0];

internalField   nonuniform List<scalar> 
5000
(
0.00446113
0.00361051
0.00274029
0.00215652
0.00228433
0.00226378
0.00206861
0.00180553
0.00155604
0.00133948
0.00114624
0.00096573
0.000792055
0.000629159
0.000492207
0.000430714
0.000527871
0.000829586
0.00141282
0.00229398
0.00340061
0.00456951
0.00559989
0.00632611
0.00666697
0.00664052
0.00634558
0.00590127
0.00538018
0.00481401
0.00421418
0.00359043
0.00296101
0.00235836
0.00183533
0.00147815
0.0013366
0.00115029
0.000704367
0.00101947
0.00265618
0.00438231
0.00558571
0.00582645
0.00474276
0.00691046
0.00678555
0.00540884
0.0034938
0.00161764
0.00140123
0.00203855
0.00260832
0.00258396
0.00190072
0.000932737
0.000397312
0.000561218
0.000610736
0.000527346
0.000384569
0.000211383
0.000194069
0.000466167
0.000836856
0.00127096
0.00175643
0.0022818
0.00283455
0.00340141
0.00396901
0.00452451
0.00505611
0.00555339
0.00600754
0.00641145
0.00675977
0.00704883
0.00727666
0.00744297
0.00754938
0.0075999
0.0076026
0.00756154
0.00748053
0.00736473
0.00722045
0.00705514
0.00687746
0.00669706
0.00652474
0.00637282
0.00625614
0.00619027
0.00620213
0.00629949
0.00644846
0.006502
0.00593292
0.00564285
0.0062173
0.00331379
0.00345011
0.00300967
0.0025722
0.00237658
0.00237588
0.00246024
0.00257339
0.00271045
0.0028736
0.00305697
0.0032534
0.00346001
0.0036749
0.00390728
0.00417894
0.00452836
0.00495216
0.00542138
0.00587618
0.00624702
0.00648114
0.00655926
0.00650236
0.00637057
0.00622439
0.00607274
0.00591131
0.00572784
0.00551385
0.00526609
0.00498269
0.00465135
0.00422934
0.00364507
0.0028771
0.00206573
0.00167003
0.00209382
0.00290412
0.00342286
0.0031345
0.00312295
0.00734564
0.00767746
0.00461348
0.00483092
0.00407088
0.0026831
0.00185192
0.00112616
0.000554457
0.000781876
0.00133361
0.00128941
0.000994501
0.000827858
0.000799351
0.000770505
0.000784066
0.000873293
0.00104915
0.00130879
0.00164462
0.00204775
0.00250806
0.00301389
0.00355241
0.00411013
0.00467366
0.00523025
0.0057683
0.00627774
0.00675028
0.00717948
0.00756081
0.00789159
0.00817092
0.00839963
0.00858039
0.00871711
0.00880933
0.00885721
0.00886247
0.00882868
0.00876086
0.00866493
0.00854753
0.00841585
0.00827753
0.00814043
0.00801239
0.00790155
0.00779848
0.00768036
0.00749495
0.00708217
0.0062295
0.00818734
0.00857176
0.00194775
0.00290991
0.00277543
0.00266883
0.00268595
0.00282298
0.00303311
0.00328691
0.00357535
0.00389395
0.00424562
0.00463407
0.00505409
0.00549244
0.00593071
0.00634577
0.0067088
0.00698647
0.00714784
0.0071732
0.00706957
0.00688983
0.00672903
0.00667541
0.00673843
0.00682751
0.00684869
0.00677908
0.00662972
0.00641758
0.0061551
0.00584761
0.0054903
0.00506604
0.00456131
0.00401209
0.00353655
0.00330862
0.00341337
0.00362747
0.00333675
0.00166829
0.00379396
0.00936781
0.00903781
0.00229731
0.00463454
0.00406909
0.00292879
0.00215107
0.00147338
0.000870791
0.000144255
0.000821099
0.000995804
0.000871661
0.000690311
0.000551765
0.000502841
0.000582338
0.000784091
0.00107143
0.00142358
0.00182986
0.00228267
0.00277452
0.00329683
0.0038398
0.00439274
0.00494456
0.00548433
0.00600178
0.00648774
0.00693448
0.00733583
0.00768741
0.00798652
0.00823212
0.00842451
0.00856453
0.00865294
0.00869255
0.00869004
0.00865102
0.00858012
0.00848162
0.0083591
0.00821543
0.00805277
0.00787225
0.00767335
0.00745244
0.00720032
0.00690384
0.00653953
0.00605597
0.00549909
0.00592582
0.0114796
0.0103786
0.00143544
0.00249544
0.00261528
0.00277199
0.00298068
0.00324471
0.00355086
0.00389415
0.00427009
0.00467729
0.00511482
0.00558028
0.00606694
0.00656145
0.00704315
0.00748295
0.00784367
0.00808635
0.00818408
0.00813901
0.00799488
0.00783266
0.00773399
0.00772413
0.00775191
0.00774427
0.00766485
0.00750834
0.0072838
0.00700382
0.00667957
0.00631898
0.00592596
0.00550345
0.00506658
0.0046631
0.00437845
0.00430614
0.00447646
0.00475567
0.0047522
0.00396906
0.0040552
0.00879876
0.00976104
0.00179753
0.00397184
0.0036703
0.00287129
0.00221465
0.00157319
0.000873089
0.000128081
0.00049125
0.000669369
0.000595957
0.000467326
0.000401826
0.000489569
0.000716939
0.00102963
0.00140034
0.00181597
0.00226866
0.00275218
0.00326036
0.00378651
0.00432313
0.00486199
0.00539438
0.00591136
0.0064042
0.00686467
0.00728539
0.0076601
0.00798385
0.0082531
0.00846581
0.00862129
0.00872005
0.00876347
0.00875444
0.00869983
0.00860432
0.00847338
0.00831232
0.00812527
0.00791521
0.00768362
0.00743004
0.00715139
0.00684121
0.00648909
0.00608186
0.00560585
0.00506674
0.00475905
0.00655914
0.0143926
0.0117446
0.00131879
0.00222416
0.00254024
0.00289775
0.003263
0.00364871
0.00406016
0.00449752
0.00495828
0.00543959
0.00593793
0.00644821
0.0069622
0.00746708
0.00794448
0.00836999
0.00871441
0.00894961
0.00905948
0.00905213
0.00896405
0.0088474
0.00874157
0.00865071
0.00854778
0.00839703
0.00819118
0.0079271
0.00761066
0.00725138
0.00685928
0.00644372
0.00601377
0.00558174
0.005171
0.00482345
0.00459645
0.00454426
0.00468775
0.0049718
0.00518064
0.00486724
0.00407056
0.00623584
0.00813159
0.00295184
0.00360759
0.00315377
0.00263146
0.00212387
0.00156739
0.000884573
0.000133486
0.000384536
0.000554884
0.000561942
0.000572726
0.000668649
0.000864177
0.00114651
0.00149618
0.00189846
0.00234206
0.00281754
0.00331643
0.0038309
0.00435371
0.00487805
0.00539742
0.00590538
0.00639542
0.00686098
0.00729551
0.0076927
0.00804663
0.00835208
0.00860467
0.00880105
0.00893905
0.00901773
0.00903717
0.00900109
0.00891258
0.00877573
0.00859585
0.00837852
0.00812861
0.00785018
0.007546
0.00721693
0.00686127
0.0064743
0.00604873
0.00557778
0.00506648
0.00458086
0.00462475
0.00737173
0.0166802
0.0129005
0.00155096
0.00211417
0.00257452
0.00308463
0.00357992
0.00407845
0.00458838
0.00511189
0.00564708
0.00619008
0.00673567
0.0072771
0.00780538
0.00830842
0.0087705
0.00917232
0.00949257
0.00971215
0.00982093
0.00982408
0.00974253
0.00960405
0.00942997
0.009227
0.00898636
0.00870414
0.0083814
0.00801768
0.00761793
0.00718944
0.00674067
0.00628087
0.00582091
0.00537577
0.00496779
0.00462748
0.00438761
0.0042702
0.00427203
0.00435263
0.00440187
0.00417827
0.00343779
0.00337305
0.00495984
0.00315403
0.00317868
0.00276296
0.00240374
0.00201853
0.00155493
0.000973828
0.000456486
0.000575034
0.000772312
0.000923992
0.0010656
0.00123139
0.00144684
0.00172427
0.00206568
0.00246534
0.00291286
0.00339577
0.00390118
0.00441713
0.00493355
0.0054426
0.00593841
0.00641646
0.0068729
0.00730399
0.00770575
0.0080739
0.00840388
0.00869106
0.00893091
0.00911928
0.00925265
0.00932836
0.0093447
0.00930318
0.0092035
0.00904821
0.00884145
0.00858806
0.00829305
0.00796129
0.0075971
0.00720373
0.00678285
0.00633443
0.00585791
0.00535723
0.00485866
0.00447643
0.00483116
0.00816788
0.0185523
0.0139333
0.00202588
0.00221484
0.00274909
0.00336216
0.0039551
0.00454408
0.00513555
0.00573036
0.00632537
0.00691536
0.0074937
0.00805247
0.00858212
0.00907111
0.00950567
0.0098701
0.0101481
0.0103259
0.0103956
0.0103594
0.010229
0.0100214
0.00975375
0.00943921
0.00908751
0.00871003
0.00830684
0.00787937
0.00743066
0.0069651
0.00648847
0.00600829
0.00553465
0.00508142
0.00466667
0.00431052
0.00402927
0.00382561
0.00367489
0.00352044
0.00327198
0.00279576
0.00197898
0.00119646
0.00219928
0.00284689
0.00296996
0.00272704
0.00245296
0.00213483
0.0017625
0.00136188
0.00109836
0.00121464
0.00145479
0.00164295
0.00179796
0.00196005
0.00215415
0.00239927
0.0027079
0.00308237
0.00351527
0.00399235
0.00449612
0.00500925
0.00551709
0.006009
0.00647837
0.00692178
0.00733777
0.00772562
0.00808456
0.00841317
0.0087092
0.0089696
0.00919063
0.00936819
0.00949804
0.00957614
0.00959908
0.00956467
0.00947056
0.00931678
0.00910541
0.00883965
0.00852364
0.00816223
0.00776073
0.00732464
0.00685958
0.00637156
0.00586879
0.00536782
0.00491452
0.00465204
0.00523844
0.0089425
0.020172
0.0148796
0.00263796
0.00252496
0.00307513
0.00373952
0.00439245
0.00504372
0.00569389
0.00633988
0.00697587
0.00759463
0.00818795
0.00874673
0.00926081
0.00971888
0.0101084
0.0104162
0.0106293
0.0107372
0.0107346
0.0106237
0.0104145
0.0101233
0.0097714
0.00938353
0.00897966
0.00856443
0.00813882
0.00770249
0.00725519
0.00679762
0.00633219
0.00586362
0.00539968
0.00495145
0.00453238
0.00415517
0.00382841
0.00355367
0.00330218
0.00300659
0.0025936
0.00198709
0.00118908
0.000775523
0.00191251
0.00289872
0.00318932
0.00312575
0.00293666
0.00268632
0.0024101
0.00216353
0.00203886
0.00214721
0.00235198
0.00252341
0.002664
0.00280263
0.00296233
0.00316416
0.00342636
0.0037587
0.00415929
0.00461521
0.00510621
0.00560973
0.00610551
0.00657853
0.00701988
0.00742595
0.00779683
0.00813455
0.00844162
0.00871999
0.00897043
0.00919231
0.00938361
0.0095411
0.00966068
0.00973766
0.00976727
0.00974441
0.00966486
0.0095258
0.00932678
0.00906883
0.00875457
0.00838808
0.00797495
0.00752235
0.0070394
0.00653805
0.00603544
0.00556015
0.00517282
0.00502665
0.00577049
0.00969986
0.0216171
0.0157644
0.0033343
0.00301019
0.00353557
0.00420774
0.00488525
0.00556924
0.00625243
0.0069264
0.00758166
0.0082084
0.00879653
0.00933564
0.00981489
0.0102231
0.0105488
0.0107809
0.0109098
0.0109291
0.0108379
0.0106432
0.0103594
0.01001
0.00962453
0.00923253
0.00884044
0.00845052
0.00806103
0.00766829
0.00726839
0.00685836
0.00643712
0.00600624
0.00557056
0.00513823
0.00471936
0.00432289
0.00395759
0.00364673
0.00338029
0.00308841
0.00273825
0.00236583
0.00213023
0.00227678
0.00284582
0.00346588
0.00377479
0.00382692
0.00374041
0.0035843
0.00340508
0.00325287
0.00318336
0.00324482
0.00337923
0.00351273
0.00362767
0.00373684
0.00385857
0.00401307
0.00422107
0.00449835
0.00485007
0.00526797
0.00573211
0.00621631
0.00669463
0.00714657
0.00755932
0.00792754
0.00825169
0.00853572
0.00878511
0.00900524
0.00920028
0.00937264
0.00952276
0.00964913
0.00974853
0.00981642
0.00984732
0.00983452
0.00977204
0.00965445
0.00947879
0.00924374
0.00894995
0.00860024
0.00819985
0.00775686
0.00728303
0.00679524
0.00631814
0.00588978
0.00557952
0.00553706
0.0063816
0.0104415
0.0229298
0.0166064
0.00409079
0.00362172
0.00410129
0.00474992
0.00542178
0.00611033
0.00680052
0.0074783
0.00813012
0.00874325
0.00930556
0.00980527
0.010231
0.0105719
0.0108181
0.0109615
0.0109972
0.0109253
0.0107526
0.0104945
0.0101746
0.00982281
0.00947238
0.00913152
0.00880229
0.00848301
0.0081685
0.00785194
0.00752628
0.00718535
0.00682473
0.00644261
0.00604057
0.00562393
0.0052006
0.00477824
0.00436859
0.00403281
0.00379118
0.00356866
0.00336327
0.00321965
0.00321713
0.00341799
0.00379823
0.00421142
0.0044923
0.00461683
0.00463037
0.00457882
0.00449912
0.00442598
0.00439248
0.00442123
0.00449524
0.00458037
0.00465939
0.00473419
0.00481616
0.00492215
0.00507265
0.00528718
0.00557767
0.00594268
0.00636585
0.00681991
0.00727428
0.00770256
0.00808682
0.00841854
0.00869708
0.00892729
0.00911691
0.00927443
0.00940755
0.00952208
0.00962144
0.00970654
0.00977581
0.00982565
0.00985065
0.0098435
0.00979688
0.00970326
0.00955738
0.00935559
0.00909646
0.00878123
0.00841433
0.00800405
0.00756379
0.00711382
0.0066841
0.00631867
0.00609009
0.00613751
0.00704464
0.0111714
0.0241397
0.0174188
0.00489182
0.00431813
0.00474264
0.00534702
0.00598901
0.00665715
0.00733001
0.00798843
0.00861491
0.0091938
0.00971096
0.0101535
0.0105099
0.0107704
0.0109282
0.0109798
0.0109274
0.01078
0.0105548
0.0102761
0.00997356
0.00967577
0.00939904
0.00914116
0.00890104
0.00867342
0.00845058
0.00822345
0.00798252
0.00771876
0.00742438
0.00709386
0.00672498
0.00631966
0.00588326
0.00542291
0.00494333
0.00456436
0.00434379
0.00417467
0.00405817
0.0040203
0.00409405
0.00429362
0.00459114
0.00491205
0.00517436
0.00534703
0.00544209
0.00548425
0.00549741
0.00550258
0.00551706
0.00555105
0.00560079
0.00565365
0.00570088
0.00574269
0.00578669
0.0058466
0.00594136
0.00609214
0.0063162
0.00661937
0.00699116
0.007406
0.00783054
0.00823296
0.00858962
0.00888757
0.0091238
0.00930282
0.0094338
0.00952789
0.00959609
0.00964774
0.00968962
0.00972554
0.00975627
0.0097798
0.00979162
0.00978467
0.00975096
0.00968143
0.00956886
0.00940735
0.00919336
0.00892637
0.00860963
0.00825104
0.00786462
0.00747244
0.00710734
0.006816
0.00667025
0.00679643
0.00774307
0.011894
0.0252685
0.0182098
0.00572346
0.0050678
0.00543363
0.00598075
0.00657451
0.00720143
0.0078357
0.00845407
0.00903554
0.00956186
0.0100172
0.0103881
0.0106637
0.0108369
0.0109052
0.0108723
0.0107491
0.0105548
0.0103153
0.0100594
0.00981364
0.00959728
0.00940821
0.00924357
0.00909922
0.0089681
0.00884109
0.00870752
0.00855575
0.00837392
0.0081507
0.0078764
0.00754427
0.00715157
0.00669977
0.00619453
0.00561387
0.0051752
0.00494163
0.0047908
0.00471264
0.00471622
0.00481147
0.00499606
0.00524639
0.00551898
0.0057677
0.00596751
0.00611739
0.00622843
0.00631424
0.00638656
0.00645352
0.00651827
0.00657828
0.00662784
0.00666324
0.00668588
0.00670264
0.00672587
0.00677341
0.00686714
0.00702811
0.00726874
0.00758538
0.00795636
0.00834778
0.00872365
0.00905471
0.00932284
0.00952155
0.00965397
0.00972986
0.00976246
0.00976578
0.00975265
0.00973335
0.00971492
0.00970094
0.0096916
0.00968394
0.00967187
0.00964757
0.0096011
0.00952362
0.00940716
0.00924602
0.00903773
0.00878405
0.00849193
0.00817505
0.00785584
0.00756788
0.00735787
0.0072946
0.00749187
0.00846537
0.0126123
0.0263319
0.0189843
0.00657226
0.00584629
0.00615242
0.00663464
0.00716711
0.00773657
0.0083149
0.00887591
0.00939587
0.00985443
0.0102347
0.0105233
0.0107114
0.0107958
0.0107804
0.0106771
0.0105063
0.0102951
0.0100735
0.00986806
0.00969511
0.00956014
0.00945706
0.00938254
0.00933113
0.00929511
0.0092645
0.00922723
0.00916955
0.00907663
0.00893341
0.00872561
0.00844105
0.00807088
0.00761065
0.00706185
0.00636944
0.00584605
0.0055758
0.00541479
0.0053408
0.0053503
0.00544056
0.00560223
0.00581559
0.00605235
0.00628367
0.00649071
0.00666801
0.00681907
0.00695057
0.00706861
0.00717653
0.00727411
0.00735782
0.00742279
0.00746581
0.00748772
0.0074943
0.00749675
0.0075121
0.00756254
0.00767175
0.0078575
0.00812283
0.00845125
0.00881029
0.00916145
0.0094705
0.0097139
0.00988095
0.00997255
0.00999836
0.00997324
0.00991397
0.00983671
0.00975523
0.00967998
0.00961761
0.00957096
0.00953912
0.00951755
0.0094994
0.00947458
0.00943306
0.00936493
0.00926227
0.00912049
0.00893948
0.00872471
0.00848873
0.00825311
0.00805059
0.00792611
0.00794435
0.00820782
0.00920217
0.0133272
0.0273403
0.0197442
0.00742521
0.00663388
0.00688066
0.00729423
0.00775695
0.00825731
0.00876653
0.00925672
0.00970218
0.0100812
0.0103763
0.0105756
0.0106732
0.0106713
0.0105811
0.0104231
0.0102253
0.0100188
0.00983165
0.00968262
0.00957675
0.00951355
0.00948746
0.00949526
0.00953155
0.00958846
0.00965526
0.00971841
0.00976192
0.00976796
0.00971761
0.00959172
0.00937192
0.00904175
0.00858843
0.00800494
0.00721105
0.00658668
0.00626165
0.0060682
0.00597477
0.00596801
0.0060369
0.0061681
0.00634425
0.00654508
0.00675094
0.00694768
0.00712881
0.00729384
0.00744516
0.00758531
0.00771516
0.00783313
0.00793536
0.00801696
0.00807404
0.00810574
0.00811564
0.00811281
0.0081127
0.00813693
0.00821053
0.00835512
0.00857941
0.0088723
0.00920412
0.0095354
0.00982787
0.0100527
0.0101945
0.0102515
0.0102328
0.0101547
0.0100365
0.0098975
0.00975501
0.00962282
0.00951078
0.00942463
0.00936585
0.00933182
0.00931746
0.00931315
0.00930809
0.00929061
0.00925049
0.00918082
0.00907925
0.00894929
0.00880172
0.00865636
0.00854405
0.00850699
0.00860545
0.0089321
0.0099453
0.014038
0.0283011
0.0204896
0.00826994
0.00741399
0.00760269
0.00794677
0.00833521
0.00875909
0.00919019
0.00959995
0.00996148
0.0102523
0.0104555
0.0105611
0.0105674
0.0104828
0.0103263
0.0101254
0.00991262
0.00971867
0.00956571
0.0094639
0.00941055
0.00940576
0.00944548
0.00952742
0.00964675
0.00979543
0.00996184
0.0101308
0.0102842
0.0104011
0.0104591
0.0104338
0.0103004
0.0100334
0.00960911
0.00900792
0.00813606
0.00740625
0.00701279
0.00676999
0.00663969
0.00660074
0.00663571
0.0067282
0.00686201
0.00702132
0.00719196
0.00736322
0.00752896
0.00768684
0.00783664
0.00797853
0.00811184
0.00823438
0.00834245
0.00843156
0.00849763
0.00853861
0.00855605
0.00855657
0.00855331
0.00856633
0.00862064
0.00873993
0.00893697
0.00920542
0.00951884
0.00983785
0.0101209
0.0103341
0.0104572
0.0104855
0.0104277
0.0103012
0.0101282
0.00993102
0.00973019
0.00954283
0.00938194
0.00925627
0.00916965
0.00912199
0.00911039
0.00912623
0.00915828
0.00919323
0.00921856
0.00922477
0.009207
0.00916639
0.00911143
0.00905971
0.00903955
0.00909005
0.00926715
0.00965509
0.0106875
0.0147431
0.0292197
0.0212188
0.00909494
0.00817228
0.00830486
0.00858091
0.00889385
0.00923759
0.00958543
0.00990882
0.0101803
0.0103774
0.0104841
0.0104933
0.0104082
0.0102436
0.0100253
0.00978616
0.00955987
0.00937366
0.00924313
0.00917204
0.00915449
0.00919451
0.00928968
0.00943899
0.00963805
0.00987841
0.0101473
0.0104278
0.0106998
0.0109399
0.0111222
0.0112177
0.0111945
0.0110174
0.0106495
0.0100552
0.00913303
0.00830714
0.00783589
0.00753111
0.00735028
0.00726595
0.00725551
0.00729994
0.00738343
0.00749285
0.00761757
0.00774964
0.00788389
0.00801743
0.00814864
0.00827611
0.00839796
0.00851143
0.00861294
0.00869844
0.00876417
0.00880778
0.00882967
0.00883471
0.0088339
0.00884543
0.00889328
0.00900166
0.0091857
0.00944255
0.00974875
0.0100652
0.0103473
0.0105559
0.0106661
0.0106706
0.0105779
0.0104073
0.0101835
0.00993203
0.00967652
0.00943716
0.00922995
0.00906664
0.00895347
0.00889275
0.00888437
0.00892106
0.00899132
0.00908034
0.00917319
0.00925761
0.00932595
0.00937673
0.00941592
0.00945856
0.00953035
0.00966723
0.00992111
0.010369
0.0114223
0.0154401
0.0300995
0.0219292
0.00988963
0.00889613
0.00897511
0.00918643
0.00942534
0.00968854
0.00995138
0.0101858
0.0103644
0.0104647
0.0104724
0.0103835
0.0102063
0.00996164
0.00968102
0.00940046
0.00915272
0.0089608
0.00883524
0.00877638
0.00877914
0.0088525
0.00899517
0.00920723
0.00948422
0.00981678
0.0101907
0.0105876
0.0109856
0.0113594
0.0116805
0.0119159
0.0120271
0.0119683
0.011687
0.0111302
0.0101844
0.00928445
0.00873118
0.00835523
0.00811221
0.00797003
0.00790219
0.00788769
0.00791089
0.00796042
0.00802814
0.00810832
0.00819709
0.0082918
0.00839029
0.00849024
0.00858886
0.00868273
0.00876803
0.00884086
0.00889776
0.0089365
0.00895721
0.00896391
0.00896629
0.00898105
0.00903094
0.00913977
0.00932361
0.00958191
0.00989325
0.0102181
0.0105081
0.0107186
0.0108203
0.010804
0.0106792
0.0104673
0.0101962
0.00989436
0.00958836
0.00930118
0.00905155
0.00885417
0.00871707
0.00864597
0.00864305
0.00870262
0.00881299
0.0089578
0.00911967
0.00928342
0.00943852
0.00958071
0.00971342
0.00984915
0.0100111
0.0102321
0.0105607
0.0110674
0.0121438
0.0161263
0.0309431
0.0226176
0.0106445
0.00957427
0.00960255
0.00975401
0.00992261
0.0101076
0.0102867
0.0104327
0.0105182
0.0105212
0.0104291
0.010241
0.00996993
0.00964225
0.00929376
0.0089622
0.00867877
0.00846306
0.00832314
0.00826058
0.00827286
0.00837109
0.00855677
0.00882968
0.00918435
0.00960983
0.0100903
0.010606
0.0111339
0.0116482
0.0121188
0.01251
0.0127772
0.012864
0.0127006
0.0122141
0.0112706
0.0103265
0.00969318
0.00923986
0.00892384
0.00871068
0.00857193
0.00848577
0.00843697
0.00841557
0.00841524
0.00843202
0.00846327
0.00850694
0.00856088
0.00862245
0.00868823
0.00875422
0.00881613
0.0088698
0.00891177
0.00893996
0.00895456
0.00895947
0.00896397
0.00898402
0.00904145
0.00915943
0.00935432
0.00962688
0.00995645
0.0103013
0.0106075
0.0108246
0.0109196
0.0108831
0.0107267
0.0104751
0.0101594
0.00981099
0.00945906
0.00912896
0.00884186
0.00861529
0.0084586
0.00838149
0.00838796
0.00847383
0.00862708
0.00882971
0.00906174
0.00930504
0.00954617
0.0097782
0.0100021
0.0102282
0.0104772
0.0107796
0.0111805
0.011745
0.0128468
0.0167986
0.0317521
0.0232803
0.0113512
0.0101965
0.0101772
0.0102749
0.0103789
0.0104902
0.0105894
0.0106503
0.0106454
0.0105532
0.0103622
0.0100745
0.0097072
0.00929111
0.0088655
0.00846939
0.00813325
0.00787573
0.00770539
0.00762608
0.00764075
0.00776231
0.00799157
0.00832692
0.0087607
0.00927962
0.00986595
0.010499
0.0111559
0.0118112
0.0124355
0.0129919
0.0134316
0.0136875
0.013671
0.0132868
0.0123727
0.0114161
0.010711
0.0101768
0.00977716
0.00947858
0.00925336
0.00908068
0.00894653
0.00884236
0.00876328
0.00870655
0.00867043
0.00865339
0.00865349
0.008668
0.00869324
0.00872478
0.00875781
0.00878774
0.00881083
0.00882491
0.00883035
0.00883129
0.00883724
0.00886415
0.00893355
0.00906826
0.00928494
0.00958506
0.00994674
0.0103229
0.0106519
0.010877
0.0109636
0.0109045
0.0107149
0.0104238
0.0100656
0.00967435
0.00928127
0.0089137
0.00859493
0.00834507
0.00817473
0.00809726
0.00811867
0.00823575
0.0084357
0.00869858
0.0090017
0.00932404
0.0096494
0.00996846
0.0102801
0.0105926
0.0109249
0.0113054
0.011776
0.0123972
0.0135268
0.017454
0.0325277
0.0239138
0.0120025
0.0107536
0.0106895
0.0107409
0.0107875
0.0108318
0.0108573
0.0108388
0.010749
0.0105662
0.0102796
0.0098933
0.0094275
0.00891663
0.0084029
0.00792717
0.0075212
0.00720579
0.00699317
0.00689114
0.00690985
0.00706001
0.00733946
0.00774292
0.00825907
0.00887138
0.00956005
0.0103041
0.011082
0.0118709
0.012644
0.0133661
0.0139862
0.0144278
0.0145823
0.0143274
0.0134729
0.0125324
0.0117686
0.0111525
0.0106583
0.0102583
0.009929
0.00965295
0.00941866
0.00921934
0.0090513
0.00891252
0.00880159
0.00871707
0.008657
0.00861853
0.00859781
0.00859016
0.00859039
0.00859347
0.00859527
0.00859344
0.00858846
0.00858493
0.00859301
0.00862925
0.00871552
0.00887506
0.00912545
0.00946813
0.00987664
0.010294
0.0106483
0.0108782
0.0109506
0.0108632
0.010637
0.0103058
0.00990693
0.00947656
0.00904739
0.00864821
0.00830417
0.00803784
0.0078607
0.00779016
0.00783368
0.0079882
0.00823959
0.00856556
0.00894057
0.00934085
0.00974781
0.0101501
0.0105451
0.0109394
0.0113508
0.0118056
0.0123432
0.0130198
0.0141794
0.0180894
0.0332703
0.0245147
0.0125925
0.0112374
0.0111308
0.0111441
0.0111422
0.0111279
0.0110878
0.0109983
0.0108318
0.0105658
0.0101896
0.00970792
0.00914294
0.00853157
0.00791879
0.00734858
0.00685696
0.00647091
0.00621006
0.00608802
0.00612186
0.00631488
0.00665814
0.0071398
0.00774332
0.00844814
0.00923237
0.0100756
0.0109594
0.0118653
0.0127723
0.0136495
0.0144473
0.0150815
0.0154234
0.0153161
0.0145538
0.0136523
0.0128457
0.0121476
0.0115475
0.0110287
0.0105761
0.0101785
0.00982838
0.00952143
0.00925504
0.0090274
0.00883676
0.0086811
0.00855786
0.00846371
0.0083945
0.0083453
0.00831069
0.00828534
0.00826482
0.00824665
0.00823149
0.00822455
0.00823699
0.00828644
0.00839596
0.00859055
0.0088897
0.00929277
0.00976268
0.010227
0.010603
0.0108283
0.010876
0.0107522
0.0104851
0.0101129
0.00967543
0.00920998
0.00875002
0.00832532
0.0079628
0.00768733
0.00751117
0.00745619
0.00753048
0.00773004
0.00803855
0.00843077
0.00887831
0.00935494
0.00984019
0.0103213
0.0107946
0.0112658
0.0117516
0.0122768
0.0128787
0.0136092
0.0148007
0.0187018
0.0339804
0.0250804
0.0131169
0.0116406
0.0114924
0.0114767
0.0114368
0.0113738
0.0112783
0.0111282
0.0108958
0.0105574
0.010101
0.00953073
0.00886891
0.00815371
0.00743253
0.00675386
0.00616151
0.00569395
0.00538381
0.00525319
0.005323
0.00558297
0.00601086
0.00658474
0.00728181
0.00807725
0.00894751
0.00987402
0.0108427
0.0118419
0.0128583
0.0138694
0.0148302
0.0156526
0.0161881
0.0162331
0.0155971
0.0147533
0.0139189
0.013138
0.0124195
0.0117633
0.0111673
0.0106294
0.0101481
0.00972179
0.00934906
0.00902781
0.00875526
0.008528
0.00834206
0.00819304
0.00807607
0.00798582
0.00791667
0.00786318
0.00782084
0.00778724
0.00776343
0.00775552
0.00777596
0.00784414
0.0079857
0.00822967
0.00859783
0.00908171
0.00962429
0.0101331
0.0105182
0.0107229
0.010732
0.0105628
0.0102506
0.00983728
0.00936394
0.00886786
0.00838249
0.00793829
0.00756423
0.00728708
0.00712053
0.00709111
0.00720631
0.00745974
0.00783177
0.00829365
0.00881411
0.00936501
0.00992468
0.0104797
0.0110259
0.0115687
0.0121241
0.012716
0.0133791
0.0141621
0.0153872
0.019288
0.034658
0.0256087
0.0135732
0.0119575
0.0117663
0.0117311
0.0116652
0.0115652
0.0114259
0.0112278
0.010943
0.0105463
0.0100232
0.00937562
0.0086241
0.0078061
0.00697018
0.00616957
0.0054589
0.00489508
0.00453389
0.00441265
0.00454856
0.00490948
0.00544946
0.00613224
0.00692915
0.00781213
0.00875733
0.00974941
0.0107799
0.0118451
0.0129413
0.0140567
0.0151556
0.0161498
0.0168734
0.0170645
0.016585
0.0158141
0.0149626
0.0140949
0.0132433
0.0124301
0.0116711
0.0109757
0.0103493
0.00979406
0.0093093
0.00889229
0.00853854
0.00824237
0.00799763
0.00779801
0.00763733
0.00750956
0.00740881
0.00732964
0.00726773
0.00722105
0.00719139
0.00718609
0.00721946
0.00731386
0.00750037
0.00781514
0.00827905
0.00886339
0.00948031
0.0100185
0.0103899
0.0105528
0.0105082
0.0102853
0.00992548
0.00947258
0.00896705
0.00844502
0.00793935
0.00748115
0.00710226
0.00683024
0.00668328
0.00669097
0.0068587
0.00717598
0.00761845
0.00815329
0.00874666
0.0093692
0.00999891
0.0106225
0.0112359
0.0118449
0.0124652
0.0131199
0.0138414
0.0146751
0.0159354
0.0198452
0.0353029
0.0260987
0.0139607
0.0121841
0.0119449
0.0118995
0.0118212
0.0116976
0.011528
0.011296
0.0109746
0.0105369
0.00996513
0.00925719
0.00842983
0.00751712
0.00656586
0.00563115
0.00477786
0.00408835
0.00366092
0.00356677
0.00380943
0.00431771
0.0050032
0.00581181
0.00671278
0.00767811
0.00868649
0.00972743
0.0107986
0.0119039
0.0130502
0.0142381
0.0154441
0.0165865
0.0174755
0.0178129
0.0174956
0.0168126
0.0159486
0.0149846
0.0139823
0.012993
0.0120534
0.0111869
0.010406
0.00971601
0.00911703
0.00860521
0.00817382
0.00781435
0.00751762
0.00727466
0.00707731
0.00691836
0.00679147
0.00669126
0.00661383
0.00655785
0.00652624
0.00652805
0.00658055
0.00671197
0.00696419
0.00738206
0.00797271
0.00866742
0.00934243
0.00987927
0.0102063
0.0103045
0.0101931
0.00991141
0.00950451
0.00901536
0.00848207
0.00793856
0.00741678
0.00694883
0.00657106
0.00630906
0.00619461
0.00625282
0.00648623
0.0068783
0.00739827
0.00800891
0.00867446
0.00936532
0.0100601
0.0107466
0.0114215
0.0120913
0.0127718
0.0134855
0.0142624
0.015145
0.0164419
0.0203705
0.035915
0.0265505
0.0142815
0.0123187
0.0120214
0.011974
0.0118986
0.0117666
0.0115816
0.0113315
0.0109912
0.0105324
0.00993409
0.00918911
0.00830837
0.00731983
0.00626414
0.0051909
0.00416496
0.00329033
0.0027394
0.00268431
0.00310121
0.00382055
0.00468543
0.00563046
0.00663272
0.00767078
0.00872986
0.00980521
0.0109003
0.0120263
0.0131992
0.014431
0.0157128
0.0169723
0.0179928
0.0184752
0.0183181
0.0177263
0.0168451
0.0157686
0.0145958
0.0134128
0.0122811
0.0112371
0.0102996
0.00947572
0.00876524
0.00816292
0.00765975
0.00724431
0.00690406
0.0066268
0.00640172
0.0062199
0.00607427
0.00595942
0.00587198
0.00581154
0.00578248
0.00579651
0.00587646
0.00606299
0.0064164
0.00698182
0.00772315
0.00851408
0.0092073
0.00969945
0.00994899
0.00996325
0.00977744
0.00943704
0.00898685
0.00846641
0.00790986
0.00734829
0.00681287
0.0063377
0.0059654
0.00572223
0.00565197
0.00577551
0.0060895
0.00656797
0.00717204
0.0078603
0.00859617
0.00935109
0.0101055
0.0108487
0.0115793
0.0123045
0.0130408
0.0138097
0.0146391
0.0155687
0.0169034
0.0208612
0.0364937
0.0269655
0.0145397
0.0123626
0.0119907
0.0119464
0.0118905
0.0117678
0.0115848
0.0113339
0.0109935
0.0105357
0.00993605
0.00918247
0.008279
0.0072458
0.00611459
0.00492309
0.00371867
0.00257924
0.00173961
0.00171698
0.00246056
0.00345843
0.00451296
0.00558556
0.006674
0.0077691
0.008864
0.0099605
0.0110671
0.0122017
0.0133859
0.0146405
0.0159705
0.0173031
0.0184267
0.0190531
0.0190407
0.0185323
0.0176176
0.0164051
0.0150405
0.0136523
0.0123271
0.0111122
0.0100285
0.00908139
0.00826858
0.00758307
0.00701446
0.00654949
0.006173
0.00586961
0.00562548
0.00542941
0.00527305
0.00515071
0.00505931
0.0049994
0.00497729
0.0050094
0.00513071
0.00540727
0.00591986
0.00667803
0.00756351
0.00840063
0.00905227
0.00945327
0.00959843
0.00951834
0.00925832
0.00886462
0.00837781
0.00783169
0.00725539
0.00667705
0.00612769
0.0056451
0.00528072
0.00506514
0.0050528
0.00526042
0.00567241
0.00624905
0.00694245
0.00770827
0.00851091
0.0093244
0.010132
0.0109257
0.0117059
0.0124814
0.013269
0.0140896
0.0149685
0.0159429
0.0173167
0.0213145
0.0370387
0.0273465
0.0147424
0.0123209
0.0118499
0.0118086
0.0117889
0.0116944
0.0115329
0.0112998
0.0109788
0.0105441
0.00997075
0.00924314
0.00835954
0.00733301
0.00618741
0.00494166
0.00360628
0.00224128
0.00085802
0.000781019
0.00206677
0.00331518
0.00451014
0.00567229
0.00681891
0.00794924
0.00906173
0.010166
0.0112741
0.0124046
0.0135845
0.0148447
0.0161985
0.0175842
0.0187962
0.0195407
0.0196498
0.0192068
0.01823
0.0168506
0.0152757
0.0136822
0.0121803
0.0108212
0.00961993
0.00857411
0.00767576
0.00691604
0.00628532
0.00577167
0.00536003
0.00503331
0.00477483
0.00457051
0.00440994
0.00428625
0.00419605
0.00414051
0.0041291
0.00418847
0.00438136
0.00481627
0.00556227
0.00652307
0.00749217
0.00829427
0.00884026
0.00911363
0.00914114
0.00896817
0.00864235
0.00820517
0.00768978
0.00712288
0.00652824
0.00593134
0.00536377
0.00486949
0.00451278
0.00433285
0.00439828
0.00471472
0.00524458
0.00592994
0.00671491
0.00755516
0.00841861
0.00928356
0.0101371
0.0109744
0.0117981
0.0126187
0.0134534
0.014322
0.0152473
0.0162645
0.0176787
0.021728
0.0375496
0.0276975
0.0148987
0.0122024
0.0115984
0.0115537
0.0115834
0.0115386
0.0114209
0.0112265
0.0109444
0.0105529
0.0100292
0.00935628
0.00852926
0.00755697
0.00645976
0.00525635
0.00397222
0.00266797
0.00146598
0.00114707
0.00219857
0.00347552
0.00470118