/*--------------------------------*- C++ -*----------------------------------*\
| =========                 |                                                 |
| \\      /  F ield         | OpenFOAM: The Open Source CFD Toolbox           |
|  \\    /   O peration     | Version:  4.1                                   |
|   \\  /    A nd           | Web:      www.OpenFOAM.org                      |
|    \\/     M anipulation  |                                                 |
\*---------------------------------------------------------------------------*/
FoamFile
{
    version     2.0;
    format      ascii;
    class       volScalarField;
    location    "460";
    object      p;
}
// * * * * * * * * * * * * * * * * * * * * * * * * * * * * * * * * * * * * * //

dimensions      [0 2 -2 0 0 0 0];

internalField   nonuniform List<scalar> 
5000
(
0
4.2651e-06
4.41894e-06
1.0079e-06
-5.53282e-07
-9.79618e-07
-1.51217e-06
-2.72306e-06
-4.52967e-06
-6.76477e-06
-9.37785e-06
-1.24121e-05
-1.5976e-05
-2.01813e-05
-2.50012e-05
-3.01577e-05
-3.52906e-05
-3.99397e-05
-4.34233e-05
-4.51991e-05
-4.50132e-05
-4.2825e-05
-3.86851e-05
-3.28101e-05
-2.58047e-05
-1.86805e-05
-1.23626e-05
-7.29154e-06
-3.47189e-06
-7.9273e-07
7.92762e-07
1.25584e-06
5.51009e-07
-1.2799e-06
-3.96446e-06
-6.89421e-06
-9.26781e-06
-1.10307e-05
-1.30539e-05
-1.68212e-05
-2.51426e-05
-4.01238e-05
-5.97955e-05
-7.43865e-05
-7.40517e-05
-7.03617e-05
-6.37121e-05
-4.52142e-05
-3.63213e-05
-3.63526e-05
-3.98408e-05
-4.53725e-05
-5.26302e-05
-6.00747e-05
-6.4747e-05
-6.56444e-05
-6.38138e-05
-6.06648e-05
-5.70097e-05
-5.34077e-05
-4.98882e-05
-4.63053e-05
-4.25572e-05
-3.86383e-05
-3.45897e-05
-3.04924e-05
-2.64537e-05
-2.25899e-05
-1.90108e-05
-1.58065e-05
-1.3039e-05
-1.07376e-05
-8.89968e-06
-7.49408e-06
-6.46685e-06
-5.74834e-06
-5.26028e-06
-4.92241e-06
-4.6579e-06
-4.39757e-06
-4.08286e-06
-3.6695e-06
-3.12307e-06
-2.40816e-06
-1.49533e-06
-3.63809e-07
1.00425e-06
2.62169e-06
4.49407e-06
6.61845e-06
8.98124e-06
1.15539e-05
1.42827e-05
1.70661e-05
1.97605e-05
2.21281e-05
2.37771e-05
2.44002e-05
2.50644e-05
3.17924e-05
-0.0984459
-0.0984471
-0.0984466
-0.0984454
-0.0984462
-0.0984481
-0.0984503
-0.0984525
-0.0984546
-0.0984569
-0.0984592
-0.0984616
-0.0984643
-0.0984671
-0.09847
-0.098473
-0.0984758
-0.0984779
-0.0984789
-0.0984785
-0.0984769
-0.0984748
-0.0984725
-0.0984702
-0.0984679
-0.098466
-0.0984647
-0.0984637
-0.0984629
-0.0984623
-0.0984619
-0.0984619
-0.0984621
-0.0984626
-0.0984632
-0.0984637
-0.0984652
-0.0984688
-0.0984752
-0.0984849
-0.0984983
-0.098517
-0.0985385
-0.0985519
-0.098545
-0.0985463
-0.0985493
-0.0985312
-0.0985186
-0.0985139
-0.0985118
-0.0985112
-0.0985113
-0.0985114
-0.0985111
-0.0985107
-0.0985106
-0.0985105
-0.0985102
-0.0985094
-0.0985083
-0.0985068
-0.0985047
-0.0985022
-0.0984992
-0.098496
-0.0984925
-0.098489
-0.0984856
-0.0984824
-0.0984794
-0.0984767
-0.0984744
-0.0984723
-0.0984704
-0.0984687
-0.0984671
-0.0984655
-0.0984638
-0.0984621
-0.0984602
-0.0984582
-0.098456
-0.0984536
-0.0984511
-0.0984483
-0.0984454
-0.0984423
-0.098439
-0.0984356
-0.098432
-0.0984282
-0.0984244
-0.0984206
-0.0984169
-0.0984133
-0.0984097
-0.0984058
-0.0984004
-0.0983865
-0.196933
-0.196938
-0.196938
-0.196939
-0.19694
-0.196942
-0.196944
-0.196946
-0.196948
-0.19695
-0.196952
-0.196955
-0.196957
-0.196959
-0.19696
-0.196962
-0.196962
-0.196962
-0.19696
-0.196958
-0.196956
-0.196954
-0.196954
-0.196955
-0.196956
-0.196956
-0.196957
-0.196957
-0.196956
-0.196956
-0.196955
-0.196955
-0.196955
-0.196956
-0.196956
-0.196957
-0.196959
-0.196962
-0.196968
-0.196976
-0.196987
-0.197003
-0.197021
-0.197031
-0.197023
-0.197033
-0.197034
-0.197022
-0.19701
-0.197006
-0.197004
-0.197003
-0.197002
-0.197001
-0.196999
-0.196999
-0.197
-0.197002
-0.197003
-0.197003
-0.197002
-0.197001
-0.196999
-0.196997
-0.196994
-0.196991
-0.196987
-0.196984
-0.19698
-0.196977
-0.196974
-0.196971
-0.196969
-0.196967
-0.196965
-0.196963
-0.196962
-0.19696
-0.196958
-0.196957
-0.196955
-0.196953
-0.19695
-0.196948
-0.196945
-0.196941
-0.196938
-0.196934
-0.196931
-0.196927
-0.196923
-0.196919
-0.196914
-0.19691
-0.196906
-0.196902
-0.196898
-0.196892
-0.196883
-0.196865
-0.295426
-0.295431
-0.295431
-0.295432
-0.295434
-0.295436
-0.295438
-0.29544
-0.295442
-0.295444
-0.295446
-0.295448
-0.29545
-0.295452
-0.295454
-0.295455
-0.295455
-0.295454
-0.295453
-0.295451
-0.295449
-0.295448
-0.295448
-0.295449
-0.29545
-0.29545
-0.29545
-0.29545
-0.29545
-0.295449
-0.295449
-0.295448
-0.295449
-0.295449
-0.295449
-0.295451
-0.295453
-0.295455
-0.29546
-0.295465
-0.295472
-0.295481
-0.29549
-0.295492
-0.295488
-0.295506
-0.29551
-0.295504
-0.295497
-0.295495
-0.295494
-0.295494
-0.295494
-0.295494
-0.295493
-0.295494
-0.295495
-0.295497
-0.295498
-0.295498
-0.295497
-0.295496
-0.295494
-0.295492
-0.295489
-0.295486
-0.295483
-0.29548
-0.295476
-0.295473
-0.29547
-0.295467
-0.295464
-0.295462
-0.29546
-0.295458
-0.295457
-0.295455
-0.295453
-0.295452
-0.29545
-0.295448
-0.295445
-0.295443
-0.29544
-0.295437
-0.295433
-0.295429
-0.295426
-0.295422
-0.295417
-0.295413
-0.295409
-0.295405
-0.2954
-0.295396
-0.295391
-0.295385
-0.295378
-0.295363
-0.393919
-0.393923
-0.393924
-0.393926
-0.393927
-0.393929
-0.393932
-0.393934
-0.393936
-0.393938
-0.39394
-0.393943
-0.393945
-0.393946
-0.393948
-0.393949
-0.393949
-0.393949
-0.393948
-0.393947
-0.393946
-0.393945
-0.393944
-0.393944
-0.393944
-0.393945
-0.393944
-0.393944
-0.393943
-0.393942
-0.393942
-0.393941
-0.393941
-0.393942
-0.393942
-0.393943
-0.393945
-0.393948
-0.39395
-0.393954
-0.393957
-0.393959
-0.39396
-0.393956
-0.393951
-0.393966
-0.393982
-0.393984
-0.393983
-0.393984
-0.393984
-0.393985
-0.393986
-0.393987
-0.393987
-0.393989
-0.39399
-0.393991
-0.393992
-0.393993
-0.393993
-0.393992
-0.39399
-0.393988
-0.393986
-0.393983
-0.39398
-0.393976
-0.393973
-0.393969
-0.393966
-0.393963
-0.393961
-0.393958
-0.393956
-0.393954
-0.393953
-0.393951
-0.393949
-0.393947
-0.393945
-0.393943
-0.393941
-0.393938
-0.393935
-0.393932
-0.393928
-0.393925
-0.393921
-0.393917
-0.393913
-0.393908
-0.393904
-0.3939
-0.393895
-0.393891
-0.393886
-0.393881
-0.393876
-0.393864
-0.492412
-0.492416
-0.492417
-0.492419
-0.492421
-0.492423
-0.492425
-0.492428
-0.49243
-0.492432
-0.492435
-0.492437
-0.492439
-0.492441
-0.492443
-0.492444
-0.492444
-0.492445
-0.492444
-0.492443
-0.492442
-0.492441
-0.492441
-0.49244
-0.49244
-0.492439
-0.492439
-0.492438
-0.492437
-0.492436
-0.492435
-0.492434
-0.492434
-0.492434
-0.492435
-0.492436
-0.492437
-0.492439
-0.492441
-0.492443
-0.492444
-0.492443
-0.49244
-0.492433
-0.492429
-0.492436
-0.492456
-0.492466
-0.49247
-0.492473
-0.492475
-0.492477
-0.492478
-0.49248
-0.492481
-0.492483
-0.492485
-0.492486
-0.492488
-0.492488
-0.492489
-0.492488
-0.492487
-0.492485
-0.492483
-0.49248
-0.492477
-0.492473
-0.49247
-0.492467
-0.492463
-0.49246
-0.492458
-0.492455
-0.492453
-0.492451
-0.49245
-0.492448
-0.492446
-0.492444
-0.492442
-0.492439
-0.492437
-0.492434
-0.492431
-0.492428
-0.492424
-0.492421
-0.492417
-0.492413
-0.492408
-0.492404
-0.4924
-0.492395
-0.492391
-0.492387
-0.492382
-0.492378
-0.492374
-0.492364
-0.590905
-0.590909
-0.59091
-0.590912
-0.590914
-0.590916
-0.590919
-0.590921
-0.590924
-0.590927
-0.590929
-0.590932
-0.590934
-0.590936
-0.590938
-0.590939
-0.59094
-0.590941
-0.590941
-0.59094
-0.590939
-0.590938
-0.590938
-0.590937
-0.590936
-0.590935
-0.590933
-0.590932
-0.590931
-0.59093
-0.590928
-0.590928
-0.590927
-0.590927
-0.590927
-0.590928
-0.59093
-0.590931
-0.590932
-0.590933
-0.590934
-0.590932
-0.590929
-0.590925
-0.590922
-0.590925
-0.590942
-0.590954
-0.59096
-0.590964
-0.590967
-0.590969
-0.590971
-0.590973
-0.590975
-0.590978
-0.59098
-0.590982
-0.590983
-0.590985
-0.590985
-0.590985
-0.590984
-0.590982
-0.59098
-0.590978
-0.590974
-0.590971
-0.590968
-0.590964
-0.590961
-0.590958
-0.590956
-0.590953
-0.590951
-0.590949
-0.590947
-0.590945
-0.590943
-0.590941
-0.590939
-0.590937
-0.590934
-0.590931
-0.590928
-0.590925
-0.590921
-0.590917
-0.590913
-0.590909
-0.590904
-0.5909
-0.590896
-0.590891
-0.590887
-0.590883
-0.590879
-0.590875
-0.590872
-0.590863
-0.689398
-0.689402
-0.689403
-0.689405
-0.689407
-0.68941
-0.689413
-0.689415
-0.689418
-0.689421
-0.689424
-0.689427
-0.689429
-0.689432
-0.689434
-0.689435
-0.689437
-0.689437
-0.689438
-0.689437
-0.689437
-0.689436
-0.689435
-0.689433
-0.689432
-0.689431
-0.689429
-0.689427
-0.689425
-0.689424
-0.689422
-0.689421
-0.68942
-0.68942
-0.68942
-0.689421
-0.689422
-0.689423
-0.689424
-0.689425
-0.689425
-0.689424
-0.689423
-0.689421
-0.689421
-0.689425
-0.689436
-0.689445
-0.689452
-0.689456
-0.68946
-0.689462
-0.689465
-0.689467
-0.68947
-0.689473
-0.689475
-0.689477
-0.689479
-0.689481
-0.689481
-0.689482
-0.689481
-0.68948
-0.689478
-0.689475
-0.689472
-0.689469
-0.689466
-0.689462
-0.689459
-0.689456
-0.689454
-0.689451
-0.689449
-0.689447
-0.689445
-0.689444
-0.689442
-0.68944
-0.689437
-0.689435
-0.689432
-0.689429
-0.689426
-0.689422
-0.689418
-0.689414
-0.68941
-0.689406
-0.689401
-0.689397
-0.689392
-0.689388
-0.689384
-0.68938
-0.689376
-0.689373
-0.68937
-0.689363
-0.787892
-0.787896
-0.787897
-0.787899
-0.787901
-0.787904
-0.787907
-0.78791
-0.787913
-0.787916
-0.787919
-0.787923
-0.787925
-0.787928
-0.78793
-0.787932
-0.787934
-0.787935
-0.787935
-0.787935
-0.787935
-0.787934
-0.787932
-0.787931
-0.787929
-0.787927
-0.787925
-0.787923
-0.787921
-0.787919
-0.787917
-0.787915
-0.787914
-0.787914
-0.787914
-0.787914
-0.787915
-0.787916
-0.787917
-0.787918
-0.787919
-0.787919
-0.787918
-0.787919
-0.78792
-0.787924
-0.787932
-0.787939
-0.787945
-0.78795
-0.787953
-0.787956
-0.787959
-0.787962
-0.787965
-0.787968
-0.787971
-0.787973
-0.787975
-0.787977
-0.787978
-0.787978
-0.787978
-0.787977
-0.787975
-0.787973
-0.78797
-0.787967
-0.787964
-0.78796
-0.787957
-0.787955
-0.787952
-0.78795
-0.787948
-0.787946
-0.787944
-0.787942
-0.787941
-0.787939
-0.787936
-0.787934
-0.787931
-0.787928
-0.787925
-0.787921
-0.787917
-0.787913
-0.787908
-0.787904
-0.787899
-0.787895
-0.78789
-0.787886
-0.787882
-0.787878
-0.787874
-0.787871
-0.787869
-0.787863
-0.886387
-0.88639
-0.886391
-0.886393
-0.886396
-0.886399
-0.886402
-0.886405
-0.886409
-0.886412
-0.886416
-0.886419
-0.886422
-0.886425
-0.886428
-0.88643
-0.886432
-0.886433
-0.886434
-0.886434
-0.886433
-0.886432
-0.886431
-0.886429
-0.886427
-0.886425
-0.886422
-0.88642
-0.886417
-0.886415
-0.886412
-0.88641
-0.886409
-0.886408
-0.886408
-0.886408
-0.886409
-0.88641
-0.886411
-0.886412
-0.886413
-0.886414
-0.886414
-0.886416
-0.886418
-0.886422
-0.886428
-0.886434
-0.88644
-0.886444
-0.886448
-0.886451
-0.886454
-0.886457
-0.88646
-0.886463
-0.886466
-0.886468
-0.886471
-0.886472
-0.886474
-0.886474
-0.886474
-0.886473
-0.886472
-0.88647
-0.886468
-0.886465
-0.886462
-0.886459
-0.886456
-0.886453
-0.886451
-0.886448
-0.886447
-0.886445
-0.886443
-0.886442
-0.88644
-0.886438
-0.886436
-0.886434
-0.886431
-0.886428
-0.886424
-0.88642
-0.886416
-0.886412
-0.886407
-0.886402
-0.886398
-0.886393
-0.886388
-0.886384
-0.88638
-0.886376
-0.886373
-0.88637
-0.886368
-0.886363
-0.984882
-0.984885
-0.984886
-0.984889
-0.984891
-0.984894
-0.984898
-0.984901
-0.984905
-0.984909
-0.984913
-0.984916
-0.98492
-0.984923
-0.984926
-0.984929
-0.984931
-0.984932
-0.984933
-0.984933
-0.984933
-0.984932
-0.98493
-0.984928
-0.984926
-0.984924
-0.984921
-0.984918
-0.984915
-0.984912
-0.984909
-0.984907
-0.984905
-0.984903
-0.984903
-0.984903
-0.984903
-0.984905
-0.984906
-0.984907
-0.984908
-0.984909
-0.984911
-0.984913
-0.984916
-0.98492
-0.984925
-0.98493
-0.984935
-0.984939
-0.984943
-0.984946
-0.984949
-0.984952
-0.984955
-0.984958
-0.984961
-0.984964
-0.984966
-0.984968
-0.984969
-0.98497
-0.98497
-0.98497
-0.984969
-0.984967
-0.984965
-0.984962
-0.984959
-0.984957
-0.984954
-0.984951
-0.984949
-0.984947
-0.984946
-0.984944
-0.984943
-0.984941
-0.98494
-0.984938
-0.984936
-0.984934
-0.984931
-0.984928
-0.984924
-0.98492
-0.984916
-0.984912
-0.984907
-0.984902
-0.984897
-0.984892
-0.984888
-0.984883
-0.984879
-0.984875
-0.984872
-0.984869
-0.984868
-0.984863
-1.08338
-1.08338
-1.08338
-1.08338
-1.08339
-1.08339
-1.08339
-1.0834
-1.0834
-1.08341
-1.08341
-1.08341
-1.08342
-1.08342
-1.08343
-1.08343
-1.08343
-1.08343
-1.08343
-1.08343
-1.08343
-1.08343
-1.08343
-1.08343
-1.08343
-1.08342
-1.08342
-1.08342
-1.08341
-1.08341
-1.08341
-1.0834
-1.0834
-1.0834
-1.0834
-1.0834
-1.0834
-1.0834
-1.0834
-1.0834
-1.0834
-1.08341
-1.08341
-1.08341
-1.08341
-1.08342
-1.08342
-1.08343
-1.08343
-1.08343
-1.08344
-1.08344
-1.08345
-1.08345
-1.08345
-1.08345
-1.08346
-1.08346
-1.08346
-1.08346
-1.08346
-1.08347
-1.08347
-1.08347
-1.08346
-1.08346
-1.08346
-1.08346
-1.08346
-1.08345
-1.08345
-1.08345
-1.08345
-1.08345
-1.08344
-1.08344
-1.08344
-1.08344
-1.08344
-1.08344
-1.08344
-1.08343
-1.08343
-1.08343
-1.08343
-1.08342
-1.08342
-1.08341
-1.08341
-1.0834
-1.0834
-1.08339
-1.08339
-1.08338
-1.08338
-1.08338
-1.08337
-1.08337
-1.08337
-1.08336
-1.18187
-1.18188
-1.18188
-1.18188
-1.18188
-1.18189
-1.18189
-1.1819
-1.1819
-1.1819
-1.18191
-1.18191
-1.18192
-1.18192
-1.18193
-1.18193
-1.18193
-1.18193
-1.18193
-1.18193
-1.18193
-1.18193
-1.18193
-1.18193
-1.18193
-1.18193
-1.18192
-1.18192
-1.18191
-1.18191
-1.18191
-1.1819
-1.1819
-1.1819
-1.1819
-1.18189
-1.18189
-1.1819
-1.1819
-1.1819
-1.1819
-1.1819
-1.1819
-1.18191
-1.18191
-1.18191
-1.18192
-1.18192
-1.18193
-1.18193
-1.18193
-1.18194
-1.18194
-1.18194
-1.18195
-1.18195
-1.18195
-1.18195
-1.18196
-1.18196
-1.18196
-1.18196
-1.18196
-1.18196
-1.18196
-1.18196
-1.18196
-1.18196
-1.18195
-1.18195
-1.18195
-1.18195
-1.18195
-1.18195
-1.18194
-1.18194
-1.18194
-1.18194
-1.18194
-1.18194
-1.18194
-1.18194
-1.18193
-1.18193
-1.18193
-1.18192
-1.18192
-1.18191
-1.18191
-1.1819
-1.1819
-1.18189
-1.18189
-1.18188
-1.18188
-1.18188
-1.18187
-1.18187
-1.18187
-1.18187
-1.28037
-1.28038
-1.28038
-1.28038
-1.28038
-1.28039
-1.28039
-1.28039
-1.2804
-1.2804
-1.28041
-1.28041
-1.28042
-1.28042
-1.28043
-1.28043
-1.28043
-1.28043
-1.28044
-1.28044
-1.28044
-1.28044
-1.28044
-1.28043
-1.28043
-1.28043
-1.28042
-1.28042
-1.28042
-1.28041
-1.28041
-1.2804
-1.2804
-1.2804
-1.28039
-1.28039
-1.28039
-1.28039
-1.28039
-1.28039
-1.2804
-1.2804
-1.2804
-1.2804
-1.28041
-1.28041
-1.28042
-1.28042
-1.28042
-1.28043
-1.28043
-1.28044
-1.28044
-1.28044
-1.28044
-1.28045
-1.28045
-1.28045
-1.28045
-1.28045
-1.28045
-1.28045
-1.28046
-1.28046
-1.28046
-1.28045
-1.28045
-1.28045
-1.28045
-1.28045
-1.28045
-1.28045
-1.28044
-1.28044
-1.28044
-1.28044
-1.28044
-1.28044
-1.28044
-1.28044
-1.28044
-1.28044
-1.28043
-1.28043
-1.28043
-1.28042
-1.28042
-1.28042
-1.28041
-1.28041
-1.2804
-1.2804
-1.28039
-1.28039
-1.28038
-1.28038
-1.28037
-1.28037
-1.28037
-1.28037
-1.37887
-1.37887
-1.37887
-1.37888
-1.37888
-1.37888
-1.37889
-1.37889
-1.3789
-1.3789
-1.37891
-1.37891
-1.37892
-1.37892
-1.37893
-1.37893
-1.37893
-1.37894
-1.37894
-1.37894
-1.37894
-1.37894
-1.37894
-1.37894
-1.37893
-1.37893
-1.37893
-1.37892
-1.37892
-1.37891
-1.37891
-1.3789
-1.3789
-1.3789
-1.37889
-1.37889
-1.37889
-1.37889
-1.37889
-1.37889
-1.37889
-1.3789
-1.3789
-1.3789
-1.37891
-1.37891
-1.37891
-1.37892
-1.37892
-1.37893
-1.37893
-1.37893
-1.37893
-1.37894
-1.37894
-1.37894
-1.37894
-1.37895
-1.37895
-1.37895
-1.37895
-1.37895
-1.37895
-1.37895
-1.37895
-1.37895
-1.37895
-1.37895
-1.37895
-1.37895
-1.37894
-1.37894
-1.37894
-1.37894
-1.37894
-1.37894
-1.37894
-1.37894
-1.37894
-1.37894
-1.37894
-1.37894
-1.37894
-1.37893
-1.37893
-1.37893
-1.37892
-1.37892
-1.37891
-1.37891
-1.3789
-1.3789
-1.37889
-1.37889
-1.37888
-1.37888
-1.37888
-1.37887
-1.37887
-1.37887
-1.47737
-1.47737
-1.47737
-1.47738
-1.47738
-1.47738
-1.47739
-1.47739
-1.4774
-1.4774
-1.47741
-1.47741
-1.47742
-1.47743
-1.47743
-1.47743
-1.47744
-1.47744
-1.47744
-1.47744
-1.47744
-1.47744
-1.47744
-1.47744
-1.47744
-1.47744
-1.47743
-1.47743
-1.47742
-1.47742
-1.47741
-1.47741
-1.4774
-1.4774
-1.47739
-1.47739
-1.47739
-1.47739
-1.47739
-1.47739
-1.47739
-1.47739
-1.4774
-1.4774
-1.4774
-1.47741
-1.47741
-1.47742
-1.47742
-1.47742
-1.47743
-1.47743
-1.47743
-1.47743
-1.47744
-1.47744
-1.47744
-1.47744
-1.47744
-1.47744
-1.47744
-1.47744
-1.47744
-1.47744
-1.47744
-1.47744
-1.47744
-1.47744
-1.47744
-1.47744
-1.47744
-1.47744
-1.47744
-1.47744
-1.47744
-1.47744
-1.47744
-1.47744
-1.47744
-1.47744
-1.47744
-1.47744
-1.47744
-1.47744
-1.47743
-1.47743
-1.47742
-1.47742
-1.47742
-1.47741
-1.4774
-1.4774
-1.47739
-1.47739
-1.47739
-1.47738
-1.47738
-1.47738
-1.47738
-1.47737
-1.57587
-1.57587
-1.57587
-1.57588
-1.57588
-1.57588
-1.57589
-1.57589
-1.5759
-1.5759
-1.57591
-1.57592
-1.57592
-1.57593
-1.57593
-1.57594
-1.57594
-1.57594
-1.57595
-1.57595
-1.57595
-1.57595
-1.57595
-1.57595
-1.57595
-1.57594
-1.57594
-1.57593
-1.57593
-1.57592
-1.57592
-1.57591
-1.5759
-1.5759
-1.57589
-1.57589
-1.57589
-1.57589
-1.57589
-1.57589
-1.57589
-1.57589
-1.5759
-1.5759
-1.5759
-1.57591
-1.57591
-1.57592
-1.57592
-1.57592
-1.57593
-1.57593
-1.57593
-1.57593
-1.57593
-1.57593
-1.57594
-1.57594
-1.57594
-1.57594
-1.57594
-1.57594
-1.57594
-1.57594
-1.57594
-1.57594
-1.57594
-1.57594
-1.57594
-1.57594
-1.57594
-1.57594
-1.57594
-1.57594
-1.57594
-1.57594
-1.57594
-1.57594
-1.57594
-1.57594
-1.57594
-1.57594
-1.57594
-1.57594
-1.57593
-1.57593
-1.57593
-1.57592
-1.57592
-1.57591
-1.57591
-1.5759
-1.5759
-1.57589
-1.57589
-1.57589
-1.57588
-1.57588
-1.57588
-1.57588
-1.67437
-1.67437
-1.67437
-1.67438
-1.67438
-1.67438
-1.67439
-1.67439
-1.6744
-1.6744
-1.67441
-1.67442
-1.67442
-1.67443
-1.67444
-1.67444
-1.67444
-1.67445
-1.67445
-1.67445
-1.67445
-1.67445
-1.67445
-1.67445
-1.67445
-1.67445
-1.67444
-1.67444
-1.67443
-1.67443
-1.67442
-1.67441
-1.67441
-1.6744
-1.67439
-1.67439
-1.67439
-1.67439
-1.67438
-1.67439
-1.67439
-1.67439
-1.67439
-1.6744
-1.6744
-1.67441
-1.67441
-1.67442
-1.67442
-1.67442
-1.67442
-1.67443
-1.67443
-1.67443
-1.67443
-1.67443
-1.67443
-1.67443
-1.67443
-1.67443
-1.67443
-1.67443
-1.67443
-1.67443
-1.67443
-1.67443
-1.67443
-1.67443
-1.67443
-1.67444
-1.67444
-1.67444
-1.67444
-1.67444
-1.67444
-1.67444
-1.67444
-1.67444
-1.67445
-1.67445
-1.67444
-1.67444
-1.67444
-1.67444
-1.67444
-1.67443
-1.67443
-1.67443
-1.67442
-1.67442
-1.67441
-1.67441
-1.6744
-1.6744
-1.67439
-1.67439
-1.67439
-1.67438
-1.67438
-1.67438
-1.77287
-1.77287
-1.77287
-1.77288
-1.77288
-1.77288
-1.77289
-1.77289
-1.7729
-1.77291
-1.77291
-1.77292
-1.77293
-1.77293
-1.77294
-1.77294
-1.77295
-1.77295
-1.77296
-1.77296
-1.77296
-1.77296
-1.77296
-1.77296
-1.77296
-1.77295
-1.77295
-1.77294
-1.77294
-1.77293
-1.77293
-1.77292
-1.77291
-1.7729
-1.7729
-1.77289
-1.77289
-1.77289
-1.77288
-1.77289
-1.77289
-1.77289
-1.77289
-1.7729
-1.7729
-1.77291
-1.77291
-1.77292
-1.77292
-1.77292
-1.77292
-1.77293
-1.77293
-1.77293
-1.77293
-1.77293
-1.77293
-1.77293
-1.77293
-1.77293
-1.77293
-1.77293
-1.77293
-1.77293
-1.77293
-1.77293
-1.77293
-1.77293
-1.77293
-1.77293
-1.77293
-1.77294
-1.77294
-1.77294
-1.77294
-1.77294
-1.77294
-1.77295
-1.77295
-1.77295
-1.77295
-1.77295
-1.77294
-1.77294
-1.77294
-1.77294
-1.77293
-1.77293
-1.77292
-1.77292
-1.77291
-1.77291
-1.7729
-1.7729
-1.7729
-1.77289
-1.77289
-1.77289
-1.77288
-1.77288
-1.87137
-1.87137
-1.87137
-1.87138
-1.87138
-1.87138
-1.87139
-1.87139
-1.8714
-1.87141
-1.87141
-1.87142
-1.87143
-1.87144
-1.87144
-1.87145
-1.87145
-1.87146
-1.87146
-1.87146
-1.87146
-1.87146
-1.87146
-1.87146
-1.87146
-1.87146
-1.87145
-1.87145
-1.87144
-1.87144
-1.87143
-1.87142
-1.87142
-1.87141
-1.8714
-1.87139
-1.87139
-1.87139
-1.87139
-1.87139
-1.87139
-1.87139
-1.8714
-1.8714
-1.8714
-1.87141
-1.87141
-1.87142
-1.87142
-1.87142
-1.87142
-1.87142
-1.87143
-1.87143
-1.87143
-1.87143
-1.87143
-1.87142
-1.87142
-1.87142
-1.87142
-1.87142
-1.87142
-1.87142
-1.87142
-1.87142
-1.87142
-1.87142
-1.87143
-1.87143
-1.87143
-1.87143
-1.87144
-1.87144
-1.87144
-1.87144
-1.87145
-1.87145
-1.87145
-1.87145
-1.87145
-1.87145
-1.87145
-1.87145
-1.87144
-1.87144
-1.87144
-1.87143
-1.87143
-1.87142
-1.87142
-1.87141
-1.87141
-1.8714
-1.8714
-1.8714
-1.87139
-1.87139
-1.87139
-1.87139
-1.96987
-1.96987
-1.96987
-1.96987
-1.96988
-1.96988
-1.96989
-1.96989
-1.9699
-1.96991
-1.96992
-1.96992
-1.96993
-1.96994
-1.96994
-1.96995
-1.96996
-1.96996
-1.96996
-1.96997
-1.96997
-1.96997
-1.96997
-1.96997
-1.96996
-1.96996
-1.96996
-1.96995
-1.96995
-1.96994
-1.96993
-1.96993
-1.96992
-1.96991
-1.9699
-1.9699
-1.96989
-1.96989
-1.96989
-1.96989
-1.96989
-1.96989
-1.9699
-1.9699
-1.96991
-1.96991
-1.96991
-1.96992
-1.96992
-1.96992
-1.96992
-1.96992
-1.96992
-1.96992
-1.96992
-1.96992
-1.96992
-1.96992
-1.96992
-1.96992
-1.96992
-1.96992
-1.96992
-1.96992
-1.96992
-1.96992
-1.96992
-1.96992
-1.96992
-1.96993
-1.96993
-1.96993
-1.96994
-1.96994
-1.96994
-1.96994
-1.96995
-1.96995
-1.96995
-1.96995
-1.96995
-1.96995
-1.96995
-1.96995
-1.96995
-1.96994
-1.96994
-1.96994
-1.96993
-1.96993
-1.96992
-1.96992
-1.96991
-1.96991
-1.9699
-1.9699
-1.9699
-1.96989
-1.96989
-1.96989
-2.06837
-2.06837
-2.06837
-2.06837
-2.06838
-2.06838
-2.06839
-2.06839
-2.0684
-2.06841
-2.06842
-2.06842
-2.06843
-2.06844
-2.06845
-2.06845
-2.06846
-2.06846
-2.06847
-2.06847
-2.06847
-2.06847
-2.06847
-2.06847
-2.06847
-2.06846
-2.06846
-2.06846
-2.06845
-2.06844
-2.06844
-2.06843
-2.06842
-2.06842
-2.06841
-2.0684
-2.0684
-2.06839
-2.06839
-2.06839
-2.06839
-2.06839
-2.0684
-2.0684
-2.06841
-2.06841
-2.06842
-2.06842
-2.06842
-2.06842
-2.06842
-2.06842
-2.06842
-2.06842
-2.06842
-2.06842
-2.06842
-2.06842
-2.06841
-2.06841
-2.06841
-2.06841
-2.06841
-2.06841
-2.06841
-2.06841
-2.06841
-2.06842
-2.06842
-2.06842
-2.06843
-2.06843
-2.06843
-2.06844
-2.06844
-2.06845
-2.06845
-2.06845
-2.06845
-2.06845
-2.06845
-2.06845
-2.06845
-2.06845
-2.06845
-2.06845
-2.06844
-2.06844
-2.06843
-2.06843
-2.06842
-2.06842
-2.06841
-2.06841
-2.06841
-2.0684
-2.0684
-2.0684
-2.0684
-2.06839
-2.16687
-2.16687
-2.16687
-2.16687
-2.16688
-2.16688
-2.16689
-2.16689
-2.1669
-2.16691
-2.16692
-2.16692
-2.16693
-2.16694
-2.16695
-2.16696
-2.16696
-2.16697
-2.16697
-2.16697
-2.16697
-2.16697
-2.16697
-2.16697
-2.16697
-2.16696
-2.16696
-2.16696
-2.16695
-2.16695
-2.16694
-2.16693
-2.16693
-2.16692
-2.16691
-2.1669
-2.1669
-2.16689
-2.16689
-2.16689
-2.16689
-2.1669
-2.1669
-2.16691
-2.16691
-2.16691
-2.16692
-2.16692
-2.16692
-2.16692
-2.16692
-2.16692
-2.16692
-2.16692
-2.16692
-2.16692
-2.16691
-2.16691
-2.16691
-2.16691
-2.16691
-2.1669
-2.1669
-2.1669
-2.1669
-2.16691
-2.16691
-2.16691
-2.16692
-2.16692
-2.16692
-2.16693
-2.16693
-2.16694
-2.16694
-2.16695
-2.16695
-2.16695
-2.16695
-2.16696
-2.16696
-2.16696
-2.16696
-2.16695
-2.16695
-2.16695
-2.16695
-2.16694
-2.16694
-2.16693
-2.16693
-2.16692
-2.16692
-2.16691
-2.16691
-2.16691
-2.1669
-2.1669
-2.1669
-2.1669
-2.26536
-2.26537
-2.26537
-2.26537
-2.26537
-2.26538
-2.26538
-2.26539
-2.2654
-2.26541
-2.26541
-2.26542
-2.26543
-2.26544
-2.26545
-2.26546
-2.26546
-2.26547
-2.26547
-2.26547
-2.26547
-2.26547
-2.26547
-2.26547
-2.26547
-2.26546
-2.26546
-2.26546
-2.26545
-2.26545
-2.26544
-2.26543
-2.26543
-2.26542
-2.26541
-2.26541
-2.2654
-2.2654
-2.26539
-2.26539
-2.2654
-2.2654
-2.2654
-2.26541
-2.26541
-2.26542
-2.26542
-2.26542
-2.26542
-2.26542
-2.26542
-2.26542
-2.26542
-2.26542
-2.26541
-2.26541
-2.26541
-2.26541
-2.2654
-2.2654
-2.2654
-2.2654
-2.2654
-2.2654
-2.2654
-2.2654
-2.2654
-2.26541
-2.26541
-2.26542
-2.26542
-2.26543
-2.26543
-2.26544
-2.26544
-2.26545
-2.26545
-2.26545
-2.26546
-2.26546
-2.26546
-2.26546
-2.26546
-2.26546
-2.26545
-2.26545
-2.26545
-2.26544
-2.26544
-2.26543
-2.26543
-2.26543
-2.26542
-2.26542
-2.26541
-2.26541
-2.2654
-2.2654
-2.2654
-2.2654
-2.36386
-2.36386
-2.36386
-2.36387
-2.36387
-2.36387
-2.36388
-2.36389
-2.36389
-2.3639
-2.36391
-2.36392
-2.36393
-2.36394
-2.36395
-2.36396
-2.36396
-2.36397
-2.36397
-2.36397
-2.36397
-2.36397
-2.36397
-2.36397
-2.36397
-2.36396
-2.36396
-2.36395
-2.36395
-2.36394
-2.36394
-2.36393
-2.36392
-2.36392
-2.36391
-2.36391
-2.3639
-2.3639
-2.3639
-2.3639
-2.3639
-2.3639
-2.36391
-2.36391
-2.36391
-2.36392
-2.36392
-2.36392
-2.36392
-2.36392
-2.36392
-2.36392
-2.36391
-2.36391
-2.36391
-2.36391
-2.3639
-2.3639
-2.3639
-2.3639
-2.36389
-2.36389
-2.36389
-2.36389
-2.36389
-2.3639
-2.3639
-2.3639
-2.36391
-2.36392
-2.36392
-2.36393
-2.36393
-2.36394
-2.36394
-2.36395
-2.36395
-2.36396
-2.36396
-2.36396
-2.36396
-2.36396
-2.36396
-2.36396
-2.36396
-2.36395
-2.36395
-2.36395
-2.36394
-2.36394
-2.36393
-2.36393
-2.36392
-2.36392
-2.36391
-2.36391
-2.36391
-2.3639
-2.3639
-2.3639
-2.46236
-2.46236
-2.46236
-2.46236
-2.46236
-2.46237
-2.46238
-2.46238
-2.46239
-2.4624
-2.46241
-2.46242
-2.46243
-2.46244
-2.46245
-2.46245
-2.46246
-2.46247
-2.46247
-2.46247
-2.46247
-2.46247
-2.46247
-2.46247
-2.46247
-2.46246
-2.46246
-2.46245
-2.46245
-2.46244
-2.46243
-2.46243
-2.46242
-2.46242
-2.46241
-2.46241
-2.4624
-2.4624
-2.4624
-2.4624
-2.4624
-2.4624
-2.46241
-2.46241
-2.46242
-2.46242
-2.46242
-2.46242
-2.46242
-2.46242
-2.46242
-2.46241
-2.46241
-2.46241
-2.4624
-2.4624
-2.4624
-2.4624
-2.46239
-2.46239
-2.46239
-2.46239
-2.46239
-2.46239
-2.46239
-2.46239
-2.46239
-2.4624
-2.46241
-2.46241
-2.46242
-2.46243
-2.46243
-2.46244
-2.46244
-2.46245
-2.46245
-2.46246
-2.46246
-2.46246
-2.46246
-2.46246
-2.46246
-2.46246
-2.46246
-2.46246
-2.46245
-2.46245
-2.46244
-2.46244
-2.46243
-2.46243
-2.46242
-2.46242
-2.46242
-2.46241
-2.46241
-2.46241
-2.4624
-2.4624
-2.56085
-2.56085
-2.56085
-2.56086
-2.56086
-2.56086
-2.56087
-2.56088
-2.56088
-2.56089
-2.5609
-2.56091
-2.56092
-2.56093
-2.56094
-2.56095
-2.56096
-2.56096
-2.56097
-2.56097
-2.56097
-2.56097
-2.56097
-2.56097
-2.56096
-2.56096
-2.56095
-2.56095
-2.56094
-2.56093
-2.56093
-2.56092
-2.56092
-2.56091
-2.56091
-2.5609
-2.5609
-2.5609
-2.5609
-2.5609
-2.5609
-2.56091
-2.56091
-2.56091
-2.56091
-2.56092
-2.56092
-2.56092
-2.56091
-2.56091
-2.56091
-2.56091
-2.56091
-2.5609
-2.5609
-2.5609
-2.56089
-2.56089
-2.56089
-2.56088
-2.56088
-2.56088
-2.56088
-2.56088
-2.56088
-2.56089
-2.56089
-2.5609
-2.5609
-2.56091
-2.56092
-2.56093
-2.56093
-2.56094
-2.56094
-2.56095
-2.56095
-2.56096
-2.56096
-2.56096
-2.56096
-2.56096
-2.56096
-2.56096
-2.56096
-2.56096
-2.56095
-2.56095
-2.56094
-2.56094
-2.56093
-2.56093
-2.56092
-2.56092
-2.56092
-2.56091
-2.56091
-2.56091
-2.56091
-2.5609
-2.65935
-2.65935
-2.65935
-2.65935
-2.65935
-2.65936
-2.65936
-2.65937
-2.65938
-2.65939
-2.6594
-2.65941
-2.65942
-2.65943
-2.65944
-2.65945
-2.65945
-2.65946
-2.65946
-2.65947
-2.65947
-2.65947
-2.65946
-2.65946
-2.65946
-2.65945
-2.65945
-2.65944
-2.65943
-2.65943
-2.65942
-2.65942
-2.65941
-2.65941
-2.6594
-2.6594
-2.6594
-2.65939
-2.65939
-2.6594
-2.6594
-2.6594
-2.65941
-2.65941
-2.65941
-2.65941
-2.65941
-2.65941
-2.65941
-2.65941
-2.65941
-2.6594
-2.6594
-2.6594
-2.65939
-2.65939
-2.65939
-2.65938
-2.65938
-2.65938
-2.65937
-2.65937
-2.65937
-2.65937
-2.65938
-2.65938
-2.65939
-2.6594
-2.6594
-2.65941
-2.65942
-2.65942
-2.65943
-2.65944
-2.65944
-2.65945
-2.65946
-2.65946
-2.65946
-2.65946
-2.65947
-2.65947
-2.65947
-2.65946
-2.65946
-2.65946
-2.65945
-2.65945
-2.65945
-2.65944
-2.65944
-2.65943
-2.65942
-2.65942
-2.65942
-2.65941
-2.65941
-2.65941
-2.65941
-2.6594
-2.75784
-2.75784
-2.75784
-2.75784
-2.75784
-2.75785
-2.75785
-2.75786
-2.75787
-2.75788
-2.75789
-2.7579
-2.75791
-2.75792
-2.75793
-2.75794
-2.75795
-2.75795
-2.75796
-2.75796
-2.75796
-2.75796
-2.75796
-2.75795
-2.75795
-2.75794
-2.75794
-2.75793
-2.75792
-2.75792
-2.75791
-2.75791
-2.7579
-2.7579
-2.75789
-2.75789
-2.75789
-2.75789
-2.75789
-2.75789
-2.7579
-2.7579
-2.7579
-2.7579
-2.7579
-2.7579
-2.7579
-2.7579
-2.7579
-2.7579
-2.7579
-2.75789
-2.75789
-2.75789
-2.75789
-2.75788
-2.75788
-2.75788
-2.75787
-2.75787
-2.75787
-2.75787
-2.75787
-2.75787
-2.75787
-2.75788
-2.75789
-2.75789
-2.7579
-2.75791
-2.75792
-2.75792
-2.75793
-2.75794
-2.75794
-2.75795
-2.75795
-2.75796
-2.75796
-2.75796
-2.75797
-2.75797
-2.75797
-2.75796
-2.75796
-2.75796
-2.75795
-2.75795
-2.75794
-2.75794
-2.75793
-2.75793
-2.75792
-2.75792
-2.75791
-2.75791
-2.75791
-2.75791
-2.7579
-2.7579
-2.85633
-2.85633
-2.85633
-2.85633
-2.85634
-2.85634
-2.85635
-2.85635
-2.85636
-2.85637
-2.85638
-2.85639
-2.8564
-2.85641
-2.85642
-2.85643
-2.85644
-2.85644
-2.85645
-2.85645
-2.85645
-2.85645
-2.85645
-2.85644
-2.85644
-2.85643
-2.85643
-2.85642
-2.85641
-2.85641
-2.8564
-2.8564
-2.85639
-2.85639
-2.85638
-2.85638
-2.85638
-2.85638
-2.85638
-2.85639
-2.85639
-2.85639
-2.8564
-2.8564
-2.8564
-2.8564
-2.85639
-2.85639
-2.85639
-2.85639
-2.85639
-2.85639
-2.85638
-2.85638
-2.85638
-2.85637
-2.85637
-2.85637
-2.85636
-2.85636
-2.85636
-2.85636
-2.85636
-2.85637
-2.85637
-2.85638
-2.85638
-2.85639
-2.8564
-2.85641
-2.85641
-2.85642
-2.85643
-2.85644
-2.85644
-2.85645
-2.85645
-2.85646
-2.85646
-2.85646
-2.85647
-2.85647
-2.85647
-2.85646
-2.85646
-2.85646
-2.85645
-2.85645
-2.85644
-2.85644
-2.85643
-2.85643
-2.85642
-2.85642
-2.85641
-2.85641
-2.85641
-2.8564
-2.8564
-2.8564
-2.95482
-2.95482
-2.95482
-2.95483
-2.95483
-2.95483
-2.95484
-2.95484
-2.95485
-2.95486
-2.95487
-2.95488
-2.95489
-2.9549
-2.95491
-2.95492
-2.95492
-2.95493
-2.95493
-2.95494
-2.95494
-2.95494
-2.95493
-2.95493
-2.95493
-2.95492
-2.95491
-2.95491
-2.9549
-2.95489
-2.95489
-2.95488
-2.95488
-2.95488
-2.95487
-2.95487
-2.95487
-2.95487
-2.95488
-2.95488
-2.95488
-2.95488
-2.95489
-2.95488
-2.95488
-2.95488
-2.95488
-2.95488
-2.95488
-2.95488
-2.95488
-2.95488
-2.95487
-2.95487
-2.95487
-2.95487
-2.95486
-2.95486
-2.95486
-2.95485
-2.95485
-2.95485
-2.95486
-2.95486
-2.95487
-2.95487
-2.95488
-2.95489
-2.9549
-2.9549
-2.95491
-2.95492
-2.95493
-2.95493
-2.95494
-2.95495
-2.95495
-2.95496
-2.95496
-2.95496
-2.95496
-2.95496
-2.95496
-2.95496
-2.95496
-2.95496
-2.95495
-2.95495
-2.95494
-2.95494
-2.95493
-2.95492
-2.95492
-2.95491
-2.95491
-2.95491
-2.9549
-2.9549
-2.9549
-2.9549
-3.05331
-3.05332
-3.05332
-3.05332
-3.05332
-3.05332
-3.05333
-3.05333
-3.05334
-3.05335
-3.05336
-3.05336
-3.05337
-3.05338