/*--------------------------------*- C++ -*----------------------------------*\
| =========                 |                                                 |
| \\      /  F ield         | OpenFOAM: The Open Source CFD Toolbox           |
|  \\    /   O peration     | Version:  4.1                                   |
|   \\  /    A nd           | Web:      www.OpenFOAM.org                      |
|    \\/     M anipulation  |                                                 |
\*---------------------------------------------------------------------------*/
FoamFile
{
    version     2.0;
    format      ascii;
    class       volScalarField;
    location    "460";
    object      p_rgh;
}
// * * * * * * * * * * * * * * * * * * * * * * * * * * * * * * * * * * * * * //

dimensions      [0 2 -2 0 0 0 0];

internalField   nonuniform List<scalar> 
5000
(
0.049202
0.0492121
0.0492121
0.0491988
0.049197
0.0491994
0.0492013
0.049201
0.0491994
0.0491972
0.0491944
0.049191
0.0491869
0.0491819
0.049176
0.0491699
0.0491643
0.0491592
0.0491551
0.0491527
0.0491524
0.0491544
0.049159
0.049166
0.0491748
0.0491847
0.0491948
0.0492033
0.0492097
0.0492142
0.049217
0.0492179
0.0492168
0.0492138
0.0492087
0.0492026
0.0491983
0.0491987
0.0492025
0.0492052
0.0492016
0.0491888
0.0491681
0.0491491
0.0491431
0.0491481
0.0491634
0.0491883
0.0491969
0.0491941
0.0491859
0.0491747
0.0491603
0.0491468
0.0491389
0.0491368
0.0491391
0.0491438
0.0491499
0.0491562
0.0491619
0.0491673
0.0491726
0.0491778
0.0491828
0.0491877
0.0491923
0.0491965
0.0492003
0.0492035
0.049206
0.049208
0.0492093
0.04921
0.0492102
0.04921
0.0492094
0.0492085
0.0492074
0.0492062
0.0492049
0.0492037
0.0492028
0.0492022
0.0492019
0.049202
0.0492023
0.049203
0.0492039
0.0492051
0.0492065
0.0492081
0.0492098
0.0492116
0.0492137
0.0492155
0.0492161
0.0492152
0.0492143
0.0492189
0.0492163
0.0492907
0.0492935
0.0492942
0.0492926
0.0492917
0.0492895
0.0492873
0.0492851
0.0492828
0.0492804
0.0492776
0.0492742
0.0492699
0.0492643
0.0492566
0.0492465
0.0492355
0.0492254
0.049218
0.0492154
0.0492185
0.0492274
0.0492407
0.0492557
0.049268
0.049274
0.0492765
0.0492777
0.0492784
0.0492787
0.0492787
0.0492784
0.0492778
0.0492772
0.0492765
0.0492748
0.0492711
0.0492643
0.049254
0.0492389
0.0492161
0.0491869
0.0491509
0.0491101
0.0491216
0.0491669
0.0492074
0.0492213
0.049226
0.0492281
0.0492288
0.0492287
0.0492151
0.0492037
0.0492051
0.0492141
0.0492238
0.0492294
0.0492308
0.0492319
0.0492335
0.0492356
0.0492382
0.0492412
0.0492445
0.049248
0.0492515
0.049255
0.0492582
0.0492612
0.049264
0.0492664
0.0492685
0.0492703
0.049272
0.0492737
0.0492752
0.0492769
0.0492786
0.0492805
0.0492825
0.0492841
0.0492854
0.0492865
0.0492877
0.049289
0.0492906
0.0492925
0.0492949
0.0492977
0.0493011
0.049305
0.0493093
0.0493129
0.0493156
0.049317
0.0493116
0.0492837
0.0492331
0.049197
0.0492961
0.049299
0.0492985
0.0492971
0.0492951
0.0492928
0.0492906
0.0492883
0.0492861
0.0492837
0.0492814
0.0492789
0.0492762
0.0492734
0.0492702
0.0492668
0.0492633
0.0492604
0.0492588
0.0492595
0.049263
0.0492686
0.0492742
0.0492779
0.0492788
0.0492785
0.0492784
0.0492786
0.0492789
0.049279
0.049279
0.0492788
0.0492783
0.0492776
0.0492765
0.0492744
0.0492706
0.0492644
0.0492546
0.0492387
0.049212
0.049169
0.0491181
0.0490707
0.0490786
0.0491465
0.0492072
0.0492229
0.0492274
0.0492295
0.0492304
0.0492313
0.0492329
0.049231
0.0492313
0.0492324
0.049232
0.0492312
0.049231
0.0492317
0.0492331
0.0492351
0.0492377
0.0492407
0.0492441
0.0492477
0.0492513
0.0492549
0.0492582
0.0492613
0.0492641
0.0492666
0.0492688
0.0492707
0.0492724
0.049274
0.0492756
0.0492773
0.0492791
0.049281
0.0492832
0.0492857
0.0492885
0.0492915
0.0492947
0.049298
0.0493016
0.0493052
0.049309
0.0493129
0.0493169
0.0493208
0.0493248
0.0493285
0.0493316
0.0493331
0.0493288
0.0492975
0.0492047
0.0491755
0.0492972
0.0493003
0.0492988
0.0492969
0.0492947
0.0492925
0.0492902
0.049288
0.0492858
0.0492836
0.0492814
0.0492793
0.0492773
0.0492755
0.0492739
0.0492728
0.0492723
0.0492724
0.0492734
0.0492751
0.049277
0.0492784
0.0492788
0.0492781
0.0492771
0.0492766
0.0492766
0.0492769
0.0492773
0.0492776
0.0492777
0.0492777
0.0492773
0.0492765
0.0492753
0.0492733
0.0492701
0.0492655
0.0492584
0.0492466
0.0492253
0.0491886
0.0491338
0.0490714
0.0490495
0.0491779
0.0492128
0.0492281
0.0492305
0.0492312
0.0492313
0.0492313
0.0492319
0.0492325
0.049232
0.0492309
0.0492296
0.0492289
0.049229
0.0492299
0.0492315
0.0492337
0.0492365
0.0492397
0.0492432
0.049247
0.0492508
0.0492546
0.0492581
0.0492614
0.0492643
0.0492669
0.0492691
0.049271
0.0492727
0.0492742
0.0492757
0.0492771
0.0492787
0.0492805
0.0492824
0.0492847
0.0492874
0.0492903
0.0492937
0.0492973
0.0493011
0.0493052
0.0493094
0.0493137
0.0493181
0.0493226
0.049327
0.0493312
0.0493349
0.049337
0.049333
0.0492964
0.0491622
0.0491562
0.0492984
0.0493015
0.0492993
0.049297
0.0492946
0.0492921
0.0492897
0.0492873
0.049285
0.0492827
0.0492805
0.0492783
0.0492764
0.0492747
0.0492733
0.0492725
0.0492723
0.0492727
0.0492736
0.0492747
0.0492755
0.0492757
0.0492754
0.0492749
0.0492746
0.0492747
0.0492752
0.0492758
0.0492764
0.049277
0.0492774
0.0492775
0.0492772
0.0492765
0.0492753
0.0492735
0.049271
0.049268
0.0492644
0.0492595
0.0492517
0.0492362
0.0492012
0.0491343
0.0490837
0.0492041
0.0492304
0.049235
0.0492347
0.0492339
0.0492329
0.0492319
0.0492309
0.0492303
0.0492295
0.0492286
0.0492279
0.0492276
0.049228
0.049229
0.0492306
0.0492328
0.0492355
0.0492387
0.0492424
0.0492463
0.0492503
0.0492543
0.0492581
0.0492616
0.0492648
0.0492676
0.0492701
0.0492721
0.0492739
0.0492755
0.0492769
0.0492782
0.0492797
0.0492812
0.0492829
0.0492849
0.0492873
0.04929
0.0492931
0.0492966
0.0493003
0.0493044
0.0493087
0.0493131
0.0493177
0.0493224
0.0493271
0.0493317
0.0493358
0.0493381
0.0493337
0.049292
0.0491205
0.0491379
0.0492995
0.0493027
0.0493
0.0492972
0.0492944
0.0492917
0.049289
0.0492863
0.0492837
0.0492812
0.0492787
0.0492763
0.0492742
0.0492723
0.0492707
0.0492696
0.0492691
0.0492692
0.0492696
0.0492703
0.0492709
0.0492714
0.0492717
0.0492721
0.0492726
0.0492734
0.0492743
0.0492753
0.0492763
0.0492772
0.0492777
0.0492779
0.0492777
0.0492771
0.0492759
0.0492743
0.0492723
0.0492702
0.0492684
0.0492673
0.0492674
0.0492684
0.0492646
0.0492302
0.0491796
0.0492403
0.0492437
0.0492409
0.0492382
0.0492361
0.0492345
0.0492329
0.0492311
0.0492296
0.0492286
0.0492277
0.0492271
0.0492268
0.0492269
0.0492277
0.049229
0.0492309
0.0492335
0.0492366
0.0492402
0.0492443
0.0492485
0.0492528
0.049257
0.0492609
0.0492645
0.0492677
0.0492705
0.0492729
0.049275
0.0492768
0.0492783
0.0492798
0.0492812
0.0492827
0.0492842
0.049286
0.0492881
0.0492906
0.0492934
0.0492966
0.0493002
0.0493041
0.0493082
0.0493127
0.0493173
0.049322
0.0493268
0.0493315
0.0493357
0.0493381
0.0493332
0.049287
0.0490815
0.0491203
0.0493005
0.0493038
0.0493005
0.0492972
0.0492941
0.049291
0.0492879
0.0492849
0.049282
0.0492791
0.0492763
0.0492737
0.0492712
0.049269
0.0492672
0.0492659
0.0492652
0.049265
0.0492653
0.0492659
0.0492667
0.0492677
0.0492687
0.0492699
0.0492711
0.0492725
0.0492739
0.0492754
0.0492767
0.0492778
0.0492785
0.0492788
0.0492787
0.049278
0.0492768
0.0492752
0.0492735
0.0492718
0.0492706
0.0492704
0.0492716
0.0492747
0.0492787
0.0492766
0.0492599
0.0492599
0.04925
0.0492438
0.0492398
0.049237
0.049235
0.0492332
0.0492314
0.0492296
0.0492281
0.0492268
0.0492257
0.049225
0.0492247
0.0492249
0.0492258
0.0492274
0.0492297
0.0492327
0.0492364
0.0492406
0.0492451
0.0492498
0.0492544
0.0492588
0.0492629
0.0492666
0.0492698
0.0492727
0.0492751
0.0492773
0.0492792
0.0492809
0.0492825
0.0492841
0.0492858
0.0492875
0.0492895
0.0492917
0.0492943
0.0492972
0.0493005
0.0493042
0.0493081
0.0493124
0.0493169
0.0493215
0.0493263
0.0493309
0.0493351
0.0493374
0.0493321
0.0492819
0.0490443
0.0491033
0.0493012
0.0493046
0.0493007
0.049297
0.0492934
0.04929
0.0492866
0.0492832
0.0492799
0.0492766
0.0492735
0.0492705
0.0492678
0.0492654
0.0492635
0.049262
0.0492612
0.0492609
0.0492612
0.049262
0.0492632
0.0492647
0.0492664
0.0492683
0.0492703
0.0492724
0.0492744
0.0492763
0.049278
0.0492793
0.0492801
0.0492805
0.0492802
0.0492794
0.049278
0.0492763
0.0492744
0.0492727
0.0492716
0.0492712
0.0492717
0.0492731
0.0492746
0.0492748
0.0492712
0.0492601
0.0492504
0.0492439
0.0492394
0.0492362
0.0492337
0.0492317
0.0492298
0.0492279
0.049226
0.0492243
0.0492227
0.0492215
0.0492208
0.0492206
0.0492211
0.0492224
0.0492245
0.0492274
0.0492311
0.0492355
0.0492403
0.0492454
0.0492505
0.0492554
0.04926
0.0492643
0.049268
0.0492713
0.0492742
0.0492768
0.049279
0.0492811
0.049283
0.0492849
0.0492868
0.0492887
0.0492907
0.0492929
0.0492953
0.049298
0.0493011
0.0493045
0.0493082
0.0493122
0.0493165
0.0493209
0.0493255
0.04933
0.049334
0.0493362
0.0493305
0.0492768
0.0490084
0.0490866
0.0493013
0.0493048
0.0493005
0.0492963
0.0492923
0.0492885
0.0492848
0.049281
0.0492773
0.0492737
0.0492703
0.0492671
0.0492641
0.0492616
0.0492595
0.049258
0.0492572
0.049257
0.0492575
0.0492587
0.0492604
0.0492626
0.0492653
0.049268
0.0492709
0.0492736
0.0492762
0.0492785
0.0492805
0.0492819
0.0492828
0.049283
0.0492825
0.0492814
0.0492797
0.0492775
0.0492752
0.049273
0.0492715
0.0492705
0.0492701
0.0492699
0.0492693
0.0492676
0.0492633
0.0492557
0.0492481
0.0492421
0.0492375
0.0492339
0.049231
0.0492286
0.0492263
0.0492242
0.049222
0.0492199
0.0492181
0.0492167
0.0492156
0.0492151
0.0492153
0.0492164
0.0492183
0.0492212
0.0492249
0.0492295
0.0492346
0.0492401
0.0492457
0.0492512
0.0492564
0.0492611
0.0492654
0.0492691
0.0492724
0.0492753
0.0492779
0.0492803
0.0492826
0.0492847
0.0492869
0.049289
0.0492912
0.0492935
0.049296
0.0492986
0.0493015
0.0493047
0.0493081
0.0493119
0.0493159
0.0493201
0.0493243
0.0493286
0.0493324
0.0493344
0.0493285
0.0492716
0.0489735
0.0490702
0.0493009
0.0493044
0.0492995
0.049295
0.0492907
0.0492865
0.0492824
0.0492784
0.0492743
0.0492704
0.0492667
0.0492632
0.0492601
0.0492574
0.0492554
0.049254
0.0492534
0.0492536
0.0492546
0.0492565
0.0492592
0.0492625
0.049266
0.0492695
0.0492729
0.0492762
0.0492791
0.0492816
0.0492836
0.0492851
0.0492859
0.0492859
0.0492851
0.0492836
0.0492814
0.0492786
0.0492755
0.0492726
0.0492705
0.0492689
0.0492675
0.0492661
0.0492643
0.0492614
0.049257
0.049251
0.0492448
0.0492392
0.0492346
0.0492308
0.0492275
0.0492245
0.0492219
0.0492193
0.0492169
0.0492146
0.0492126
0.049211
0.0492098
0.0492091
0.0492091
0.04921
0.0492118
0.0492146
0.0492184
0.0492231
0.0492285
0.0492344
0.0492406
0.0492466
0.0492523
0.0492576
0.0492623
0.0492665
0.0492701
0.0492733
0.0492762
0.0492788
0.0492813
0.0492837
0.0492861
0.0492885
0.0492909
0.0492934
0.0492959
0.0492986
0.0493015
0.0493045
0.0493078
0.0493112
0.0493149
0.0493188
0.0493228
0.0493267
0.0493302
0.049332
0.0493259
0.0492663
0.0489396
0.049054
0.0492997
0.0493032
0.0492979
0.049293
0.0492884
0.0492839
0.0492795
0.0492751
0.0492708
0.0492666
0.0492626
0.049259
0.0492558
0.0492532
0.0492513
0.0492503
0.0492503
0.0492513
0.0492533
0.0492562
0.04926
0.0492641
0.0492682
0.0492721
0.0492757
0.049279
0.049282
0.0492845
0.0492866
0.049288
0.0492887
0.0492885
0.0492875
0.0492855
0.0492826
0.049279
0.0492748
0.0492711
0.0492685
0.0492661
0.049264
0.0492617
0.0492591
0.0492557
0.0492514
0.0492462
0.0492408
0.0492357
0.0492312
0.0492272
0.0492236
0.0492204
0.0492173
0.0492144
0.0492117
0.0492092
0.0492071
0.0492053
0.049204
0.0492032
0.0492031
0.0492038
0.0492055
0.0492082
0.049212
0.0492168
0.0492225
0.0492287
0.0492353
0.0492419
0.0492481
0.0492539
0.0492591
0.0492636
0.0492675
0.0492709
0.049274
0.0492767
0.0492794
0.0492819
0.0492845
0.0492871
0.0492897
0.0492924
0.0492951
0.0492979
0.0493008
0.0493038
0.0493069
0.0493102
0.0493136
0.0493171
0.0493207
0.0493242
0.0493275
0.049329
0.0493229
0.0492609
0.0489063
0.0490376
0.0492978
0.0493013
0.0492955
0.0492902
0.0492853
0.0492806
0.0492759
0.0492713
0.0492667
0.0492623
0.0492582
0.0492545
0.0492514
0.0492491
0.0492478
0.0492476
0.0492485
0.0492506
0.0492538
0.0492578
0.0492623
0.0492666
0.0492706
0.0492744
0.0492778
0.049281
0.0492839
0.0492864
0.0492884
0.0492899
0.0492906
0.0492903
0.049289
0.0492866
0.0492831
0.0492786
0.0492729
0.0492682
0.049265
0.049262
0.0492592
0.0492562
0.0492531
0.0492494
0.0492452
0.0492406
0.0492358
0.0492312
0.0492269
0.049223
0.0492194
0.0492161
0.0492129
0.0492099
0.049207
0.0492044
0.0492021
0.0492002
0.0491988
0.0491979
0.0491977
0.0491983
0.0491998
0.0492024
0.0492061
0.0492109
0.0492167
0.0492233
0.0492303
0.0492373
0.0492441
0.0492504
0.0492559
0.0492608
0.0492649
0.0492684
0.0492716
0.0492744
0.049277
0.0492796
0.0492823
0.049285
0.0492878
0.0492906
0.0492935
0.0492965
0.0492994
0.0493024
0.0493054
0.0493085
0.0493117
0.0493149
0.0493181
0.0493213
0.0493242
0.0493255
0.0493192
0.0492553
0.0488736
0.0490212
0.0492949
0.0492985
0.0492922
0.0492867
0.0492815
0.0492766
0.0492717
0.0492668
0.0492621
0.0492576
0.0492535
0.04925
0.0492473
0.0492457
0.0492453
0.0492461
0.0492483
0.0492516
0.0492557
0.0492602
0.0492646
0.0492685
0.0492721
0.0492754
0.0492785
0.0492814
0.0492842
0.0492867
0.0492889
0.0492906
0.0492915
0.0492913
0.04929
0.0492873
0.0492831
0.0492775
0.0492702
0.0492644
0.0492604
0.0492566
0.0492531
0.0492495
0.0492459
0.049242
0.0492379
0.0492337
0.0492294
0.0492253
0.0492214
0.0492179
0.0492145
0.0492114
0.0492084
0.0492055
0.0492027
0.0492001
0.0491978
0.0491959
0.0491943
0.0491934
0.049193
0.0491935
0.0491948
0.0491973
0.0492009
0.0492056
0.0492115
0.0492183
0.0492257
0.0492332
0.0492405
0.0492471
0.049253
0.0492581
0.0492624
0.049266
0.0492691
0.0492719
0.0492745
0.049277
0.0492797
0.0492824
0.0492852
0.0492882
0.0492912
0.0492943
0.0492973
0.0493004
0.0493033
0.0493063
0.0493092
0.0493121
0.049315
0.0493178
0.0493203
0.0493214
0.049315
0.0492495
0.0488414
0.0490045
0.0492913
0.0492949
0.0492883
0.0492824
0.049277
0.0492719
0.0492668
0.0492618
0.0492571
0.0492526
0.0492488
0.0492457
0.0492438
0.0492431
0.0492439
0.049246
0.0492494
0.0492535
0.0492579
0.0492622
0.0492659
0.049269
0.0492718
0.0492745
0.0492772
0.0492799
0.0492827
0.0492854
0.049288
0.0492901
0.0492914
0.0492917
0.0492906
0.0492878
0.0492831
0.0492764
0.0492673
0.04926
0.0492551
0.0492504
0.049246
0.0492417
0.0492375
0.0492334
0.0492293
0.0492252
0.0492213
0.0492177
0.0492143
0.0492112
0.0492084
0.0492057
0.0492031
0.0492006
0.0491982
0.0491959
0.0491938
0.049192
0.0491905
0.0491896
0.0491891
0.0491895
0.0491907
0.0491929
0.0491963
0.049201
0.049207
0.049214
0.0492217
0.0492296
0.0492373
0.0492444
0.0492506
0.0492558
0.0492601
0.0492637
0.0492667
0.0492693
0.0492718
0.0492742
0.0492767
0.0492794
0.0492822
0.0492852
0.0492883
0.0492915
0.0492946
0.0492977
0.0493007
0.0493035
0.0493063
0.0493089
0.0493114
0.0493138
0.049316
0.0493167
0.0493102
0.0492433
0.0488095
0.0489877
0.0492869
0.0492906
0.0492836
0.0492775
0.0492719
0.0492666
0.0492614
0.0492564
0.0492517
0.0492476
0.0492442
0.0492419
0.049241
0.0492415
0.0492436
0.0492469
0.049251
0.0492553
0.0492594
0.0492628
0.0492654
0.0492676
0.0492696
0.0492716
0.049274
0.0492766
0.0492795
0.0492826
0.0492856
0.0492884
0.0492905
0.0492915
0.0492909
0.0492884
0.0492834
0.0492757
0.0492647
0.0492556
0.0492495
0.0492437
0.0492383
0.0492332
0.0492283
0.0492238
0.0492195
0.0492155
0.0492118
0.0492085
0.0492056
0.049203
0.0492008
0.0491987
0.0491967
0.0491949
0.049193
0.0491913
0.0491896
0.0491882
0.049187
0.0491861
0.0491858
0.049186
0.0491871
0.0491892
0.0491925
0.0491971
0.0492032
0.0492104
0.0492184
0.0492268
0.0492349
0.0492423
0.0492486
0.0492539
0.0492581
0.0492616
0.0492644
0.0492668
0.0492691
0.0492713
0.0492736
0.0492761
0.0492788
0.0492818
0.0492849
0.0492881
0.0492913
0.0492944
0.0492974
0.0493002
0.0493028
0.0493052
0.0493074
0.0493094
0.0493111
0.0493115
0.049305
0.0492368
0.0487779
0.0489706
0.0492819
0.0492858
0.0492784
0.049272
0.0492662
0.0492608
0.0492556
0.0492507
0.0492463
0.0492425
0.0492399
0.0492386
0.0492388
0.0492407
0.0492438
0.0492479
0.0492523
0.0492563
0.0492595
0.0492618
0.0492632
0.0492643
0.0492655
0.049267
0.049269
0.0492715
0.0492746
0.0492781
0.0492818
0.0492854
0.0492885
0.0492906
0.0492909
0.049289
0.049284
0.0492754
0.0492626
0.0492515
0.049244
0.0492368
0.0492302
0.049224
0.0492184
0.0492132
0.0492086
0.0492045
0.049201
0.049198
0.0491955
0.0491935
0.0491918
0.0491905
0.0491892
0.0491881
0.0491871
0.049186
0.049185
0.0491841
0.0491833
0.0491828
0.0491826
0.049183
0.049184
0.0491861
0.0491893
0.0491939
0.0492001
0.0492076
0.049216
0.0492248
0.0492333
0.0492408
0.0492472
0.0492524
0.0492565
0.0492597
0.0492623
0.0492644
0.0492664
0.0492683
0.0492704
0.0492727
0.0492752
0.0492781
0.0492811
0.0492843
0.0492876
0.0492907
0.0492937
0.0492964
0.0492989
0.0493011
0.049303
0.0493046
0.049306
0.049306
0.0492992
0.0492301
0.0487467
0.0489534
0.0492763
0.0492805
0.0492729
0.0492661
0.0492602
0.0492547
0.0492496
0.0492449
0.0492408
0.0492377
0.0492359
0.0492357
0.0492372
0.0492402
0.0492443
0.0492487
0.0492529
0.0492561
0.0492581
0.0492591
0.0492594
0.0492595
0.0492599
0.0492608
0.0492625
0.0492649
0.0492681
0.0492721
0.0492765
0.049281
0.0492853
0.0492886
0.0492903
0.0492893
0.0492847
0.0492755
0.0492608
0.0492477
0.0492384
0.0492296
0.0492215
0.0492141
0.0492074
0.0492015
0.0491964
0.0491922
0.0491888
0.0491861
0.0491841
0.0491827
0.0491817
0.0491811
0.0491808
0.0491805
0.0491803
0.0491801
0.0491799
0.0491796
0.0491794
0.0491793
0.0491795
0.0491801
0.0491813
0.0491833
0.0491866
0.0491914
0.0491978
0.0492057
0.0492147
0.0492239
0.0492326
0.0492402
0.0492465
0.0492514
0.0492552
0.049258
0.0492602
0.049262
0.0492637
0.0492653
0.0492671
0.0492692
0.0492715
0.0492742
0.0492771
0.0492803
0.0492835
0.0492866
0.0492896
0.0492923
0.0492946
0.0492966
0.0492982
0.0492995
0.0493004
0.0493001
0.0492932
0.0492231
0.0487158
0.0489361
0.0492704
0.0492751
0.0492671
0.0492601
0.049254
0.0492485
0.0492434
0.049239
0.0492354
0.049233
0.0492323
0.0492332
0.0492359
0.0492398
0.0492445
0.0492489
0.0492525
0.0492547
0.0492555
0.0492552
0.0492544
0.0492536
0.0492532
0.0492535
0.0492547
0.0492569
0.0492602
0.0492645
0.0492696
0.0492751
0.0492807
0.0492855
0.0492887
0.0492891
0.0492852
0.0492756
0.0492589
0.0492438
0.0492324
0.0492216
0.0492117
0.0492028
0.0491949
0.0491882
0.0491826
0.0491782
0.0491749
0.0491726
0.0491712
0.0491705
0.0491705
0.0491708
0.0491714
0.0491721
0.0491729
0.0491736
0.0491742
0.0491748
0.0491752
0.0491757
0.0491763
0.0491772
0.0491786
0.0491809
0.0491844
0.0491895
0.0491964
0.0492049
0.0492144
0.0492241
0.0492329
0.0492404
0.0492464
0.0492509
0.0492542
0.0492565
0.0492583
0.0492597
0.049261
0.0492624
0.0492639
0.0492657
0.0492677
0.0492702
0.049273
0.049276
0.0492792
0.0492823
0.0492852
0.0492878
0.0492901
0.0492919
0.0492933
0.0492942
0.0492947
0.049294
0.0492868
0.0492159
0.0486852
0.0489188
0.0492644
0.0492696
0.0492613
0.049254
0.0492477
0.0492422
0.0492373
0.0492331
0.0492301
0.0492286
0.0492288
0.0492309
0.0492346
0.0492393
0.0492442
0.0492484
0.0492513
0.0492524
0.0492521
0.0492507
0.0492489
0.0492472
0.049246
0.0492456
0.0492462
0.0492481
0.0492512
0.0492557
0.0492613
0.0492677
0.0492745
0.049281
0.049286
0.0492881
0.0492853
0.0492753
0.0492566
0.0492395
0.0492254
0.0492122
0.0492001
0.0491894
0.0491801
0.0491724
0.0491663
0.0491617
0.0491587
0.049157
0.0491564
0.0491568
0.0491578
0.0491593
0.0491611
0.049163
0.0491649
0.0491666
0.0491682
0.0491696
0.0491708
0.049172
0.0491731
0.0491744
0.0491762
0.0491787
0.0491826
0.0491882
0.0491959
0.0492053
0.0492155
0.0492255
0.0492343
0.0492415
0.0492469
0.0492507
0.0492533
0.0492551
0.0492564
0.0492575
0.0492584
0.0492595
0.0492607
0.0492622
0.0492641
0.0492663
0.0492689
0.0492717
0.0492748
0.0492778
0.0492807
0.0492832
0.0492854
0.049287
0.0492881
0.0492888
0.0492889
0.0492877
0.0492803
0.0492085
0.0486551
0.0489016
0.0492584
0.0492643
0.0492557
0.0492481
0.0492416
0.0492361
0.0492313
0.0492275
0.049225
0.0492243
0.0492255
0.0492286
0.0492332
0.0492385
0.0492436
0.0492474
0.0492496
0.0492498
0.0492485
0.0492463
0.0492437
0.0492411
0.049239
0.0492378
0.0492376
0.0492389
0.0492417
0.049246
0.0492519
0.0492591
0.049267
0.0492751
0.0492821
0.0492861
0.0492846
0.0492743
0.0492536
0.0492343
0.049217
0.0492007
0.0491859
0.049173
0.0491621
0.0491533
0.0491467
0.0491423
0.0491397
0.0491388
0.0491393
0.049141
0.0491435
0.0491465
0.0491497
0.049153
0.0491562
0.0491592
0.0491619
0.0491643
0.0491663
0.0491681
0.0491698
0.0491716
0.0491738
0.0491768
0.0491813
0.0491879
0.0491968
0.0492072
0.0492181
0.0492283
0.0492368
0.0492432
0.0492477
0.0492507
0.0492526
0.0492538
0.0492545
0.0492552
0.0492559
0.0492567
0.0492577
0.0492589
0.0492605
0.0492625
0.0492648
0.0492675
0.0492704
0.0492733
0.0492761
0.0492785
0.0492806
0.0492821
0.049283
0.0492833
0.049283
0.0492815
0.0492737
0.0492011
0.0486254
0.0488846
0.0492526
0.0492595
0.0492507
0.0492427
0.0492359
0.0492303
0.0492256
0.0492221
0.0492201
0.0492201
0.0492222
0.0492262
0.0492316
0.0492374
0.0492426
0.0492462
0.0492478
0.0492475
0.0492456
0.0492427
0.0492395
0.0492362
0.0492331
0.0492307
0.0492296
0.04923
0.0492321
0.0492361
0.049242
0.0492496
0.0492585
0.0492681
0.049277
0.0492831
0.049283
0.0492723
0.0492498
0.0492277
0.0492064
0.0491863
0.0491683
0.0491528
0.0491401
0.0491303
0.0491234
0.0491191
0.0491173
0.0491176
0.0491196
0.0491229
0.0491272
0.049132
0.0491371
0.0491421
0.0491469
0.0491513
0.0491552
0.0491587
0.0491617
0.0491642
0.0491666
0.0491689
0.0491716
0.0491753
0.0491808
0.0491889
0.0491992
0.0492109
0.0492224
0.0492323
0.04924
0.0492454
0.0492489
0.0492508
0.0492518
0.0492523
0.0492527
0.049253
0.0492534
0.049254
0.0492548
0.0492558
0.0492572
0.0492589
0.049261
0.0492634
0.0492661
0.0492689
0.0492715
0.0492739
0.0492758
0.0492772
0.0492778
0.0492778
0.0492772
0.0492752
0.0492671
0.0491937
0.0485962
0.048868
0.0492473
0.0492554
0.0492463
0.0492379
0.0492308
0.049225
0.0492204
0.049217
0.0492155
0.049216
0.0492188
0.0492236
0.0492296
0.0492359
0.0492413
0.049245
0.0492465
0.049246
0.0492439
0.0492408
0.0492372
0.049233
0.0492288
0.0492252
0.0492228
0.049222
0.0492233
0.0492267
0.0492323
0.04924
0.0492496
0.0492604
0.0492711
0.0492794
0.0492807
0.0492693
0.0492451
0.0492193
0.0491931
0.0491684
0.0491465
0.0491282
0.0491136
0.0491029
0.0490959
0.0490922
0.0490914
0.0490932
0.0490971
0.0491025
0.049109
0.049116
0.0491232
0.0491303
0.0491369
0.0491429
0.0491483
0.0491529
0.0491568
0.0491602
0.0491632
0.0491661
0.0491694
0.0491742
0.0491814
0.0491915
0.0492038
0.0492167
0.0492283
0.0492375
0.0492439
0.0492479
0.04925
0.0492508
0.049251
0.0492509
0.0492508
0.0492508
0.049251
0.0492515
0.0492522
0.049253
0.0492542
0.0492556
0.0492574
0.0492596
0.0492621
0.0492646
0.0492672
0.0492694
0.0492712
0.0492724
0.0492729
0.0492726
0.0492715
0.0492692
0.0492607
0.0491864
0.0485676
0.0488519
0.0492426
0.0492521
0.0492429
0.049234
0.0492265
0.0492205
0.0492157
0.0492124
0.0492111
0.049212
0.0492153
0.0492206
0.0492273
0.0492341
0.0492399
0.0492439
0.0492458
0.0492456
0.0492439
0.049241
0.0492371
0.0492321
0.0492265
0.0492213
0.0492175
0.0492155
0.0492157
0.0492183
0.0492233
0.0492309
0.0492408
0.0492526
0.0492649
0.0492752
0.0492777
0.0492653
0.0492396
0.0492088
0.0491766
0.0491464
0.0491201
0.0490987
0.0490824
0.049071
0.0490642
0.0490615
0.0490623
0.049066
0.0490721
0.04908
0.049089
0.0490986
0.0491082
0.0491176
0.0491263
0.0491341
0.049141
0.0491469
0.0491518
0.049156
0.0491597
0.0491632
0.0491676
0.0491741
0.0491838
0.0491966
0.0492109
0.0492244
0.0492355
0.0492432
0.0492479
0.0492502
0.0492509
0.0492506
0.04925
0.0492493
0.0492489
0.0492488
0.0492489
0.0492493
0.0492498
0.0492506
0.0492515
0.0492527
0.0492542
0.0492561
0.0492583
0.0492607
0.0492631
0.0492652
0.0492669
0.0492679
0.0492682
0.0492676
0.0492662
0.0492634
0.0492546
0.0491794
0.0485395
0.0488363
0.0492386
0.0492499
0.0492408
0.0492313
0.0492233
0.0492168
0.0492118
0.0492084
0.049207
0.049208
0.0492115
0.0492172
0.0492244
0.0492317
0.0492382
0.0492429
0.0492456
0.0492464
0.0492456
0.0492433
0.0492392
0.0492331
0.0492259
0.049219
0.0492137
0.0492105
0.0492096
0.0492113
0.0492157
0.049223
0.049233
0.0492454
0.0492591
0.049271
0.0492743
0.049261
0.0492326
0.0491958
0.0491566
0.0491201
0.0490889
0.0490644
0.0490466
0.049035
0.049029
0.0490278
0.0490306
0.0490367
0.0490454
0.049056
0.0490678
0.0490801
0.0490925
0.0491043
0.0491152
0.049125
0.0491335
0.0491406
0.0491466
0.0491516
0.0491559
0.0491604
0.0491665
0.0491758
0.0491891
0.0492049
0.0492207
0.0492339
0.0492434
0.0492491
0.0492516
0.0492521
0.0492513
0.0492501
0.0492488
0.0492478
0.0492472
0.0492469
0.049247
0.0492474
0.0492479
0.0492485
0.0492492
0.0492502
0.0492515
0.0492531
0.049255
0.0492572
0.0492594
0.0492613
0.0492628
0.0492637
0.0492638
0.0492629
0.0492612
0.049258
0.0492488
0.0491726
0.0485122
0.0488214
0.0492354
0.0492489
0.04924
0.04923
0.0492213
0.0492143
0.0492088
0.049205
0.0492033
0.0492041
0.0492075
0.0492133
0.0492207
0.0492286
0.0492358
0.0492415
0.0492454
0.0492476
0.0492483
0.0492469
0.0492426
0.0492352
0.0492261
0.0492176
0.049211
0.0492067
0.049205
0.049206
0.0492098
0.0492167
0.0492267
0.0492395
0.0492542
0.0492673
0.0492709
0.0492566
0.0492239
0.0491801
0.0491328
0.0490891
0.049053
0.0490257
0.049007
0.048996
0.0489915
0.0489923
0.0489976
0.0490063
0.0490179
0.0490314
0.0490461
0.0490614
0.0490765
0.0490909
0.049104
0.0491157
0.0491258
0.0491342
0.049141
0.0491468
0.0491519
0.049158
0.049167
0.0491807
0.0491983
0.0492166
0.0492326
0.0492442
0.0492512
0.0492542
0.0492546
0.0492533
0.0492513
0.0492493
0.0492477
0.0492464
0.0492457
0.0492454
0.0492456
0.049246
0.0492464
0.0492469
0.0492474
0.0492482
0.0492492
0.0492505
0.0492522
0.0492541
0.0492561
0.0492579
0.0492593
0.04926
0.0492599
0.0492588
0.0492567
0.0492531
0.0492435
0.0491662
0.0484855
0.0488073
0.0492331
0.0492492
0.0492408
0.0492303
0.0492209
0.0492131
0.049207
0.0492026
0.0492003
0.0492005
0.0492034
0.0492089
0.0492162
0.0492244
0.0492322
0.0492389
0.0492441
0.0492479
0.0492505
0.0492505
0.0492457
0.0492367
0.0492259
0.0492162
0.0492089
0.049204
0.0492017
0.0492023
0.0492058
0.0492125
0.0492224
0.0492355
0.0492508
0.0492646
0.0492682
0.0492518
0.0492137
0.0491615
0.049105
0.0490537
0.0490127
0.0489835
0.0489649
0.0489555
0.0489533
0.0489569
0.0489649
0.0489766
0.0489909
0.0490073
0.0490249
0.049043
0.0490608
0.0490776
0.0490929
0.0491064
0.0491179
0.0491273
0.049135
0.0491415
0.049148
0.049157
0.0491711
0.0491905
0.049212
0.0492313
0.0492455
0.0492542
0.0492579
0.0492582
0.0492564
0.0492538
0.049251
0.0492485
0.0492466
0.0492452
0.0492445
0.0492443
0.0492445
0.049245
0.0492454
0.0492457
0.0492461
0.0492466
0.0492474
0.0492485
0.0492499
0.0492516
0.0492534
0.0492551
0.0492563
0.0492569
0.0492566
0.0492552
0.0492528
0.0492489
0.0492388
0.0491604
0.0484597
0.0487939
0.0492317
0.0492508
0.0492434
0.0492325
0.0492221
0.0492135
0.0492066
0.0492013
0.0491982
0.0491974
0.0491994
0.0492041
0.0492108
0.0492187
0.0492267
0.0492342
0.0492406
0.0492455
0.0492496
0.0492516
0.049246
0.0492356
0.0492241
0.0492143
0.0492067
0.0492018
0.0491996
0.0492002
0.0492037
0.0492103
0.0492203
0.0492337
0.0492495
0.0492638
0.0492667
0.0492468
0.0492016
0.0491397
0.0490731
0.0490141
0.0489692
0.0489393
0.0489224
0.0489159
0.048917
0.0489237
0.0489348
0.0489491
0.0489661
0.048985
0.0490052
0.0490257
0.0490459
0.0490649
0.0490821
0.0490971
0.0491097
0.04912
0.0491284
0.0491361
0.0491453
0.0491598
0.0491813
0.0492064
0.0492296
0.0492471
0.0492578
0.0492625
0.0492629
0.0492607
0.0492573
0.0492537
0.0492504
0.0492477
0.0492457
0.0492444
0.0492437
0.0492436
0.0492439
0.0492444
0.0492448
0.049245
0.0492452
0.0492456
0.0492461
0.049247
0.0492482
0.0492497
0.0492514
0.0492529
0.049254
0.0492544
0.0492539
0.0492523
0.0492496
0.0492453
0.0492348
0.0491551
0.0484347
0.0487813
0.0492311
0.0492536
0.0492478
0.0492366
0.0492253
0.0492158
0.0492079
0.0492017
0.0491974
0.0491955
0.0491962
0.0491995
0.0492051
0.0492121
0.0492197
0.049227
0.0492335
0.0492386
0.0492423
0.0492436
0.0492395
0.0492303
0.0492202
0.0492113
0.0492046
0.0492003
0.0491985
0.0491995
0.0492034
0.0492103
0.0492206
0.0492345
0.0492509
0.0492652
0.0492664
0.0492414
0.0491876
0.0491145
0.0490371
0.048971
0.0489237
0.0488952
0.048882
0.0488798
0.048885
0.0488953
0.0489092
0.0489258
0.0489448
0.0489655
0.0489876
0.04901
0.0490321
0.0490528
0.0490715
0.0490877
0.0491011
0.0491121
0.0491216
0.0491316
0.0491464
0.0491699
0.0491993
0.0492273
0.0492486
0.0492618
0.0492677
0.0492684
0.0492658
0.0492618
0.0492574
0.0492533
0.0492498
0.0492471
0.0492451
0.0492439
0.0492433
0.0492433
0.0492437
0.0492443
0.0492446
0.0492447
0.0492448
0.0492449
0.0492453
0.049246
0.0492471
0.0492485
0.04925
0.0492514
0.0492524
0.0492527
0.049252
0.0492501
0.0492472
0.0492426
0.0492316
0.0491505
0.0484107
0.0487695
0.0492313
0.0492576
0.0492538
0.0492427
0.0492308
0.0492203
0.0492112
0.0492038
0.0491982
0.0491949
0.049194
0.0491957
0.0491997
0.0492054
0.0492119
0.0492184
0.0492244
0.049229
0.0492317
0.0492318
0.0492282
0.0492218
0.0492145
0.0492077
0.0492024
0.0491993
0.0491985
0.0492004
0.049205
0.0492126
0.0492235
0.049238
0.049255
0.0492691
0.0492674
0.0492355
0.0491712
0.0490857
0.0489971
0.0489253
0.0488782
0.0488539
0.0488465
0.0488501
0.0488601
0.0488738
0.0488899
0.0489079
0.0489278
0.0489495
0.0489725
0.0489961
0.0490194
0.0490414
0.0490611
0.049078
0.0490922
0.0491041
0.0491155
0.0491308
0.0491561
0.0491902
0.0492239
0.0492498
0.0492658
0.0492733
0.0492744
0.0492717
0.0492671
0.0492619
0.0492571
0.0492528
0.0492494
0.0492467
0.0492448
0.0492436
0.0492431
0.0492433
0.049244
0.0492445
0.0492446
0.0492447
0.0492446
0.0492447
0.049245
0.0492457
0.0492467
0.049248
0.0492494
0.0492507
0.0492516
0.0492517
0.0492509
0.0492488
0.0492456
0.0492407
0.0492293
0.0491467
0.0483876
0.0487584
0.0492321
0.0492625
0.0492616
0.049251
0.0492385
0.049227
0.0492167
0.0492079
0.0492009
0.049196
0.0491934
0.0491932
0.0491953
0.0491992
0.0492042
0.0492096
0.0492145
0.0492183
0.0492203
0.04922
0.0492175
0.0492132
0.0492083
0.0492038
0.0492006
0.0491991
0.0491998
0.0492029
0.0492086
0.0492171
0.049229
0.0492444
0.0492621
0.0492753
0.0492693
0.0492283
0.0491517
0.0490528
0.0489537
0.0488786
0.048835
0.0488182
0.0488189
0.0488292
0.048844
0.0488606