/*--------------------------------*- C++ -*----------------------------------*\
| =========                 |                                                 |
| \\      /  F ield         | OpenFOAM: The Open Source CFD Toolbox           |
|  \\    /   O peration     | Version:  4.1                                   |
|   \\  /    A nd           | Web:      www.OpenFOAM.org                      |
|    \\/     M anipulation  |                                                 |
\*---------------------------------------------------------------------------*/
FoamFile
{
    version     2.0;
    format      ascii;
    class       volVectorField;
    location    "720";
    object      U;
}
// * * * * * * * * * * * * * * * * * * * * * * * * * * * * * * * * * * * * * //

dimensions      [0 1 -1 0 0 0 0];

internalField   nonuniform List<vector> 
5000
(
(-0.00398208 0.00301367 0)
(-0.00620624 0.00166998 0)
(-0.008574 0.00113745 0)
(-0.0103744 0.00088603 0)
(-0.0118615 0.000723104 0)
(-0.0131038 0.000592806 0)
(-0.0141245 0.000473496 0)
(-0.0149261 0.000356107 0)
(-0.0155032 0.000236904 0)
(-0.0158475 0.000114434 0)
(-0.0159495 -1.26842e-05 0)
(-0.0158037 -0.000146322 0)
(-0.0154127 -0.000279579 0)
(-0.0147883 -0.00040471 0)
(-0.0139548 -0.000516459 0)
(-0.0129432 -0.000611328 0)
(-0.0117888 -0.000687412 0)
(-0.0105281 -0.000744332 0)
(-0.0091964 -0.000783045 0)
(-0.00782634 -0.000805443 0)
(-0.00644634 -0.000814222 0)
(-0.00508019 -0.000812958 0)
(-0.00374768 -0.000805948 0)
(-0.00246794 -0.000795298 0)
(-0.00126418 -0.000767225 0)
(-2.8943e-06 -0.000664768 0)
(0.000966705 -0.000571544 0)
(0.00184906 -0.000488574 0)
(0.00264744 -0.000421804 0)
(0.00334712 -0.000365477 0)
(0.00395662 -0.00031613 0)
(0.00448666 -0.000272938 0)
(0.00494665 -0.000235679 0)
(0.00534565 -0.00020358 0)
(0.00569182 -0.000174558 0)
(0.00599102 -0.000145728 0)
(0.00624976 -0.000119072 0)
(0.00649194 -0.00011572 0)
(0.00679201 -0.000180628 0)
(0.0072679 -0.000329809 0)
(0.00795212 -0.000426608 0)
(0.00859362 -0.000137731 0)
(0.00848435 0.000847248 0)
(0.00641108 0.00229635 0)
(0.00157352 0.00178977 0)
(-0.000901663 -0.000214987 0)
(-0.000711761 -0.0010162 0)
(0.000479394 -0.001226 0)
(0.00200412 -0.00116285 0)
(0.0035737 -0.000985127 0)
(0.0049328 -0.000762242 0)
(0.00591619 -0.000498131 0)
(0.00646441 -0.000421218 0)
(0.00639746 -5.86905e-05 0)
(0.00487716 0.000978718 0)
(1.86881e-05 0.00358283 0)
(-0.00819663 0.00380612 0)
(-0.012503 0.00211305 0)
(-0.0151491 0.000882405 0)
(-0.0161289 6.41981e-05 0)
(-0.01602 -0.000405147 0)
(-0.0152621 -0.000658696 0)
(-0.0142188 -0.00076027 0)
(-0.0131156 -0.000743553 0)
(-0.0120998 -0.000655219 0)
(-0.011237 -0.000541912 0)
(-0.0105323 -0.000435589 0)
(-0.00995835 -0.000352952 0)
(-0.00947381 -0.000300691 0)
(-0.0090344 -0.000280123 0)
(-0.008598 -0.000289883 0)
(-0.00812718 -0.000327415 0)
(-0.00758995 -0.000389877 0)
(-0.00695887 -0.000474359 0)
(-0.00621048 -0.000576673 0)
(-0.00533227 -0.000686826 0)
(-0.00435132 -0.000776209 0)
(-0.00337142 -0.000765143 0)
(-0.00256257 -0.000470865 0)
(-0.00236028 0.000305587 0)
(-0.00379696 0.000969571 0)
(-0.00540609 0.00037113 0)
(-0.005267 -0.000751603 0)
(-0.00362821 -0.00140888 0)
(-0.00204482 -0.00129089 0)
(-0.00044685 -0.00132991 0)
(0.00141249 -0.00115466 0)
(0.00271108 -0.000946589 0)
(0.00394354 -0.000776953 0)
(0.00501337 -0.000636737 0)
(0.00589271 -0.000512238 0)
(0.0065837 -0.000397601 0)
(0.0070917 -0.000292708 0)
(0.00742434 -0.000201005 0)
(0.00759852 -0.00012685 0)
(0.00763529 -6.77755e-05 0)
(0.00753291 5.96495e-07 0)
(0.00721789 0.000164788 0)
(0.00621188 0.000867661 0)
(0.00487374 0.00305372 0)
(-0.00344535 0.00649547 0)
(-0.00568032 0.00429317 0)
(-0.00831514 0.00313772 0)
(-0.0102713 0.00250569 0)
(-0.0118662 0.00206987 0)
(-0.0131703 0.00170901 0)
(-0.014214 0.00137031 0)
(-0.0150054 0.00103071 0)
(-0.0155427 0.000681685 0)
(-0.0158217 0.000322208 0)
(-0.0158364 -4.5338e-05 0)
(-0.01559 -0.000415703 0)
(-0.0151064 -0.000772942 0)
(-0.0143999 -0.00110049 0)
(-0.013496 -0.00138661 0)
(-0.0124259 -0.00162357 0)
(-0.0112245 -0.00180738 0)
(-0.00992758 -0.00193778 0)
(-0.00856979 -0.00201762 0)
(-0.00718331 -0.00205167 0)
(-0.00579762 -0.00204632 0)
(-0.0044395 -0.00201053 0)
(-0.00313311 -0.00195615 0)
(-0.00189877 -0.00189425 0)
(-0.000736938 -0.00181306 0)
(0.000427355 -0.00162485 0)
(0.00135951 -0.00143262 0)
(0.00223756 -0.00125664 0)
(0.00302029 -0.00110304 0)
(0.00370306 -0.000965447 0)
(0.00429289 -0.000840652 0)
(0.00479842 -0.000728805 0)
(0.00522844 -0.000630992 0)
(0.00559312 -0.000548016 0)
(0.00590592 -0.00047998 0)
(0.00618624 -0.0004278 0)
(0.00646086 -0.000400804 0)
(0.00675854 -0.000431917 0)
(0.00709389 -0.000577425 0)
(0.00745911 -0.000850686 0)
(0.00785098 -0.00104357 0)
(0.00828892 -0.000481645 0)
(0.0084558 0.00142412 0)
(0.00762875 0.00389703 0)
(0.00556577 0.0046971 0)
(0.00356084 0.00267032 0)
(0.0015279 -0.000650549 0)
(0.00136534 -0.0020529 0)
(0.0022156 -0.00245037 0)
(0.00346507 -0.0022522 0)
(0.00459992 -0.00181769 0)
(0.00520489 -0.00130922 0)
(0.00481335 -0.000768889 0)
(0.00211125 0.00232669 0)
(-0.00159679 0.00576542 0)
(-0.00388382 0.00746287 0)
(-0.007517 0.00722101 0)
(-0.0103943 0.00502879 0)
(-0.0128322 0.00273247 0)
(-0.0141233 0.000785829 0)
(-0.0144502 -0.00053447 0)
(-0.0140927 -0.0012563 0)
(-0.0134699 -0.00152275 0)
(-0.0128065 -0.00148722 0)
(-0.0121995 -0.00129952 0)
(-0.0116732 -0.00107577 0)
(-0.0112132 -0.000880638 0)
(-0.0107931 -0.000740036 0)
(-0.0103881 -0.000659229 0)
(-0.00997944 -0.000634538 0)
(-0.00955444 -0.000658989 0)
(-0.00910529 -0.000724749 0)
(-0.00862775 -0.00082394 0)
(-0.00812042 -0.000947906 0)
(-0.00758519 -0.00108381 0)
(-0.00703242 -0.00120572 0)
(-0.0064914 -0.00125325 0)
(-0.00599507 -0.00109188 0)
(-0.00546554 -0.000501596 0)
(-0.00464475 0.000600796 0)
(-0.00364337 0.00159211 0)
(-0.00305327 0.00118755 0)
(-0.00191519 -0.00086863 0)
(-0.00103026 -0.00236815 0)
(-0.000400944 -0.00216084 0)
(0.000731588 -0.00226381 0)
(0.00176173 -0.00217468 0)
(0.00285532 -0.00193403 0)
(0.00390844 -0.00166568 0)
(0.00483915 -0.00139502 0)
(0.00560629 -0.00112184 0)
(0.00619303 -0.000844227 0)
(0.00658806 -0.000566487 0)
(0.00678355 -0.000302295 0)
(0.00678146 -6.96457e-05 0)
(0.0065751 0.000135867 0)
(0.00619336 0.000354116 0)
(0.00562356 0.000792864 0)
(0.00449283 0.00253105 0)
(0.00383495 0.00664442 0)
(-0.00284349 0.0101955 0)
(-0.00473684 0.00710267 0)
(-0.00723254 0.00531876 0)
(-0.00909807 0.00426888 0)
(-0.0106655 0.00351297 0)
(-0.0119621 0.0028745 0)
(-0.0130044 0.00227192 0)
(-0.0137943 0.00166916 0)
(-0.0143283 0.00105367 0)
(-0.0146011 0.000426015 0)
(-0.0146064 -0.000204819 0)
(-0.0143513 -0.000824919 0)
(-0.0138537 -0.00141592 0)
(-0.0131328 -0.0019542 0)
(-0.0122176 -0.00242148 0)
(-0.0111416 -0.00280542 0)
(-0.00994114 -0.00309962 0)
(-0.00865316 -0.00330389 0)
(-0.00731205 -0.00342331 0)
(-0.00594988 -0.00346519 0)
(-0.00459695 -0.00343932 0)
(-0.0032805 -0.00336004 0)
(-0.0020236 -0.00324507 0)
(-0.000832766 -0.0031014 0)
(0.000338539 -0.00288632 0)
(0.00128989 -0.00262096 0)
(0.00219132 -0.00233675 0)
(0.00301583 -0.00206877 0)
(0.00374786 -0.00182012 0)
(0.00438472 -0.00158898 0)
(0.00492971 -0.00137552 0)
(0.00538874 -0.00118182 0)
(0.00576927 -0.00101073 0)
(0.00608056 -0.000865597 0)
(0.00633423 -0.00075063 0)
(0.00654471 -0.000672718 0)
(0.00672839 -0.000645111 0)
(0.0068988 -0.000691538 0)
(0.00705655 -0.00084235 0)
(0.00718033 -0.00109606 0)
(0.00724079 -0.00127096 0)
(0.00732317 -0.000637459 0)
(0.00760497 0.00168619 0)
(0.00757613 0.00476955 0)
(0.00684533 0.00613543 0)
(0.00579134 0.00470705 0)
(0.00417702 0.00144672 0)
(0.00274668 -0.00169652 0)
(0.00270877 -0.00322691 0)
(0.0033534 -0.00332471 0)
(0.00369219 -0.00265227 0)
(0.00150532 -0.00012789 0)
(-0.00204902 0.00339508 0)
(-0.00323818 0.00540406 0)
(-0.0047582 0.00778704 0)
(-0.00539787 0.00950511 0)
(-0.00673736 0.00958973 0)
(-0.00841158 0.0074927 0)
(-0.0101781 0.00457163 0)
(-0.011261 0.00172131 0)
(-0.0117042 -0.000386482 0)
(-0.0117257 -0.00157654 0)
(-0.011524 -0.00200405 0)
(-0.0112911 -0.00196444 0)
(-0.0110668 -0.00172519 0)
(-0.0108475 -0.00145984 0)
(-0.0106167 -0.00124794 0)
(-0.0103601 -0.00111192 0)
(-0.0100693 -0.00104893 0)
(-0.00974145 -0.001048 0)
(-0.00937733 -0.00109706 0)
(-0.00898034 -0.00118515 0)
(-0.0085557 -0.00130245 0)
(-0.00811028 -0.00143912 0)
(-0.00765262 -0.00158316 0)
(-0.00719351 -0.00171627 0)
(-0.00674312 -0.00180386 0)
(-0.00628346 -0.00177596 0)
(-0.0056966 -0.00152496 0)
(-0.00474936 -0.00100585 0)
(-0.0033325 -0.000452644 0)
(-0.0017475 -0.000614274 0)
(-0.000463233 -0.00193737 0)
(1.0879e-05 -0.0028699 0)
(0.000448733 -0.00293249 0)
(0.00128478 -0.00313088 0)
(0.00212505 -0.00314298 0)
(0.00301371 -0.00293341 0)
(0.00387682 -0.0025948 0)
(0.00464753 -0.00219778 0)
(0.00528697 -0.00177051 0)
(0.00577338 -0.00131721 0)
(0.00608601 -0.000843133 0)
(0.00620663 -0.000367347 0)
(0.0061001 9.12464e-05 0)
(0.00575119 0.000525377 0)
(0.00514592 0.00095937 0)
(0.00428924 0.00160723 0)
(0.00303959 0.00402977 0)
(0.00299395 0.00996147 0)
(-0.00237284 0.0134527 0)
(-0.00395384 0.0096258 0)
(-0.00622258 0.00735319 0)
(-0.00793745 0.00596871 0)
(-0.00944386 0.00494004 0)
(-0.0107156 0.00405167 0)
(-0.0117492 0.00320304 0)
(-0.0125356 0.00235011 0)
(-0.0130652 0.00147782 0)
(-0.0133291 0.000587582 0)
(-0.0133188 -0.000308143 0)
(-0.0130448 -0.0011869 0)
(-0.0125277 -0.0020156 0)
(-0.0117891 -0.00276433 0)
(-0.0108607 -0.00340945 0)
(-0.00977839 -0.00393518 0)
(-0.0085807 -0.00433342 0)
(-0.00730571 -0.00460536 0)
(-0.00598677 -0.0047594 0)
(-0.00465693 -0.00480573 0)
(-0.00334697 -0.00475865 0)
(-0.00208317 -0.00464015 0)
(-0.000874221 -0.00446471 0)
(0.000313155 -0.0042057 0)
(0.00130015 -0.00389428 0)
(0.00222687 -0.00353833 0)
(0.00308198 -0.00317414 0)
(0.00385398 -0.00281819 0)
(0.00453606 -0.0024765 0)
(0.0051256 -0.00215243 0)
(0.00562369 -0.00184951 0)
(0.006034 -0.00157193 0)
(0.00636209 -0.00132441 0)
(0.00661513 -0.00111222 0)
(0.00680194 -0.000941564 0)
(0.00693258 -0.000820469 0)
(0.00701696 -0.000760315 0)
(0.00706155 -0.000776895 0)
(0.00706397 -0.000886574 0)
(0.00700881 -0.00108014 0)
(0.00687682 -0.00121089 0)
(0.00673904 -0.000673772 0)
(0.00687097 0.00155079 0)
(0.00709349 0.00483571 0)
(0.0069501 0.00665323 0)
(0.00635132 0.00576971 0)
(0.00528141 0.00297984 0)
(0.00390757 -0.00059343 0)
(0.00318465 -0.00307127 0)
(0.00284438 -0.00336834 0)
(-0.001699 0.00136941 0)
(-0.00361248 0.00312686 0)
(-0.00525098 0.00475444 0)
(-0.00598272 0.00631771 0)
(-0.00633584 0.00822811 0)
(-0.00613852 0.00993428 0)
(-0.0062754 0.010487 0)
(-0.0069726 0.00893526 0)
(-0.00804914 0.00592583 0)
(-0.00885594 0.00261875 0)
(-0.00931871 4.40043e-05 0)
(-0.00960147 -0.00144711 0)
(-0.00980255 -0.00198961 0)
(-0.00997151 -0.00197553 0)
(-0.0100814 -0.00175916 0)
(-0.0101102 -0.00153681 0)
(-0.0100515 -0.00138148 0)
(-0.00991011 -0.00130555 0)
(-0.00969544 -0.00129988 0)
(-0.00941761 -0.00135069 0)
(-0.00908575 -0.00144494 0)
(-0.00870779 -0.00157121 0)
(-0.00829081 -0.00171893 0)
(-0.00784137 -0.00187719 0)
(-0.00736554 -0.0020331 0)
(-0.00686846 -0.00216981 0)
(-0.00634985 -0.00226239 0)
(-0.00578618 -0.00227348 0)
(-0.00510236 -0.0021665 0)
(-0.00418488 -0.00197348 0)
(-0.00299396 -0.00187616 0)
(-0.00169042 -0.00213752 0)
(-0.000581178 -0.00278587 0)
(0.000162226 -0.00337759 0)
(0.000867819 -0.00366056 0)
(0.00161939 -0.00390124 0)
(0.00236516 -0.00395381 0)
(0.00310986 -0.00373578 0)
(0.00381586 -0.00332701 0)
(0.00444007 -0.00282152 0)
(0.00495618 -0.00226534 0)
(0.00534633 -0.00166132 0)
(0.00558534 -0.00100908 0)
(0.00564813 -0.000328022 0)
(0.00548769 0.000363562 0)
(0.0050903 0.00104497 0)
(0.00444533 0.00171842 0)
(0.00358128 0.00253535 0)
(0.0022637 0.0051825 0)
(0.00244888 0.0124751 0)
(-0.00200877 0.0161643 0)
(-0.00333572 0.0117801 0)
(-0.00537476 0.00916988 0)
(-0.00692016 0.00754683 0)
(-0.00833158 0.00629813 0)
(-0.00953991 0.0051841 0)
(-0.0105296 0.0040969 0)
(-0.0112827 0.0029924 0)
(-0.0117847 0.0018582 0)
(-0.012022 0.000700278 0)
(-0.0119813 -0.000461953 0)
(-0.011678 -0.00159618 0)
(-0.0111337 -0.00265838 0)
(-0.0103723 -0.00361081 0)
(-0.00942879 -0.00442427 0)
(-0.00834122 -0.00508033 0)
(-0.00715022 -0.00556942 0)
(-0.00589498 -0.00589595 0)
(-0.00460654 -0.00607285 0)
(-0.00332059 -0.00611227 0)
(-0.00206856 -0.00603659 0)
(-0.000859098 -0.00586725 0)
(0.000330096 -0.0055901 0)
(0.00134456 -0.00524409 0)
(0.00229812 -0.00483961 0)
(0.00317986 -0.00440609 0)
(0.00398266 -0.00396188 0)
(0.00470132 -0.00351925 0)
(0.00533154 -0.00308686 0)
(0.00587093 -0.00267138 0)
(0.00631949 -0.00227878 0)
(0.0066792 -0.00191507 0)
(0.00695358 -0.00158654 0)
(0.00714744 -0.00129992 0)
(0.00726668 -0.00106255 0)
(0.00731776 -0.000882751 0)
(0.00730656 -0.000770131 0)
(0.00723642 -0.000735424 0)
(0.00710551 -0.00078724 0)
(0.00690499 -0.000913386 0)
(0.00662437 -0.000997409 0)
(0.00630955 -0.000552569 0)
(0.00622362 0.00140796 0)
(0.00641155 0.00464258 0)
(0.00645145 0.00681064 0)
(0.00604127 0.00646739 0)
(0.00515749 0.00403745 0)
(0.00403277 0.00043463 0)
(0.00316875 -0.00230703 0)
(-0.00196544 0.00159768 0)
(-0.00410928 0.00342571 0)
(-0.00587895 0.0045894 0)
(-0.00697105 0.00554283 0)
(-0.00732654 0.00651958 0)
(-0.0072117 0.00794232 0)
(-0.00669967 0.00953384 0)
(-0.00622526 0.010391 0)
(-0.00615541 0.00941553 0)
(-0.00655219 0.00666958 0)
(-0.00702467 0.00328996 0)
(-0.00746099 0.000543366 0)
(-0.00796811 -0.00105454 0)
(-0.00852755 -0.00163813 0)
(-0.00901112 -0.00168677 0)
(-0.00935403 -0.00157495 0)
(-0.00954205 -0.00147308 0)
(-0.00959072 -0.00143092 0)
(-0.00952362 -0.00145163 0)
(-0.00936213 -0.00152593 0)
(-0.00912281 -0.00164311 0)
(-0.00881799 -0.00179335 0)
(-0.00845695 -0.00196766 0)
(-0.0080469 -0.00215731 0)
(-0.00759347 -0.00235305 0)
(-0.00710073 -0.00254427 0)
(-0.00657031 -0.00271808 0)
(-0.00599787 -0.00285791 0)
(-0.00536397 -0.00294408 0)
(-0.00462648 -0.0029669 0)
(-0.00373904 -0.00296032 0)
(-0.00270464 -0.0030249 0)
(-0.00161415 -0.003271 0)
(-0.00061021 -0.00368466 0)
(0.000247577 -0.00411566 0)
(0.00106022 -0.00443107 0)
(0.00178491 -0.00463177 0)
(0.00246783 -0.00466087 0)
(0.00310741 -0.0044042 0)
(0.00368811 -0.00392395 0)
(0.00418773 -0.00332561 0)
(0.00459521 -0.00266581 0)
(0.00490188 -0.00193719 0)
(0.00508153 -0.00112666 0)
(0.00510383 -0.000253249 0)
(0.00491582 0.00066062 0)
(0.00450922 0.00157684 0)
(0.00388141 0.00247315 0)
(0.00310161 0.00343856 0)
(0.00180108 0.00610613 0)
(0.00207018 0.0143796 0)
(-0.00171601 0.0184363 0)
(-0.00282881 0.0136184 0)
(-0.00464999 0.0107733 0)
(-0.00601792 0.00898254 0)
(-0.00730654 0.00755904 0)
(-0.008417 0.00624798 0)
(-0.00933075 0.00494147 0)
(-0.0100248 0.00359899 0)
(-0.0104794 0.00221167 0)
(-0.010674 0.000789521 0)
(-0.0105881 -0.000640744 0)
(-0.0102453 -0.0020317 0)
(-0.00966656 -0.00332456 0)
(-0.008879 -0.00447419 0)
(-0.00792109 -0.00544611 0)
(-0.00683161 -0.00622096 0)
(-0.00565487 -0.00678731 0)
(-0.00442874 -0.00715709 0)
(-0.00318113 -0.00734552 0)
(-0.00195544 -0.00736807 0)
(-0.000765291 -0.00725265 0)
(0.000413199 -0.00699583 0)
(0.0014352 -0.00664348 0)
(0.0024053 -0.00621176 0)
(0.0033062 -0.00573146 0)
(0.00413128 -0.00522105 0)
(0.00487637 -0.00469515 0)
(0.00553767 -0.00416624 0)
(0.00611196 -0.00364459 0)
(0.00659721 -0.00313876 0)
(0.00699284 -0.00265636 0)
(0.00729959 -0.00220478 0)
(0.00751925 -0.00179146 0)
(0.0076545 -0.00142411 0)
(0.00770872 -0.00111074 0)
(0.00768559 -0.000859627 0)
(0.00758828 -0.000679046 0)
(0.00741828 -0.000576697 0)
(0.00717444 -0.000557777 0)
(0.00685197 -0.000611104 0)
(0.00644415 -0.000641846 0)
(0.00597355 -0.000246686 0)
(0.00566297 0.00145573 0)
(0.00567333 0.00453731 0)
(0.00565887 0.00696285 0)
(0.00522528 0.00710923 0)
(0.00426074 0.00505388 0)
(0.00327828 0.00183286 0)
(-0.00024989 0.00199885 0)
(-0.00339043 0.00402136 0)
(-0.00538186 0.00528339 0)
(-0.00691673 0.00583854 0)
(-0.00774683 0.00611154 0)
(-0.00797843 0.00653252 0)
(-0.00779723 0.00752121 0)
(-0.00725429 0.00888326 0)
(-0.00651935 0.00977776 0)
(-0.0059249 0.00917916 0)
(-0.00573963 0.006843 0)
(-0.00588922 0.00370594 0)
(-0.00631516 0.0010973 0)
(-0.00700179 -0.000397735 0)
(-0.0077875 -0.00100785 0)
(-0.00843159 -0.00118506 0)
(-0.00887706 -0.00124571 0)
(-0.00913676 -0.00130861 0)
(-0.00924176 -0.00140482 0)
(-0.00922148 -0.00153775 0)
(-0.00909868 -0.00170385 0)
(-0.00888999 -0.00189787 0)
(-0.00860763 -0.00211394 0)
(-0.00826072 -0.00234581 0)
(-0.00785624 -0.00258668 0)
(-0.00739934 -0.0028291 0)
(-0.00689344 -0.0030648 0)
(-0.00633946 -0.00328446 0)
(-0.00573352 -0.00347802 0)
(-0.00506337 -0.00363684 0)
(-0.00430856 -0.00376255 0)
(-0.00345346 -0.00388095 0)
(-0.00251121 -0.00404243 0)
(-0.00153377 -0.00428804 0)
(-0.000596858 -0.004603 0)
(0.000281526 -0.00493615 0)
(0.00111274 -0.00520235 0)
(0.00181651 -0.00532716 0)
(0.00244818 -0.00529097 0)
(0.00300647 -0.00496867 0)
(0.00348879 -0.0044087 0)
(0.00388743 -0.00372429 0)
(0.0042044 -0.0029802 0)
(0.004443 -0.00215048 0)
(0.00457899 -0.00120036 0)
(0.00457586 -0.000147654 0)
(0.00437597 0.000971257 0)
(0.00397776 0.00209478 0)
(0.00338534 0.00317831 0)
(0.00271057 0.00426677 0)
(0.0014743 0.00690689 0)
(0.00178552 0.0159334 0)
(-0.00147475 0.0203715 0)
(-0.00239953 0.0151981 0)
(-0.00401046 0.012176 0)
(-0.00519331 0.01026 0)
(-0.00633766 0.00869386 0)
(-0.00732397 0.0072109 0)
(-0.00813712 0.00570514 0)
(-0.00875106 0.0041399 0)
(-0.00914129 0.00250938 0)
(-0.00927799 0.000827964 0)
(-0.00913123 -0.000867856 0)
(-0.0087407 -0.00251013 0)
(-0.00812307 -0.00402442 0)
(-0.00730885 -0.00535936 0)
(-0.00634049 -0.00647456 0)
(-0.00525504 -0.0073528 0)
(-0.00410503 -0.00798031 0)
(-0.00291708 -0.00838019 0)
(-0.00172622 -0.00856553 0)
(-0.000566868 -0.00855569 0)
(0.00057542 -0.00836823 0)
(0.0015932 -0.00804744 0)
(0.00256427 -0.00761891 0)
(0.00347176 -0.00711732 0)
(0.00430811 -0.00656379 0)
(0.00506863 -0.00597561 0)
(0.00574972 -0.00536802 0)
(0.00634835 -0.00475418 0)
(0.00686203 -0.00414527 0)
(0.007289 -0.00355092 0)
(0.00762832 -0.00297978 0)
(0.0078798 -0.00244012 0)
(0.00804393 -0.00194014 0)
(0.00812171 -0.00148816 0)
(0.00811454 -0.00109256 0)
(0.00802402 -0.000761531 0)
(0.00785144 -0.000502766 0)
(0.00759637 -0.000324378 0)
(0.00725676 -0.000226899 0)
(0.00682814 -0.000194436 0)
(0.00630508 -0.000148211 0)
(0.00570514 0.000231429 0)
(0.005196 0.00172726 0)
(0.00497405 0.00464098 0)
(0.00478636 0.00726844 0)
(0.00422233 0.00786218 0)
(0.00315733 0.00622408 0)
(0.00184355 0.00392282 0)
(-0.00175444 0.00472655 0)
(-0.00410602 0.00632601 0)
(-0.00596295 0.00699128 0)
(-0.00727241 0.00693182 0)
(-0.00796872 0.00660232 0)
(-0.00821927 0.00656668 0)
(-0.00814179 0.00718776 0)
(-0.00770498 0.00822642 0)
(-0.00694035 0.00894508 0)
(-0.00610439 0.00850728 0)
(-0.00556249 0.00659903 0)
(-0.00550281 0.00392879 0)
(-0.00594043 0.0016877 0)
(-0.00670371 0.000383225 0)
(-0.00750354 -0.000268223 0)
(-0.00815089 -0.000629865 0)
(-0.00860134 -0.000881908 0)
(-0.00887624 -0.00111204 0)
(-0.00900473 -0.00134652 0)
(-0.00901085 -0.00159361 0)
(-0.00891315 -0.00185575 0)
(-0.00872569 -0.00213238 0)
(-0.0084592 -0.00242099 0)
(-0.00812208 -0.0027177 0)
(-0.00772092 -0.00301755 0)
(-0.00726081 -0.00331476 0)
(-0.00674519 -0.00360299 0)
(-0.00617557 -0.00387558 0)
(-0.00555034 -0.00412635 0)
(-0.00486382 -0.00435188 0)
(-0.00410833 -0.0045562 0)
(-0.0032819 -0.00475546 0)
(-0.00239824 -0.00497371 0)
(-0.00148891 -0.00522532 0)
(-0.000600609 -0.00549844 0)
(0.000258665 -0.00576684 0)
(0.00107246 -0.00595674 0)
(0.00174837 -0.00598583 0)
(0.00233235 -0.00585822 0)
(0.00282431 -0.00545101 0)
(0.00322956 -0.00480398 0)
(0.00354878 -0.00403728 0)
(0.00379215 -0.00322522 0)
(0.00397567 -0.00231711 0)
(0.00408095 -0.00124532 0)
(0.00405765 -2.55467e-05 0)
(0.00385665 0.00127934 0)
(0.00347774 0.00258089 0)
(0.00293002 0.00381498 0)
(0.0023683 0.0049996 0)
(0.00122669 0.00761621 0)
(0.0015649 0.0172661 0)
(-0.001273 0.0220305 0)
(-0.00202753 0.0165512 0)
(-0.0034315 0.0133827 0)
(-0.00442086 0.0113663 0)
(-0.00540336 0.0096811 0)
(-0.00624445 0.00804959 0)
(-0.00693706 0.0063668 0)
(-0.00745422 0.00459808 0)
(-0.0077667 0.00273836 0)
(-0.00783218 0.000805658 0)
(-0.00760901 -0.00115172 0)
(-0.0071656 -0.00303626 0)
(-0.0065074 -0.00475795 0)
(-0.00566855 -0.00626192 0)
(-0.00469734 -0.00750186 0)
(-0.00362407 -0.0084663 0)
(-0.00251801 -0.00913663 0)
(-0.0013753 -0.00955192 0)
(-0.000251155 -0.00971136 0)
(0.000831804 -0.00964426 0)
(0.00183448 -0.00940081 0)
(0.00279177 -0.00901524 0)
(0.00369173 -0.00852449 0)
(0.0045262 -0.00795476 0)
(0.00528972 -0.00732782 0)
(0.00597842 -0.00666239 0)
(0.0065894 -0.00597455 0)
(0.0071203 -0.00527801 0)
(0.00756916 -0.0045845 0)
(0.00793438 -0.0039042 0)
(0.00821475 -0.00324631 0)
(0.0084094 -0.00261959 0)
(0.00851781 -0.00203264 0)
(0.00853973 -0.00149415 0)
(0.00847515 -0.00101276 0)
(0.00832406 -0.000596787 0)
(0.00808482 -0.00025468 0)
(0.00775828 1.75076e-05 0)
(0.00733678 0.000214892 0)
(0.00681663 0.000342765 0)
(0.00619769 0.000463058 0)
(0.00549429 0.000843981 0)
(0.00482046 0.0022015 0)
(0.00436865 0.00497869 0)
(0.00397269 0.00777673 0)
(0.00324277 0.00877052 0)
(0.00215037 0.00754009 0)
(0.00040351 0.00615435 0)
(-0.00253108 0.00731389 0)
(-0.00451216 0.00839124 0)
(-0.0061542 0.00849067 0)
(-0.00724702 0.00787286 0)
(-0.00786017 0.00707325 0)
(-0.00816672 0.00669844 0)
(-0.00822105 0.00700025 0)
(-0.00793621 0.00767638 0)
(-0.00728834 0.00811591 0)
(-0.00646838 0.00770047 0)
(-0.00584414 0.00618203 0)
(-0.00572328 0.00407691 0)
(-0.00613767 0.00227749 0)
(-0.00683002 0.00112641 0)
(-0.00751866 0.000413033 0)
(-0.00807782 -0.000104342 0)
(-0.00848251 -0.000532096 0)
(-0.00874074 -0.000911472 0)
(-0.00886905 -0.00127407 0)
(-0.00888318 -0.00163172 0)
(-0.00879619 -0.00199053 0)
(-0.00861878 -0.00235284 0)
(-0.00835983 -0.00271834 0)
(-0.00802673 -0.00308486 0)
(-0.00762569 -0.00344881 0)
(-0.00716186 -0.00380572 0)
(-0.0066392 -0.00415064 0)
(-0.00606021 -0.00447879 0)
(-0.00542564 -0.00478621 0)
(-0.00473464 -0.00507144 0)
(-0.00398655 -0.00533774 0)
(-0.00318519 -0.00559383 0)
(-0.002343 -0.0058499 0)
(-0.00148153 -0.00610877 0)
(-0.000633415 -0.00635898 0)
(0.000189455 -0.0065757 0)
(0.000970891 -0.00668208 0)
(0.00161144 -0.00660443 0)
(0.00214912 -0.00637058 0)
(0.0025855 -0.00586758 0)
(0.00293066 -0.00512936 0)
(0.00318888 -0.00428202 0)
(0.00337245 -0.00341372 0)
(0.00350909 -0.00244769 0)
(0.00359117 -0.00126967 0)
(0.00355301 0.000104026 0)
(0.00335692 0.00157486 0)
(0.00300285 0.00302581 0)
(0.00250499 0.00437507 0)
(0.00206007 0.005627 0)
(0.00103214 0.00823074 0)
(0.00139133 0.0184294 0)
(-0.00110198 0.0234482 0)
(-0.00169861 0.0176935 0)
(-0.00289812 0.0143925 0)
(-0.00368681 0.01229 0)
(-0.0044932 0.0105039 0)
(-0.0051708 0.00874567 0)
(-0.00572479 0.00690945 0)
(-0.00613112 0.00495953 0)
(-0.00635692 0.00288686 0)
(-0.00634093 0.000711152 0)
(-0.00602574 -0.00150246 0)
(-0.00552764 -0.00361218 0)
(-0.00482971 -0.00552139 0)
(-0.00397132 -0.00717526 0)
(-0.00300865 -0.00851768 0)
(-0.00196175 -0.00954786 0)
(-0.000909386 -0.0102444 0)
(0.000183075 -0.0106491 0)
(0.00119322 -0.0107569 0)
(0.00216796 -0.0106441 0)
(0.00309959 -0.0103481 0)
(0.00397912 -0.00990709 0)
(0.00479851 -0.00935365 0)
(0.00555194 -0.00871539 0)
(0.00623539 -0.0080159 0)
(0.00684603 -0.00727505 0)
(0.00738178 -0.00650956 0)
(0.00784089 -0.00573351 0)
(0.00822178 -0.00495883 0)
(0.00852291 -0.00419594 0)
(0.00874284 -0.00345427 0)
(0.00888018 -0.00274271 0)
(0.00893357 -0.00207003 0)
(0.00890178 -0.00144505 0)
(0.00878366 -0.000876641 0)
(0.00857655 -0.000373837 0)
(0.00828089 6.53917e-05 0)
(0.00788635 0.000431411 0)
(0.00739227 0.00072132 0)
(0.00679912 0.000943702 0)
(0.00610631 0.00114995 0)
(0.00532035 0.00156962 0)
(0.00451949 0.00285077 0)
(0.0038735 0.00553233 0)
(0.00328589 0.0084763 0)
(0.00239798 0.00980516 0)
(0.00133174 0.00895112 0)
(-0.000705187 0.00835331 0)
(-0.00302673 0.0095648 0)
(-0.00474731 0.0101563 0)
(-0.00613389 0.00975522 0)
(-0.00703151 0.00867604 0)
(-0.00758068 0.00753743 0)
(-0.00793195 0.00692374 0)
(-0.00809027 0.00695578 0)
(-0.00795346 0.00729185 0)
(-0.00749178 0.00744723 0)
(-0.00685245 0.00700057 0)
(-0.0063464 0.00580465 0)
(-0.00626 0.0042128 0)
(-0.00660566 0.00279226 0)
(-0.00715147 0.00174787 0)
(-0.00769146 0.000968629 0)
(-0.0081414 0.000332356 0)
(-0.00847803 -0.000225205 0)
(-0.00869994 -0.000730657 0)
(-0.00881006 -0.0012075 0)
(-0.0088162 -0.00166883 0)
(-0.00872635 -0.00212182 0)
(-0.00854802 -0.00256998 0)
(-0.0082882 -0.00301401 0)
(-0.00795336 -0.00345261 0)
(-0.00754932 -0.00388306 0)
(-0.0070813 -0.00430176 0)
(-0.00655376 -0.00470472 0)
(-0.00597025 -0.00508823 0)
(-0.00533337 -0.00544945 0)
(-0.00464529 -0.00578741 0)
(-0.00390907 -0.00610375 0)
(-0.00313088 -0.00640216 0)
(-0.00232198 -0.00668526 0)
(-0.00149918 -0.00694943 0)
(-0.000687685 -0.00718071 0)
(9.23887e-05 -0.00734917 0)
(0.000833435 -0.00736961 0)
(0.00143383 -0.00718059 0)
(0.00192725 -0.00683409 0)
(0.00231705 -0.00623145 0)
(0.00261561 -0.00540114 0)
(0.00282759 -0.00447269 0)
(0.00296168 -0.00355351 0)
(0.00305388 -0.00254716 0)
(0.00311369 -0.00127707 0)
(0.00306725 0.000238089 0)
(0.00287551 0.00185633 0)
(0.00254968 0.00342641 0)
(0.00210584 0.00485458 0)
(0.00177853 0.00614415 0)
(0.000872848 0.00874508 0)
(0.00125235 0.0194521 0)
(-0.000955317 0.0246502 0)
(-0.00140388 0.0186363 0)
(-0.00240354 0.0152046 0)
(-0.00298791 0.013022 0)
(-0.00360841 0.0111481 0)
(-0.00410677 0.00928253 0)
(-0.00450356 0.00731681 0)
(-0.00478421 0.00521208 0)
(-0.00491795 0.0029476 0)
(-0.00481309 0.000536128 0)
(-0.004394 -0.00192503 0)
(-0.00384165 -0.00423351 0)
(-0.00310885 -0.00630495 0)
(-0.00224132 -0.00808581 0)
(-0.00129542 -0.00951615 0)
(-0.000293667 -0.0105859 0)
(0.000706429 -0.0112818 0)
(0.00166305 -0.0116369 0)
(0.0025961 -0.0117149 0)
(0.00349297 -0.0115605 0)
(0.0043419 -0.0112144 0)
(0.00513469 -0.0107154 0)
(0.00586571 -0.010098 0)
(0.00653117 -0.00939188 0)
(0.00712863 -0.00862184 0)
(0.00765643 -0.00780857 0)
(0.00811329 -0.00696913 0)
(0.00849797 -0.00611768 0)
(0.00880913 -0.00526614 0)
(0.00904523 -0.00442487 0)
(0.00920458 -0.00360321 0)
(0.00928531 -0.00281002 0)
(0.0092854 -0.002054 0)
(0.00920279 -0.00134401 0)
(0.00903482 -0.000689031 0)
(0.00877907 -9.3342e-05 0)
(0.0084285 0.000441745 0)
(0.00797783 0.000905721 0)
(0.00742672 0.00129626 0)
(0.00677464 0.00161883 0)
(0.00602118 0.00191602 0)
(0.00517048 0.00238963 0)
(0.00427727 0.00363719 0)
(0.0034823 0.00626037 0)
(0.00273771 0.0093299 0)
(0.00173088 0.0109221 0)
(0.000624558 0.0104077 0)
(-0.00145043 0.0104082 0)
(-0.00334824 0.0114576 0)
(-0.0048562 0.0116314 0)
(-0.00600743 0.010802 0)
(-0.00675095 0.00936086 0)
(-0.00725397 0.00799118 0)
(-0.00763434 0.00721266 0)
(-0.00786438 0.00702571 0)
(-0.00785358 0.00708035 0)
(-0.00758796 0.00700268 0)
(-0.00718403 0.00652065 0)
(-0.00687087 0.00556145 0)
(-0.00685002 0.00434432 0)
(-0.00711952 0.0031901 0)
(-0.00752268 0.00222235 0)
(-0.00792816 0.00140326 0)
(-0.00827616 0.000681495 0)
(-0.00854232 2.64463e-05 0)
(-0.00871628 -0.000583555 0)
(-0.00879575 -0.00116093 0)
(-0.00878158 -0.00171789 0)
(-0.0086778 -0.00226072 0)
(-0.00848936 -0.00279263 0)
(-0.00822173 -0.00331438 0)
(-0.00788053 -0.00382487 0)
(-0.00747128 -0.00432173 0)
(-0.00699918 -0.00480188 0)
(-0.006469 -0.00526192 0)
(-0.00588499 -0.00569875 0)
(-0.00525097 -0.00610996 0)
(-0.00457083 -0.00649438 0)
(-0.00384942 -0.00685211 0)
(-0.0030938 -0.00718348 0)
(-0.00231438 -0.00748636 0)
(-0.00152584 -0.00775227 0)
(-0.000749434 -0.0079627 0)
(-1.29747e-05 -0.0080816 0)
(0.000682572 -0.00801363 0)
(0.0012412 -0.00771401 0)
(0.00169406 -0.00725467 0)
(0.00204523 -0.00655333 0)
(0.0023075 -0.00563233 0)
(0.00248423 -0.00462012 0)
(0.00257649 -0.00364753 0)
(0.00262208 -0.00261422 0)
(0.00265582 -0.00126579 0)
(0.00259878 0.000380137 0)
(0.00241288 0.00212323 0)
(0.00212043 0.00377905 0)
(0.00173458 0.0052504 0)
(0.00152285 0.00655064 0)
(0.000738772 0.00916014 0)
(0.00113908 0.0203568 0)
(-0.000828861 0.0256589 0)
(-0.00113945 0.0193912 0)
(-0.00194817 0.0158213 0)
(-0.00233026 0.0135581 0)
(-0.00276231 0.011604 0)
(-0.00307232 0.00964568 0)
(-0.00329641 0.00757196 0)
(-0.00343432 0.0053445 0)
(-0.00346614 0.0029278 0)
(-0.00323354 0.000291828 0)
(-0.00273258 -0.00240638 0)
(-0.00212867 -0.00489201 0)
(-0.00137241 -0.00710874 0)
(-0.000512479 -0.00898997 0)
(0.000413918 -0.0104948 0)
(0.00132104 -0.0115361 0)
(0.00222779 -0.0122101 0)
(0.00311534 -0.0125482 0)
(0.00397097 -0.0125932 0)
(0.00478189 -0.0123924 0)
(0.00553926 -0.0119915 0)
(0.00623757 -0.0114321 0)
(0.00687363 -0.0107508 0)
(0.00744573 -0.00997853 0)
(0.007953 -0.00914111 0)
(0.00839491 -0.00825953 0)
(0.00877091 -0.00735087 0)
(0.00908017 -0.0064291 0)
(0.00932146 -0.00550585 0)
(0.00949313 -0.00459117 0)
(0.00959319 -0.00369412 0)
(0.0096193 -0.00282331 0)
(0.00956885 -0.00198728 0)
(0.009439 -0.00119474 0)
(0.00922554 -0.000454556 0)
(0.00892532 0.000236642 0)
(0.0085281 0.000866926 0)
(0.00803248 0.00143062 0)
(0.0074367 0.00192309 0)
(0.00673914 0.00234696 0)
(0.00593966 0.00273858 0)
(0.0050415 0.00327842 0)
(0.00408426 0.00452367 0)
(0.00318244 0.00711783 0)
(0.00231554 0.0102983 0)
(0.00124147 0.0120941 0)
(2.75136e-05 0.0118935 0)
(-0.00191824 0.0122689 0)
(-0.00354417 0.0130686 0)
(-0.00487367 0.0128728 0)
(-0.00584099 0.0116759 0)
(-0.00648127 0.00995843 0)
(-0.00696105 0.00843723 0)
(-0.00736346 0.00754261 0)
(-0.0076436 0.00718118 0)
(-0.00773419 0.0070195 0)
(-0.00763922 0.00677206 0)
(-0.00744862 0.00626337 0)
(-0.00731358 0.00545633 0)
(-0.00735501 0.0044735 0)
(-0.00756885 0.0034856 0)
(-0.0078655 0.00257089 0)
(-0.00816667 0.0017303 0)
(-0.008429 0.000949522 0)
(-0.00862864 0.000216957 0)
(-0.00875203 -0.000478092 0)
(-0.00879361 -0.00114417 0)
(-0.00875109 -0.00178865 0)
(-0.00862573 -0.00241578 0)
(-0.00842082 -0.00302758 0)
(-0.00814072 -0.00362417 0)
(-0.00779042 -0.00420419 0)
(-0.00737507 -0.00476531 0)
(-0.00689975 -0.00530467 0)
(-0.0063693 -0.00581923 0)
(-0.0057883 -0.00630617 0)
(-0.00516116 -0.00676317 0)