/*--------------------------------*- C++ -*----------------------------------*\
| =========                 |                                                 |
| \\      /  F ield         | OpenFOAM: The Open Source CFD Toolbox           |
|  \\    /   O peration     | Version:  4.1                                   |
|   \\  /    A nd           | Web:      www.OpenFOAM.org                      |
|    \\/     M anipulation  |                                                 |
\*---------------------------------------------------------------------------*/
FoamFile
{
    version     2.0;
    format      ascii;
    class       surfaceScalarField;
    location    "1160";
    object      phi;
}
// * * * * * * * * * * * * * * * * * * * * * * * * * * * * * * * * * * * * * //

dimensions      [0 3 -1 0 0 0 0];

internalField   nonuniform List<scalar> 
9850
(
-3.60074e-06
3.60074e-06
-3.12321e-06
-4.77531e-07
-1.20805e-06
-1.91515e-06
7.73434e-07
-1.98149e-06
2.5229e-06
-1.74947e-06
3.88797e-06
-1.36506e-06
4.81033e-06
-9.22361e-07
5.27773e-06
-4.67403e-07
5.31249e-06
-3.47592e-08
4.90385e-06
4.08638e-07
3.74946e-06
1.15439e-06
-2.41863e-07
3.99132e-06
-5.53861e-06
5.29674e-06
-8.6696e-06
3.13099e-06
-9.85989e-06
1.19029e-06
-1.04421e-05
5.82259e-07
-1.09725e-05
5.30311e-07
-1.14561e-05
4.8363e-07
-1.18276e-05
3.71547e-07
-1.21114e-05
2.83723e-07
-1.23537e-05
2.42362e-07
-1.25638e-05
2.10077e-07
-1.27177e-05
1.53903e-07
-1.27842e-05
6.6536e-08
-1.27367e-05
-4.74935e-08
-1.25524e-05
-1.84316e-07
-1.22139e-05
-3.38562e-07
-1.17067e-05
-5.07187e-07
-1.10183e-05
-6.884e-07
-1.01365e-05
-8.81819e-07
-9.04846e-06
-1.088e-06
-7.74092e-06
-1.30753e-06
-6.20178e-06
-1.53914e-06
-4.42143e-06
-1.78035e-06
-2.36809e-06
-2.05334e-06
1.0565e-07
-2.47373e-06
2.45185e-06
-2.3462e-06
4.5476e-06
-2.09575e-06
6.47281e-06
-1.92521e-06
8.26153e-06
-1.78872e-06
9.91471e-06
-1.65318e-06
1.14267e-05
-1.51203e-06
1.27941e-05
-1.36731e-06
1.40159e-05
-1.22186e-06
1.50939e-05
-1.07801e-06
1.60316e-05
-9.37695e-07
1.68341e-05
-8.02449e-07
1.75075e-05
-6.73383e-07
1.80587e-05
-5.51217e-07
1.8495e-05
-4.36364e-07
1.88241e-05
-3.29028e-07
1.90534e-05
-2.29326e-07
1.91908e-05
-1.37458e-07
1.92449e-05
-5.40754e-08
1.92249e-05
2.00058e-08
1.91396e-05
8.534e-08
1.89966e-05
1.42981e-07
1.88026e-05
1.94026e-07
1.85637e-05
2.38868e-07
1.8286e-05
2.77744e-07
1.79751e-05
3.10825e-07
1.76369e-05
3.38231e-07
1.72768e-05
3.60053e-07
1.69005e-05
3.76353e-07
1.65133e-05
3.87187e-07
1.61207e-05
3.92615e-07
1.57279e-05
3.92748e-07
1.53401e-05
3.87802e-07
1.49619e-05
3.78215e-07
1.45971e-05
3.6482e-07
1.4248e-05
3.49136e-07
1.39142e-05
3.33747e-07
1.35914e-05
3.2279e-07
1.3269e-05
3.22421e-07
1.29279e-05
3.41115e-07
1.25383e-05
3.89554e-07
1.20585e-05
4.79865e-07
1.14343e-05
6.24142e-07
1.06019e-05
8.32406e-07
9.49294e-06
1.10899e-06
8.05262e-06
1.44033e-06
6.26679e-06
1.78583e-06
3.84397e-06
2.42282e-06
-1.10223e-06
4.94619e-06
-5.18937e-06
4.08714e-06
-8.04038e-06
2.85101e-06
-8.35806e-06
3.17686e-07
-8.44763e-06
8.95656e-08
-8.43812e-06
-9.51174e-09
-8.39154e-06
-4.65785e-08
-8.25412e-06
-1.37415e-07
-7.92396e-06
-3.30159e-07
-7.26738e-06
-6.56587e-07
-6.11171e-06
-1.15566e-06
-4.23317e-06
-1.87855e-06
-1.40783e-06
-2.82534e-06
2.34812e-06
-3.75595e-06
4.17419e-06
-1.82607e-06
3.70923e-06
4.64964e-07
3.70923e-06
-2.16354e-06
5.76428e-06
-1.71331e-06
-9.27757e-07
-5.06849e-07
-3.12162e-06
9.03794e-07
-3.39213e-06
2.25581e-06
-3.10148e-06
3.35514e-06
-2.46439e-06
4.01104e-06
-1.57827e-06
4.16225e-06
-6.18613e-07
3.79312e-06
3.3437e-07
2.72582e-06
1.47594e-06
-7.39526e-07
4.61974e-06
-5.05207e-06
8.30386e-06
-7.56003e-06
7.8047e-06
-8.98124e-06
4.55221e-06
-9.64476e-06
1.85381e-06
-1.00334e-05
9.70855e-07
-1.04496e-05
9.46529e-07
-1.09139e-05
9.4795e-07
-1.13777e-05
8.35387e-07
-1.18083e-05
7.14329e-07
-1.21802e-05
6.14243e-07
-1.24661e-05
4.95998e-07
-1.26393e-05
3.27026e-07
-1.2676e-05
1.03265e-07
-1.25574e-05
-1.66126e-07
-1.22719e-05
-4.69754e-07
-1.18099e-05
-8.00577e-07
-1.11655e-05
-1.15155e-06
-1.03337e-05
-1.52023e-06
-9.30901e-06
-1.90653e-06
-8.08579e-06
-2.31122e-06
-6.65897e-06
-2.73436e-06
-5.02246e-06
-3.17565e-06
-3.15943e-06
-3.64338e-06
-1.06087e-06
-4.15191e-06
9.65464e-07
-4.50007e-06
2.96357e-06
-4.3443e-06
4.94699e-06
-4.07918e-06
6.84122e-06
-3.81944e-06
8.62157e-06
-3.56906e-06
1.02788e-05
-3.31043e-06
1.18059e-05
-3.03911e-06
1.31979e-05
-2.75937e-06
1.44533e-05
-2.47719e-06
1.5573e-05
-2.19778e-06
1.65606e-05
-1.92524e-06
1.74208e-05
-1.66269e-06
1.81597e-05
-1.41228e-06
1.87839e-05
-1.17538e-06
1.93002e-05
-9.52714e-07
1.97158e-05
-7.44565e-07
2.00374e-05
-5.50981e-07
2.02719e-05
-3.71945e-07
2.04254e-05
-2.07528e-07
2.05029e-05
-5.75482e-08
2.05098e-05
7.84978e-08
2.0452e-05
2.0076e-07
2.03358e-05
3.10265e-07
2.01668e-05
4.07855e-07
1.99505e-05
4.94024e-07
1.96922e-05
5.69129e-07
1.9397e-05
6.33448e-07
1.90698e-05
6.8721e-07
1.87156e-05
7.30585e-07
1.83391e-05
7.63706e-07
1.7945e-05
7.86709e-07
1.75379e-05
7.99807e-07
1.71223e-05
8.03422e-07
1.67021e-05
7.984e-07
1.62806e-05
7.86339e-07
1.58596e-05
7.70068e-07
1.54391e-05
7.54266e-07
1.50157e-05
7.46184e-07
1.45819e-05
7.56304e-07
1.41243e-05
7.98641e-07
1.36236e-05
8.90305e-07
1.30536e-05
1.04989e-06
1.23833e-05
1.29444e-06
1.15808e-05
1.63489e-06
1.0621e-05
2.0688e-06
9.49645e-06
2.56484e-06
8.22127e-06
3.061e-06
6.87658e-06
3.76751e-06
5.85177e-06
5.97101e-06
3.01081e-06
6.9281e-06
-1.27826e-06
7.14008e-06
-4.83431e-06
3.87373e-06
-6.06068e-06
1.31594e-06
-6.30486e-06
2.34666e-07
-6.48142e-06
1.29989e-07
-6.56294e-06
-5.58976e-08
-6.43251e-06
-4.60589e-07
-6.00137e-06
-1.08773e-06
-5.12401e-06
-2.03303e-06
-3.67076e-06
-3.33179e-06
-1.61556e-06
-4.88055e-06
6.70138e-07
-6.04164e-06
2.5024e-06
-3.65833e-06
2.19654e-06
7.70824e-07
5.90577e-06
-1.26668e-06
7.03095e-06
-8.75088e-07
-1.31935e-06
-1.50417e-08
-3.98166e-06
1.04443e-06
-4.4516e-06
2.07509e-06
-4.13214e-06
2.88504e-06
-3.27434e-06
3.24201e-06
-1.93524e-06
3.22227e-06
-5.98874e-07
1.78194e-06
1.7747e-06
-1.33096e-06
4.58884e-06
-5.16711e-06
8.45588e-06
-7.26067e-06
1.03974e-05
-8.32699e-06
8.87102e-06
-8.81917e-06
5.04439e-06
-9.20597e-06
2.24061e-06
-9.66785e-06
1.43273e-06
-1.01452e-05
1.42388e-06
-1.06357e-05
1.43844e-06
-1.11405e-05
1.34016e-06
-1.16064e-05
1.18028e-06
-1.19727e-05
9.80505e-07
-1.22034e-05
7.26747e-07
-1.22838e-05
4.07359e-07
-1.2205e-05
2.44811e-08
-1.19622e-05
-4.08877e-07
-1.15543e-05
-8.77643e-07
-1.09816e-05
-1.37329e-06
-1.0241e-05
-1.89217e-06
-9.32825e-06
-2.43299e-06
-8.23905e-06
-2.99573e-06
-6.96985e-06
-3.58042e-06
-5.51823e-06
-4.18598e-06
-3.88344e-06
-4.81044e-06
-2.07436e-06
-5.45245e-06
-1.46076e-07
-6.08019e-06
1.66376e-06
-6.30991e-06
3.46766e-06
-6.1482e-06
5.28544e-06
-5.89695e-06
7.06034e-06
-5.59434e-06
8.74814e-06
-5.25687e-06
1.0327e-05
-4.88925e-06
1.17853e-05
-4.4974e-06
1.31165e-05
-4.09065e-06
1.43182e-05
-3.67887e-06
1.5391e-05
-3.27051e-06
1.63378e-05
-2.87213e-06
1.71636e-05
-2.48846e-06
1.7874e-05
-2.1227e-06
1.84754e-05
-1.77672e-06
1.89741e-05
-1.45145e-06
1.93767e-05
-1.14714e-06
1.96893e-05
-8.63614e-07
1.99179e-05
-6.00548e-07
2.0068e-05
-3.57577e-07
2.01448e-05
-1.34368e-07
2.01538e-05
6.94493e-08
2.01e-05
2.5464e-07
1.99882e-05
4.21979e-07
1.98236e-05
5.72469e-07
1.96109e-05
7.06787e-07
1.93545e-05
8.25495e-07
1.90589e-05
9.29078e-07
1.87281e-05
1.01796e-06
1.83662e-05
1.0925e-06
1.79769e-05
1.15298e-06
1.7564e-05
1.19962e-06
1.71311e-05
1.23274e-06
1.66817e-05
1.25284e-06
1.62191e-05
1.26092e-06
1.57466e-05
1.25889e-06
1.52666e-05
1.25009e-06
1.47808e-05
1.23999e-06
1.429e-05
1.23699e-06
1.37933e-05
1.25306e-06
1.32878e-05
1.30407e-06
1.27689e-05
1.40922e-06
1.22298e-05
1.58904e-06
1.16628e-05
1.86139e-06
1.10625e-05
2.23523e-06
1.04299e-05
2.70142e-06
9.77544e-06
3.21928e-06
9.11492e-06
3.72152e-06
8.55617e-06
4.32626e-06
8.45167e-06
6.07551e-06
7.5213e-06
7.85847e-06
5.73529e-06
8.92609e-06
1.67928e-06
7.92975e-06
-2.15648e-06
5.15169e-06
-4.13373e-06
2.21191e-06
-4.60465e-06
6.00914e-07
-4.91319e-06
2.5264e-07
-5.0107e-06
-3.63079e-07
-4.83124e-06
-1.26718e-06
-4.28114e-06
-2.58313e-06
-3.2745e-06
-4.33843e-06
-1.8296e-06
-6.32545e-06
-3.41934e-07
-7.52931e-06
1.34934e-06
-5.34961e-06
1.3791e-06
7.41062e-07
7.28487e-06
-8.70546e-07
7.9015e-06
-4.62063e-07
-1.72783e-06
1.60698e-07
-4.60442e-06
8.77757e-07
-5.16866e-06
1.53003e-06
-4.78441e-06
1.94417e-06
-3.68849e-06
1.85711e-06
-1.84817e-06
3.93182e-07
8.65051e-07
-2.28861e-06
4.45649e-06
-5.35999e-06
7.66023e-06
-7.43261e-06
1.05285e-05
-8.4701e-06
1.14349e-05
-8.74837e-06
9.14928e-06
-8.84683e-06
5.14285e-06
-9.19284e-06
2.58662e-06
-9.68897e-06
1.92886e-06
-1.01744e-05
1.90935e-06
-1.0633e-05
1.89698e-06
-1.10594e-05
1.76659e-06
-1.14144e-05
1.53531e-06
-1.16555e-05
1.22162e-06
-1.17578e-05
8.29036e-07
-1.17112e-05
3.60708e-07
-1.15109e-05
-1.75777e-07
-1.11612e-05
-7.58617e-07
-1.06633e-05
-1.37554e-06
-1.00145e-05
-2.02207e-06
-9.2111e-06
-2.69558e-06
-8.24946e-06
-3.39464e-06
-7.12708e-06
-4.11811e-06
-5.84333e-06
-4.86416e-06
-4.39985e-06
-5.62946e-06
-2.80154e-06
-6.40875e-06
-1.06974e-06
-7.18425e-06
6.43147e-07
-7.79308e-06
2.27689e-06
-7.94365e-06
3.95644e-06
-7.82776e-06
5.64444e-06
-7.58495e-06
7.29782e-06
-7.24772e-06
8.87845e-06
-6.8375e-06
1.03615e-05
-6.37229e-06
1.17328e-05
-5.86868e-06
1.29848e-05
-5.34269e-06
1.41148e-05
-4.80885e-06
1.51233e-05
-4.27908e-06
1.60136e-05
-3.76243e-06
1.67904e-05
-3.26525e-06
1.74593e-05
-2.79161e-06
1.80264e-05
-2.3438e-06
1.84977e-05
-1.92274e-06
1.88791e-05
-1.52847e-06
1.91759e-05
-1.16049e-06
1.93934e-05
-8.18051e-07
1.95362e-05
-5.00386e-07
1.96087e-05
-2.06839e-07
1.96151e-05
6.30737e-08
1.95596e-05
3.10139e-07
1.94464e-05
5.35152e-07
1.92799e-05
7.38991e-07
1.90643e-05
9.22394e-07
1.88037e-05
1.08604e-06
1.85022e-05
1.2306e-06
1.81635e-05
1.35669e-06
1.77911e-05
1.46491e-06
1.73883e-05
1.55574e-06
1.69584e-05
1.62959e-06
1.65042e-05
1.68685e-06
1.6029e-05
1.72809e-06
1.55357e-05
1.75427e-06
1.50273e-05
1.76726e-06
1.4507e-05
1.77036e-06
1.39781e-05
1.76895e-06
1.34438e-05
1.77126e-06
1.29079e-05
1.78891e-06
1.23749e-05
1.83708e-06
1.18503e-05
1.93389e-06
1.1341e-05
2.09828e-06
1.08564e-05
2.34602e-06
1.04082e-05
2.68341e-06
1.00107e-05
3.09895e-06
9.67581e-06
3.55412e-06
9.40566e-06
3.99168e-06
9.25288e-06
4.47905e-06
9.55033e-06
5.77806e-06
9.63259e-06
7.77621e-06
8.90287e-06
9.65581e-06
6.82067e-06
1.00119e-05
3.32246e-06
8.6499e-06
-4.68236e-07
6.00261e-06
-2.6705e-06
2.80318e-06
-3.26622e-06
8.48361e-07
-3.59342e-06
-3.58819e-08
-3.65896e-06
-1.20164e-06
-3.45206e-06
-2.79003e-06
-2.88644e-06
-4.90405e-06
-1.9379e-06
-7.27399e-06
-8.98086e-07
-8.56912e-06
4.90104e-07
-6.7378e-06
9.21645e-07
3.09521e-07
8.20651e-06
-5.98843e-07
8.50034e-06
-2.94297e-07
-2.03237e-06
3.27409e-08
-4.93146e-06
3.20064e-07
-5.45599e-06
4.08465e-07
-4.87281e-06
2.30909e-08
-3.30312e-06
-1.25576e-06
-5.69315e-07
-3.48163e-06
3.09092e-06
-5.54086e-06
6.51572e-06
-7.44803e-06
9.56739e-06
-8.65832e-06
1.17388e-05
-9.01769e-06
1.17943e-05
-8.87711e-06
9.0087e-06
-8.85404e-06
5.11978e-06
-9.18563e-06
2.9182e-06
-9.64615e-06
2.38939e-06
-1.00874e-05
2.35057e-06
-1.04763e-05
2.28593e-06
-1.07983e-05
2.08856e-06
-1.10283e-05
1.76529e-06
-1.11415e-05
1.33485e-06
-1.11227e-05
8.10248e-07
-1.09661e-05
2.04051e-07
-1.06727e-05
-4.69119e-07
-1.02447e-05
-1.18665e-06
-9.67974e-06
-1.94049e-06
-8.97447e-06
-2.72734e-06
-8.12595e-06
-3.5441e-06
-7.13257e-06
-4.38801e-06
-5.99467e-06
-5.25601e-06
-4.71522e-06
-6.14361e-06
-3.30086e-06
-7.04383e-06
-1.76738e-06
-7.94224e-06
-1.56909e-07
-8.79471e-06
1.37299e-06
-9.32299e-06
2.88585e-06
-9.45651e-06
4.44344e-06
-9.38535e-06
6.00761e-06
-9.14911e-06
7.5383e-06
-8.77841e-06
9.00261e-06
-8.30181e-06
1.03771e-05
-7.7468e-06
1.16475e-05
-7.13901e-06
1.28062e-05
-6.50139e-06
1.38508e-05
-5.85345e-06
1.47824e-05
-5.21067e-06
1.56044e-05
-4.5845e-06
1.63219e-05
-3.98272e-06
1.69404e-05
-3.41013e-06
1.74658e-05
-2.86918e-06
1.79037e-05
-2.36063e-06
1.82593e-05
-1.88412e-06
1.85375e-05
-1.43864e-06
1.87424e-05
-1.02293e-06
1.88777e-05
-6.35737e-07
1.89469e-05
-2.76007e-07
1.8953e-05
5.69237e-08
1.88992e-05
3.63979e-07
1.87887e-05
6.45623e-07
1.86252e-05
9.02539e-07
1.84122e-05
1.13532e-06
1.81537e-05
1.34461e-06
1.78532e-05
1.53111e-06
1.75143e-05
1.69559e-06
1.71404e-05
1.83882e-06
1.67346e-05
1.96152e-06
1.62999e-05
2.06428e-06
1.58391e-05
2.14763e-06
1.53551e-05
2.21212e-06
1.48507e-05
2.25861e-06
1.43293e-05
2.28866e-06
1.37946e-05
2.30513e-06
1.32507e-05
2.3128e-06
1.2703e-05
2.31897e-06
1.2158e-05
2.33395e-06
1.1624e-05
2.37107e-06
1.11119e-05
2.44594e-06
1.06358e-05
2.57445e-06
1.02125e-05
2.7693e-06
9.86109e-06
3.03479e-06
9.59932e-06
3.36073e-06
9.43588e-06
3.71755e-06
9.36179e-06
4.06577e-06
9.39369e-06
4.44715e-06
9.79856e-06
5.37319e-06
1.03233e-05
7.25146e-06
1.03643e-05
9.61479e-06
9.31557e-06
1.10607e-05
7.06858e-06
1.08969e-05
3.92605e-06
9.14513e-06
5.2971e-07
6.19952e-06
-1.44745e-06
2.82552e-06
-2.10504e-06
6.21707e-07
-2.41432e-06
-8.9236e-07
-2.54426e-06
-2.66009e-06
-2.40886e-06
-5.03945e-06
-1.90402e-06
-7.77884e-06
-1.15301e-06
-9.32012e-06
-2.01556e-07
-7.68925e-06
6.52777e-07
-5.44812e-07
8.85929e-06
-4.38218e-07
8.93856e-06
-3.6598e-07
-2.10461e-06
-3.99386e-07
-4.89805e-06
-6.14436e-07
-5.24094e-06
-1.18355e-06
-4.3037e-06
-2.32697e-06
-2.1597e-06
-4.04692e-06
1.15064e-06
-5.70874e-06
4.75273e-06
-7.22674e-06
8.03372e-06
-8.44791e-06
1.07886e-05
-9.06841e-06
1.23593e-05
-9.02955e-06
1.17554e-05
-8.72309e-06
8.70225e-06
-8.68867e-06
5.08536e-06
-8.99585e-06
3.22539e-06
-9.40568e-06
2.79922e-06
-9.79007e-06
2.73496e-06
-1.01055e-05
2.60138e-06
-1.03339e-05
2.31697e-06
-1.04598e-05
1.89111e-06
-1.04699e-05
1.34502e-06
-1.03562e-05
6.96496e-07
-1.01132e-05
-3.89157e-08
-9.74475e-06
-8.37567e-07
-9.25207e-06
-1.67933e-06
-8.63098e-06
-2.56158e-06
-7.87907e-06
-3.47925e-06
-6.99564e-06
-4.42754e-06
-5.98196e-06
-5.40169e-06
-4.84166e-06
-6.39632e-06
-3.58118e-06
-7.40409e-06
-2.21067e-06
-8.41434e-06
-7.52509e-07
-9.4004e-06
6.94061e-07
-1.02413e-05
2.07259e-06
-1.07015e-05
3.48697e-06
-1.08709e-05
4.92981e-06
-1.08282e-05
6.37087e-06
-1.05902e-05
7.7763e-06
-1.01838e-05
9.11752e-06
-9.64302e-06
1.03737e-05
-9.00303e-06
1.1532e-05
-8.29731e-06
1.2586e-05
-7.55539e-06
1.35342e-05
-6.80164e-06
1.43785e-05
-6.05495e-06
1.51229e-05
-5.32891e-06
1.57727e-05
-4.63249e-06
1.63335e-05
-3.97093e-06
1.68109e-05
-3.34662e-06
1.72102e-05
-2.75993e-06
1.7536e-05
-2.20993e-06
1.77924e-05
-1.69497e-06
1.79826e-05
-1.21315e-06
1.81095e-05
-7.62622e-07
1.81753e-05
-3.41871e-07
1.81821e-05
5.0111e-08
1.81319e-05
4.14194e-07
1.8027e-05
7.5056e-07
1.78701e-05
1.05946e-06
1.76642e-05
1.34118e-06
1.74127e-05
1.59611e-06
1.7119e-05
1.82485e-06
1.67864e-05
2.02814e-06
1.64184e-05
2.20682e-06
1.60182e-05
2.36177e-06
1.55887e-05
2.49376e-06
1.51329e-05
2.60343e-06
1.46537e-05
2.69133e-06
1.41542e-05
2.7581e-06
1.3638e-05
2.8049e-06
1.31092e-05
2.83392e-06
1.2573e-05
2.84898e-06
1.20358e-05
2.85613e-06
1.15058e-05
2.86402e-06
1.0993e-05
2.88383e-06
1.05104e-05
2.92851e-06
1.00739e-05
3.01102e-06
9.70162e-06
3.14154e-06
9.41278e-06
3.32363e-06
9.22309e-06
3.55043e-06
9.13779e-06
3.80285e-06
9.14541e-06
4.05815e-06
9.24684e-06
4.34572e-06
9.62183e-06
4.99821e-06
1.02758e-05
6.59749e-06
1.07595e-05
9.13106e-06
1.04384e-05
1.13818e-05
9.05764e-06
1.22777e-05
6.76469e-06
1.14381e-05
3.93016e-06
9.03405e-06
1.13048e-06
5.6252e-06
-4.67711e-07
2.2199e-06
-1.13409e-06
-2.25986e-07
-1.51223e-06
-2.28194e-06
-1.7805e-06
-4.77118e-06
-1.67729e-06
-7.88204e-06
-1.22231e-06
-9.7751e-06
-6.0203e-07
-8.30954e-06
4.57952e-07
-1.60479e-06
9.31724e-06
-3.85295e-07
9.32385e-06
-6.23108e-07
-1.8668e-06
-1.04228e-06
-4.47888e-06
-1.73301e-06
-4.55021e-06
-2.79166e-06
-3.24506e-06
-4.19924e-06
-7.52116e-07
-5.63579e-06
2.58719e-06
-6.85283e-06
5.96977e-06
-7.91112e-06
9.09201e-06
-8.64241e-06
1.15199e-05
-8.86875e-06
1.25856e-05
-8.62953e-06
1.15162e-05
-8.30376e-06
8.37648e-06
-8.30623e-06
5.08782e-06
-8.6027e-06
3.52186e-06
-8.97652e-06
3.17304e-06
-9.31127e-06
3.06971e-06
-9.56296e-06
2.85307e-06
-9.71525e-06
2.46926e-06
-9.75864e-06
1.9345e-06
-9.68588e-06
1.27226e-06
-9.49291e-06
5.03523e-07
-9.17778e-06
-3.54038e-07
-8.74616e-06
-1.26919e-06
-8.1956e-06
-2.22989e-06
-7.5242e-06
-3.23297e-06
-6.73221e-06
-4.27125e-06
-5.82202e-06
-5.33772e-06
-4.7983e-06
-6.42541e-06
-3.66774e-06
-7.52688e-06
-2.44014e-06
-8.63168e-06
-1.13016e-06
-9.72432e-06
2.2104e-07
-1.07516e-05
1.50367e-06
-1.15239e-05
2.7726e-06
-1.19705e-05
4.08389e-06
-1.21822e-05
5.41276e-06
-1.21571e-05
6.72992e-06
-1.19073e-05
8.00676e-06
-1.14607e-05
9.21907e-06
-1.08553e-05
1.03494e-05
-1.01333e-05
1.13872e-05
-9.3351e-06
1.23279e-05
-8.49613e-06
1.31716e-05
-7.6453e-06
1.39211e-05
-6.80448e-06
1.45812e-05
-5.98903e-06
1.51575e-05
-5.20875e-06
1.56555e-05
-4.46898e-06
1.60807e-05
-3.77179e-06
1.64377e-05
-3.11697e-06
1.67306e-05
-2.50283e-06
1.69626e-05
-1.92698e-06
1.71363e-05
-1.38676e-06
1.72534e-05
-8.79713e-07
1.73153e-05
-4.03773e-07
1.7323e-05
4.24108e-08
1.72773e-05
4.59818e-07
1.71797e-05
8.48205e-07
1.70318e-05
1.20731e-06
1.68361e-05
1.53692e-06
1.65952e-05
1.83701e-06
1.63122e-05
2.10781e-06
1.59905e-05
2.34986e-06
1.56334e-05
2.56393e-06
1.52443e-05
2.75091e-06
1.48263e-05
2.91169e-06
1.43828e-05
3.04695e-06
1.39169e-05
3.15722e-06
1.34321e-05
3.24291e-06
1.29323e-05
3.30471e-06
1.24222e-05
3.34403e-06
1.19075e-05
3.36366e-06
1.13954e-05
3.36828e-06
1.08945e-05
3.36489e-06
1.04157e-05
3.36267e-06
9.9718e-06
3.37236e-06
9.57801e-06
3.40481e-06
9.25079e-06
3.46875e-06
9.0062e-06
3.56822e-06
8.8563e-06
3.70032e-06
8.8041e-06
3.85505e-06
8.84012e-06
4.02214e-06
8.95993e-06
4.22591e-06
9.27073e-06
4.68741e-06
9.88882e-06
5.97939e-06
1.05641e-05
8.45576e-06
1.07127e-05
1.12332e-05
9.96982e-06
1.30206e-05
8.34275e-06
1.30652e-05
6.10387e-06
1.12729e-05
3.64614e-06
8.08293e-06
1.55961e-06
4.30643e-06
3.56841e-07
9.7678e-07
-3.32535e-07
-1.59257e-06
-9.76066e-07
-4.12765e-06
-1.25611e-06
-7.602e-06
-1.09442e-06
-9.93679e-06
-5.99387e-07
-8.80457e-06
3.39016e-07
-2.5432e-06
9.65626e-06
-4.11281e-07
9.73514e-06
-9.67653e-07
-1.31043e-06
-1.715e-06
-3.73153e-06
-2.72047e-06
-3.54473e-06
-3.95509e-06
-2.01044e-06
-5.26803e-06
5.60832e-07
-6.36461e-06
3.68376e-06
-7.26e-06
6.86517e-06
-7.93732e-06
9.76934e-06
-8.2959e-06
1.18784e-05
-8.25963e-06
1.25494e-05
-7.9343e-06
1.11909e-05
-7.66176e-06
8.10394e-06
-7.73079e-06
5.15685e-06
-8.04658e-06
3.83766e-06
-8.40585e-06
3.5323e-06
-8.70272e-06
3.36659e-06
-8.90114e-06
3.05148e-06
-8.98981e-06
2.55793e-06
-8.96388e-06
1.90857e-06
-8.81995e-06
1.12833e-06
-8.55724e-06
2.40811e-07
-8.17858e-06
-7.32704e-07
-7.68786e-06
-1.7599e-06
-7.08302e-06
-2.83474e-06
-6.36571e-06
-3.95029e-06
-5.5397e-06
-5.09725e-06
-4.61107e-06
-6.26635e-06
-3.58765e-06
-7.44883e-06
-2.47899e-06
-8.63554e-06
-1.29588e-06
-9.81478e-06
-6.09866e-08
-1.09592e-05
1.1374e-06
-1.195e-05
2.28533e-06
-1.26718e-05
3.46781e-06
-1.31529e-05
4.67619e-06
-1.33906e-05
5.8889e-06
-1.33698e-05
7.07998e-06
-1.30984e-05
8.2249e-06
-1.26056e-05
9.3037e-06
-1.19341e-05
1.03026e-05
-1.11323e-05
1.12142e-05
-1.02467e-05
1.20363e-05
-9.31826e-06
1.27707e-05
-8.37968e-06
1.34215e-05
-7.45527e-06
1.39941e-05
-6.56162e-06
1.44942e-05
-5.70886e-06
1.49274e-05
-4.90211e-06
1.52984e-05
-4.14283e-06
1.56115e-05
-3.43003e-06
1.58698e-05
-2.7612e-06
1.60759e-05
-2.13308e-06
1.62314e-05
-1.54227e-06
1.63374e-05
-9.85637e-07
1.63942e-05
-4.60586e-07
1.64019e-05
3.46638e-08
1.63605e-05
5.01204e-07
1.62703e-05
9.38422e-07
1.61322e-05
1.34543e-06
1.59477e-05
1.7214e-06
1.5719e-05
2.06567e-06
1.54489e-05
2.37795e-06
1.51404e-05
2.65833e-06
1.4797e-05
2.90733e-06
1.44222e-05
3.12573e-06
1.40195e-05
3.31438e-06
1.35925e-05
3.47399e-06
1.31447e-05
3.60499e-06
1.26801e-05
3.70756e-06
1.22029e-05
3.78191e-06
1.17182e-05
3.82869e-06
1.12322e-05
3.84966e-06
1.07523e-05
3.84825e-06
1.02872e-05
3.82995e-06
9.8475e-06
3.80236e-06
9.44524e-06
3.77462e-06
9.09381e-06
3.75624e-06
8.80706e-06
3.7555e-06
8.59765e-06
3.77763e-06
8.47441e-06
3.82356e-06
8.43915e-06
3.89031e-06
8.48503e-06
3.97625e-06
8.60639e-06
4.10455e-06
8.86143e-06
4.43237e-06
9.38153e-06
5.45929e-06
1.0081e-05
7.75629e-06
1.04844e-05
1.08298e-05
1.01718e-05
1.33332e-05
9.04747e-06
1.41895e-05
7.28905e-06
1.30314e-05
5.22279e-06
1.01492e-05
3.23165e-06
6.29757e-06
1.7592e-06
2.44923e-06
8.17406e-07
-6.50777e-07
-2.06707e-08
-3.28957e-06
-6.80526e-07
-6.94214e-06
-7.99968e-07
-9.81735e-06
-4.75281e-07
-9.12926e-06
2.53275e-07
-3.27175e-06
9.90953e-06
-4.82265e-07
1.02174e-05
-1.3052e-06
-4.87497e-07
-2.28297e-06
-2.75376e-06
-3.44597e-06
-2.38174e-06
-4.688e-06
-7.68406e-07
-5.79632e-06
1.66915e-06
-6.61581e-06
4.50325e-06
-7.21743e-06
7.46678e-06
-7.57252e-06
1.01244e-05
-7.63838e-06
1.19443e-05
-7.4187e-06
1.23297e-05
-7.06447e-06
1.08366e-05
-6.87434e-06
7.91381e-06
-7.03214e-06
5.31465e-06
-7.39131e-06
4.19683e-06
-7.74859e-06
3.88958e-06
-8.01434e-06
3.63234e-06
-8.16524e-06
3.20238e-06
-8.19699e-06
2.58969e-06
-8.10946e-06
1.82104e-06
-7.90256e-06
9.21439e-07
-7.57362e-06
-8.81327e-08
-7.13105e-06
-1.17527e-06
-6.58132e-06
-2.30964e-06
-5.92489e-06
-3.49116e-06
-5.16643e-06
-4.70874e-06
-4.31347e-06
-5.95022e-06
-3.37558e-06
-7.20424e-06
-2.36362e-06
-8.4608e-06
-1.28752e-06
-9.71164e-06
-1.64289e-07
-1.0938e-05
9.45329e-07
-1.20688e-05
2.0006e-06
-1.30053e-05
3.06335e-06
-1.37346e-05
4.15467e-06
-1.42443e-05
5.2584e-06
-1.44943e-05
6.35299e-06
-1.44644e-05
7.41566e-06
-1.41611e-05
8.42589e-06
-1.36158e-05
9.36805e-06
-1.28763e-05
1.02325e-05
-1.19967e-05
1.10151e-05
-1.10294e-05
1.17166e-05
-1.00198e-05
1.23406e-05
-9.00364e-06
1.28923e-05
-8.00699e-06
1.33776e-05
-7.04696e-06
1.38023e-05
-6.13349e-06
1.41712e-05
-5.27109e-06
1.44888e-05
-4.46036e-06
1.47582e-05
-3.69941e-06
1.49818e-05
-2.98485e-06
1.51613e-05
-2.31259e-06
1.52976e-05
-1.6785e-06
1.53908e-05
-1.07884e-06
1.54407e-05
-5.1052e-07
1.54467e-05
2.86595e-08
1.54079e-05
5.39992e-07
1.53238e-05
1.02256e-06
1.51944e-05
1.47483e-06
1.50205e-05
1.89522e-06
1.48039e-05
2.28231e-06
1.45468e-05
2.63507e-06
1.42521e-05
2.95297e-06
1.39234e-05
3.23608e-06
1.35642e-05
3.48492e-06
1.31784e-05
3.7002e-06
1.27698e-05
3.88257e-06
1.23424e-05
4.03235e-06
1.19005e-05
4.14947e-06
1.14488e-05
4.23367e-06
1.09925e-05
4.28492e-06
1.05382e-05
4.30404e-06
1.0093e-05
4.29337e-06
9.66578e-06
4.2572e-06
9.26624e-06
4.20191e-06
8.90529e-06
4.13557e-06
8.59449e-06
4.06705e-06
8.34522e-06
4.00477e-06
8.16735e-06
3.9555e-06
8.06739e-06
3.92352e-06
8.0465e-06
3.91119e-06
8.09976e-06
3.923e-06
8.22115e-06
3.98316e-06
8.43844e-06
4.21507e-06
8.85565e-06
5.04208e-06
9.48464e-06
7.12729e-06
9.97886e-06
1.03356e-05
9.91767e-06
1.33944e-05
9.13808e-06
1.49691e-05
7.75176e-06
1.44177e-05
6.02466e-06
1.18763e-05
4.26256e-06
8.05967e-06
2.74139e-06
3.9704e-06
1.6293e-06
4.6132e-07
8.04168e-07
-2.46444e-06
4.83963e-09
-6.14281e-06
-4.18396e-07
-9.39411e-06
-3.10553e-07
-9.2371e-06
1.97483e-07
-3.77979e-06
1.0107e-05
-5.74799e-07
1.07922e-05
-1.56118e-06
4.98883e-07
-2.68409e-06
-1.63084e-06
-3.89045e-06
-1.17538e-06
-5.04801e-06
3.89149e-07
-5.94475e-06
2.56589e-06
-6.57161e-06
5.13011e-06
-6.93205e-06
7.82722e-06
-7.02404e-06
1.02164e-05
-6.85963e-06
1.17799e-05
-6.50606e-06
1.19761e-05
-6.14738e-06
1.0478e-05
-6.0472e-06
7.81363e-06
-6.30079e-06
5.56824e-06
-6.70427e-06
4.60032e-06
-7.05611e-06
4.24141e-06
-7.28821e-06
3.86444e-06
-7.39069e-06
3.30486e-06
-7.36582e-06
2.56482e-06
-7.21591e-06
1.67113e-06
-6.94268e-06
6.48211e-07
-6.54779e-06
-4.83024e-07
-6.04569e-06
-1.67736e-06
-5.44037e-06
-2.91496e-06
-4.73677e-06
-4.19476e-06
-3.94341e-06
-5.50211e-06
-3.07182e-06
-6.8218e-06
-2.13527e-06
-8.14079e-06
-1.14475e-06
-9.45132e-06
-1.16047e-07
-1.07403e-05
9.04091e-07
-1.19582e-05
1.87638e-06
-1.30411e-05
2.83941e-06
-1.39683e-05
3.82549e-06
-1.47207e-05
4.82563e-06
-1.52444e-05
5.8232e-06
-1.54919e-05
6.7981e-06
-1.54393e-05
7.73065e-06
-1.50936e-05
8.60453e-06
-1.44897e-05
9.40875e-06
-1.36805e-05
1.0138e-05
-1.2726e-05
1.07922e-05
-1.16835e-05
1.13745e-05
-1.06021e-05
1.18906e-05
-9.51971e-06
1.23466e-05
-8.46299e-06
1.27485e-05
-7.44889e-06
1.31016e-05
-6.48659e-06
1.34101e-05
-5.57958e-06
1.36772e-05
-4.72745e-06
1.39051e-05
-3.92734e-06
1.40953e-05
-3.17503e-06
1.42484e-05
-2.46571e-06
1.43646e-05
-1.79467e-06
1.44434e-05
-1.15766e-06
1.44841e-05
-5.51227e-07
1.44856e-05
2.72119e-08
1.44464e-05
5.79201e-07
1.43653e-05
1.10363e-06
1.42418e-05
1.59832e-06
1.40761e-05
2.06092e-06
1.38694e-05
2.48908e-06
1.36235e-05
2.88088e-06
1.33415e-05
3.23503e-06
1.30266e-05
3.55098e-06
1.26826e-05
3.82886e-06
1.23137e-05
4.06917e-06
1.19238e-05
4.2724e-06
1.15174e-05
4.43875e-06
1.1099e-05
4.5679e-06
1.06735e-05
4.65916e-06
1.02466e-05
4.71188e-06
9.82451e-06
4.7261e-06
9.41463e-06
4.70324e-06
9.02516e-06
4.64667e-06
8.66516e-06
4.56191e-06
8.34435e-06
4.45637e-06
8.07269e-06
4.33871e-06
7.8596e-06
4.21786e-06
7.7129e-06
4.10221e-06
7.63742e-06
3.99901e-06
7.63371e-06
3.91491e-06
7.69754e-06
3.85917e-06
7.82219e-06
3.85851e-06
8.0167e-06
4.02056e-06
8.34767e-06
4.71111e-06
8.86402e-06
6.61095e-06
9.33516e-06
9.86444e-06
9.38038e-06
1.33491e-05
8.80834e-06
1.55412e-05
7.69092e-06
1.55351e-05
6.25429e-06
1.33129e-05
4.75333e-06
9.56063e-06
3.39171e-06
5.33202e-06
2.23807e-06
1.61496e-06
1.35788e-06
-1.58425e-06
5.75502e-07
-5.36044e-06
1.81542e-08
-8.83676e-06
-1.34691e-07
-9.08426e-06
1.67768e-07
-4.08225e-06
1.02748e-05
-6.64492e-07
1.14567e-05
-1.7279e-06
1.5623e-06
-2.91524e-06
-4.43505e-07
-4.09081e-06
1.9386e-10
-5.11398e-06
1.41232e-06
-5.8752e-06
3.32711e-06
-6.3596e-06
5.61451e-06
-6.54125e-06
8.00888e-06
-6.43765e-06
1.01128e-05
-6.10367e-06
1.14459e-05
-5.65607e-06
1.15285e-05
-5.30608e-06
1.0128e-05
-5.28944e-06
7.79699e-06
-5.61915e-06
5.89795e-06
-6.04127e-06
5.02244e-06
-6.36907e-06
4.56922e-06
-6.55615e-06
4.05152e-06
-6.6033e-06
3.35201e-06
-6.51716e-06
2.47867e-06
-6.30144e-06
1.45541e-06
-5.96012e-06
3.06886e-07
-5.5007e-06
-9.42444e-07
-4.94126e-06
-2.2368e-06
-4.28456e-06
-3.57166e-06
-3.5394e-06
-4.93992e-06
-2.7186e-06
-6.32291e-06
-1.83755e-06
-7.70285e-06
-9.13286e-07
-9.06506e-06
4.11054e-08
-1.04057e-05
9.79338e-07
-1.16786e-05
1.87519e-06
-1.2854e-05
2.75646e-06
-1.39224e-05
3.65346e-06
-1.48653e-05
4.56257e-06
-1.56298e-05
5.47108e-06
-1.61529e-05
6.36173e-06
-1.63825e-05
7.21605e-06
-1.62936e-05
8.01775e-06
-1.58953e-05
8.75516e-06
-1.52271e-05
9.4223e-06
-1.43477e-05
1.00186e-05
-1.33223e-05
1.05479e-05
-1.22127e-05
1.10161e-05
-1.10704e-05
1.14305e-05
-9.93407e-06
1.17977e-05
-8.83017e-06
1.21233e-05
-7.77454e-06
1.24117e-05
-6.77501e-06
1.26659e-05
-5.83374e-06
1.28876e-05
-4.94919e-06
1.30779e-05
-4.11761e-06
1.32369e-05
-3.33408e-06
1.33646e-05
-2.59333e-06
1.34601e-05
-1.89024e-06
1.35227e-05
-1.22027e-06
1.35513e-05
-5.79804e-07
1.35445e-05
3.40384e-08
1.35006e-05
6.2308e-07
1.34181e-05
1.18611e-06
1.32961e-05
1.72039e-06
1.31342e-05
2.22274e-06
1.29335e-05
2.68985e-06
1.26956e-05
3.11879e-06
1.24232e-05
3.50736e-06
1.21199e-05
3.85433e-06
1.17894e-05
4.15933e-06
1.1436e-05
4.42256e-06
1.1064e-05
4.64437e-06
1.0678e-05
4.82477e-06
1.02827e-05
4.96322e-06
9.88321e-06
5.05863e-06
9.48528e-06
5.10982e-06
9.09523e-06
5.11615e-06
8.72016e-06
5.07832e-06
8.36783e-06
4.999e-06
8.04662e-06
4.88311e-06
7.76527e-06
4.73773e-06
7.53242e-06
4.57156e-06
7.35597e-06
4.39431e-06
7.2421e-06
4.21607e-06
7.1942e-06
4.04691e-06
7.21184e-06
3.89726e-06
7.29033e-06
3.78068e-06
7.42136e-06
3.72747e-06
7.60174e-06
3.84018e-06
7.86425e-06
4.4486e-06
8.25595e-06
6.21925e-06
8.63122e-06
9.48917e-06
8.67199e-06
1.33084e-05
8.19377e-06
1.60194e-05
7.25673e-06
1.64721e-05
6.063e-06
1.45066e-05
4.81902e-06
1.08046e-05
3.65555e-06
6.49549e-06
2.61188e-06
2.65863e-06
1.73756e-06
-7.09925e-07
9.97866e-07
-4.62075e-06
3.55989e-07
-8.19489e-06
2.33176e-08
-8.75159e-06
1.56998e-07
-4.21593e-06
1.04318e-05
-7.41213e-07
1.21979e-05
-1.83079e-06
2.65187e-06
-2.97972e-06
7.05431e-07
-4.06799e-06
1.08846e-06
-4.98101e-06
2.32534e-06
-5.66729e-06
4.01339e-06
-6.05749e-06
6.0047e-06
-6.12579e-06
8.07719e-06
-5.89964e-06
9.88666e-06
-5.46142e-06
1.10077e-05
-4.963e-06
1.10301e-05
-4.63394e-06
9.79891e-06
-4.6794e-06
7.84245e-06
-5.03874e-06
6.25728e-06
-5.43668e-06
5.42038e-06
-5.71332e-06
4.84586e-06
-5.83934e-06
4.17753e-06
-5.82176e-06
3.33444e-06
-5.66964e-06
2.32655e-06
-5.38812e-06
1.17389e-06
-4.97729e-06
-1.03942e-07
-4.45445e-06
-1.46528e-06
-3.83968e-06
-2.85157e-06
-3.13626e-06
-4.27508e-06
-2.35578e-06
-5.72041e-06
-1.51504e-06
-7.16365e-06
-6.36657e-07
-8.58124e-06
2.6062e-07
-9.96233e-06
1.1302e-06
-1.12753e-05
1.95806e-06
-1.25064e-05
2.77255e-06
-1.36685e-05
3.59682e-06
-1.47467e-05
4.43028e-06
-1.56987e-05
5.26315e-06
-1.64626e-05
6.08024e-06
-1.697e-05
6.86391e-06
-1.71662e-05
7.59764e-06
-1.70273e-05
8.26908e-06
-1.65668e-05
8.87171e-06
-1.58298e-05
9.40507e-06
-1.4881e-05
9.87363e-06
-1.37909e-05
1.02849e-05
-1.2624e-05
1.06476e-05
-1.1433e-05
1.09698e-05
-1.02563e-05
1.12581e-05
-9.11852e-06
1.15173e-05
-8.03371e-06
1.17501e-05
-7.00781e-06
1.19578e-05
-6.04146e-06
1.21406e-05
-5.13198e-06
1.22979e-05
-4.27492e-06
1.24288e-05
-3.46497e-06
1.25321e-05
-2.69664e-06
1.26066e-05
-1.96473e-06
1.26511e-05
-1.2647e-06
1.26642e-05
-5.92951e-07
1.26447e-05
5.35245e-08
1.2591e-05
6.76806e-07
1.25015e-05
1.27564e-06
1.23751e-05
1.8468e-06
1.22115e-05
2.38632e-06
1.20114e-05
2.8899e-06
1.17767e-05
3.35355e-06
1.15099e-05
3.77411e-06
1.12147e-05
4.14959e-06
1.08949e-05
4.47911e-06
1.05549e-05
4.76257e-06
1.01991e-05
5.00013e-06
9.83225e-06
5.19166e-06
9.45911e-06
5.33636e-06
9.08493e-06
5.4328e-06
8.71544e-06
5.4793e-06
8.35693e-06
5.47466e-06
8.01625e-06
5.419e-06
7.70081e-06
5.31444e-06
7.41838e-06
5.16554e-06
7.17687e-06
4.97923e-06
6.98388e-06
4.76455e-06
6.84596e-06
4.53223e-06
6.76776e-06
4.29427e-06
6.75099e-06
4.06369e-06
6.79364e-06
3.85461e-06
6.88951e-06
3.68481e-06
7.02786e-06
3.58912e-06
7.19657e-06
3.67147e-06
7.40136e-06
4.24381e-06
7.66843e-06
5.95218e-06
7.90361e-06
9.25399e-06
7.85862e-06
1.33533e-05
7.38522e-06
1.64928e-05
6.55892e-06
1.72984e-05