/*--------------------------------*- C++ -*----------------------------------*\
| =========                 |                                                 |
| \\      /  F ield         | OpenFOAM: The Open Source CFD Toolbox           |
|  \\    /   O peration     | Version:  4.1                                   |
|   \\  /    A nd           | Web:      www.OpenFOAM.org                      |
|    \\/     M anipulation  |                                                 |
\*---------------------------------------------------------------------------*/
FoamFile
{
    version     2.0;
    format      ascii;
    class       volScalarField;
    location    "1160";
    object      T;
}
// * * * * * * * * * * * * * * * * * * * * * * * * * * * * * * * * * * * * * //

dimensions      [0 0 0 1 0 0 0];

internalField   nonuniform List<scalar> 
5000
(
285.257
284.699
284.192
284.133
284.178
284.263
284.377
284.531
284.743
284.988
285.247
285.553
286.838
287.349
287.255
287.104
286.919
286.704
286.476
286.249
286.029
285.817
285.61
285.409
285.211
285.021
284.853
284.704
284.571
284.451
284.342
284.24
284.143
284.05
283.955
283.851
283.866
283.908
283.945
283.979
284.013
284.05
284.089
284.131
284.176
284.226
284.279
284.336
284.398
284.465
284.536
284.612
284.695
284.783
284.875
284.967
285.06
285.154
285.25
285.347
285.445
285.547
285.651
285.759
285.87
285.986
286.106
286.232
286.363
286.5
286.643
286.793
286.949
287.113
287.285
287.466
287.656
287.857
288.071
288.299
288.541
288.792
289.043
289.064
286.247
285.697
285.459
285.24
285.026
284.814
284.604
284.408
284.232
284.077
283.944
283.829
283.72
283.94
284.316
284.735
284.503
283.146
283.025
283.012
283.012
283.02
283.032
283.045
283.053
283.13
283.481
285.247
285.842
285.24
284.289
283.848
283.737
283.628
283.469
283.332
283.248
283.2
283.165
283.138
283.126
283.125
283.124
283.123
283.121
283.119
283.116
283.114
283.113
283.111
283.111
283.112
283.116
283.12
283.124
283.128
283.132
283.135
283.139
283.142
283.145
283.148
283.151
283.153
283.155
283.157
283.158
283.16
283.161
283.162
283.164
283.172
283.185
283.204
283.227
283.256
283.289
283.326
283.368
283.415
283.466
283.522
283.582
283.647
283.716
283.792
283.874
283.966
284.071
284.193
284.339
284.516
284.731
284.987
285.282
285.607
285.933
286.209
286.512
287.333
286.799
285.98
283.747
283.51
283.439
283.408
283.392
283.381
283.369
283.357
283.342
283.325
283.308
283.339
283.521
284.295
284.27
283.123
283.028
283.016
283.023
283.047
283.082
283.113
283.131
283.227
284.068
285.014
285.055
284.215
283.452
283.21
283.181
283.169
283.145
283.127
283.119
283.117
283.117
283.117
283.116
283.115
283.113
283.111
283.108
283.106
283.104
283.102
283.101
283.1
283.101
283.105
283.11
283.115
283.121
283.126
283.132
283.137
283.143
283.147
283.151
283.155
283.158
283.161
283.164
283.166
283.167
283.168
283.169
283.17
283.17
283.17
283.17
283.17
283.171
283.172
283.174
283.178
283.183
283.19
283.2
283.211
283.226
283.244
283.266
283.293
283.325
283.364
283.412
283.473
283.55
283.65
283.779
283.94
284.136
284.359
284.589
284.789
285.005
285.684
286.035
285.949
285.003
283.866
283.424
283.411
283.401
283.392
283.381
283.367
283.347
283.323
283.304
283.33
283.423
284.136
284.145
283.127
283.038
283.028
283.05
283.106
283.188
283.241
283.466
283.765
284.295
284.731
284.474
283.715
283.229
283.117
283.109
283.113
283.115
283.116
283.118
283.118
283.118
283.116
283.114
283.111
283.109
283.106
283.104
283.102
283.1
283.098
283.096
283.096
283.098
283.102
283.108
283.115
283.123
283.131
283.139
283.147
283.154
283.16
283.166
283.171
283.176
283.179
283.182
283.185
283.187
283.188
283.189
283.189
283.189
283.189
283.188
283.187
283.186
283.185
283.184
283.183
283.181
283.18
283.18
283.179
283.18
283.182
283.185
283.191
283.199
283.211
283.228
283.252
283.285
283.331
283.394
283.477
283.582
283.706
283.837
283.957
284.086
284.503
285.055
285.417
285.168
284.532
283.851
283.429
283.422
283.413
283.403
283.386
283.361
283.326
283.302
283.318
283.4
284.056
284.066
283.131
283.046
283.044
283.09
283.197
283.372
283.614
283.789
284.028
284.336
284.453
284.076
283.476
283.173
283.112
283.109
283.114
283.117
283.119
283.119
283.118
283.116
283.113
283.111
283.109
283.108
283.106
283.104
283.102
283.099
283.097
283.095
283.094
283.097
283.102
283.109
283.118
283.128
283.138
283.149
283.159
283.168
283.177
283.185
283.191
283.197
283.201
283.205
283.208
283.21
283.211
283.212
283.212
283.211
283.21
283.209
283.207
283.206
283.204
283.201
283.199
283.196
283.193
283.19
283.187
283.183
283.18
283.177
283.174
283.173
283.172
283.174
283.18
283.189
283.205
283.229
283.264
283.31
283.367
283.429
283.489
283.555
283.776
284.242
284.76
284.928
284.691
284.229
283.751
283.448
283.438
283.427
283.41
283.379
283.333
283.3
283.311
283.388
284.007
284.006
283.133
283.053
283.066
283.15
283.327
283.574
283.8
283.968
284.141
284.283
284.216
283.819
283.362
283.16
283.118
283.116
283.118
283.12
283.12
283.119
283.117
283.115
283.113
283.112
283.111
283.11
283.109
283.107
283.104
283.101
283.098
283.095
283.094
283.096
283.102
283.111
283.122
283.134
283.147
283.16
283.173
283.185
283.195
283.205
283.213
283.219
283.225
283.229
283.232
283.234
283.236
283.236
283.236
283.235
283.233
283.232
283.229
283.226
283.223
283.22
283.217
283.213
283.209
283.204
283.199
283.194
283.189
283.183
283.177
283.171
283.166
283.161
283.157
283.155
283.155
283.159
283.168
283.182
283.2
283.223
283.245
283.273
283.378
283.69
284.184
284.551
284.602
284.372
284.004
283.663
283.477
283.452
283.438
283.402
283.344
283.3
283.306
283.358
283.974
283.955
283.134
283.061
283.09
283.207
283.419
283.675
283.887
284.047
284.163
284.194
284.034
283.66
283.305
283.155
283.122
283.12
283.121
283.121
283.12
283.119
283.117
283.116
283.116
283.116
283.116
283.116
283.114
283.112
283.108
283.104
283.099
283.095
283.094
283.097
283.103
283.114
283.127
283.142
283.157
283.173
283.188
283.202
283.215
283.226
283.235
283.243
283.249
283.254
283.257
283.259
283.261
283.261
283.26
283.259
283.257
283.254
283.251
283.247
283.243
283.239
283.234
283.229
283.224
283.219
283.213
283.206
283.2
283.192
283.185
283.177
283.169
283.16
283.152
283.144
283.137
283.131
283.127
283.124
283.124
283.126
283.129
283.135
283.179
283.362
283.755
284.179
284.407
284.369
284.136
283.842
283.611
283.498
283.468
283.429
283.357
283.302
283.3
283.354
283.951
283.908
283.134
283.069
283.108
283.237
283.449
283.691
283.905
284.057
284.133
284.099
283.899
283.56
283.273
283.152
283.125
283.123
283.123
283.122
283.121
283.12
283.12
283.121
283.122
283.123
283.124
283.123
283.121
283.118
283.113
283.107
283.101
283.096
283.095
283.098
283.105
283.117
283.132
283.15
283.169
283.187
283.205
283.221
283.235
283.247
283.258
283.266
283.273
283.278
283.281
283.283
283.284
283.284
283.283
283.282
283.279
283.276
283.272
283.267
283.262
283.257
283.251
283.245
283.239
283.232
283.225
283.218
283.21
283.201
283.193
283.183
283.174
283.163
283.153
283.142
283.131
283.12
283.11
283.101
283.092
283.084
283.077
283.073
283.087
283.187
283.47
283.87
284.187
284.288
284.18
283.956
283.732
283.577
283.501
283.457
283.373
283.306
283.296
283.355
283.932
283.864
283.136
283.074
283.115
283.238
283.431
283.659
283.869
284.015
284.07
284.004
283.794
283.491
283.249
283.148
283.126
283.124
283.124
283.124
283.123
283.124
283.125
283.127
283.13
283.131
283.132
283.131
283.128
283.124
283.117
283.11
283.102
283.097
283.096
283.099
283.108
283.122
283.139
283.16
283.181
283.202
283.222
283.24
283.256
283.269
283.279
283.288
283.294
283.299
283.303
283.305
283.305
283.305
283.304
283.301
283.298
283.295
283.29
283.285
283.279
283.273
283.266
283.259
283.252
283.244
283.236
283.228
283.219
283.209
283.2
283.189
283.179
283.167
283.155
283.143
283.13
283.117
283.105
283.092
283.08
283.068
283.056
283.046
283.047
283.1
283.294
283.638
283.985
284.178
284.17
284.017
283.817
283.647
283.536
283.473
283.392
283.312
283.292
283.354
283.917
283.825
283.138
283.077
283.113
283.219
283.386
283.594
283.793
283.934
283.979
283.904
283.701
283.432
283.227
283.144
283.127
283.126
283.126
283.126
283.127
283.128
283.132
283.135
283.138
283.141
283.141
283.139
283.135
283.129
283.121
283.111
283.103
283.098
283.096
283.1
283.111
283.127
283.148
283.171
283.195
283.219
283.24
283.259
283.275
283.289
283.299
283.308
283.314
283.318
283.321
283.322
283.323
283.322
283.32
283.318
283.314
283.31
283.305
283.3
283.293
283.287
283.279
283.271
283.263
283.254
283.245
283.236
283.226
283.216
283.205
283.194
283.183
283.171
283.158
283.145
283.131
283.117
283.103
283.089
283.075
283.061
283.048
283.036
283.03
283.058
283.191
283.475
283.818
284.065
284.133
284.041
283.87
283.697
283.57
283.486
283.4
283.32
283.291
283.349
283.903
283.79
283.14
283.079
283.106
283.189
283.33
283.51
283.69
283.821
283.863
283.791
283.607
283.373
283.204
283.14
283.128
283.128
283.128
283.129
283.131
283.135
283.139
283.144
283.148
283.15
283.149
283.146
283.14
283.132
283.122
283.113
283.104
283.098
283.097
283.102
283.115
283.134
283.157
283.183
283.21
283.235
283.258
283.278
283.294
283.307
283.317
283.325
283.33
283.334
283.335
283.336
283.336
283.335
283.332
283.33
283.326
283.322
283.317
283.311
283.304
283.297
283.289
283.281
283.272
283.262
283.253
283.242
283.232
283.221
283.21
283.198
283.186
283.173
283.159
283.145
283.131
283.117
283.102
283.087
283.072
283.057
283.043
283.03
283.022
283.037
283.132
283.365
283.689
283.966
284.087
284.043
283.898
283.728
283.589
283.494
283.404
283.325
283.292
283.343
283.89
283.759
283.143
283.08
283.097
283.161
283.273
283.42
283.573
283.689
283.729
283.666
283.508
283.315
283.184
283.137
283.129
283.13
283.131
283.133
283.137
283.142
283.148
283.153
283.157
283.158
283.156
283.151
283.144
283.134
283.123
283.113
283.104
283.098
283.098
283.105
283.12
283.142
283.168
283.197
283.226
283.253
283.276
283.296
283.311
283.323
283.332
283.338
283.342
283.344
283.345
283.345
283.344
283.342
283.34
283.337
283.334
283.329
283.324
283.318
283.312
283.305
283.296
283.288
283.278
283.268
283.258
283.247
283.236
283.224
283.212
283.2
283.187
283.174
283.16
283.145
283.13
283.115
283.1
283.084
283.069
283.054
283.039
283.026
283.017
283.026
283.098
283.294
283.596
283.886
284.043
284.035
283.908
283.741
283.597
283.497
283.404
283.328
283.293
283.337
283.876
283.734
283.147
283.082
283.09
283.138
283.222
283.336
283.459
283.554
283.588
283.537
283.41
283.261
283.167
283.136
283.131
283.132
283.134
283.138
283.143
283.149
283.156
283.162
283.165
283.164
283.161
283.154
283.145
283.134
283.123
283.112
283.103
283.097
283.099
283.108
283.126
283.152
283.181
283.213
283.243
283.271
283.294
283.312
283.327
283.337
283.344
283.348
283.35
283.351
283.35
283.349
283.347
283.345
283.343
283.34
283.336
283.332
283.328
283.322
283.316
283.309
283.301
283.292
283.283
283.272
283.261
283.25
283.238
283.226
283.213
283.2
283.187
283.173
283.159
283.144
283.129
283.113
283.097
283.081
283.065
283.049
283.034
283.02
283.011
283.019
283.079
283.249
283.533
283.828
284.008
284.022
283.906
283.74
283.595
283.494
283.401
283.328
283.295
283.332
283.862
283.713
283.151
283.084
283.086
283.12
283.181
283.266
283.358
283.431
283.458
283.418
283.323
283.218
283.155
283.135
283.133
283.135
283.138
283.143
283.149
283.157
283.164
283.169
283.171
283.169
283.163
283.154
283.144
283.133
283.121
283.11
283.101
283.097
283.1
283.113
283.134
283.163
283.196
283.23
283.261
283.288
283.31
283.327
283.339
283.347
283.351
283.353
283.353
283.352
283.351
283.348
283.346
283.343
283.341
283.338
283.335
283.332
283.328
283.323
283.317
283.31
283.303
283.294
283.285
283.274
283.263
283.251
283.239
283.226
283.213
283.2
283.186
283.171
283.157
283.141
283.125
283.109
283.092
283.076
283.059
283.043
283.028
283.014
283.005
283.012
283.067
283.223
283.495
283.792
283.985
284.008
283.894
283.727
283.585
283.485
283.395
283.328
283.296
283.328
283.847
283.697
283.156
283.086
283.084
283.108
283.151
283.211
283.277
283.33
283.349
283.321
283.255
283.186
283.147
283.135
283.135
283.138
283.142
283.148
283.156
283.164
283.171
283.174
283.174
283.17
283.162
283.153
283.143
283.131
283.118
283.107
283.099
283.096
283.102
283.119
283.145
283.177
283.213
283.248
283.28
283.306
283.326
283.34
283.348
283.353
283.355
283.354
283.352
283.349
283.346
283.343
283.34
283.337
283.335
283.333
283.33
283.328
283.325
283.321
283.316
283.31
283.303
283.294
283.285
283.274
283.263
283.251
283.238
283.225
283.212
283.198
283.183
283.168
283.153
283.137
283.121
283.104
283.086
283.069
283.052
283.035
283.019
283.006
282.997
283.006
283.061
283.211
283.476
283.776
283.973
283.994
283.873
283.705
283.569
283.473
283.388
283.327
283.298
283.325
283.832
283.684
283.162
283.09
283.083
283.1
283.131
283.172
283.218
283.254
283.267
283.249
283.206
283.165
283.142
283.137
283.138
283.142
283.147
283.154
283.162
283.17
283.176
283.177
283.175
283.168
283.16
283.15
283.139
283.127
283.115
283.104
283.096
283.096
283.106
283.127
283.157
283.194
283.232
283.267
283.298
283.322
283.339
283.349
283.354
283.355
283.353
283.35
283.346
283.341
283.337
283.333
283.33
283.327
283.325
283.324
283.322
283.321
283.319
283.316
283.312
283.307
283.301
283.293
283.284
283.273
283.262
283.249
283.236
283.223
283.209
283.195
283.18
283.164
283.148
283.132
283.115
283.097
283.079
283.061
283.043
283.026
283.01
282.996
282.989
283
283.058
283.21
283.476
283.778
283.971
283.978
283.844
283.675
283.548
283.459
283.38
283.326
283.299
283.323
283.818
283.674
283.168
283.093
283.085
283.097
283.118
283.147
283.178
283.203
283.212
283.2
283.176
283.152
283.14
283.139
283.141
283.145
283.151
283.159
283.168
283.175
283.178
283.177
283.173
283.166
283.157
283.146
283.135
283.123
283.11
283.1
283.094
283.097
283.112
283.138
283.173
283.212
283.252
283.287
283.316
283.336
283.349
283.355
283.356
283.353
283.347
283.341
283.335
283.329
283.323
283.319
283.316
283.314
283.312
283.312
283.312
283.312
283.311
283.31
283.307
283.303
283.297
283.29
283.281
283.271
283.259
283.247
283.234
283.22
283.205
283.191
283.175
283.159
283.143
283.125
283.107
283.089
283.07
283.051
283.032
283.015
282.999
282.986
282.981
282.995
283.06
283.219
283.493
283.797
283.977
283.956
283.805
283.64
283.527
283.445
283.373
283.325
283.301
283.321
283.804
283.667
283.174
283.097
283.087
283.095
283.111
283.132
283.153
283.17
283.176
283.171
283.158
283.145
283.14
283.141
283.144
283.149
283.155
283.163
283.172
283.177
283.178
283.175
283.169
283.161
283.152
283.142
283.13
283.117
283.105
283.096
283.093
283.1
283.12
283.152
283.191
283.234
283.274
283.307
283.332
283.348
283.356
283.357
283.353
283.346
283.337
283.328
283.319
283.312
283.306
283.301
283.298
283.297
283.297
283.298
283.299
283.3
283.301
283.302
283.301
283.298
283.293
283.287
283.278
283.268
283.256
283.243
283.23
283.215
283.201
283.185
283.17
283.153
283.136
283.118
283.099
283.079
283.06
283.04
283.021
283.003
282.988
282.976
282.972
282.992
283.066
283.239
283.526
283.832
283.985
283.926
283.758
283.602
283.506
283.431
283.366
283.325
283.304
283.32
283.791
283.662
283.181
283.101
283.089
283.096
283.108
283.123
283.138
283.15
283.156
283.154
283.148
283.143
283.141
283.143
283.147
283.152
283.159
283.167
283.174
283.177
283.176
283.171
283.164
283.157
283.147
283.137
283.125
283.112
283.1
283.092
283.093
283.105
283.132
283.169
283.213
283.257
283.296
283.326
283.346
283.356
283.358
283.354
283.345
283.334
283.322
283.311
283.3
283.291
283.284
283.28
283.277
283.277
283.278
283.281
283.284
283.288
283.291
283.293
283.294
283.292
283.288
283.282
283.274
283.264
283.252
283.239
283.225
283.211
283.195
283.18
283.163
283.146
283.128
283.109
283.089
283.069
283.048
283.028
283.009
282.991
282.976
282.965
282.965
282.991
283.077
283.27
283.582
283.877
283.984
283.884
283.704
283.565
283.487
283.418
283.362
283.326
283.307
283.319
283.779
283.66
283.188
283.106
283.092
283.097
283.108
283.119
283.131
283.14
283.145
283.145
283.144
283.142
283.143
283.146
283.15
283.155
283.162
283.169
283.175
283.175
283.172
283.166
283.16
283.152
283.143
283.132
283.12
283.107
283.096
283.09
283.095
283.113
283.146
283.189
283.236
283.281
283.317
283.343
283.357
283.361
283.357
283.347
283.333
283.318
283.303
283.289
283.277
283.267
283.26
283.255
283.254
283.255
283.258
283.262
283.267
283.273
283.279
283.283
283.286
283.286
283.283
283.278
283.27
283.259
283.247
283.234
283.22
283.205
283.189
283.173
283.156
283.138
283.119
283.1
283.079
283.058
283.037
283.016
282.997
282.979
282.965
282.956
282.959
282.993
283.097
283.331
283.662
283.912
283.968
283.833
283.648
283.531
283.471
283.408
283.359
283.327
283.31
283.319
283.769
283.659
283.195
283.11
283.094
283.099
283.108
283.118
283.127
283.135
283.14
283.142
283.142
283.143
283.145
283.148
283.152
283.158
283.164
283.171
283.173
283.172
283.167
283.161
283.155
283.148
283.139
283.128
283.115
283.102
283.092
283.089
283.099
283.125
283.165
283.213
283.262
283.305
283.337
283.357
283.364
283.361
283.351
283.335
283.318
283.299
283.281
283.264
283.251
283.24
283.232
283.228
283.228
283.23
283.235
283.242
283.25
283.258
283.266
283.273
283.278
283.279
283.278
283.273
283.265
283.254
283.242
283.229
283.214
283.199
283.183
283.166
283.148
283.13
283.11
283.089
283.068
283.046
283.024
283.004
282.985
282.968
282.955
282.948
282.955
283.002
283.144
283.433
283.735
283.932
283.936
283.773
283.596
283.502
283.457
283.399
283.358
283.329
283.314
283.319
283.759
283.66
283.203
283.114
283.097
283.102
283.11
283.118
283.126
283.133
283.138
283.141
283.142
283.144
283.147
283.15
283.154
283.16
283.165
283.17
283.171
283.167
283.162
283.157
283.151
283.145
283.136
283.125
283.111
283.098
283.088
283.089
283.106
283.14
283.188
283.24
283.289
283.329
283.355
283.367
283.366
283.357
283.34
283.32
283.298
283.276
283.255
283.236
283.221
283.21
283.202
283.199
283.2
283.204
283.211
283.221
283.231
283.243
283.254
283.263
283.27
283.273
283.272
283.268
283.26
283.249
283.237
283.223
283.208
283.192
283.175
283.158
283.14
283.12
283.1
283.079
283.056
283.034
283.012
282.992
282.973
282.957
282.945
282.941
282.956
283.03
283.247
283.535
283.796
283.935
283.89
283.709
283.551
283.481
283.445
283.394
283.359
283.331
283.318
283.32
283.75
283.663
283.211
283.118
283.099
283.104
283.112
283.12
283.127
283.133
283.137
283.141
283.143
283.146
283.149
283.152
283.156
283.161
283.166
283.169
283.167
283.163
283.158
283.154
283.15
283.144
283.135
283.122
283.108
283.094
283.086
283.092
283.117
283.16
283.214
283.269
283.316
283.35
283.368
283.372
283.364
283.348
283.326
283.301
283.275
283.249
283.226
283.205
283.189
283.177
283.17
283.168
283.17
283.177
283.187
283.199
283.213
283.227
283.241
283.253
283.262
283.267
283.267
283.263
283.255
283.244
283.231
283.216
283.201
283.185
283.168
283.15
283.131
283.111
283.089
283.067
283.045
283.022
283
282.98
282.962
282.947
282.938
282.938
282.972
283.118
283.365
283.626
283.838
283.92
283.831
283.646
283.514
283.466
283.434
283.392
283.36
283.334
283.323
283.321
283.741
283.668
283.219
283.123
283.102
283.106
283.113
283.121
283.128
283.134
283.138
283.142
283.145
283.147
283.15
283.153
283.157
283.162
283.166
283.166
283.162
283.158
283.155
283.153
283.15
283.145
283.135
283.12
283.104
283.09
283.085
283.098
283.132
283.184
283.244
283.299
283.342
283.368
283.377
283.373
283.358
283.335
283.308
283.279
283.249
283.22
283.194
283.172
283.155
283.143
283.137
283.136
283.14
283.149
283.162
283.177
283.195
283.213
283.23
283.244
283.255
283.261
283.262
283.257
283.249
283.238
283.224
283.21
283.194
283.177
283.16
283.141
283.121
283.1
283.079
283.056
283.033
283.01
282.989
282.969
282.951
282.938
282.933
282.947
283.041
283.24
283.475
283.701
283.861
283.888
283.765
283.587
283.487
283.457
283.425
283.392
283.362
283.336
283.327
283.324
283.733
283.674
283.228
283.127
283.104
283.107
283.115
283.122
283.129
283.135
283.139
283.143
283.146
283.149
283.151
283.155
283.158
283.162
283.164
283.162
283.158
283.155
283.154
283.155
283.154
283.147
283.135
283.119
283.101
283.087
283.086
283.107
283.152
283.212
283.275
283.328
283.364
283.381
283.381
283.369
283.347
283.319
283.288
283.254
283.221
283.189
283.161
283.138
283.12
283.108
283.103
283.104
283.11
283.122
283.138
283.157
283.178
283.2
283.22
283.237
283.249
283.256
283.257
283.252
283.243
283.232
283.218
283.202
283.186
283.169
283.151
283.132
283.111
283.09
283.067
283.044
283.021
282.998
282.977
282.958
282.942
282.933
282.938
283.002
283.158
283.358
283.571
283.756
283.862
283.84
283.695
283.538
283.467
283.452
283.42
283.394
283.364
283.337
283.332
283.328
283.725
283.683
283.237
283.131
283.106
283.109
283.116
283.124
283.13
283.136
283.14
283.144
283.147
283.15
283.153
283.156
283.159
283.162
283.161
283.158
283.154
283.154
283.157
283.16
283.159
283.152
283.137
283.118
283.098
283.085
283.089
283.12
283.176
283.244
283.307
283.355
283.382
283.389
283.381
283.361
283.334
283.301
283.265
283.228
283.191
283.157
283.127
283.102
283.084
283.074
283.07
283.073
283.082
283.097
283.116
283.139
283.164
283.189
283.212
283.231
283.244
283.251
283.252
283.247
283.237
283.225
283.211
283.195
283.178
283.161
283.142
283.122
283.101
283.078
283.055
283.032
283.008
282.986
282.965
282.948
282.936
282.937
282.987
283.111
283.278
283.466
283.648
283.789
283.844
283.781
283.628
283.499
283.455
283.447
283.418
283.396
283.365
283.338
283.337
283.332
283.716
283.693
283.247
283.135
283.108
283.11
283.118
283.125
283.131
283.137
283.141
283.145
283.148
283.151
283.153
283.156
283.159
283.16
283.158
283.153
283.151
283.156
283.164
283.169
283.167
283.157
283.139
283.117
283.096
283.083
283.094
283.137
283.205
283.277
283.338
283.378
283.394
283.392
283.376
283.35
283.318
283.281
283.241
283.201
283.161
283.123
283.092
283.067
283.05
283.042
283.041
283.047
283.058
283.076
283.098
283.125
283.154
283.182
283.207
283.227
283.24
283.247
283.247
283.241
283.231
283.218
283.203
283.187
283.17
283.151
283.132
283.111
283.089
283.066
283.042
283.018
282.994
282.972
282.954
282.941
282.942
282.988
283.09
283.228
283.39
283.556
283.704
283.799
283.808
283.715
283.567
283.471
283.447
283.443
283.419
283.398
283.366
283.338
283.342
283.336
283.706
283.706
283.257
283.139
283.11
283.112
283.119
283.126
283.132
283.137
283.141
283.145
283.148
283.151
283.154
283.156
283.158
283.157
283.152
283.149
283.153
283.163
283.174
283.18
283.177
283.163
283.142
283.116
283.093
283.082
283.103
283.159
283.237
283.311
283.366
283.395
283.401
283.39
283.368
283.338
283.301
283.261
283.217
283.173
283.13
283.09
283.058
283.034
283.02
283.015
283.018
283.026
283.041
283.061
283.086
283.117
283.149
283.179
283.205
283.225
283.237
283.243
283.241
283.234
283.223
283.21
283.195
283.178
283.16
283.141
283.121
283.099
283.075
283.051
283.026
283.002
282.979
282.959
282.947
282.952
283
283.086
283.203
283.34
283.487
283.627
283.736
283.789
283.759
283.647
283.517
283.453
283.443
283.438
283.42
283.4
283.366
283.337
283.348
283.342
283.697
283.721
283.268
283.143
283.112
283.113
283.12
283.126
283.132
283.137
283.142
283.145
283.148
283.151
283.153
283.155
283.156
283.152
283.146
283.148
283.159
283.174
283.187
283.192
283.187
283.17
283.144
283.115
283.09
283.083
283.115
283.185
283.271
283.344
283.39
283.407
283.403
283.386
283.359
283.324
283.284
283.24
283.193
283.145
283.099
283.059
283.026
283.005
282.995
282.995
283.003
283.015
283.031
283.052
283.082
283.117
283.151
283.181
283.205
283.223
283.234
283.237
283.235
283.227
283.215
283.202
283.186
283.168
283.149
283.129
283.107
283.083
283.059
283.033
283.007
282.983
282.964
282.955
282.968
283.019
283.095
283.195
283.313
283.44
283.566
283.675
283.746
283.759
283.7
283.583
283.479
283.442
283.44
283.435
283.421
283.402
283.367
283.336
283.355
283.347
283.689
283.739
283.281
283.147
283.115
283.115
283.121
283.127
283.132
283.137
283.141
283.144
283.147
283.15
283.152
283.152
283.151
283.145
283.142
283.152
283.17
283.189
283.202
283.205
283.196
283.176
283.146
283.114
283.088
283.085
283.131
283.216
283.306
283.373
283.407
283.413
283.402
283.379
283.349
283.311
283.268
283.22
283.17
283.119
283.071
283.03
283
282.982
282.979
282.986
282.999
283.016
283.035
283.059
283.091
283.125
283.157
283.184
283.206
283.221
283.23
283.231
283.227
283.218
283.206
283.192
283.175
283.157
283.136
283.113
283.09
283.064
283.037
283.01
282.986
282.968
282.966
282.994
283.043
283.112
283.2
283.302
283.412
283.523
283.624
283.7
283.735
283.715
283.636
283.526
283.454
283.436
283.439
283.433
283.422
283.403
283.367
283.334
283.359
283.353
283.684
283.761
283.299
283.155
283.118
283.117
283.122
283.127
283.132
283.136
283.14
283.143
283.145
283.148
283.148
283.147
283.143
283.137
283.144
283.163
283.186
283.204
283.216
283.217
283.206
283.182
283.148
283.113
283.085
283.089
283.151
283.249
283.34
283.397
283.418
283.415
283.399
283.373
283.339
283.299
283.253
283.203
283.15
283.096
283.047
283.007
282.979
282.968
282.973
282.987
283.007
283.028
283.051
283.077
283.106
283.136
283.164
283.188
283.206
283.218
283.224
283.224
283.218
283.208
283.195
283.18
283.162
283.142
283.118
283.093
283.066
283.038
283.009
282.985
282.974
282.988
283.022
283.071
283.135
283.213
283.303
283.398
283.495
283.585
283.658
283.702
283.706
283.66
283.573
283.482
283.439
283.432
283.436
283.431
283.421
283.403
283.37
283.333
283.358
283.363
283.68
283.787
283.33
283.168
283.125
283.12
283.123
283.127
283.131
283.135
283.138
283.14
283.142
283.143
283.143
283.14
283.133
283.136
283.154
283.178
283.201
283.219
283.229
283.229
283.215
283.187
283.149
283.111
283.083
283.096
283.175
283.284
283.37
283.414
283.424
283.415
283.395
283.367
283.331
283.289
283.24
283.188
283.132
283.077
283.028
282.99
282.967
282.963
282.974
282.995
283.021
283.046
283.071
283.096
283.122
283.147
283.17
283.19
283.204
283.213
283.216
283.214
283.207
283.196
283.182
283.164
283.144
283.121
283.093
283.064
283.034
283.004
282.985
282.99
283.016
283.053
283.102
283.162
283.233
283.312
283.395
283.479
283.558
283.624
283.668
283.683
283.661
283.6
283.517
283.452
283.43
283.429
283.433
283.428
283.418
283.403
283.374
283.333
283.35
283.382
283.678
283.809
283.377
283.194
283.138
283.127
283.127
283.129
283.132
283.134
283.136
283.138
283.139
283.139
283.139
283.136
283.133
283.147
283.17
283.194
283.215
283.232
283.241
283.239
283.223
283.191
283.15
283.108
283.081
283.106
283.203
283.318
283.396
283.426
283.427
283.414
283.392
283.362
283.325
283.281
283.231
283.177
283.121
283.066
283.018
282.981
282.962
282.961
282.978
283.004
283.034
283.063
283.089
283.112
283.134
283.155
283.173
283.189
283.199
283.205
283.205
283.201
283.192
283.179
283.163
283.143
283.12
283.091
283.057
283.025
282.997
282.994
283.015
283.047
283.087
283.135
283.192
283.256
283.326
283.399
283.472
283.54
283.597
283.638
283.657
283.647
283.605
283.539
283.471
283.432
283.424
283.425
283.426
283.42
283.412
283.402
283.38
283.334
283.335
283.408
283.676
283.827
283.431
283.241
283.164
283.142
283.137
283.136
283.137
283.137
283.138
283.138
283.139
283.139
283.139
283.14
283.148
283.165
283.186
283.208
283.227
283.243
283.252
283.249
283.23
283.195
283.15
283.106
283.079
283.119
283.235
283.351
283.414
283.432
283.428
283.413
283.39
283.359
283.322
283.277
283.227
283.173
283.117
283.062
283.014
282.978
282.959
282.96
282.979
283.009
283.042
283.072
283.098
283.119
283.139
283.156
283.171
283.182
283.19
283.192
283.19
283.183
283.171
283.156
283.136
283.112
283.083
283.047
283.011
283.001
283.015
283.044
283.08
283.121
283.169
283.222
283.281
283.343
283.408
283.471
283.529
283.578
283.613
283.63
283.625
283.595
283.544
283.484
283.438
283.419
283.416
283.416
283.414
283.409
283.404
283.398
283.387
283.343
283.304
283.363
283.674
283.841
283.487
283.3
283.21
283.173
283.158
283.152
283.15
283.148
283.147
283.146
283.146
283.147
283.149
283.153
283.165
283.181
283.2
283.22
283.239
283.253
283.261
283.257
283.236
283.197
283.149
283.103
283.078
283.136
283.268
283.378
283.426
283.435
283.429
283.413
283.39
283.36
283.323
283.279
283.229
283.176
283.12
283.066
283.017
282.98
282.959
282.958
282.975
283.005
283.039
283.07
283.095
283.116
283.134
283.149
283.16
283.168
283.172
283.172
283.166
283.156
283.141
283.122
283.097
283.066
283.032
283.012
283.016
283.041
283.075
283.114
283.156
283.202
283.251
283.305
283.361
283.418
283.472
283.521
283.562
283.591
283.605
283.6
283.577
283.536
283.486
283.44
283.414
283.405
283.403
283.401
283.399
283.397
283.395
283.393
283.389
283.368
283.3
283.257
283.67
283.85
283.541
283.365
283.269
283.22
283.196
283.183
283.176
283.171
283.168
283.166
283.165
283.165
283.168
283.174
283.185
283.199
283.216
283.233
283.25
283.263
283.27
283.264
283.24
283.198
283.147
283.099
283.079
283.156
283.301
283.399
283.433
283.438
283.431
283.416
283.393
283.364
283.328
283.286
283.238
283.186
283.132
283.078
283.029
282.989
282.963
282.955
282.965
282.989
283.021
283.052
283.077
283.098
283.115
283.129
283.138
283.143
283.144
283.139
283.13
283.116
283.097
283.073
283.047
283.026
283.023
283.04
283.071
283.108
283.148
283.189
283.233
283.28
283.329
283.379
283.428
283.475
283.516
283.549
283.571
283.58
283.575
283.554
283.519
283.476
283.436
283.407
283.394
283.39
283.388
283.387
283.388
283.388
283.389
283.389
283.387
283.378
283.343
283.244
283.667
283.851
283.591
283.431
283.335
283.28
283.248
283.228
283.216
283.208
283.202
283.198
283.195
283.195
283.196
283.201
283.21
283.221
283.234
283.248
283.262
283.274
283.278
283.27
283.243
283.198
283.144
283.095
283.081
283.182
283.332
283.411
283.437
283.441
283.434
283.42
283.4
283.372
283.338
283.298
283.253
283.204
283.152
283.1
283.051
283.007
282.974
282.955
282.953
282.965
282.989
283.016
283.041
283.063
283.079
283.091
283.099
283.101
283.099
283.092
283.081
283.065
283.049
283.035
283.032
283.044
283.07
283.104
283.142
283.181
283.221
283.263
283.306
283.35
283.395
283.438
283.477
283.511
283.537
283.553
283.558
283.55
283.529
283.498
283.461
283.426
283.4
283.386
283.381
283.383
283.387
283.388
283.387
283.387
283.387
283.386
283.385