/*--------------------------------*- C++ -*----------------------------------*\
| =========                 |                                                 |
| \\      /  F ield         | OpenFOAM: The Open Source CFD Toolbox           |
|  \\    /   O peration     | Version:  4.1                                   |
|   \\  /    A nd           | Web:      www.OpenFOAM.org                      |
|    \\/     M anipulation  |                                                 |
\*---------------------------------------------------------------------------*/
FoamFile
{
    version     2.0;
    format      ascii;
    class       volScalarField;
    location    "800";
    object      mag(U);
}
// * * * * * * * * * * * * * * * * * * * * * * * * * * * * * * * * * * * * * //

dimensions      [0 1 -1 0 0 0 0];

internalField   nonuniform List<scalar> 
5000
(
0.00471595
0.00500644
0.00579613
0.00644355
0.00723516
0.00806343
0.0088231
0.00944971
0.0099006
0.0101411
0.010134
0.00984221
0.00924391
0.00832783
0.00709902
0.00558331
0.0039059
0.00253871
0.00259908
0.00409679
0.00609626
0.00798473
0.00961249
0.0109613
0.0120299
0.0128207
0.0133485
0.0136482
0.0137736
0.0137828
0.0137092
0.0135311
0.0131628
0.0124853
0.0114114
0.00996406
0.00832349
0.00678972
0.00565885
0.00513748
0.00529161
0.00594651
0.00696687
0.00817777
0.00926233
0.00961579
0.00883092
0.00404999
0.00324005
0.00419375
0.00487234
0.004567
0.00349299
0.00250824
0.00261852
0.00315428
0.00410829
0.00462235
0.00437963
0.00322289
0.00388531
0.0069955
0.007818
0.00661034
0.00462803
0.00269682
0.00122494
0.000506299
0.000755847
0.000883344
0.000691761
0.000105094
0.00050288
0.000567342
0.00201911
0.00658618
0.00835484
0.00851828
0.00790349
0.00693055
0.00578076
0.00452472
0.00319322
0.00189255
0.00103777
0.0014785
0.00181169
0.00182848
0.00300584
0.00796847
0.0104034
0.0116844
0.0121196
0.0116573
0.0102904
0.00809972
0.00548102
0.00358634
0.00300349
0.00345369
0.00658597
0.00462845
0.00535824
0.00615391
0.00696519
0.00773557
0.00842096
0.00897968
0.00937012
0.00954955
0.00947329
0.00911502
0.00846984
0.00755023
0.00639889
0.00512046
0.00402455
0.00383306
0.00434963
0.00501404
0.00635399
0.00787904
0.00932682
0.0106076
0.0116833
0.0125296
0.0131313
0.0134839
0.0135991
0.0135027
0.0132418
0.0128578
0.0123733
0.0117898
0.0111044
0.0103354
0.00954266
0.00883095
0.00832114
0.00805959
0.00799271
0.00811536
0.00840598
0.0088056
0.00918667
0.00926341
0.00956619
0.00872784
0.0048258
0.00339919
0.00375807
0.00376987
0.00374831
0.00401875
0.00328268
0.00171664
0.00179581
0.00117227
0.00396067
0.00521639
0.00648852
0.00598849
0.00492612
0.00457568
0.00406289
0.00301048
0.00211501
0.00140492
0.000747771
0.00060803
0.00167184
0.00245011
0.00246716
0.00222341
0.0046702
0.00742797
0.00751477
0.00779167
0.00767585
0.00710908
0.00625511
0.00522694
0.00413978
0.00312698
0.00231504
0.00155345
0.000567846
0.00234489
0.00607914
0.00810349
0.0091665
0.0103281
0.0109363
0.0107053
0.00974485
0.00833655
0.00684045
0.00590798
0.00355715
0.0046934
0.00913431
0.00458309
0.0047134
0.00565275
0.00648748
0.00720534
0.00782544
0.00832563
0.00866308
0.00878811
0.00865572
0.0082706
0.00767611
0.00693547
0.00614228
0.00546373
0.00519037
0.00569513
0.00611124
0.00639441
0.00708728
0.00805726
0.00911362
0.0101403
0.0110704
0.0118587
0.0124706
0.0128771
0.0130545
0.0129801
0.012676
0.012207
0.0116706
0.0111687
0.0107548
0.0104079
0.0100702
0.00970911
0.00932958
0.00894892
0.00857801
0.0082821
0.00812209
0.00807318
0.00804849
0.00832397
0.0101154
0.0116689
0.00960276
0.0047259
0.00293195
0.00373778
0.00464194
0.005314
0.00439283
0.00400539
0.00595992
0.00692674
0.00715461
0.00689908
0.00625635
0.00421173
0.00175859
0.00352679
0.00347869
0.00277158
0.00217529
0.00170012
0.00137127
0.00134208
0.00189239
0.00233091
0.00227251
0.0027779
0.00812151
0.00933783
0.00729074
0.00703635
0.00729004
0.00713949
0.00665995
0.00600263
0.00529473
0.0045669
0.00372485
0.00245832
0.000403812
0.00344932
0.00821397
0.00962835
0.00866155
0.00880724
0.00931868
0.00945768
0.00927828
0.00910412
0.00873589
0.00833436
0.00595546
0.00608682
0.0113781
0.00524916
0.0046981
0.00547644
0.00624324
0.00689021
0.00741639
0.00779908
0.00800508
0.0080082
0.00780573
0.0074691
0.00706988
0.00668877
0.00641285
0.006345
0.00659368
0.00729029
0.0075792
0.0076847
0.00795837
0.00843849
0.00905995
0.00974797
0.0104402
0.0110854
0.0116401
0.0120662
0.0123271
0.0123777
0.0122154
0.0118782
0.0114466
0.0110273
0.0106934
0.0104319
0.0101675
0.00983581
0.00942002
0.00894122
0.00843899
0.00795916
0.00756153
0.00726196
0.00702219
0.00745671
0.0102423
0.013232
0.0125263
0.0088419
0.00493754
0.00235722
0.00442434
0.00559022
0.00562043
0.00668585
0.00770042
0.00812481
0.00764154
0.00621165
0.00415918
0.00172497
0.000845081
0.00317899
0.00301308
0.00263385
0.00227573
0.00199015
0.00183731
0.0018712
0.00208988
0.00193949
0.00154564
0.00511747
0.0105706
0.0111714
0.00768964
0.00669971
0.00706064
0.00723574
0.00710843
0.00680282
0.00643227
0.00593331
0.00510408
0.00359331
0.00143902
0.00390981
0.00911512
0.011382
0.00908816
0.00767579
0.00763286
0.00802226
0.00879532
0.00992481
0.0103705
0.0103173
0.008051
0.00701392
0.0131683
0.00607986
0.00509671
0.00562209
0.00622852
0.00672945
0.00709169
0.00729267
0.00732505
0.00720992
0.00700597
0.00683644
0.00676786
0.00684054
0.00706012
0.00742345
0.00793014
0.00860328
0.00880951
0.00880758
0.00881565
0.00891907
0.00913642
0.00945521
0.00984874
0.0102817
0.0107142
0.0111047
0.0114158
0.0115944
0.0116079
0.011469
0.0112213
0.0109313
0.0106518
0.0103813
0.0100735
0.00968574
0.00921145
0.008677
0.00811687
0.00756411
0.00702977
0.00654176
0.00605328
0.00640145
0.00975948
0.0135808
0.0139512
0.0113844
0.00796656
0.0043947
0.0016789
0.00451166
0.00528325
0.00635548
0.00724781
0.00726357
0.00630276
0.00454209
0.00278149
0.00160416
0.00170321
0.00270943
0.00271848
0.00255885
0.00235797
0.00219898
0.00213882
0.00217748
0.00214788
0.00129768
0.00184767
0.00670348
0.0119861
0.0126431
0.00825888
0.00640044
0.00679642
0.00727531
0.00747415
0.00747685
0.00740533
0.00714299
0.00644511
0.00496672
0.00271829
0.00388025
0.00893935
0.0126303
0.0101351
0.00703746
0.00578915
0.00630716
0.00829448
0.01063
0.0116521
0.0118859
0.00971932
0.00759911
0.0146538
0.00691909
0.00568483
0.00597909
0.00638781
0.00668909
0.00683397
0.00681156
0.0066552
0.00645044
0.00633109
0.00643308
0.00676435
0.00726579
0.00785476
0.00847293
0.00908751
0.00967249
0.00983715
0.0097604
0.0095957
0.00942641
0.00930557
0.00926631
0.00932732
0.00949082
0.0097397
0.0100406
0.010354
0.0106314
0.0108046
0.0108609
0.0108063
0.0106654
0.0104633
0.0102024
0.00986454
0.00943646
0.00892669
0.00836161
0.00776837
0.00715721
0.00653803
0.0059053
0.00516465
0.00514403
0.00876773
0.0130491
0.0142094
0.0126636
0.00998339
0.00693718
0.00380522
0.00125264
0.00378857
0.00516765
0.00591377
0.00557275
0.00452306
0.00357842
0.00285487
0.00225778
0.00220688
0.00257513
0.00260503
0.00251536
0.00239563
0.00230952
0.0022973
0.00233269
0.00216921
0.00129695
0.00252448
0.00715443
0.0125258
0.0138897
0.00901614
0.00596305
0.0062762
0.0070947
0.00760517
0.00786662
0.00805905
0.0080601
0.00761693
0.00639444
0.00422137
0.00346161
0.00786972
0.0128857
0.0115315
0.00717143
0.00407361
0.00421479
0.00781871
0.0110328
0.0124532
0.0129499
0.0107276
0.00769238
0.0159442
0.00773796
0.00634267
0.00644977
0.00666415
0.00674835
0.00665043
0.00638159
0.00603174
0.00577269
0.00582095
0.00625987
0.0069793
0.00781475
0.00864283
0.009398
0.0100448
0.0105441
0.0106924
0.0105676
0.0102943
0.00994068
0.00956316
0.00921167
0.00893575
0.00878246
0.00877964
0.00892342
0.00918012
0.00951429
0.00981583
0.0100446
0.0101716
0.0101855
0.0100875
0.00987858
0.00955817
0.00913321
0.00862318
0.00805429
0.00744767
0.00680959
0.00612508
0.00537396
0.00445091
0.00391104
0.00743044
0.0119045
0.0136663
0.013032
0.0111826
0.00878453
0.0061416
0.00350192
0.00232443
0.00442911
0.00469662
0.0039246
0.00328321
0.00351106
0.0031935
0.00277893
0.00260932
0.00262433
0.00258386
0.00250485
0.00242318
0.00237534
0.00238926
0.00244459
0.00237353
0.00197331
0.00289476
0.00684359
0.0122263
0.0148996
0.0101917
0.00546251
0.00511273
0.00649104
0.0073286
0.00782091
0.00824795
0.00853592
0.00844381
0.0076505
0.0058544
0.00369687
0.0061288
0.0118397
0.0123936
0.00837394
0.00412329
0.00134418
0.00735755
0.011003
0.0126816
0.0134206
0.0111099
0.00718145
0.0170901
0.00852106
0.00701037
0.00696966
0.00701177
0.00688797
0.00654628
0.00602387
0.0054819
0.00520779
0.00548353
0.00627054
0.00730915
0.00837398
0.00934573
0.0101711
0.0108199
0.0112596
0.0114025
0.0112587
0.010926
0.010462
0.00991318
0.00932372
0.00874642
0.00825606
0.00793402
0.00783441
0.00795561
0.00827839
0.00867518
0.00905146
0.00934611
0.00951734
0.00954488
0.00942554
0.00916688
0.00878685
0.00831171
0.00776927
0.0071795
0.00654644
0.00585302
0.00505976
0.00407865
0.00320634
0.00600426
0.0103685
0.0125766
0.0127452
0.0117177
0.0100207
0.00792437
0.00570421
0.00403777
0.00503439
0.00432669
0.00269542
0.00267174
0.00362941
0.00342037
0.00306033
0.00282944
0.00271268
0.00263002
0.00255773
0.00249589
0.00246014
0.00247523
0.00254869
0.00260058
0.00250279
0.00303978
0.00603256
0.0110758
0.0151114
0.0118122
0.00629607
0.00287051
0.00504681
0.00642127
0.00718458
0.00784409
0.00843443
0.00874964
0.0084937
0.00732743
0.00514313
0.00437584
0.00941304
0.0122405
0.00917242
0.00525444
0.00199807
0.00676466
0.0104959
0.0123169
0.013281
0.0112533
0.00653867
0.0181205
0.00926081
0.00765925
0.00750102
0.00739811
0.00708931
0.00651961
0.00574977
0.00502123
0.00476604
0.00530029
0.00639687
0.0076669
0.00887758
0.00993433
0.0107984
0.0114461
0.0118558
0.0119949
0.0118609
0.0115095
0.0109921
0.0103475
0.00960781
0.00880529
0.00800861
0.00732988
0.00689473
0.0067772
0.00698272
0.00742798
0.0079258
0.00837667
0.0087062
0.00887433
0.00887132
0.00870699
0.00840446
0.00799423
0.00750698
0.00696548
0.00637752
0.00573143
0.00499668
0.00412128
0.00324855
0.00491527
0.00870948
0.0111693
0.0120034
0.0117323
0.0107357
0.00923654
0.00748941
0.00607412
0.00631168
0.00478115
0.00200308
0.0024162
0.00366354
0.00346294
0.00314464
0.00293114
0.00281713
0.0027541
0.00270452
0.00265188
0.00260244
0.00258337
0.00262948
0.00273293
0.00281031
0.0031209
0.00504708
0.00925384
0.0142588
0.0125842
0.00799093
0.00332966
0.00170442
0.00462324
0.00583171
0.00677159
0.00767383
0.00840007
0.00871034
0.00829477
0.00683057
0.00449552
0.00598759
0.0109412
0.00918887
0.00599898
0.00366579
0.00681424
0.00985091
0.0115274
0.012616
0.0110655
0.00602441
0.0190578
0.00995866
0.00827936
0.00802516
0.00780276
0.00733636
0.00656315
0.00556175
0.00465649
0.00444538
0.00523467
0.00657309
0.00799555
0.00929639
0.0104076
0.0113011
0.0119579
0.012363
0.0125059
0.0123957
0.0120588
0.0115285
0.0108452
0.0100317
0.00909785
0.00808066
0.00707292
0.00624593
0.00577404
0.0057442
0.00614852
0.00672626
0.0073166
0.00780124
0.00811779
0.0082471
0.00819787
0.00799516
0.00767226
0.00726322
0.00679567
0.00628492
0.00573081
0.00512072
0.00443921
0.00378158
0.00452694
0.00728198
0.00969978
0.0110162
0.0113992
0.0110621
0.0101492
0.00884706
0.00767539
0.0077079
0.00556272
0.00184157
0.00231716
0.00350421
0.00331465
0.00309654
0.00299474
0.00297219
0.00297072
0.00294998
0.00289414
0.00281033
0.00272829
0.00269777
0.00276226
0.00290512
0.00316208
0.00423428
0.00721077
0.0123758
0.0124262
0.00891026
0.00487013
0.00174634
0.00184236
0.0036728
0.00503761
0.00627166
0.00735532
0.00814455
0.00840021
0.00781901
0.00611138
0.00404315
0.00767934
0.00832919
0.00603582
0.00448975
0.00683703
0.00907017
0.0105044
0.0116707
0.010596
0.00572958
0.0199206
0.0106212
0.00887139
0.00853584
0.00821514
0.00761723
0.0066673
0.00545603
0.00438811
0.00423429
0.00524396
0.00674987
0.00826593
0.0096251
0.0107789
0.0117044
0.0123851
0.0128092
0.0129728
0.0128856
0.0125732
0.0120665
0.011381
0.0105443
0.00955891
0.00842763
0.00718574
0.00598863
0.00508769
0.0046907
0.00491528
0.00551916
0.0062229
0.00685265
0.00731711
0.00758462
0.00766056
0.00757011
0.00734829
0.00703234
0.00665509
0.00623993
0.00579886
0.00533643
0.00486139
0.00444238
0.00471938
0.00638806
0.0084372
0.00999942
0.0109009
0.011152
0.0107793
0.00987467
0.00893491
0.00890679
0.00631673
0.00195159
0.00220852
0.0031279
0.00303558
0.00302196
0.00310793
0.00321094
0.00327513
0.00327612
0.00320986
0.00308761
0.00293789
0.00281086
0.0027723
0.0028669
0.0031122
0.00373119
0.00553887
0.00968018
0.0115045
0.00900093
0.00582449
0.00333832
0.00188206
0.0013233
0.00262981
0.00434468
0.00573912
0.00685255
0.00755553
0.00764411
0.00690245
0.0050618
0.00369407
0.0063708
0.00519482
0.00460621
0.00651206
0.00807053
0.00938476
0.0106843
0.0099097
0.00563444
0.0207237
0.0112565
0.00944094
0.00903393
0.00863152
0.00792433
0.00682266
0.00542558
0.00421296
0.00411558
0.00529008
0.00689789
0.00846954
0.00987207
0.0110671
0.0120328
0.0127524
0.0132144
0.0134157
0.0133641
0.0130786
0.0125868
0.0119192
0.0111004
0.0101093
0.00895284
0.00759605
0.00611964
0.00480499
0.00396499
0.00382253
0.00436669
0.00514874
0.00590774
0.00651166
0.0069143
0.0071162
0.00714158
0.00702628
0.0068099
0.0065296
0.00621536
0.00588847
0.00556468
0.00526211
0.00502667
0.00513756
0.00605314
0.00757303
0.00914583
0.0104116
0.0111651
0.0112723
0.0107086
0.00998098
0.00987051
0.00685257
0.00207714
0.00193275
0.00260936
0.00277771
0.0030557
0.00333472
0.00354053
0.0036528
0.0036713
0.00360204
0.00345708
0.00325924
0.00304841
0.00288666
0.00285071
0.00300716
0.00340637
0.00441103
0.0069585
0.00993174
0.00838004
0.00606376
0.00414081
0.00272841
0.00150972
0.000432481
0.00191212
0.00376853
0.00515246
0.00607755
0.00643546
0.00615198
0.00514622
0.00328288
0.00258262
0.00340128
0.00413962
0.0057068
0.00693837
0.00835964
0.00980453
0.00912208
0.00562292
0.0214789
0.0118728
0.00999518
0.00952366
0.00905223
0.00825353
0.00702139
0.0054626
0.00412607
0.00407046
0.00534606
0.00700525
0.00861088
0.0100519
0.011292
0.0123074
0.013079
0.0135938
0.0138465
0.0138412
0.0135924
0.0131231
0.0124617
0.011639
0.0106757
0.00955725
0.00818739
0.00654813
0.00489389
0.00365984
0.00304811
0.00335282
0.00415016
0.00501058
0.00573681
0.0062636
0.00658477
0.00672239
0.00671207
0.00659464
0.00640998
0.0061925
0.0059692
0.00576097
0.00558628
0.00547443
0.00555102
0.00607209
0.0071375
0.00858211
0.0100789
0.0112506
0.0117678
0.0114717
0.0109204
0.0105578
0.0071404
0.00209646
0.00145936
0.00220773
0.00277689
0.00330031
0.00369415
0.00395663
0.0041045
0.00414926
0.00409762
0.00395751
0.00374317
0.00347987
0.00321079
0.00300785
0.00297073
0.00316314
0.0036992
0.00504133
0.00781482
0.00723999
0.0057121
0.00433261
0.0031748
0.0021239
0.00121435
0.000327759
0.00165461
0.00338694
0.00454994
0.00508082
0.00492262
0.00412139
0.00282394
0.00106957
0.0018374
0.00343965
0.00471699
0.0059701
0.00759133
0.00909725
0.00837614
0.00567388
0.0221959
0.0124771
0.0105411
0.0100103
0.00947947
0.00860286
0.00725751
0.00555995
0.00412151
0.00408249
0.00539748
0.00707238
0.00870081
0.0101802
0.0114707
0.0125444
0.013379
0.0139582
0.0142732
0.0143237
0.0141192
0.0136787
0.0130292
0.0122024
0.011226
0.0101178
0.00884701
0.00717487
0.00524229
0.0037362
0.0027178
0.00256368
0.00327984
0.00420025
0.00502412
0.00565761
0.0060855
0.00632629
0.00641404
0.0063894
0.00629339
0.00616272
0.00602725
0.00590897
0.00582285
0.00578923
0.00587783
0.00623813
0.00703465
0.00835071
0.0100105
0.0115346
0.0123787
0.0122558
0.0117748
0.0109687
0.0071692
0.00210873
0.00131466
0.00240877
0.00319262
0.00376377
0.00417516
0.00446475
0.00465141
0.00474002
0.0047301
0.00462225
0.00442139
0.0041393
0.00379922
0.00344438
0.003151
0.00306107
0.0032469
0.00389735
0.00563851
0.00585214
0.00498927
0.00413137
0.0033259
0.00256821
0.00190132
0.00126018
0.000700144
0.00187789
0.00327975
0.0041628
0.00422905
0.00365347
0.00272394
0.00186086
0.00219695
0.00312223
0.00409325
0.00536836
0.00710025
0.00855561
0.00771837
0.00579492
0.0228827
0.0130756
0.0110843
0.0104985
0.00991579
0.00897144
0.00752667
0.00571197
0.00419324
0.00413981
0.00544043
0.00710637
0.00875142
0.0102702
0.0116157
0.0127547
0.0136608
0.0143139
0.0147008
0.0148161
0.0146639
0.0142586
0.0136248
0.0127952
0.0118044
0.0106776
0.00941017
0.00790407
0.00577374
0.00406049
0.00279789
0.00215496
0.00259374
0.00351085
0.00440061
0.00511861
0.00563664
0.00596755
0.00614242
0.00620036
0.0061821
0.00612522
0.00606051
0.00600863
0.00597939
0.00599241
0.00610978
0.00644292
0.00715387
0.00844315
0.0102792
0.0121107
0.0131732
0.0130712
0.0125159
0.0111301
0.00702332
0.00256657
0.00229993
0.00320087
0.00386406
0.0043573
0.00475911
0.00507966
0.00531864
0.00546775
0.00551719
0.00545976
0.00529234
0.00501687
0.00464263
0.00418999
0.0036938
0.00325438
0.00305073
0.00319457
0.00395406
0.00442055
0.00410972
0.00371609
0.0032865
0.0028413
0.00239754
0.00191681
0.00121891
0.00109967
0.00253005
0.0037915
0.00409935
0.00380777
0.00321805
0.00274742
0.00272833
0.00309089
0.00373959
0.00503575
0.0068181
0.00814837
0.00715044
0.00598646
0.0235455
0.0136724
0.011629
0.0109918
0.0103631
0.00935871
0.00782595
0.00591464
0.00433507
0.00423565
0.00547765
0.00711616
0.00877272
0.0103309
0.0117342
0.0129435
0.0139278
0.0146627
0.0151303
0.0153197
0.0152291
0.0148672
0.0142551
0.0134256
0.0124176
0.0112651
0.00997945
0.00852085
0.00649469
0.0045338
0.00312858
0.00218864
0.00217078
0.00297766
0.00388979
0.00466566
0.00525399
0.00565894
0.00590688
0.0060342
0.00608046
0.00608326
0.00607324
0.00606786
0.00607032
0.00610891
0.00626787
0.00666215
0.00744228
0.00885355
0.0109489
0.0130808
0.0140737
0.0138724
0.0130748
0.0110924
0.00690037
0.00354911
0.0035569
0.0041289
0.00462783
0.0050547
0.00545268
0.00581755
0.00611755
0.00633359
0.00644792
0.00644712
0.00632243
0.00606986
0.00569079
0.0051942
0.00459535
0.00391715
0.00328135
0.00290319
0.00292205
0.00314395
0.00321393
0.00320504
0.00313523
0.00298384
0.00275135
0.00241464
0.00179331
0.000908171
0.00241467
0.0038017
0.00426513
0.0041468
0.00371593
0.00325925
0.00299725
0.00300582
0.00347317
0.00489452
0.006689
0.00784694
0.00665972
0.00624082
0.0241892
0.0142701
0.0121771
0.0114919
0.0108222
0.00976389
0.00815332
0.0061647
0.00453985
0.0043668
0.00551441
0.00710892
0.00877061
0.0103663
0.0118284
0.0131111
0.0141786
0.0150021
0.0155588
0.015832
0.0158133
0.0155051
0.0149237
0.0141002
0.0130766
0.0118946
0.0105804
0.00911514
0.00727769
0.00512185
0.0035991
0.00249086
0.00209771
0.00262868
0.00349909
0.00430371
0.00494218
0.00540436
0.00571022
0.00589282
0.00599036
0.0060403
0.00607237
0.00609871
0.00611384
0.00616743
0.00638922
0.0069266
0.00791778
0.00964243
0.0121983
0.0142255
0.0149767
0.014579
0.0134247
0.0109446
0.00702271
0.0048017
0.00484145
0.0051502
0.00549011
0.00587013
0.00626635
0.00667603
0.00703298
0.00730937
0.00748263
0.00753543
0.00745565
0.00723581
0.00687314
0.00637049
0.00573619
0.0049818
0.00412226
0.00325593
0.00263873
0.00238972
0.00244217
0.00267127
0.00290423
0.00302164
0.00299913
0.00279608
0.00224108
0.000869165
0.00268343
0.0039258
0.004488
0.00446404
0.00405221
0.00350541
0.00303811
0.00280574
0.00326272
0.00491968
0.00667087
0.00762921
0.00623045
0.00654614
0.0248171
0.0148693
0.0127284
0.0119986
0.0112924
0.0101859
0.00850748
0.00645962
0.00480061
0.00453229
0.00555424
0.00708768
0.00874605
0.0103755
0.0118955
0.0132531
0.0144076
0.0153257
0.0159795
0.0163463
0.0164108
0.0161681
0.0156286
0.0148203
0.013787
0.0125775
0.0112289
0.00974213
0.0080347
0.0058386
0.00416055
0.002918
0.00227013
0.00247424
0.00322238
0.00401723
0.00468455
0.00518874
0.00553994
0.00576706
0.00590706
0.00599739
0.0060659
0.00611646
0.00613227
0.00620412
0.00652726
0.00731008
0.0086929
0.0110867
0.0136706
0.0153774
0.0157996
0.0151311
0.0135882
0.010816
0.0075028
0.00611848
0.00607784
0.00619997
0.00643138
0.00677956
0.00719165
0.00762263
0.00802202
0.00834261
0.00856157
0.00865962
0.00862291
0.0084419
0.00811112
0.00762929
0.00699957
0.00622946
0.00532991
0.00431695
0.00324785
0.00241125
0.0020732
0.00220897
0.00258438
0.00294003
0.00312609
0.00308478
0.0025734
0.000712019
0.00278478
0.00404867
0.00467191
0.00468414
0.00423123
0.00355742
0.00290275
0.00249739
0.00315704
0.00509138
0.00672669
0.00747994
0.00585246
0.00689007
0.0254312
0.0154687
0.013281
0.0125097
0.0117718
0.010623
0.00888752
0.00679724
0.00511081
0.00472768
0.00559442
0.00704994
0.00869505
0.0103529
0.0119289
0.0133616
0.0146057
0.0156233
0.0163816
0.016852
0.0170114
0.0168472
0.0163621
0.0155802
0.0145462
0.0133149
0.0119327
0.0104188
0.0087573
0.00667063
0.00479447
0.00340376
0.00252891
0.00242512
0.0029904
0.00374587
0.00443026
0.00497059
0.00536408
0.00563492
0.00581912
0.00595401
0.00606388
0.00614006
0.00615249
0.00626555
0.00675977
0.00795746
0.0101279
0.0128167
0.0151369
0.016424
0.0164818
0.015506
0.0136307
0.0108389
0.00828391
0.00739287
0.00724745
0.00724713
0.00741408
0.00774389
0.00816821
0.00859994
0.00902134
0.00936651
0.00961475
0.00974684
0.00974837
0.00960886
0.00932136
0.00888181
0.00828876
0.00754336
0.00665021
0.00561945
0.00447056
0.00325629
0.0022474
0.00191704
0.00219158
0.00269925
0.00307999
0.00318643
0.00247346
0.00131631
0.00294158
0.00413275
0.00476633
0.00478486
0.0042672
0.00345584
0.00263202
0.00212505
0.00323149
0.00535543
0.00682354
0.0073902
0.00552278
0.00726095
0.026032
0.0160654
0.0138306
0.0130214
0.0122571
0.0110731
0.00929165
0.00717224
0.00545586
0.00493525
0.00562918
0.00698869
0.00860978
0.0102901
0.0119188
0.0134261
0.0147612
0.0158823
0.0167518
0.017335
0.0176014
0.017529
0.0171122
0.0163692
0.0153446
0.0140993
0.0126887
0.0111451
0.00947571
0.00755083
0.00550481
0.00393502
0.00282439
0.00239118
0.00272871
0.00341842
0.00411437
0.00469606
0.00514248
0.00547095
0.00571592
0.00591351
0.00608112
0.00619236
0.00620538
0.00641331
0.00722334
0.00925628
0.0119432
0.0145361
0.0164589
0.0172995
0.0169912
0.0157208
0.013643
0.0110855
0.00922372
0.00857508
0.00834091
0.00826742
0.00839842
0.00871049
0.00912507
0.00955753
0.00996021
0.0103102
0.0105702
0.0107236
0.0107558
0.0106562
0.0104176
0.0100349
0.00950456
0.008823
0.00798697
0.0069946
0.00584721
0.00455171
0.00314439
0.00190028
0.0017182
0.00228787
0.00285343
0.00305719
0.00195683
0.00193825
0.00314998
0.00414685
0.00474319
0.0047538
0.00416794
0.00322458
0.00226157
0.00178271
0.00349119
0.00562881
0.00693693
0.00735533
0.00524338
0.00764771
0.0266188
0.0166546
0.0143717
0.0135281
0.0127435
0.0115329
0.00971681
0.00757764
0.00582587
0.0051536
0.0056531
0.00689572
0.0084803
0.0101762
0.011854
0.0134344
0.0148611
0.0160883
0.0170745
0.0177792
0.0181641
0.0181974
0.0178633
0.0171725
0.0161683
0.0149174
0.0134851
0.0119124
0.010216
0.00838214
0.00632823
0.00452729
0.00316467
0.00236965
0.00237389
0.00297243
0.00368504
0.00432618
0.00484947
0.00526333
0.00559931
0.00588925
0.00613831
0.00629792
0.00632654
0.00674604
0.00829192
0.0110314
0.0137823
0.0160873
0.0175674
0.0179747
0.0173281
0.0158233
0.0137079
0.0115375
0.0101918
0.00964107
0.00934134
0.00922106
0.00931966
0.00959864
0.00997978
0.0103888
0.0107673
0.0111041
0.0113612
0.0115236
0.0115775
0.0115126
0.0113221
0.0110017
0.0105479
0.00995604
0.00921945
0.00832864
0.00727093
0.00602772
0.00457131
0.00287553
0.00123158
0.00169224
0.00251895
0.00270936
0.00206981
0.00258298
0.00334442
0.00407385
0.00458979
0.00458429
0.00393831
0.00287937
0.0018271
0.00159331
0.00384872
0.00584411
0.00704863
0.0073697
0.00501739
0.00804022
0.0271898
0.0172303
0.014897
0.0140226
0.013225
0.011998
0.0101587
0.00800556
0.00620964
0.00537283
0.00565888
0.00676188
0.00829552
0.00999981
0.011723
0.0133743
0.0148919
0.0162265
0.0173332
0.0181667
0.0186809
0.0188336
0.0185972
0.0179728
0.0170006
0.015753
0.014306
0.012709
0.010985
0.00915687
0.00721138
0.00522003
0.00359019
0.00241562
0.00197622
0.00240334
0.00313186
0.00385669
0.00448911
0.005025
0.0054895
0.00590464
0.00625721
0.00647656
0.0065677
0.0075367
0.00992918
0.0128786
0.0154641
0.0174003
0.0184399
0.0184514
0.0175183
0.015872
0.0138685
0.0121147
0.0111011
0.0105765
0.0102284
0.0100703
0.010129
0.0103584
0.0106854
0.0110466
0.0113925
0.011693
0.0119346
0.0120957
0.012163
0.0121263
0.0119793
0.011719
0.0113435
0.0108497
0.010231
0.00947572
0.00856679
0.00748053
0.00618377
0.00463083
0.00272207
0.000823812
0.0021514
0.00242587
0.0026448
0.00304212
0.00342581
0.00389469
0.00430841
0.0042817
0.00358841
0.00243952
0.00139181
0.00159935
0.00419879
0.00597177
0.00713975
0.00742097
0.00484569
0.00842995
0.0277419
0.0177853
0.015398
0.0144963
0.0136941
0.0124626
0.0106115
0.00844704
0.00659661
0.00558531
0.00563663
0.00657544
0.00804326
0.00974959
0.0115146
0.0132344
0.0148411
0.0162827
0.0175117
0.0184791
0.0191319
0.0194172
0.0192939
0.018751
0.0178231
0.0165876
0.015133
0.013519
0.0117732
0.00992649
0.00801815
0.00606122
0.00416184
0.00262311
0.00162693
0.00171079
0.00246539
0.00331267
0.004095
0.00479264
0.00542008
0.00598377
0.00645006
0.00674048
0.00709246
0.00889782
0.0117063
0.014601
0.0169138
0.0184577
0.0190852
0.0187524
0.0176007
0.0159142
0.0141188
0.0127244
0.0119006
0.0113678
0.0109772
0.0107755
0.0107774
0.0109361
0.0111881
0.0114809
0.0117745
0.0120356
0.0122529
0.0124075
0.0124839
0.0124711
0.0123626
0.0121567
0.0118544
0.0114559
0.0109569
0.0103457
0.00960286
0.00870255
0.00761398
0.00630055
0.00472785
0.002883
0.00151174
0.00244324
0.00300721
0.00323739
0.00335923
0.00361554
0.0039227
0.00386789
0.00313895
0.00193945
0.0010823
0.00185139
0.00438637
0.00600855
0.00719022
0.00748886
0.00472523
0.00881075
0.0282712
0.0183115
0.0158649
0.0149392
0.014142
0.0129198
0.0110688
0.00889478
0.00698245
0.00578648
0.00556897
0.00632177
0.00771139
0.00941554
0.01122
0.0130057
0.0146987
0.0162447
0.017595
0.0186985
0.0194968
0.0199267
0.019932
0.0194865
0.0186163
0.017402
0.0159463
0.0143226
0.0125645
0.0107046
0.00879425
0.00687604
0.00496469
0.00311251
0.0015754
0.000880101
0.00170257
0.00274644
0.00372744
0.0046181
0.00542384
0.00613547
0.00670995
0.00714354
0.00808437
0.0104739
0.0134023
0.0161159
0.0181106
0.0192723
0.0195292
0.0189102
0.0176133
0.0159725
0.0144176
0.0132906
0.0125604
0.0120004
0.0115626
0.0113023
0.0112265
0.0112934
0.0114518
0.0116606
0.0118886
0.0121076
0.0122964
0.0124446
0.0125316
0.0125435
0.012472
0.0123155
0.0120783
0.0117664
0.011381
0.0109132
0.0103423
0.00963836
0.0087651
0.00768499
0.00636665
0.00475668
0.00239324
0.00170767
0.00252137
0.00289285
0.00306648
0.00326575
0.00348616
0.00338805
0.00263117
0.0014478
0.00102173
0.00230025
0.00440095
0.00595464
0.00718115
0.00754864
0.0046492
0.00917885
0.028773
0.0188003
0.0162873
0.0153401
0.0145584
0.0133614
0.0115231
0.00934093
0.00735843
0.0059678
0.00545998
0.00599541
0.00729248
0.00899093
0.0108334
0.0126825
0.0144578
0.0161031
0.0175705
0.0188088
0.0197563
0.0203404
0.0204893
0.0201584
0.0193604
0.018177
0.0167258
0.0150986
0.0133378
0.0114782
0.00957402
0.00767341
0.00579829
0.00395179
0.00215648
0.000487256
0.000994328
0.00229357
0.00348025
0.00455258
0.00551267
0.00635026
0.00706693
0.00779738
0.0093456
0.0120357
0.0149178
0.0173936
0.0190652
0.0198714
0.019804
0.0189576
0.0175831
0.0160427
0.0147114
0.0137606
0.0130629
0.0124614
0.0119643
0.0116265
0.0114522
0.0114085
0.0114576
0.01157
0.0117234
0.0118949
0.0120553
0.0122027
0.0123092
0.0123551
0.0123266
0.0122194
0.0120402
0.0118024
0.0115172
0.0111837
0.0107832
0.0102825
0.00963961
0.00880967
0.0077477
0.00640107
0.00471785
0.00230488
0.00200624
0.00243558
0.00275308
0.00296172
0.00308785
0.00291912
0.00215953
0.00120407
0.00128489
0.00265417
0.00432439
0.0058174
0.00709937
0.00757563
0.00460794
0.00953246
0.0292426
0.0192427
0.0166543
0.0156868
0.0149313
0.013778
0.0119672
0.00977987
0.00772379
0.00613817
0.0053234
0.00560053
0.00678379
0.00847235
0.0103524
0.0122626
0.0141153
0.0158529
0.0174295
0.0187967
0.0198926
0.0206375
0.0209437
0.020745
0.0200359
0.0188941
0.0174524
0.0158254
0.0140695
0.0122228
0.0103429
0.00848058
0.0066571
0.00487696
0.00316376
0.0016125
0.00107642
0.00221466
0.00347335
0.00463659
0.00568909
0.00663094
0.00752663
0.00866395
0.0106701
0.0134585
0.016211
0.018437
0.0198009
0.0202859
0.0199414
0.0189218
0.0175216
0.016103
0.0149511
0.0141022
0.0133981
0.0127415
0.0121693
0.0117335
0.0114396
0.0112655
0.0111878
0.0111899
0.0112599
0.0113804
0.0115199
0.011677
0.0118199
0.0119197
0.0119529
0.0119071
0.0117864
0.0116113
0.0114075
0.0111893
0.0109462
0.0106442
0.0102347
0.0096609
0.00886187
0.00777429
0.00634236
0.00445262
0.00232216
0.00230105
0.00260056
0.00279041
0.00281379
0.00256814
0.00190552
0.00137298
0.00170909
0.00283052
0.00419357
0.00560889
0.0069392
0.00754867
0.00458963
0.00987123
0.0296747
0.0196303
0.016955
0.0159661
0.0152473
0.0141584
0.0123933
0.0102073
0.00807928
0.00630411
0.00516962
0.00513943
0.00618379
0.00785764
0.00977677
0.0117468
0.0136716
0.0154927
0.0171674
0.0186528
0.0198909
0.0207987
0.0212737
0.0212255
0.0206241
0.0195369
0.0181094
0.0164839
0.0147362
0.0129104
0.0110681
0.00926498
0.00752346
0.00584577
0.00425578
0.00288381
0.00219003
0.00267098
0.0036951
0.00481649
0.00591064
0.00697133
0.00810854
0.00963375
0.0119124
0.0146804
0.0172741
0.0192608
0.020344
0.0205458
0.0199684
0.0188205
0.017427
0.0161242
0.0150997
0.0142978
0.0135622
0.0128378
0.0121745
0.0116212
0.0111876
0.0108633
0.0106393
0.0105133
0.0104859
0.0105484
0.0106756
0.0108542
0.0110563
0.0112404
0.0113691
0.0114148
0.0113706
0.0112578
0.0111183
0.01099
0.0108801
0.0107596
0.0105745
0.0102568
0.00972917
0.00890839
0.00771995
0.00610912
0.00353168
0.00265785
0.00267278
0.00278267
0.00272968
0.00245053
0.00198759
0.00175551
0.00207876
0.00290294
0.00402163
0.00534116
0.00670157
0.00745239
0.00458047
0.0101958
0.030065
0.0199556
0.0171789
0.0161647
0.0154913
0.01449
0.0127932
0.0106202
0.00842778
0.00647541
0.00501079
0.00458819
0.00548605
0.00714387
0.00910773
0.0111381
0.0131301
0.0150248
0.0167839
0.0183724
0.0197408
0.0208079
0.0214596
0.02158
0.021108
0.0200917
0.0186846
0.0170595
0.0153191
0.013516
0.011716
0.00998185
0.00833951
0.00679055
0.00535719
0.00413583
0.00334834
0.00339389
0.00409219
0.00509047
0.00619894
0.00738886
0.00876933
0.0105817
0.0129853
0.0156766
0.0181115
0.019883
0.0207197
0.0206771