/*--------------------------------*- C++ -*----------------------------------*\
| =========                 |                                                 |
| \\      /  F ield         | OpenFOAM: The Open Source CFD Toolbox           |
|  \\    /   O peration     | Version:  4.1                                   |
|   \\  /    A nd           | Web:      www.OpenFOAM.org                      |
|    \\/     M anipulation  |                                                 |
\*---------------------------------------------------------------------------*/
FoamFile
{
    version     2.0;
    format      ascii;
    class       volScalarField;
    location    "800";
    object      p;
}
// * * * * * * * * * * * * * * * * * * * * * * * * * * * * * * * * * * * * * //

dimensions      [0 2 -2 0 0 0 0];

internalField   nonuniform List<scalar> 
5000
(
0
-5.26974e-06
-7.11523e-06
-8.73986e-06
-9.63681e-06
-9.37848e-06
-7.78294e-06
-4.71152e-06
-6.84163e-09
6.51763e-06
1.50797e-05
2.57967e-05
3.84212e-05
5.22821e-05
6.64291e-05
7.95892e-05
8.98827e-05
9.53677e-05
9.74867e-05
9.4161e-05
8.31482e-05
6.70233e-05
4.82421e-05
2.82781e-05
8.18401e-06
-1.1138e-05
-2.89944e-05
-4.49989e-05
-5.91089e-05
-7.16072e-05
-8.29664e-05
-9.36429e-05
-0.000103737
-0.00011291
-0.000120574
-0.000126272
-0.00012981
-0.000131014
-0.000129669
-0.000125941
-0.000120673
-0.000114966
-0.000110851
-0.000110116
-0.000113514
-0.000118048
-0.000116296
-0.000112883
-0.000119333
-0.000131758
-0.000138175
-0.000138717
-0.000136491
-0.000138604
-0.000147085
-0.000156985
-0.000165229
-0.000174992
-0.000180234
-0.000173002
-0.000170325
-0.000167591
-0.000153146
-0.000129655
-0.000114354
-0.000110356
-0.000112182
-0.000116257
-0.000121096
-0.000125558
-0.000126975
-0.00012348
-0.000118824
-0.000114287
-0.000114073
-0.000114988
-0.000117138
-0.000113864
-0.000108468
-0.000102897
-9.82344e-05
-9.49357e-05
-9.36376e-05
-9.49935e-05
-9.86667e-05
-0.000103111
-0.000105777
-0.000103468
-0.000101254
-0.000101707
-0.000108389
-0.000110577
-0.000104455
-8.82897e-05
-6.27683e-05
-3.51186e-05
-1.56011e-05
-1.0894e-05
-2.04566e-05
-2.8819e-05
-0.0984254
-0.0984341
-0.0984382
-0.098442
-0.0984453
-0.0984479
-0.0984496
-0.0984499
-0.0984487
-0.0984456
-0.0984402
-0.0984324
-0.0984225
-0.0984113
-0.0983997
-0.0983894
-0.0983819
-0.0983782
-0.0983777
-0.0983809
-0.0983901
-0.0984038
-0.0984202
-0.0984378
-0.0984555
-0.0984724
-0.0984878
-0.0985013
-0.0985126
-0.098522
-0.0985299
-0.0985364
-0.0985419
-0.0985462
-0.0985493
-0.0985517
-0.0985537
-0.0985556
-0.0985568
-0.0985572
-0.0985568
-0.0985564
-0.0985568
-0.0985585
-0.0985616
-0.0985638
-0.0985597
-0.0985572
-0.0985721
-0.0985878
-0.0985968
-0.0985997
-0.0985998
-0.098603
-0.0986113
-0.0986199
-0.0986231
-0.098624
-0.0986212
-0.0986086
-0.098592
-0.0985895
-0.0985867
-0.0985723
-0.0985615
-0.0985566
-0.0985549
-0.0985547
-0.0985549
-0.0985554
-0.0985576
-0.0985614
-0.0985624
-0.0985587
-0.0985555
-0.0985606
-0.0985701
-0.0985721
-0.0985698
-0.0985659
-0.0985618
-0.0985588
-0.0985578
-0.0985595
-0.0985636
-0.0985682
-0.0985697
-0.0985654
-0.0985581
-0.0985631
-0.0985763
-0.0985838
-0.0985826
-0.0985704
-0.0985484
-0.0985236
-0.0985055
-0.098499
-0.0985024
-0.098508
-0.196887
-0.196898
-0.196903
-0.196908
-0.196912
-0.196916
-0.196919
-0.196921
-0.196922
-0.19692
-0.196915
-0.196909
-0.1969
-0.19689
-0.19688
-0.196871
-0.196866
-0.196863
-0.196864
-0.196867
-0.196876
-0.196888
-0.196903
-0.196919
-0.196936
-0.196951
-0.196966
-0.196978
-0.196988
-0.196997
-0.197003
-0.197007
-0.197009
-0.19701
-0.197011
-0.197011
-0.197013
-0.197016
-0.197018
-0.197021
-0.197023
-0.197024
-0.197026
-0.197028
-0.197032
-0.197035
-0.197032
-0.197031
-0.197045
-0.197062
-0.197071
-0.197071
-0.197068
-0.197067
-0.19707
-0.197073
-0.197075
-0.197069
-0.197054
-0.197038
-0.197026
-0.197028
-0.197034
-0.197032
-0.197027
-0.197025
-0.197025
-0.197025
-0.197026
-0.197028
-0.197031
-0.197036
-0.197039
-0.197037
-0.197029
-0.197033
-0.197044
-0.197048
-0.197047
-0.197043
-0.197039
-0.197036
-0.197035
-0.197037
-0.197041
-0.197046
-0.197048
-0.197045
-0.197037
-0.197044
-0.197059
-0.197069
-0.197071
-0.197062
-0.197042
-0.197018
-0.197
-0.196991
-0.196993
-0.196998
-0.295363
-0.295372
-0.295376
-0.295381
-0.295385
-0.29539
-0.295394
-0.295397
-0.295398
-0.295397
-0.295393
-0.295387
-0.295379
-0.29537
-0.295362
-0.295356
-0.295352
-0.295351
-0.295352
-0.295356
-0.295364
-0.295375
-0.295389
-0.295404
-0.295419
-0.295434
-0.295447
-0.295458
-0.295467
-0.295474
-0.295479
-0.295482
-0.295483
-0.295484
-0.295483
-0.295483
-0.295484
-0.295486
-0.295488
-0.295491
-0.295493
-0.295494
-0.295496
-0.295499
-0.295503
-0.295507
-0.295508
-0.295508
-0.295519
-0.295535
-0.295542
-0.29554
-0.295532
-0.295523
-0.29552
-0.295519
-0.295516
-0.295508
-0.295495
-0.295481
-0.295474
-0.295478
-0.295486
-0.295493
-0.295493
-0.295494
-0.295495
-0.295496
-0.295498
-0.295501
-0.295505
-0.295511
-0.295517
-0.295518
-0.29551
-0.295515
-0.295524
-0.295527
-0.295526
-0.295522
-0.295517
-0.295513
-0.295512
-0.295513
-0.295517
-0.295523
-0.295526
-0.295524
-0.295519
-0.295528
-0.295545
-0.295558
-0.295563
-0.295556
-0.295537
-0.295513
-0.295494
-0.295483
-0.295484
-0.295488
-0.393841
-0.393849
-0.393852
-0.393857
-0.393862
-0.393867
-0.393871
-0.393874
-0.393875
-0.393875
-0.393872
-0.393866
-0.39386
-0.393852
-0.393846
-0.393841
-0.393838
-0.393839
-0.393841
-0.393846
-0.393854
-0.393864
-0.393877
-0.39389
-0.393904
-0.393918
-0.39393
-0.39394
-0.393948
-0.393954
-0.393958
-0.39396
-0.39396
-0.39396
-0.393959
-0.393959
-0.393959
-0.39396
-0.393961
-0.393962
-0.393964
-0.393965
-0.393966
-0.393969
-0.393973
-0.393977
-0.39398
-0.393979
-0.393986
-0.393997
-0.394003
-0.394
-0.393989
-0.393976
-0.39397
-0.393969
-0.393968
-0.393962
-0.393953
-0.393944
-0.39394
-0.393944
-0.393951
-0.393958
-0.39396
-0.393962
-0.393964
-0.393966
-0.393969
-0.393973
-0.393978
-0.393984
-0.393991
-0.393992
-0.393989
-0.393997
-0.394006
-0.394009
-0.394006
-0.394001
-0.393995
-0.39399
-0.393987
-0.393987
-0.39399
-0.393995
-0.393999
-0.393999
-0.393997
-0.394007
-0.394026
-0.394042
-0.394051
-0.394047
-0.394029
-0.394004
-0.393983
-0.39397
-0.393972
-0.393972
-0.492321
-0.492327
-0.49233
-0.492335
-0.49234
-0.492344
-0.492349
-0.492352
-0.492354
-0.492353
-0.492351
-0.492346
-0.492341
-0.492335
-0.49233
-0.492326
-0.492325
-0.492326
-0.492329
-0.492335
-0.492343
-0.492353
-0.492365
-0.492377
-0.49239
-0.492403
-0.492414
-0.492423
-0.49243
-0.492435
-0.492438
-0.492439
-0.492439
-0.492438
-0.492437
-0.492436
-0.492435
-0.492435
-0.492435
-0.492435
-0.492435
-0.492436
-0.492437
-0.492438
-0.492441
-0.492445
-0.492447
-0.492445
-0.492446
-0.492452
-0.492455
-0.492452
-0.492443
-0.492429
-0.492423
-0.492425
-0.492428
-0.492427
-0.492422
-0.492416
-0.492414
-0.492417
-0.492421
-0.492426
-0.492429
-0.492431
-0.492434
-0.492436
-0.492439
-0.492443
-0.492448
-0.492454
-0.492459
-0.49246
-0.492462
-0.492475
-0.492488
-0.492491
-0.492487
-0.49248
-0.492471
-0.492465
-0.49246
-0.492458
-0.49246
-0.492464
-0.492467
-0.492468
-0.492469
-0.492477
-0.492498
-0.492518
-0.49253
-0.492531
-0.492514
-0.492487
-0.492465
-0.492451
-0.492451
-0.492445
-0.590801
-0.590807
-0.590809
-0.590814
-0.590818
-0.590823
-0.590827
-0.590831
-0.590832
-0.590832
-0.59083
-0.590826
-0.590822
-0.590817
-0.590814
-0.590812
-0.590812
-0.590814
-0.590818
-0.590824
-0.590832
-0.590841
-0.590852
-0.590864
-0.590876
-0.590888
-0.590898
-0.590906
-0.590913
-0.590917
-0.590919
-0.590919
-0.590918
-0.590917
-0.590915
-0.590913
-0.590911
-0.59091
-0.590909
-0.590908
-0.590908
-0.590908
-0.590907
-0.590908
-0.590909
-0.590911
-0.590911
-0.590907
-0.590905
-0.590906
-0.590906
-0.590902
-0.590895
-0.590886
-0.59088
-0.590885
-0.590892
-0.590894
-0.590891
-0.590888
-0.590887
-0.590888
-0.590891
-0.590895
-0.590898
-0.5909
-0.590903
-0.590905
-0.590908
-0.590911
-0.590916
-0.59092
-0.590923
-0.590925
-0.590929
-0.590947
-0.590966
-0.590973
-0.590968
-0.590958
-0.590946
-0.590937
-0.59093
-0.590927
-0.590926
-0.590928
-0.59093
-0.590931
-0.590932
-0.590937
-0.590958
-0.590979
-0.590993
-0.590996
-0.590984
-0.590958
-0.590937
-0.590923
-0.590919
-0.590911
-0.689282
-0.689287
-0.689289
-0.689293
-0.689297
-0.689302
-0.689306
-0.689309
-0.689311
-0.689311
-0.689309
-0.689306
-0.689303
-0.6893
-0.689297
-0.689296
-0.689297
-0.6893
-0.689305
-0.689311
-0.689319
-0.689329
-0.689339
-0.68935
-0.689361
-0.689372
-0.689381
-0.689389
-0.689395
-0.689398
-0.6894
-0.689399
-0.689398
-0.689395
-0.689393
-0.68939
-0.689388
-0.689386
-0.689384
-0.689382
-0.689381
-0.68938
-0.689379
-0.689378
-0.689377
-0.689376
-0.689374
-0.689368
-0.689364
-0.689362
-0.68936
-0.689357
-0.689351
-0.689345
-0.689342
-0.689348
-0.689357
-0.68936
-0.689359
-0.689357
-0.689357
-0.689359
-0.689361
-0.689364
-0.689367
-0.689369
-0.689372
-0.689374
-0.689377
-0.689379
-0.689382
-0.689385
-0.689387
-0.689388
-0.689393
-0.68941
-0.689433
-0.689446
-0.689444
-0.689431
-0.689417
-0.689406
-0.689398
-0.689393
-0.68939
-0.689389
-0.689389
-0.689389
-0.689389
-0.689391
-0.689407
-0.689426
-0.68944
-0.689444
-0.689436
-0.689417
-0.689399
-0.689386
-0.689379
-0.689373
-0.787763
-0.787767
-0.787769
-0.787773
-0.787777
-0.787781
-0.787785
-0.787788
-0.78779
-0.78779
-0.787788
-0.787786
-0.787784
-0.787781
-0.78778
-0.787781
-0.787782
-0.787786
-0.787791
-0.787798
-0.787806
-0.787814
-0.787824
-0.787834
-0.787845
-0.787854
-0.787863
-0.78787
-0.787876
-0.787879
-0.78788
-0.787879
-0.787877
-0.787874
-0.787871
-0.787868
-0.787864
-0.787862
-0.787859
-0.787857
-0.787855
-0.787853
-0.787851
-0.787849
-0.787846
-0.787843
-0.787838
-0.787832
-0.787826
-0.787823
-0.787821
-0.787817
-0.787813
-0.787809
-0.787808
-0.787813
-0.787822
-0.787826
-0.787826
-0.787826
-0.787826
-0.787828
-0.78783
-0.787833
-0.787835
-0.787838
-0.78784
-0.787842
-0.787845
-0.787846
-0.787848
-0.787849
-0.78785
-0.787851
-0.787854
-0.787867
-0.787888
-0.787905
-0.787907
-0.787896
-0.787883
-0.787871
-0.787862
-0.787857
-0.787853
-0.78785
-0.787848
-0.787845
-0.787842
-0.787842
-0.78785
-0.787863
-0.787876
-0.78788
-0.787877
-0.787866
-0.787854
-0.787845
-0.787837
-0.787834
-0.886244
-0.886247
-0.886249
-0.886252
-0.886256
-0.88626
-0.886264
-0.886266
-0.886268
-0.886268
-0.886267
-0.886266
-0.886264
-0.886263
-0.886263
-0.886264
-0.886267
-0.886271
-0.886276
-0.886283
-0.886291
-0.886299
-0.886308
-0.886317
-0.886326
-0.886335
-0.886343
-0.88635
-0.886355
-0.886358
-0.886359
-0.886358
-0.886355
-0.886352
-0.886348
-0.886345
-0.886341
-0.886338
-0.886335
-0.886332
-0.886329
-0.886327
-0.886324
-0.886321
-0.886317
-0.886313
-0.886307
-0.886299
-0.886293
-0.886289
-0.886286
-0.886283
-0.886279
-0.886276
-0.886275
-0.886279
-0.886287
-0.886291
-0.886292
-0.886293
-0.886294
-0.886296
-0.886299
-0.886301
-0.886304
-0.886306
-0.886308
-0.886311
-0.886312
-0.886314
-0.886315
-0.886315
-0.886314
-0.886313
-0.886315
-0.88632
-0.886336
-0.886351
-0.886356
-0.886352
-0.886342
-0.886332
-0.886325
-0.88632
-0.886316
-0.886313
-0.886308
-0.886303
-0.886296
-0.886291
-0.88629
-0.886299
-0.886308
-0.886313
-0.886315
-0.886312
-0.886307
-0.886302
-0.886297
-0.886295
-0.984724
-0.984728
-0.984729
-0.984732
-0.984735
-0.984739
-0.984742
-0.984745
-0.984746
-0.984746
-0.984746
-0.984745
-0.984744
-0.984744
-0.984745
-0.984747
-0.98475
-0.984755
-0.984761
-0.984767
-0.984775
-0.984782
-0.984791
-0.984799
-0.984807
-0.984815
-0.984822
-0.984828
-0.984833
-0.984836
-0.984836
-0.984835
-0.984833
-0.984829
-0.984826
-0.984822
-0.984818
-0.984814
-0.984811
-0.984808
-0.984805
-0.984802
-0.984798
-0.984795
-0.98479
-0.984785
-0.984779
-0.984772
-0.984766
-0.984761
-0.984757
-0.984753
-0.984749
-0.984745
-0.984744
-0.984746
-0.984752
-0.984756
-0.984757
-0.984759
-0.984761
-0.984764
-0.984766
-0.984769
-0.984772
-0.984774
-0.984776
-0.984779
-0.98478
-0.984781
-0.984782
-0.984781
-0.98478
-0.984778
-0.984776
-0.984776
-0.984787
-0.984796
-0.984803
-0.984803
-0.984799
-0.984793
-0.984788
-0.984784
-0.984781
-0.984777
-0.984772
-0.984764
-0.984754
-0.984744
-0.984737
-0.984741
-0.984745
-0.984752
-0.984759
-0.984762
-0.984762
-0.984761
-0.984759
-0.984758
-1.08321
-1.08321
-1.08321
-1.08321
-1.08322
-1.08322
-1.08322
-1.08322
-1.08322
-1.08322
-1.08322
-1.08322
-1.08322
-1.08323
-1.08323
-1.08323
-1.08323
-1.08324
-1.08324
-1.08325
-1.08326
-1.08326
-1.08327
-1.08328
-1.08329
-1.08329
-1.0833
-1.08331
-1.08331
-1.08331
-1.08331
-1.08331
-1.08331
-1.08331
-1.0833
-1.0833
-1.08329
-1.08329
-1.08329
-1.08328
-1.08328
-1.08328
-1.08327
-1.08327
-1.08327
-1.08326
-1.08325
-1.08325
-1.08324
-1.08324
-1.08323
-1.08323
-1.08322
-1.08322
-1.08321
-1.08321
-1.08322
-1.08322
-1.08322
-1.08323
-1.08323
-1.08323
-1.08323
-1.08324
-1.08324
-1.08324
-1.08324
-1.08325
-1.08325
-1.08325
-1.08325
-1.08325
-1.08325
-1.08324
-1.08324
-1.08324
-1.08324
-1.08325
-1.08325
-1.08326
-1.08326
-1.08325
-1.08325
-1.08325
-1.08325
-1.08324
-1.08324
-1.08323
-1.08322
-1.08321
-1.0832
-1.0832
-1.0832
-1.08321
-1.08321
-1.08322
-1.08322
-1.08322
-1.08322
-1.08322
-1.18169
-1.18169
-1.18169
-1.18169
-1.18169
-1.1817
-1.1817
-1.1817
-1.1817
-1.1817
-1.1817
-1.1817
-1.1817
-1.18171
-1.18171
-1.18171
-1.18172
-1.18172
-1.18173
-1.18173
-1.18174
-1.18175
-1.18175
-1.18176
-1.18177
-1.18177
-1.18178
-1.18178
-1.18178
-1.18179
-1.18179
-1.18179
-1.18178
-1.18178
-1.18178
-1.18177
-1.18177
-1.18177
-1.18176
-1.18176
-1.18176
-1.18175
-1.18175
-1.18175
-1.18174
-1.18174
-1.18173
-1.18172
-1.18172
-1.18171
-1.18171
-1.1817
-1.1817
-1.18169
-1.18168
-1.18168
-1.18168
-1.18168
-1.18169
-1.18169
-1.1817
-1.1817
-1.1817
-1.1817
-1.18171
-1.18171
-1.18171
-1.18172
-1.18172
-1.18172
-1.18172
-1.18172
-1.18171
-1.18171
-1.18171
-1.1817
-1.1817
-1.18171
-1.18171
-1.18172
-1.18172
-1.18172
-1.18172
-1.18172
-1.18171
-1.18171
-1.18171
-1.1817
-1.18169
-1.18168
-1.18167
-1.18167
-1.18167
-1.18167
-1.18168
-1.18169
-1.18169
-1.18169
-1.18169
-1.18169
-1.28017
-1.28017
-1.28017
-1.28017
-1.28017
-1.28018
-1.28018
-1.28018
-1.28018
-1.28018
-1.28018
-1.28018
-1.28019
-1.28019
-1.28019
-1.28019
-1.2802
-1.2802
-1.28021
-1.28021
-1.28022
-1.28023
-1.28023
-1.28024
-1.28024
-1.28025
-1.28025
-1.28026
-1.28026
-1.28026
-1.28026
-1.28026
-1.28026
-1.28026
-1.28025
-1.28025
-1.28025
-1.28024
-1.28024
-1.28024
-1.28023
-1.28023
-1.28023
-1.28022
-1.28022
-1.28021
-1.28021
-1.2802
-1.2802
-1.28019
-1.28019
-1.28018
-1.28017
-1.28016
-1.28016
-1.28015
-1.28015
-1.28015
-1.28016
-1.28016
-1.28016
-1.28017
-1.28017
-1.28017
-1.28018
-1.28018
-1.28018
-1.28018
-1.28019
-1.28019
-1.28019
-1.28019
-1.28018
-1.28018
-1.28018
-1.28017
-1.28017
-1.28017
-1.28017
-1.28018
-1.28018
-1.28018
-1.28018
-1.28018
-1.28018
-1.28018
-1.28018
-1.28017
-1.28016
-1.28016
-1.28015
-1.28014
-1.28015
-1.28015
-1.28015
-1.28015
-1.28016
-1.28016
-1.28016
-1.28016
-1.37865
-1.37865
-1.37865
-1.37865
-1.37865
-1.37866
-1.37866
-1.37866
-1.37866
-1.37866
-1.37866
-1.37866
-1.37867
-1.37867
-1.37867
-1.37868
-1.37868
-1.37868
-1.37869
-1.3787
-1.3787
-1.37871
-1.37871
-1.37872
-1.37872
-1.37873
-1.37873
-1.37873
-1.37873
-1.37873
-1.37873
-1.37873
-1.37873
-1.37873
-1.37873
-1.37873
-1.37872
-1.37872
-1.37872
-1.37871
-1.37871
-1.37871
-1.3787
-1.3787
-1.3787
-1.37869
-1.37869
-1.37868
-1.37868
-1.37867
-1.37867
-1.37866
-1.37865
-1.37864
-1.37863
-1.37862
-1.37862
-1.37862
-1.37862
-1.37863
-1.37863
-1.37864
-1.37864
-1.37864
-1.37865
-1.37865
-1.37865
-1.37865
-1.37866
-1.37866
-1.37866
-1.37866
-1.37865
-1.37865
-1.37865
-1.37864
-1.37864
-1.37864
-1.37864
-1.37865
-1.37865
-1.37865
-1.37865
-1.37865
-1.37865
-1.37865
-1.37865
-1.37864
-1.37864
-1.37863
-1.37863
-1.37862
-1.37862
-1.37862
-1.37862
-1.37863
-1.37863
-1.37863
-1.37863
-1.37863
-1.47713
-1.47713
-1.47713
-1.47713
-1.47714
-1.47714
-1.47714
-1.47714
-1.47714
-1.47714
-1.47714
-1.47715
-1.47715
-1.47715
-1.47715
-1.47716
-1.47716
-1.47717
-1.47717
-1.47718
-1.47718
-1.47719
-1.47719
-1.4772
-1.4772
-1.4772
-1.47721
-1.47721
-1.47721
-1.47721
-1.47721
-1.47721
-1.47721
-1.47721
-1.4772
-1.4772
-1.4772
-1.4772
-1.47719
-1.47719
-1.47719
-1.47718
-1.47718
-1.47718
-1.47717
-1.47717
-1.47717
-1.47716
-1.47716
-1.47715
-1.47714
-1.47713
-1.47712
-1.47711
-1.4771
-1.47709
-1.47709
-1.47709
-1.47709
-1.4771
-1.4771
-1.47711
-1.47711
-1.47711
-1.47712
-1.47712
-1.47712
-1.47713
-1.47713
-1.47713
-1.47713
-1.47713
-1.47712
-1.47712
-1.47712
-1.47711
-1.47711
-1.47711
-1.47711
-1.47712
-1.47712
-1.47712
-1.47712
-1.47712
-1.47712
-1.47712
-1.47712
-1.47712
-1.47711
-1.47711
-1.4771
-1.4771
-1.4771
-1.4771
-1.4771
-1.4771
-1.4771
-1.4771
-1.4771
-1.4771
-1.57561
-1.57561
-1.57561
-1.57561
-1.57562
-1.57562
-1.57562
-1.57562
-1.57562
-1.57562
-1.57563
-1.57563
-1.57563
-1.57563
-1.57564
-1.57564
-1.57564
-1.57565
-1.57565
-1.57566
-1.57566
-1.57567
-1.57567
-1.57568
-1.57568
-1.57568
-1.57568
-1.57569
-1.57569
-1.57569
-1.57569
-1.57568
-1.57568
-1.57568
-1.57568
-1.57568
-1.57568
-1.57567
-1.57567
-1.57567
-1.57566
-1.57566
-1.57566
-1.57566
-1.57565
-1.57565
-1.57564
-1.57564
-1.57564
-1.57563
-1.57562
-1.57561
-1.5756
-1.57559
-1.57557
-1.57557
-1.57556
-1.57557
-1.57557
-1.57557
-1.57558
-1.57558
-1.57558
-1.57559
-1.57559
-1.57559
-1.5756
-1.5756
-1.5756
-1.5756
-1.5756
-1.5756
-1.5756
-1.57559
-1.57559
-1.57559
-1.57558
-1.57558
-1.57558
-1.57559
-1.57559
-1.57559
-1.57559
-1.57559
-1.57559
-1.57559
-1.57559
-1.57559
-1.57558
-1.57558
-1.57558
-1.57557
-1.57557
-1.57557
-1.57557
-1.57557
-1.57557
-1.57557
-1.57557
-1.57557
-1.67409
-1.67409
-1.67409
-1.6741
-1.6741
-1.6741
-1.6741
-1.6741
-1.6741
-1.67411
-1.67411
-1.67411
-1.67411
-1.67411
-1.67412
-1.67412
-1.67413
-1.67413
-1.67413
-1.67414
-1.67414
-1.67415
-1.67415
-1.67415
-1.67416
-1.67416
-1.67416
-1.67416
-1.67416
-1.67416
-1.67416
-1.67416
-1.67416
-1.67416
-1.67416
-1.67415
-1.67415
-1.67415
-1.67415
-1.67415
-1.67414
-1.67414
-1.67414
-1.67413
-1.67413
-1.67413
-1.67412
-1.67412
-1.67412
-1.67411
-1.6741
-1.67409
-1.67407
-1.67406
-1.67405
-1.67404
-1.67404
-1.67404
-1.67404
-1.67405
-1.67405
-1.67405
-1.67406
-1.67406
-1.67407
-1.67407
-1.67407
-1.67407
-1.67407
-1.67407
-1.67407
-1.67407
-1.67407
-1.67407
-1.67406
-1.67406
-1.67406
-1.67406
-1.67406
-1.67406
-1.67406
-1.67406
-1.67406
-1.67406
-1.67406
-1.67406
-1.67406
-1.67406
-1.67406
-1.67405
-1.67405
-1.67405
-1.67405
-1.67405
-1.67405
-1.67405
-1.67405
-1.67405
-1.67405
-1.67405
-1.77257
-1.77258
-1.77258
-1.77258
-1.77258
-1.77258
-1.77258
-1.77259
-1.77259
-1.77259
-1.77259
-1.77259
-1.7726
-1.7726
-1.7726
-1.7726
-1.77261
-1.77261
-1.77262
-1.77262
-1.77262
-1.77263
-1.77263
-1.77263
-1.77264
-1.77264
-1.77264
-1.77264
-1.77264
-1.77264
-1.77264
-1.77264
-1.77264
-1.77264
-1.77264
-1.77263
-1.77263
-1.77263
-1.77263
-1.77262
-1.77262
-1.77262
-1.77262
-1.77261
-1.77261
-1.77261
-1.7726
-1.7726
-1.77259
-1.77259
-1.77258
-1.77256
-1.77255
-1.77254
-1.77253
-1.77252
-1.77252
-1.77252
-1.77252
-1.77252
-1.77253
-1.77253
-1.77254
-1.77254
-1.77254
-1.77255
-1.77255
-1.77255
-1.77255
-1.77255
-1.77255
-1.77255
-1.77254
-1.77254
-1.77254
-1.77253
-1.77253
-1.77253
-1.77253
-1.77253
-1.77253
-1.77253
-1.77253
-1.77253
-1.77254
-1.77254
-1.77254
-1.77253
-1.77253
-1.77253
-1.77253
-1.77252
-1.77252
-1.77252
-1.77252
-1.77252
-1.77252
-1.77252
-1.77252
-1.77252
-1.87106
-1.87106
-1.87106
-1.87106
-1.87106
-1.87106
-1.87107
-1.87107
-1.87107
-1.87107
-1.87107
-1.87108
-1.87108
-1.87108
-1.87109
-1.87109
-1.87109
-1.87109
-1.8711
-1.8711
-1.8711
-1.87111
-1.87111
-1.87111
-1.87112
-1.87112
-1.87112
-1.87112
-1.87112
-1.87112
-1.87112
-1.87112
-1.87112
-1.87112
-1.87112
-1.87111
-1.87111
-1.87111
-1.87111
-1.8711
-1.8711
-1.8711
-1.87109
-1.87109
-1.87109
-1.87109
-1.87108
-1.87108
-1.87107
-1.87106
-1.87105
-1.87104
-1.87103
-1.87102
-1.87101
-1.871
-1.871
-1.871
-1.871
-1.871
-1.87101
-1.87101
-1.87101
-1.87102
-1.87102
-1.87102
-1.87103
-1.87103
-1.87103
-1.87103
-1.87102
-1.87102
-1.87102
-1.87101
-1.87101
-1.87101
-1.871
-1.871
-1.871
-1.871
-1.871
-1.871
-1.871
-1.871
-1.87101
-1.87101
-1.87101
-1.87101
-1.871
-1.871
-1.871
-1.871
-1.871
-1.871
-1.871
-1.871
-1.871
-1.871
-1.871
-1.871
-1.96954
-1.96954
-1.96954
-1.96954
-1.96954
-1.96955
-1.96955
-1.96955
-1.96955
-1.96956
-1.96956
-1.96956
-1.96956
-1.96957
-1.96957
-1.96957
-1.96957
-1.96958
-1.96958
-1.96958
-1.96958
-1.96959
-1.96959
-1.96959
-1.96959
-1.9696
-1.9696
-1.9696
-1.9696
-1.9696
-1.9696
-1.9696
-1.9696
-1.9696
-1.9696
-1.9696
-1.96959
-1.96959
-1.96959
-1.96958
-1.96958
-1.96958
-1.96957
-1.96957
-1.96957
-1.96956
-1.96956
-1.96956
-1.96955
-1.96954
-1.96953
-1.96952
-1.96951
-1.9695
-1.96949
-1.96949
-1.96948
-1.96948
-1.96948
-1.96949
-1.96949
-1.96949
-1.9695
-1.9695
-1.9695
-1.96951
-1.96951
-1.96951
-1.96951
-1.96951
-1.9695
-1.9695
-1.9695
-1.96949
-1.96949
-1.96948
-1.96948
-1.96947
-1.96947
-1.96947
-1.96947
-1.96947
-1.96947
-1.96947
-1.96948
-1.96948
-1.96948
-1.96948
-1.96948
-1.96947
-1.96947
-1.96947
-1.96947
-1.96947
-1.96947
-1.96947
-1.96947
-1.96947
-1.96947
-1.96947
-2.06802
-2.06802
-2.06802
-2.06803
-2.06803
-2.06803
-2.06803
-2.06804
-2.06804
-2.06804
-2.06804
-2.06805
-2.06805
-2.06805
-2.06805
-2.06806
-2.06806
-2.06806
-2.06806
-2.06806
-2.06807
-2.06807
-2.06807
-2.06807
-2.06807
-2.06808
-2.06808
-2.06808
-2.06808
-2.06808
-2.06808
-2.06808
-2.06808
-2.06808
-2.06808
-2.06808
-2.06807
-2.06807
-2.06807
-2.06806
-2.06806
-2.06806
-2.06805
-2.06805
-2.06805
-2.06804
-2.06804
-2.06803
-2.06803
-2.06802
-2.06801
-2.068
-2.06799
-2.06798
-2.06797
-2.06797
-2.06797
-2.06797
-2.06797
-2.06797
-2.06797
-2.06798
-2.06798
-2.06798
-2.06799
-2.06799
-2.06799
-2.06799
-2.06799
-2.06799
-2.06798
-2.06798
-2.06797
-2.06797
-2.06796
-2.06796
-2.06795
-2.06795
-2.06794
-2.06794
-2.06794
-2.06794
-2.06794
-2.06794
-2.06795
-2.06795
-2.06795
-2.06795
-2.06795
-2.06795
-2.06795
-2.06795
-2.06795
-2.06795
-2.06795
-2.06795
-2.06795
-2.06795
-2.06795
-2.06795
-2.1665
-2.1665
-2.16651
-2.16651
-2.16651
-2.16651
-2.16652
-2.16652
-2.16652
-2.16653
-2.16653
-2.16653
-2.16654
-2.16654
-2.16654
-2.16654
-2.16654
-2.16654
-2.16654
-2.16654
-2.16655
-2.16655
-2.16655
-2.16655
-2.16655
-2.16655
-2.16656
-2.16656
-2.16656
-2.16656
-2.16656
-2.16656
-2.16656
-2.16656
-2.16656
-2.16656
-2.16656
-2.16655
-2.16655
-2.16654
-2.16654
-2.16653
-2.16653
-2.16653
-2.16652
-2.16652
-2.16652
-2.16651
-2.1665
-2.16649
-2.16649
-2.16648
-2.16647
-2.16646
-2.16646
-2.16646
-2.16645
-2.16645
-2.16646
-2.16646
-2.16646
-2.16647
-2.16647
-2.16647
-2.16647
-2.16648
-2.16648
-2.16648
-2.16647
-2.16647
-2.16647
-2.16646
-2.16646
-2.16645
-2.16644
-2.16644
-2.16643
-2.16642
-2.16642
-2.16641
-2.16641
-2.16641
-2.16641
-2.16641
-2.16641
-2.16642
-2.16642
-2.16642
-2.16642
-2.16642
-2.16642
-2.16642
-2.16642
-2.16642
-2.16642
-2.16642
-2.16642
-2.16642
-2.16642
-2.16642
-2.26499
-2.26499
-2.26499
-2.26499
-2.26499
-2.265
-2.265
-2.26501
-2.26501
-2.26501
-2.26502
-2.26502
-2.26502
-2.26502
-2.26502
-2.26503
-2.26503
-2.26503
-2.26503
-2.26503
-2.26503
-2.26503
-2.26503
-2.26503
-2.26503
-2.26503
-2.26503
-2.26504
-2.26504
-2.26504
-2.26504
-2.26504
-2.26504
-2.26504
-2.26504
-2.26504
-2.26504
-2.26503
-2.26503
-2.26502
-2.26502
-2.26501
-2.26501
-2.265
-2.265
-2.265
-2.26499
-2.26498
-2.26498
-2.26497
-2.26496
-2.26496
-2.26495
-2.26495
-2.26494
-2.26494
-2.26494
-2.26494
-2.26494
-2.26495
-2.26495
-2.26495
-2.26496
-2.26496
-2.26496
-2.26496
-2.26496
-2.26496
-2.26496
-2.26496
-2.26495
-2.26494
-2.26494
-2.26493
-2.26492
-2.26492
-2.26491
-2.2649
-2.2649
-2.26489
-2.26489
-2.26488
-2.26488
-2.26488
-2.26489
-2.26489
-2.26489
-2.26489
-2.26489
-2.26489
-2.26489
-2.26489
-2.2649
-2.2649
-2.2649
-2.2649
-2.2649
-2.2649
-2.2649
-2.2649
-2.36347
-2.36347
-2.36347
-2.36347
-2.36348
-2.36348
-2.36349
-2.36349
-2.36349
-2.3635
-2.3635
-2.3635
-2.36351
-2.36351
-2.36351
-2.36351
-2.36351
-2.36351
-2.36351
-2.36351
-2.36351
-2.36351
-2.36351
-2.36351
-2.36351
-2.36351
-2.36351
-2.36351
-2.36352
-2.36352
-2.36352
-2.36352
-2.36352
-2.36352
-2.36352
-2.36352
-2.36351
-2.36351
-2.36351
-2.3635
-2.3635
-2.36349
-2.36348
-2.36348
-2.36348
-2.36347
-2.36347
-2.36346
-2.36345
-2.36345
-2.36344
-2.36344
-2.36343
-2.36343
-2.36343
-2.36343
-2.36343
-2.36343
-2.36343
-2.36344
-2.36344
-2.36344
-2.36345
-2.36345
-2.36345
-2.36345
-2.36345
-2.36345
-2.36345
-2.36344
-2.36344
-2.36343
-2.36342
-2.36341
-2.36341
-2.3634
-2.36339
-2.36338
-2.36337
-2.36337
-2.36336
-2.36336
-2.36336
-2.36336
-2.36336
-2.36336
-2.36336
-2.36337
-2.36337
-2.36337
-2.36337
-2.36337
-2.36337
-2.36337
-2.36337
-2.36337
-2.36337
-2.36337
-2.36337
-2.36337
-2.46195
-2.46195
-2.46195
-2.46196
-2.46196
-2.46196
-2.46197
-2.46197
-2.46198
-2.46198
-2.46199
-2.46199
-2.46199
-2.46199
-2.46199
-2.46199
-2.46199
-2.46199
-2.46199
-2.46199
-2.46199
-2.46198
-2.46198
-2.46198
-2.46198
-2.46198
-2.46199
-2.46199
-2.46199
-2.46199
-2.46199
-2.462
-2.462
-2.462
-2.462
-2.46199
-2.46199
-2.46199
-2.46198
-2.46198
-2.46197
-2.46197
-2.46196
-2.46196
-2.46195
-2.46195
-2.46194
-2.46193
-2.46193
-2.46192
-2.46192
-2.46192
-2.46192
-2.46191
-2.46191
-2.46192
-2.46192
-2.46192
-2.46192
-2.46193
-2.46193
-2.46194
-2.46194
-2.46194
-2.46194
-2.46194
-2.46194
-2.46194
-2.46194
-2.46193
-2.46192
-2.46191
-2.46191
-2.4619
-2.46189
-2.46188
-2.46187
-2.46186
-2.46185
-2.46185
-2.46184
-2.46184
-2.46183
-2.46183
-2.46183
-2.46184
-2.46184
-2.46184
-2.46184
-2.46184
-2.46184
-2.46184
-2.46185
-2.46185
-2.46185
-2.46185
-2.46185
-2.46185
-2.46185
-2.46185
-2.56043
-2.56043
-2.56043
-2.56044
-2.56044
-2.56045
-2.56045
-2.56046
-2.56046
-2.56047
-2.56047
-2.56048
-2.56048
-2.56048
-2.56048
-2.56048
-2.56048
-2.56047
-2.56047
-2.56047
-2.56046
-2.56046
-2.56046
-2.56046
-2.56046
-2.56046
-2.56046
-2.56046
-2.56046
-2.56046
-2.56047
-2.56047
-2.56047
-2.56047
-2.56047
-2.56047
-2.56046
-2.56046
-2.56045
-2.56045
-2.56044
-2.56044
-2.56043
-2.56043
-2.56042
-2.56042
-2.56041
-2.56041
-2.5604
-2.5604
-2.5604
-2.5604
-2.5604
-2.5604
-2.5604
-2.5604
-2.56041
-2.56041
-2.56041
-2.56042
-2.56042
-2.56043
-2.56043
-2.56043
-2.56044
-2.56044
-2.56043
-2.56043
-2.56043
-2.56042
-2.56041
-2.5604
-2.56039
-2.56038
-2.56037
-2.56036
-2.56035
-2.56034
-2.56034
-2.56033
-2.56032
-2.56031
-2.56031
-2.56031
-2.56031
-2.56031
-2.56031
-2.56031
-2.56031
-2.56032
-2.56032
-2.56032
-2.56032
-2.56032
-2.56032
-2.56032
-2.56032
-2.56032
-2.56032
-2.56032
-2.65891
-2.65891
-2.65891
-2.65892
-2.65892
-2.65893
-2.65893
-2.65894
-2.65895
-2.65895
-2.65896
-2.65896
-2.65896
-2.65896
-2.65896
-2.65896
-2.65896
-2.65895
-2.65895
-2.65895
-2.65894
-2.65894
-2.65893
-2.65893
-2.65893
-2.65893
-2.65893
-2.65893
-2.65893
-2.65893
-2.65894
-2.65894
-2.65894
-2.65894
-2.65894
-2.65894
-2.65893
-2.65893
-2.65893
-2.65892
-2.65892
-2.65891
-2.65891
-2.6589
-2.65889
-2.65889
-2.65888
-2.65888
-2.65888
-2.65888
-2.65888
-2.65888
-2.65888
-2.65888
-2.65888
-2.65889
-2.65889
-2.6589
-2.6589
-2.65891
-2.65891
-2.65892
-2.65892
-2.65893
-2.65893
-2.65893
-2.65892
-2.65892
-2.65892
-2.65891
-2.6589
-2.65889
-2.65888
-2.65887
-2.65886
-2.65885
-2.65884
-2.65883
-2.65882
-2.65881
-2.6588
-2.65879
-2.65879
-2.65878
-2.65878
-2.65878
-2.65879
-2.65879
-2.65879
-2.65879
-2.65879
-2.65879
-2.65879
-2.6588
-2.6588
-2.6588
-2.6588
-2.65879
-2.65879
-2.65879
-2.75739
-2.75739
-2.75739
-2.75739
-2.7574
-2.75741
-2.75741
-2.75742
-2.75743
-2.75743
-2.75744
-2.75744
-2.75745
-2.75745
-2.75745
-2.75744
-2.75744
-2.75743
-2.75743
-2.75742
-2.75742
-2.75741
-2.75741
-2.7574
-2.7574
-2.7574
-2.7574
-2.7574
-2.7574
-2.7574
-2.7574
-2.7574
-2.7574
-2.7574
-2.7574
-2.7574
-2.7574
-2.7574
-2.75739
-2.75739
-2.75738
-2.75738
-2.75737
-2.75737
-2.75736
-2.75736
-2.75735
-2.75735
-2.75735
-2.75735
-2.75735
-2.75736
-2.75736
-2.75736
-2.75737
-2.75737
-2.75738
-2.75738
-2.75739
-2.7574
-2.7574
-2.75741
-2.75741
-2.75741
-2.75742
-2.75742
-2.75741
-2.75741
-2.7574
-2.7574
-2.75739
-2.75737
-2.75736
-2.75735
-2.75734
-2.75733
-2.75732
-2.75731
-2.7573
-2.75729
-2.75728
-2.75727
-2.75726
-2.75726
-2.75726
-2.75726
-2.75726
-2.75726
-2.75726
-2.75727
-2.75727
-2.75727
-2.75727
-2.75727
-2.75727
-2.75727
-2.75727
-2.75727
-2.75727
-2.75727
-2.85586
-2.85586
-2.85586
-2.85587
-2.85587
-2.85588
-2.85589
-2.8559
-2.85591
-2.85591
-2.85592
-2.85592
-2.85593
-2.85593
-2.85593
-2.85592
-2.85592
-2.85591
-2.85591
-2.8559
-2.85589
-2.85589
-2.85588
-2.85588
-2.85587
-2.85587
-2.85587
-2.85587
-2.85586
-2.85586
-2.85586
-2.85587
-2.85587
-2.85587
-2.85587
-2.85586
-2.85586
-2.85586
-2.85586
-2.85585
-2.85585
-2.85585
-2.85584
-2.85584
-2.85583
-2.85583
-2.85582
-2.85582
-2.85582
-2.85583
-2.85583
-2.85583
-2.85584
-2.85584
-2.85585
-2.85585
-2.85586
-2.85587
-2.85588
-2.85588
-2.85589
-2.85589
-2.8559
-2.8559
-2.8559
-2.8559
-2.8559
-2.8559
-2.85589
-2.85588
-2.85587
-2.85586
-2.85585
-2.85583
-2.85582
-2.85581
-2.8558
-2.85579
-2.85578
-2.85577
-2.85576
-2.85575
-2.85574
-2.85574
-2.85573
-2.85573
-2.85573
-2.85574
-2.85574
-2.85574
-2.85574
-2.85574
-2.85574
-2.85574
-2.85574
-2.85574
-2.85574
-2.85574
-2.85574
-2.85574
-2.95433
-2.95434
-2.95434
-2.95434
-2.95435
-2.95436
-2.95437
-2.95438
-2.95439
-2.95439
-2.9544
-2.9544
-2.95441
-2.95441
-2.95441
-2.9544
-2.9544
-2.95439
-2.95438
-2.95437
-2.95437
-2.95436
-2.95435
-2.95435
-2.95434
-2.95434
-2.95433
-2.95433
-2.95433
-2.95433
-2.95433
-2.95433
-2.95433
-2.95433
-2.95433
-2.95432
-2.95432
-2.95432
-2.95432
-2.95432
-2.95431
-2.95431
-2.9543
-2.9543
-2.9543
-2.95429
-2.95429
-2.95429
-2.95429
-2.9543
-2.9543
-2.95431
-2.95432
-2.95432
-2.95433
-2.95434
-2.95434
-2.95435
-2.95436
-2.95437
-2.95437
-2.95438
-2.95438
-2.95439
-2.95439
-2.95439
-2.95438
-2.95438
-2.95437
-2.95436
-2.95435
-2.95434
-2.95433
-2.95432
-2.95431
-2.95429
-2.95428
-2.95427
-2.95426
-2.95425
-2.95424
-2.95423
-2.95422
-2.95422
-2.95421
-2.95421
-2.95421
-2.95421
-2.95421
-2.95421
-2.95422
-2.95422
-2.95422
-2.95422
-2.95422
-2.95422
-2.95422
-2.95422
-2.95422
-2.95422
-3.05281
-3.05281
-3.05281
-3.05281
-3.05282
-3.05283
-3.05284
-3.05285
-3.05286
-3.05287
-3.05288
-3.05288