/*--------------------------------*- C++ -*----------------------------------*\
| =========                 |                                                 |
| \\      /  F ield         | OpenFOAM: The Open Source CFD Toolbox           |
|  \\    /   O peration     | Version:  4.1                                   |
|   \\  /    A nd           | Web:      www.OpenFOAM.org                      |
|    \\/     M anipulation  |                                                 |
\*---------------------------------------------------------------------------*/
FoamFile
{
    version     2.0;
    format      ascii;
    class       volScalarField;
    location    "800";
    object      p_rgh;
}
// * * * * * * * * * * * * * * * * * * * * * * * * * * * * * * * * * * * * * //

dimensions      [0 2 -2 0 0 0 0];

internalField   nonuniform List<scalar> 
1600
(
0.0492151
0.0492495
0.0493016
0.0492396
0.0491818
0.0491414
0.0491339
0.0491225
0.0491256
0.0491408
0.0491647
0.0491895
0.0492086
0.0492225
0.0492317
0.0492339
0.0492246
0.0492037
0.0491907
0.0492131
0.0492036
0.0491863
0.0491803
0.0491671
0.0491527
0.0491513
0.0491773
0.0492021
0.0491943
0.0491771
0.0491769
0.0491858
0.0491949
0.0491954
0.0491894
0.0491772
0.0491589
0.0491407
0.0491257
0.0491261
0.0492131
0.0492572
0.0492998
0.0492487
0.0491892
0.0491417
0.0491605
0.0491593
0.0491595
0.0491673
0.0491868
0.0492093
0.0492294
0.0492447
0.0492544
0.0492582
0.0492536
0.0492273
0.0492002
0.0492315
0.0492409
0.0492006
0.0492087
0.0491933
0.0491792
0.0491794
0.0492122
0.0492352
0.0492365
0.049238
0.0492386
0.0492376
0.0492349
0.0492305
0.0492225
0.0492101
0.0491946
0.049182
0.0491655
0.0491393
0.0492025
0.0492499
0.0492896
0.0492431
0.0491845
0.0491278
0.0491683
0.0491613
0.0491543
0.0491615
0.0491815
0.0492049
0.0492258
0.0492417
0.0492521
0.0492572
0.0492551
0.0492345
0.0492039
0.0492274
0.049238
0.0492082
0.0492179
0.049204
0.049196
0.0491972
0.0492192
0.0492348
0.0492357
0.0492368
0.049237
0.0492355
0.0492324
0.0492274
0.0492185
0.0492056
0.0491902
0.049179
0.0491711
0.0491343
0.04919
0.0492419
0.0492813
0.0492391
0.0491747
0.04911
0.049165
0.0491563
0.0491472
0.0491545
0.0491755
0.0491996
0.0492214
0.049238
0.0492494
0.0492561
0.0492562
0.0492379
0.049207
0.0492272
0.049239
0.0492118
0.0492221
0.0492112
0.0492076
0.0492086
0.0492218
0.0492339
0.0492334
0.0492332
0.0492326
0.0492307
0.0492275
0.0492224
0.0492136
0.0492
0.0491838
0.0491751
0.0491701
0.0491222
0.0491781
0.0492344
0.0492758
0.0492386
0.0491626
0.0490959
0.0491528
0.0491499
0.0491396
0.0491485
0.0491694
0.0491944
0.0492171
0.0492345
0.0492469
0.0492552
0.0492573
0.0492403
0.0492095
0.0492244
0.0492377
0.0492111
0.0492218
0.0492134
0.0492137
0.0492159
0.0492227
0.0492333
0.049231
0.0492293
0.0492275
0.0492251
0.0492219
0.049217
0.0492083
0.0491944
0.0491767
0.0491701
0.049169
0.0491102
0.0491676
0.0492281
0.0492729
0.0492431
0.0491503
0.0490881
0.0491388
0.0491423
0.0491351
0.0491429
0.0491644
0.0491902
0.0492135
0.0492315
0.0492448
0.0492546
0.0492584
0.0492422
0.0492109
0.0492186
0.0492328
0.0492048
0.0492158
0.0492091
0.0492136
0.0492187
0.0492227
0.049233
0.049229
0.0492256
0.0492226
0.0492198
0.0492166
0.0492119
0.0492033
0.049189
0.0491704
0.0491602
0.0491732
0.0491016
0.0491585
0.0492227
0.0492733
0.0492517
0.0491393
0.0490864
0.0491271
0.0491343
0.0491292
0.0491378
0.0491607
0.0491875
0.0492112
0.0492296
0.0492435
0.0492542
0.0492591
0.0492435
0.0492112
0.0492107
0.049224
0.0491927
0.0492037
0.0491983
0.0492091
0.0492193
0.0492222
0.0492333
0.0492279
0.0492229
0.0492188
0.0492156
0.0492126
0.0492081
0.0491997
0.0491849
0.0491642
0.0491478
0.0491624
0.0490989
0.0491508
0.0492186
0.0492765
0.0492606
0.0491309
0.0490898
0.0491195
0.0491248
0.0491212
0.0491335
0.0491592
0.0491872
0.049211
0.0492291
0.049243
0.049254
0.0492593
0.0492442
0.0492104
0.049202
0.0492117
0.049176
0.0491851
0.0491803
0.0492003
0.0492192
0.0492216
0.0492344
0.049228
0.0492219
0.0492171
0.0492137
0.0492109
0.0492068
0.0491991
0.0491846
0.0491612
0.04913
0.0491035
0.0491055
0.0491455
0.0492185
0.0492825
0.0492669
0.0491258
0.0490971
0.0491166
0.0491162
0.0491152
0.049133
0.0491619
0.0491904
0.0492133
0.0492303
0.0492433
0.049254
0.0492591
0.0492439
0.0492087
0.0491933
0.0491979
0.0491576
0.049159
0.0491539
0.0491866
0.0492186
0.0492213
0.0492369
0.0492301
0.0492231
0.0492179
0.0492143
0.0492116
0.0492084
0.0492027
0.0491914
0.0491705
0.0491363
0.0490999
0.0491196
0.0491426
0.0492274
0.0492916
0.049271
0.0491238
0.0491069
0.0491174
0.0491118
0.0491159
0.0491398
0.0491708
0.049198
0.0492182
0.0492328
0.0492442
0.0492539
0.0492583
0.0492426
0.049206
0.0491848
0.0491839
0.0491395
0.0491305
0.0491189
0.0491663
0.0492178
0.0492213
0.0492409
0.0492343
0.0492269
0.0492207
0.049216
0.0492129
0.0492107
0.0492082
0.0492027
0.0491898
0.049164
0.049134
0.0491379
0.0491451
0.049246
0.0493038
0.0492746
0.0491243
0.0491173
0.049121
0.0491144
0.0491269
0.0491561
0.0491864
0.0492094
0.0492248
0.0492357
0.0492449
0.0492533
0.0492566
0.0492401
0.0492025
0.0491766
0.0491705
0.0491227
0.0491047
0.0490787
0.0491302
0.0492162
0.0492208
0.0492459
0.0492393
0.0492307
0.0492227
0.0492162
0.0492118
0.0492103
0.0492112
0.0492125
0.0492106
0.0492011
0.0491865
0.0491591
0.0491612
0.0492732
0.0493181
0.0492786
0.0491252
0.0491268
0.0491273
0.0491277
0.0491508
0.0491821
0.0492071
0.0492223
0.049231
0.0492374
0.0492443
0.0492518
0.0492539
0.0492364
0.049198
0.0491688
0.0491582
0.0491076
0.0490817
0.0490462
0.0490868
0.0492126
0.0492185
0.0492507
0.0492434
0.0492326
0.0492221
0.049213
0.049207
0.0492058
0.0492092
0.0492162
0.0492256
0.0492387
0.0492629
0.0492758
0.0492005
0.0493041
0.0493327
0.049285
0.0491285
0.0491358
0.0491384
0.0491564
0.0491884
0.0492148
0.0492287
0.0492331
0.0492343
0.0492366
0.0492419
0.0492489
0.0492501
0.0492316
0.0491927
0.0491613
0.0491471
0.049094
0.049061
0.0490234
0.0490575
0.0492046
0.0492139
0.0492553
0.0492465
0.0492328
0.049219
0.0492072
0.0491997
0.0491986
0.049203
0.0492121
0.0492266
0.0492518
0.0492968
0.0493431
0.0492562
0.0493291
0.0493459
0.049299
0.0491423
0.0491478
0.049164
0.0492068
0.0492368
0.0492476
0.0492454
0.0492383
0.0492329
0.0492326
0.0492377
0.049245
0.0492457
0.0492261
0.0491867
0.0491538
0.0491372
0.0490817
0.0490424
0.0490066
0.0490477
0.0491908
0.0492075
0.0492595
0.0492494
0.0492323
0.0492151
0.0492009
0.0491928
0.0491921
0.0491969
0.0492057
0.0492201
0.0492451
0.049286
0.0493293
0.0493047
0.049342
0.0493566
0.0493262
0.0492271
0.0491864
0.0492472
0.0492818
0.0492834
0.0492695
0.0492514
0.0492359
0.0492269
0.0492262
0.0492326
0.0492412
0.0492414
0.0492201
0.0491801
0.0491463
0.0491281
0.049071
0.049026
0.0489949
0.0490462
0.0491796
0.0491997
0.0492634
0.0492527
0.0492322
0.049212
0.049196
0.0491881
0.0491884
0.0491934
0.0492014
0.0492145
0.0492377
0.0492738
0.0493165
0.0493333
0.0493458
0.049365
0.0493532
0.0493704
0.0493515
0.0493588
0.0493344
0.0493023
0.0492718
0.0492462
0.0492277
0.0492183
0.0492189
0.0492279
0.0492386
0.0492382
0.0492143
0.0491731
0.0491388
0.0491199
0.0490622
0.049013
0.0489893
0.0490506
0.0491775
0.0491906
0.0492638
0.0492569
0.049233
0.0492102
0.0491929
0.0491857
0.0491874
0.0491926
0.0491995
0.0492106
0.0492306
0.049262
0.0493054
0.0493471
0.0493465
0.0493716
0.0493587
0.0493651
0.049365
0.049351
0.0493236
0.0492916
0.0492613
0.049236
0.0492179
0.0492092
0.0492117
0.0492242
0.0492377
0.0492367
0.0492092
0.0491661
0.0491312
0.0491125
0.0490564
0.0490051
0.0489913
0.0490609
0.0491809
0.0491874
0.0492537
0.049262
0.0492349
0.0492097
0.0491915
0.0491854
0.0491889
0.0491943
0.0491998
0.0492084
0.0492248
0.0492518
0.0492961
0.0493539
0.0493482
0.0493772
0.0493603
0.0493577
0.0493503
0.0493352
0.0493096
0.0492797
0.0492509
0.0492265
0.049209
0.0492007
0.0492046
0.0492212
0.0492386
0.0492371
0.0492051
0.0491593
0.049124
0.0491062
0.0490544
0.0490044
0.0490022
0.049077
0.0491883
0.0491904
0.0492406
0.0492676
0.049238
0.0492105
0.0491916
0.0491869
0.0491924
0.0491978
0.0492018
0.0492078
0.0492206
0.0492434
0.0492887
0.0493581
0.0493534
0.0493822
0.0493605
0.0493508
0.0493378
0.0493209
0.0492967
0.0492689
0.0492419
0.0492185
0.0492013
0.0491927
0.0491968
0.049218
0.0492409
0.0492396
0.0492023
0.0491532
0.0491176
0.0491014
0.0490568
0.0490124
0.049022
0.0490981
0.0491992
0.0491983
0.0492318
0.049269
0.0492424
0.0492125
0.0491927
0.0491896
0.0491974
0.0492026
0.0492051
0.0492086
0.049218
0.0492371
0.0492831
0.0493611
0.0493618
0.0493863
0.0493601
0.0493446
0.0493282
0.0493095
0.0492863
0.0492605
0.0492351
0.0492125
0.0491951
0.0491855
0.0491885
0.049213
0.0492444
0.0492441
0.0492013
0.0491486
0.0491128
0.0490989
0.0490641
0.0490296
0.0490497
0.0491235
0.0492132
0.0492096
0.0492271
0.0492668
0.0492479
0.0492154
0.0491946
0.0491932
0.0492034
0.0492082
0.0492093
0.0492104
0.0492167
0.0492328
0.0492792
0.0493637
0.0493723
0.0493895
0.0493596
0.0493397
0.0493213
0.0493015
0.0492791
0.0492548
0.0492306
0.0492086
0.0491907
0.0491797
0.0491803
0.0492047
0.0492489
0.0492506
0.0492027
0.0491464
0.0491108
0.0490999
0.0490762
0.0490548
0.0490831
0.049152
0.0492299
0.0492233
0.049226
0.0492624
0.0492542
0.0492193
0.0491969
0.0491971
0.0492099
0.0492143
0.049214
0.0492131
0.0492168
0.0492303
0.0492769
0.0493659
0.0493837
0.0493916
0.0493596
0.0493365
0.0493164
0.0492968
0.049275
0.0492516
0.0492283
0.0492066
0.0491884
0.0491759
0.0491738
0.0491939
0.0492537
0.0492585
0.0492071
0.0491479
0.0491131
0.0491056
0.0490935
0.0490863
0.0491203
0.0491826
0.0492489
0.0492384
0.0492281
0.0492577
0.0492589
0.0492252
0.0491995
0.0492011
0.0492164
0.0492205
0.0492191
0.0492163
0.0492179
0.0492294
0.0492761
0.0493677
0.0493947
0.0493929
0.0493603
0.0493353
0.0493141
0.0492942
0.0492732
0.0492507
0.0492278
0.0492064
0.0491881
0.0491747
0.0491708
0.049187
0.0492436
0.0492624
0.049217
0.0491546
0.0491211
0.0491176
0.0491162
0.0491221
0.0491593
0.0492143
0.0492693
0.0492544
0.0492326
0.0492537
0.0492614
0.0492326
0.0492033
0.0492053
0.0492224
0.0492265
0.0492243
0.0492202
0.04922
0.0492301
0.0492766
0.0493694
0.0494043
0.0493943
0.0493619
0.0493359
0.049314
0.0492938
0.049273
0.0492509
0.0492286
0.0492077
0.0491896
0.049176
0.0491707
0.0491831
0.049224
0.0492608
0.0492291
0.0491695
0.0491364
0.049137
0.0491448
0.0491611
0.049199
0.0492464
0.0492907
0.0492707
0.049239
0.0492509
0.0492621
0.04924
0.0492098
0.0492099
0.0492276
0.0492321
0.0492297
0.0492244
0.0492231
0.0492322
0.0492785
0.0493709
0.049412
0.0493962
0.0493646
0.0493381
0.0493155
0.0492949
0.0492741
0.0492523
0.0492305
0.0492101
0.0491926
0.049179
0.0491726
0.0491809
0.0492133
0.0492552
0.0492422
0.0491916
0.0491598
0.0491642
0.049179
0.0492022
0.0492387
0.0492781
0.0493122
0.0492869
0.0492466
0.0492495
0.0492617
0.0492467
0.0492185
0.0492181
0.0492317
0.0492373
0.049235
0.0492292
0.0492271
0.0492354
0.0492819
0.049372
0.0494179
0.0493987
0.0493683
0.0493417
0.0493184
0.0492972
0.0492761
0.0492544
0.0492331
0.0492136
0.0491968
0.0491837
0.0491764
0.049181
0.0492065
0.049247
0.0492537
0.0492181
0.0491907
0.0491981
0.0492176
0.049244
0.0492769
0.0493081
0.0493327
0.0493023
0.049255
0.0492495
0.0492608
0.049252
0.0492282
0.049227
0.0492368
0.0492419
0.04924
0.0492344
0.0492318
0.0492398
0.0492868
0.0493728
0.0494227
0.0494022
0.0493731
0.0493465
0.0493224
0.0493004
0.0492789
0.0492573
0.0492365
0.0492179
0.0492022
0.0491897
0.0491818
0.0491829
0.0492016
0.0492383
0.0492609
0.0492451
0.0492261
0.0492357
0.0492577
0.0492841
0.0493119
0.0493351
0.0493514
0.0493164
0.0492636
0.0492508
0.04926
0.0492561
0.0492379
0.0492361
0.0492427
0.0492465
0.0492449
0.0492397
0.0492372
0.0492453
0.0492933
0.049373
0.0494267
0.0494064
0.0493791
0.0493525
0.0493276
0.0493045
0.0492825
0.0492608
0.0492405
0.0492229
0.0492086
0.0491972
0.0491891
0.0491874
0.0491998
0.0492309
0.0492626
0.0492675
0.049261
0.0492729
0.0492954
0.0493197
0.0493417
0.0493578
0.0493673
0.0493288
0.0492722
0.0492533
0.0492597
0.049259
0.0492464
0.0492447
0.0492486
0.0492508
0.0492494
0.049245
0.0492431
0.0492519
0.0493014
0.0493725
0.0494303
0.0494116
0.0493863
0.04936
0.049334
0.0493097
0.0492869
0.0492651
0.0492452
0.0492287
0.049216
0.0492061
0.0491984
0.0491949
0.0492019
0.0492263
0.0492601
0.0492815
0.0492895
0.0493048
0.0493267
0.049348
0.0493648
0.0493753
0.0493801
0.0493393
0.0492803
0.049257
0.0492603
0.0492611
0.0492532
0.0492517
0.0492535
0.0492545
0.0492535
0.0492502
0.0492494
0.0492596
0.0493109
0.0493711
0.0494337
0.0494177
0.0493947
0.0493691
0.049342
0.0493162
0.0492925
0.0492704
0.0492506
0.0492351
0.0492241
0.0492161
0.0492096
0.0492054
0.0492085
0.0492259
0.0492569
0.0492873
0.0493079
0.0493276
0.0493492
0.0493679
0.0493808
0.0493878
0.0493899
0.0493477
0.0492879
0.0492616
0.0492619
0.0492629
0.049258
0.0492565
0.049257
0.0492573
0.049257
0.0492551
0.0492559
0.0492681
0.049322
0.0493687
0.049437
0.0494245
0.0494046
0.0493803
0.0493522
0.0493245
0.0492996
0.0492767
0.0492568
0.049242
0.0492327
0.0492271
0.0492226
0.0492189
0.0492196
0.0492311
0.0492565
0.0492886
0.0493168
0.0493409
0.0493624
0.0493798
0.0493907
0.0493962
0.0493974
0.0493543
0.0492948
0.049267
0.0492647
0.0492648
0.0492611
0.0492592
0.0492587
0.049259
0.0492597
0.0492596
0.0492625
0.0492775
0.0493345
0.0493652
0.0494403
0.0494318
0.0494156
0.0493937
0.0493653
0.0493353
0.0493086
0.0492845
0.0492636
0.049249
0.0492414
0.0492383
0.0492366
0.0492347
0.0492349
0.0492423
0.0492618
0.0492907
0.049321
0.0493474
0.0493693
0.0493858
0.0493964
0.0494021
0.0494037
0.0493594
0.049301
0.0492732
0.0492687
0.049267
0.0492629
0.04926
0.0492588
0.0492595
0.0492616
0.0492636
0.0492692
0.0492877
0.0493485
0.0493605
0.0494434
0.0494391
0.0494271
0.0494095
0.0493819
0.0493494
0.0493203
0.0492941
0.0492713
0.0492559
0.0492494
0.049249
0.0492506
0.0492518
0.0492533
0.0492589
0.0492737
0.0492978
0.049326
0.0493522
0.0493738
0.0493897
0.0494002
0.0494076
0.0494104
0.0493631
0.0493063
0.0492798
0.0492738
0.0492696
0.0492639
0.0492594
0.0492577
0.0492591
0.0492627
0.0492671
0.0492758
0.0492985
0.0493638
0.0493534
0.0494466
0.0494452
0.0494374
0.0494269
0.049403
0.0493681
0.0493355
0.0493063
0.0492802
0.0492625
0.049256
0.0492577
0.0492631
0.0492684
0.0492729
0.049279
0.0492914
0.0493113
0.0493358
0.0493598
0.0493802
0.0493955
0.0494055
0.0494144
0.0494187
0.0493646
0.0493104
0.0492866
0.0492797
0.0492727
0.0492644
0.0492581
0.0492557
0.0492579
0.0492631
0.0492701
0.0492824
0.04931
0.0493805
0.0493456
0.0494381
0.0494476
0.0494434
0.0494436
0.0494285
0.0493928
0.049356
0.0493225
0.049291
0.0492688
0.0492604
0.0492631
0.0492717
0.0492817
0.049291
0.0492998
0.0493121
0.0493298
0.0493511
0.0493725
0.0493911
0.0494053
0.0494149
0.0494221
0.0494215
0.0493612
0.0493127
0.0492933
0.049286
0.0492761
0.0492647
0.0492563
0.0492533
0.0492561
0.0492629
0.0492726
0.0492889
0.0493224
0.0493988
0.0493426
0.0494143
0.0494409
0.0494401
0.0494547
0.0494572
0.0494257
0.0493839
0.0493447
0.0493052
0.0492753
0.0492621
0.0492632
0.0492732
0.0492873
0.0493022
0.0493162
0.0493308
0.0493485
0.0493683
0.0493877
0.0494041
0.0494158
0.0494215
0.0494199
0.0494025
0.0493562
0.0493125
0.0492994
0.0492923
0.0492794
0.0492648
0.0492543
0.0492507
0.049254
0.0492623
0.0492749
0.0492959
0.0493361
0.0494191
0.049345
0.0493968
0.0494145
0.0494224
0.0494514
0.0494842
0.0494687
0.0494233
0.0493768
0.0493259
0.0492842
0.049262
0.0492572
0.0492643
0.049279
0.0492977
0.0493176
0.0493364
0.0493558
0.0493753
0.0493926
0.0494053
0.0494112
0.0494084
0.0493954
0.0493706
0.049349
0.049311
0.0493046
0.049298
0.0492822
0.0492646
0.0492522
0.0492479
0.0492516
0.0492617
0.0492779
0.0493045
0.0493525
0.0494429
0.049353
0.0493853
0.0493958
0.0494042
0.0494249
0.0494965
0.0495219
0.0494808
0.0494261
0.0493596
0.0493005
0.0492639
0.0492477
0.0492456
0.0492535
0.0492689
0.0492895
0.0493119
0.049333
0.049352
0.0493669
0.0493756
0.0493763
0.0493686
0.0493537
0.0493364
0.049332
0.0493109
0.0493087
0.0493028
0.0492842
0.0492638
0.0492498
0.049245
0.0492495
0.0492626
0.0492837
0.0493173
0.0493746
0.0494737
0.0493665
0.0493805
0.0493861
0.0493998
0.0494238
0.0494803
0.0495776
0.0495689
0.0495079
0.0494198
0.0493367
0.0492803
0.0492474
0.0492299
0.049223
0.0492251
0.0492355
0.0492532
0.0492738
0.0492926
0.0493072
0.0493159
0.049318
0.0493138
0.0493054
0.0492998
0.0493082
0.0493112
0.0493118
0.0493064
0.049285
0.0492622
0.0492466
0.0492432
0.0492522
0.0492714
0.0493
0.0493421
0.049411
0.0495225
0.0494225
0.0494457
0.0494721
0.0495041
0.0495432
0.0495906
0.0496516
0.0497184
0.0496661
0.0495455
0.0494324
0.0493531
0.0493048
0.0492764
0.0492604
0.0492537
0.0492546
0.0492622
0.0492745
0.0492886
0.0493014
0.0493105
0.0493144
0.0493127
0.049307
0.0493049
0.0493168
0.049332
0.0493383
0.0493377
0.0493191
0.0493006
0.0492923
0.049295
0.0493078
0.0493298
0.0493616
0.0494101
0.0494926
0.0496342
)
;

boundaryField
{
    floor
    {
        type            fixedFluxPressure;
        gradient        uniform 0;
        value           nonuniform List<scalar> 
40
(
0.0492151
0.0492495
0.0493016
0.0492396
0.0491818
0.0491414
0.0491339
0.0491225
0.0491256
0.0491408
0.0491647
0.0491895
0.0492086
0.0492225
0.0492317
0.0492339
0.0492246
0.0492037
0.0491907
0.0492131
0.0492036
0.0491863
0.0491803
0.0491671
0.0491527
0.0491513
0.0491773
0.0492021
0.0491943
0.0491771
0.0491769
0.0491858
0.0491949
0.0491954
0.0491894
0.0491772
0.0491589
0.0491407
0.0491257
0.0491261
)
;
    }
    ceiling
    {
        type            fixedFluxPressure;
        gradient        nonuniform List<scalar> 
40
(
0.436395
0.42957
0.422708
0.416008
0.408472
0.399298
0.387286
0.374263
0.385267
0.409383
0.430927
0.444679
0.45171
0.454828
0.456097
0.456609
0.456869
0.457101
0.457407
0.457854
0.458538
0.459495
0.460725
0.462213
0.463942
0.465891
0.468059
0.470797
0.471938
0.470642
0.469263
0.467755
0.466012
0.464308
0.462661
0.460722
0.457603
0.451081
0.436885
0.409605
)
;
        value           nonuniform List<scalar> 
40
(
0.0516045
0.0515936
0.0515856
0.0515841
0.0515856
0.051587
0.051588
0.0515897
0.0515925
0.0515924
0.0515871
0.0515765
0.0515633
0.0515505
0.0515409
0.0515367
0.051539
0.0515477
0.0515615
0.0515779
0.0515941
0.0516079
0.051618
0.0516238
0.0516267
0.0516344
0.0516571
0.051686
0.051698
0.0516909
0.0516654
0.0516394
0.0516223
0.0516165
0.0516211
0.0516334
0.0516496
0.0516655
0.051677
0.0516822
)
;
    }
    fixedWalls
    {
        type            fixedFluxPressure;
        gradient        uniform 0;
        value           nonuniform List<scalar> 
80
(
0.0492151
0.0492131
0.0492025
0.04919
0.0491781
0.0491676
0.0491585
0.0491508
0.0491455
0.0491426
0.0491451
0.0491612
0.0492005
0.0492562
0.0493047
0.0493333
0.0493471
0.0493539
0.0493581
0.0493611
0.0493637
0.0493659
0.0493677
0.0493694
0.0493709
0.049372
0.0493728
0.049373
0.0493725
0.0493711
0.0493687
0.0493652
0.0493605
0.0493534
0.0493456
0.0493426
0.049345
0.049353
0.0493665
0.0494225
0.0491261
0.0491393
0.0491343
0.0491222
0.0491102
0.0491016
0.0490989
0.0491055
0.0491196
0.0491379
0.0491591
0.0492758
0.0493431
0.0493293
0.0493165
0.0493054
0.0492961
0.0492887
0.0492831
0.0492792
0.0492769
0.0492761
0.0492766
0.0492785
0.0492819
0.0492868
0.0492933
0.0493014
0.0493109
0.049322
0.0493345
0.0493485
0.0493638
0.0493805
0.0493988
0.0494191
0.0494429
0.0494737
0.0495225
0.0496342
)
;
    }
    frontAndBack
    {
        type            empty;
    }
}


// ************************************************************************* //
