/*--------------------------------*- C++ -*----------------------------------*\
| =========                 |                                                 |
| \\      /  F ield         | OpenFOAM: The Open Source CFD Toolbox           |
|  \\    /   O peration     | Version:  4.1                                   |
|   \\  /    A nd           | Web:      www.OpenFOAM.org                      |
|    \\/     M anipulation  |                                                 |
\*---------------------------------------------------------------------------*/
FoamFile
{
    version     2.0;
    format      ascii;
    class       surfaceScalarField;
    location    "800";
    object      phi;
}
// * * * * * * * * * * * * * * * * * * * * * * * * * * * * * * * * * * * * * //

dimensions      [0 3 -1 0 0 0 0];

internalField   nonuniform List<scalar> 
9850
(
-4.1388e-06
4.1388e-06
-5.51161e-06
1.37281e-06
-6.1013e-06
5.89688e-07
-6.81187e-06
7.1057e-07
-7.63014e-06
8.18271e-07
-8.42968e-06
7.99536e-07
-9.12661e-06
6.96935e-07
-9.66803e-06
5.41418e-07
-1.00152e-05
3.47122e-07
-1.01342e-05
1.19051e-07
-9.99026e-06
-1.43945e-07
-9.5508e-06
-4.39464e-07
-8.79239e-06
-7.58405e-07
-7.71485e-06
-1.07754e-06
-6.33578e-06
-1.37907e-06
-4.67329e-06
-1.6625e-06
-2.69045e-06
-1.98284e-06
-1.66228e-07
-2.52422e-06
2.60471e-06
-2.77094e-06
4.96402e-06
-2.3593e-06
7.00868e-06
-2.04467e-06
8.78013e-06
-1.77145e-06
1.02789e-05
-1.49876e-06
1.1496e-05
-1.2171e-06
1.24284e-05
-9.32441e-07
1.3086e-05
-6.57575e-07
1.34959e-05
-4.09877e-07
1.37045e-05
-2.08646e-07
1.37704e-05
-6.58417e-08
1.37412e-05
2.91865e-08
1.36223e-05
1.18902e-07
1.33541e-05
2.6818e-07
1.28284e-05
5.25659e-07
1.19384e-05
8.90083e-07
1.06561e-05
1.28229e-06
9.09507e-06
1.56101e-06
7.50475e-06
1.59032e-06
6.18097e-06
1.32377e-06
5.35977e-06
8.21198e-07
5.1625e-06
1.97272e-07
5.54001e-06
-3.77503e-07
6.37304e-06
-8.3303e-07
7.53043e-06
-1.1574e-06
8.78574e-06
-1.25531e-06
9.57992e-06
-7.94172e-07
8.811e-06
7.68913e-07
5.20383e-06
3.60717e-06
-1.62634e-07
5.36647e-06
-3.25292e-06
3.09029e-06
-4.54023e-06
1.28731e-06
-4.793e-06
2.52764e-07
-4.1184e-06
-6.74601e-07
-2.43104e-06
-1.68736e-06
9.28562e-08
-2.52389e-06
2.33751e-06
-2.24465e-06
3.34302e-06
-1.00551e-06
4.39082e-06
-1.04781e-06
4.77089e-06
-3.80068e-07
3.25808e-06
1.51282e-06
5.50776e-07
2.7073e-06
-4.24311e-06
4.79389e-06
-7.25452e-06
3.01141e-06
-7.57274e-06
3.18215e-07
-5.55139e-06
-2.02135e-06
-3.21073e-06
-2.34066e-06
-1.49822e-06
-1.71251e-06
-3.22581e-07
-1.17564e-06
4.79337e-07
-8.01917e-07
8.14473e-07
-3.35137e-07
4.57647e-07
3.56826e-07
-5.65322e-08
5.1418e-07
7.70209e-08
-1.33553e-07
4.59599e-07
-3.82578e-07
-4.37855e-08
5.03385e-07
-3.32819e-06
3.28441e-06
-7.08695e-06
3.75876e-06
-8.45057e-06
1.36362e-06
-8.275e-06
-1.75577e-07
-7.43419e-06
-8.4081e-07
-6.32515e-06
-1.10904e-06
-5.10074e-06
-1.22441e-06
-3.78303e-06
-1.31771e-06
-2.36116e-06
-1.42186e-06
-8.74302e-07
-1.48686e-06
5.56678e-07
-1.43098e-06
1.64086e-06
-1.08418e-06
1.79649e-06
-1.55632e-07
5.52702e-08
1.74122e-06
-4.59499e-06
4.65026e-06
-8.75129e-06
4.1563e-06
-1.09011e-05
2.14978e-06
-1.18519e-05
9.50827e-07
-1.18881e-05
3.62027e-08
-1.10568e-05
-8.3125e-07
-9.24718e-06
-1.80966e-06
-6.51501e-06
-2.73217e-06
-3.1046e-06
-3.41041e-06
8.74032e-07
-3.97864e-06
3.15932e-06
-2.28529e-06
3.15932e-06
-3.41924e-06
7.55804e-06
-4.87924e-06
2.83281e-06
-5.66807e-06
1.37851e-06
-6.44916e-06
1.49167e-06
-7.24489e-06
1.614e-06
-7.99485e-06
1.5495e-06
-8.64352e-06
1.3456e-06
-9.14208e-06
1.03999e-06
-9.44415e-06
6.49187e-07
-9.50475e-06
1.79651e-07
-9.28546e-06
-3.63235e-07
-8.75833e-06
-9.66589e-07
-7.90964e-06
-1.6071e-06
-6.75272e-06
-2.23446e-06
-5.31494e-06
-2.81684e-06
-3.62515e-06
-3.35229e-06
-1.71349e-06
-3.8945e-06
4.46244e-07
-4.68396e-06
2.57449e-06
-4.89919e-06
4.64719e-06
-4.432e-06
6.55841e-06
-3.95589e-06
8.27486e-06
-3.48789e-06
9.77562e-06
-2.99951e-06
1.10415e-05
-2.48301e-06
1.20566e-05
-1.94755e-06
1.28105e-05
-1.41146e-06
1.33006e-05
-8.99916e-07
1.35361e-05
-4.4418e-07
1.35442e-05
-7.395e-08
1.33663e-05
2.07116e-07
1.3042e-05
4.43195e-07
1.25976e-05
7.12532e-07
1.20326e-05
1.09071e-06
1.13398e-05
1.58288e-06
1.05441e-05
2.07792e-06
9.7253e-06
2.37985e-06
8.99659e-06
2.31903e-06
8.45781e-06
1.86255e-06
8.14514e-06
1.13387e-06
7.99898e-06
3.43431e-07
8.00211e-06
-3.80632e-07
8.15574e-06
-9.86662e-07
8.48957e-06
-1.49122e-06
8.97199e-06
-1.73773e-06
9.25977e-06
-1.08196e-06
8.57756e-06
1.45112e-06
6.50714e-06
5.67759e-06
2.88152e-06
8.99209e-06
-1.18048e-06
7.15229e-06
-3.33179e-06
3.43863e-06
-3.77585e-06
6.96815e-07
-3.47174e-06
-9.78711e-07
-2.36453e-06
-2.79457e-06
-9.39609e-07
-3.94881e-06
-3.86262e-08
-3.14564e-06
5.8384e-07
-1.62797e-06
-1.17186e-07
-3.46782e-07
-1.74321e-06
1.24595e-06
-3.28912e-06
3.05873e-06
-4.32233e-06
3.74051e-06
-4.38751e-06
4.85907e-06
-4.61058e-06
3.23448e-06
-4.62923e-06
3.36864e-07
-3.27185e-06
-3.37872e-06
-2.38974e-06
-3.22277e-06
-1.72109e-06
-2.38116e-06
-1.12303e-06
-1.7737e-06
-5.70092e-07
-1.35485e-06
1.20519e-07
-1.02575e-06
1.12975e-06
-6.52402e-07
2.20503e-06
-5.611e-07
2.60488e-06
-5.33406e-07
2.13264e-06
8.96584e-08
6.98966e-07
1.93706e-06
-2.66882e-06
6.65219e-06
-5.92343e-06
7.01337e-06
-7.51509e-06
2.95529e-06
-7.78063e-06
8.99642e-08
-7.3255e-06
-1.29594e-06
-6.50079e-06
-1.93375e-06
-5.44568e-06
-2.27951e-06
-4.21763e-06
-2.54576e-06
-2.86507e-06
-2.77442e-06
-1.48434e-06
-2.86759e-06
-2.6902e-07
-2.6463e-06
4.67935e-07
-1.82114e-06
3.92123e-07
-7.98205e-08
-8.18473e-07
2.95182e-06
-3.53788e-06
7.36967e-06
-6.88188e-06
7.5003e-06
-9.25957e-06
4.52747e-06
-1.05124e-05
2.20365e-06
-1.08208e-05
3.44594e-07
-1.0169e-05
-1.48301e-06
-8.55664e-06
-3.42205e-06
-6.14207e-06
-5.14674e-06
-3.3164e-06
-6.23608e-06
-4.82564e-07
-6.81248e-06
1.89132e-06
-4.65917e-06
5.05064e-06
-2.52739e-06
1.00854e-05
-3.81643e-06
4.12185e-06
-4.84554e-06
2.40763e-06
-5.74317e-06
2.38929e-06
-6.55017e-06
2.421e-06
-7.28638e-06
2.28571e-06
-7.92476e-06
1.98398e-06
-8.41445e-06
1.52968e-06
-8.69567e-06
9.30407e-07
-8.71155e-06
1.95523e-07
-8.41843e-06
-6.5635e-07
-7.80101e-06
-1.58401e-06
-6.88358e-06
-2.52453e-06
-5.69866e-06
-3.41938e-06
-4.28358e-06
-4.23192e-06
-2.67727e-06
-4.9586e-06
-9.35424e-07
-5.63634e-06
8.42094e-07
-6.46147e-06
2.53809e-06
-6.59519e-06
4.29344e-06
-6.18735e-06
5.99282e-06
-5.65526e-06
7.57127e-06
-5.06634e-06
8.99295e-06
-4.4212e-06
1.02315e-05
-3.7216e-06
1.12648e-05
-2.98085e-06
1.20742e-05
-2.2208e-06
1.26434e-05
-1.46915e-06
1.29576e-05
-7.58362e-07
1.30129e-05
-1.29237e-07
1.28129e-05
4.07156e-07
1.24068e-05
8.49238e-07
1.18686e-05
1.25072e-06
1.12875e-05
1.67183e-06
1.07412e-05
2.12917e-06
1.0279e-05
2.54013e-06
9.917e-06
2.74186e-06
9.63457e-06
2.60146e-06
9.37802e-06
2.11909e-06
9.08625e-06
1.42564e-06
8.74405e-06
6.85631e-07
8.38473e-06
-2.13082e-08
8.09093e-06
-6.92869e-07
7.93525e-06
-1.33554e-06
7.9908e-06
-1.79328e-06
8.12727e-06
-1.21843e-06
7.88415e-06
1.69425e-06
6.86652e-06
6.69521e-06
5.07745e-06
1.07812e-05
1.95732e-06
1.02724e-05
-1.2782e-06
6.67415e-06
-3.40511e-06
2.82372e-06
-3.53896e-06
-8.44859e-07
-3.18144e-06
-3.1521e-06
-2.90191e-06
-4.22833e-06
-3.43883e-06
-2.60872e-06
-4.68912e-06
-3.77673e-07
-6.12154e-06
1.08563e-06
-6.73042e-06
1.85484e-06
-6.22268e-06
2.55099e-06
-5.27853e-06
2.79635e-06
-3.42665e-06
3.00719e-06
-1.91863e-06
1.72646e-06
-1.26125e-06
-3.20514e-07
-1.1542e-06
-3.48578e-06
-1.2242e-06
-3.15277e-06
-1.05177e-06
-2.5536e-06
-7.25091e-07
-2.10038e-06
-2.94297e-07
-1.78565e-06
2.65412e-07
-1.58546e-06
1.07676e-06
-1.46375e-06
1.92491e-06
-1.40925e-06
2.36989e-06
-9.78384e-07
1.99124e-06
4.6831e-07
-5.44624e-08
3.98276e-06
-2.83813e-06
9.43586e-06
-5.19939e-06
9.37463e-06
-6.64351e-06
4.3994e-06
-7.1723e-06
6.18754e-07
-7.02606e-06
-1.44218e-06
-6.44575e-06
-2.51406e-06
-5.61151e-06
-3.11375e-06
-4.59402e-06
-3.56326e-06
-3.44736e-06
-3.92107e-06
-2.2602e-06
-4.05476e-06
-1.18898e-06
-3.71752e-06
-4.76321e-07
-2.5338e-06
-4.29158e-07
-1.26984e-07
-1.17348e-06
3.69614e-06
-2.52844e-06
8.72463e-06
-5.12507e-06
1.00969e-05
-7.36873e-06
6.77113e-06
-8.7551e-06
3.59003e-06
-9.30993e-06
8.9942e-07
-8.9261e-06
-1.86683e-06
-7.56607e-06
-4.78209e-06
-5.50343e-06
-7.20938e-06
-3.19565e-06
-8.54386e-06
-9.38209e-07
-9.06991e-06
1.2677e-06
-6.86509e-06
6.31835e-06
-2.0193e-06
1.21047e-05
-3.1387e-06
5.24125e-06
-4.17954e-06
3.44847e-06
-5.11567e-06
3.32543e-06
-5.95093e-06
3.25626e-06
-6.69278e-06
3.02756e-06
-7.31187e-06
2.60306e-06
-7.75445e-06
1.97226e-06
-7.96097e-06
1.13692e-06
-7.88456e-06
1.19114e-07
-7.50374e-06
-1.03717e-06
-6.83104e-06
-2.25671e-06
-5.89947e-06
-3.4561e-06
-4.7497e-06
-4.56916e-06
-3.42475e-06
-5.55687e-06
-1.96956e-06
-6.41379e-06
-4.4288e-07
-7.16302e-06
1.01873e-06
-7.92309e-06
2.43277e-06
-8.00923e-06
3.91316e-06
-7.66774e-06
5.39186e-06
-7.13396e-06
6.80783e-06
-6.48232e-06
8.12005e-06
-5.73342e-06
9.29724e-06
-4.8988e-06
1.03127e-05
-3.99633e-06
1.11438e-05
-3.05193e-06
1.17715e-05
-2.0968e-06
1.21778e-05
-1.1647e-06
1.23417e-05
-2.93126e-07
1.22649e-05
4.83976e-07
1.19707e-05
1.14339e-06
1.15215e-05
1.69992e-06
1.1011e-05
2.18238e-06
1.05402e-05
2.59994e-06
1.0175e-05
2.90537e-06
9.91422e-06
3.00263e-06
9.69598e-06
2.8197e-06
9.43906e-06
2.37601e-06
9.09274e-06
1.77196e-06
8.66056e-06
1.11782e-06
8.17407e-06
4.65181e-07
7.68757e-06
-2.06373e-07
7.26253e-06
-9.10491e-07
7.03438e-06
-1.56513e-06
7.15504e-06
-1.33909e-06
7.26322e-06
1.58607e-06
6.97295e-06
6.98549e-06
6.21148e-06
1.15426e-05
4.68255e-06
1.18013e-05
2.38426e-06
8.97244e-06
-5.4889e-07
5.75687e-06
-2.93477e-06
1.54102e-06
-3.84161e-06
-2.24525e-06
-4.58931e-06
-3.48064e-06
-5.82285e-06
-1.37518e-06
-7.04804e-06
8.47514e-07
-7.69404e-06
1.73163e-06
-7.72815e-06
1.88895e-06
-6.76619e-06
1.58903e-06
-4.90588e-06
9.36042e-07
-2.39803e-06
4.99344e-07
-5.23367e-07
-1.482e-07
3.79475e-07
-1.22336e-06
-2.44725e-07
-2.86158e-06
-6.01454e-07
-2.79604e-06
-6.20799e-07
-2.53425e-06
-4.54562e-07
-2.26661e-06
-1.65586e-07
-2.07462e-06
2.42325e-07
-1.99337e-06
7.74172e-07
-1.9956e-06
1.33441e-06
-1.96948e-06
1.63134e-06
-1.27532e-06
8.19403e-07
1.28025e-06
-1.10077e-06
5.90294e-06
-2.84788e-06
1.1183e-05
-4.77003e-06
1.12968e-05
-6.18332e-06
5.8127e-06
-6.84852e-06
1.28395e-06
-6.86998e-06
-1.42072e-06
-6.47787e-06
-2.90617e-06
-5.85748e-06
-3.73414e-06
-5.07806e-06
-4.34268e-06
-4.18488e-06
-4.81426e-06
-3.23593e-06
-5.00371e-06
-2.32064e-06
-4.63281e-06
-1.56403e-06
-3.29041e-06
-1.16721e-06
-5.238e-07
-1.21848e-06
3.74741e-06
-1.52132e-06
9.02746e-06
-3.34827e-06
1.19239e-05
-5.43805e-06
8.86091e-06
-6.86862e-06
5.02059e-06
-7.6258e-06
1.65661e-06
-7.51336e-06
-1.97927e-06
-6.41775e-06
-5.87771e-06
-4.7433e-06
-8.88382e-06
-2.9096e-06
-1.03776e-05
-1.06399e-06
-1.09155e-05
8.17745e-07
-8.74682e-06
7.13609e-06
-1.68324e-06
1.3788e-05
-2.69008e-06
6.24808e-06
-3.67639e-06
4.43478e-06
-4.59019e-06
4.23923e-06
-5.41374e-06
4.07981e-06
-6.13184e-06
3.74566e-06
-6.70529e-06
3.17651e-06
-7.08077e-06
2.34774e-06
-7.20768e-06
1.26384e-06
-7.05509e-06
-3.348e-08
-6.62291e-06
-1.46936e-06
-5.93786e-06
-2.94175e-06
-5.03938e-06
-4.35458e-06
-3.97317e-06
-5.63536e-06
-2.78354e-06
-6.7465e-06
-1.51428e-06
-7.68305e-06
-2.18093e-07
-8.45921e-06
9.81075e-07
-9.12226e-06
2.1756e-06
-9.20375e-06
3.42488e-06
-8.91702e-06
4.69677e-06
-8.40585e-06
5.94767e-06
-7.73322e-06
7.14095e-06
-6.92669e-06
8.24435e-06
-6.0022e-06
9.22747e-06
-4.97946e-06
1.00635e-05
-3.88797e-06
1.07309e-05
-2.76419e-06
1.12123e-05
-1.64608e-06
1.14904e-05
-5.7119e-07
1.15552e-05
4.19128e-07
1.1421e-05
1.27756e-06
1.11306e-05
1.99035e-06
1.07541e-05
2.55883e-06
1.03721e-05
2.98199e-06
1.00413e-05
3.23615e-06
9.76494e-06
3.27901e-06
9.49693e-06
3.0877e-06
9.18071e-06
2.69224e-06
8.78772e-06
2.16495e-06
8.32619e-06
1.57934e-06
7.81676e-06
9.74615e-07
7.26225e-06
3.48132e-07
6.68587e-06
-3.34107e-07
6.18436e-06
-1.06362e-06
6.14248e-06
-1.29721e-06
6.46426e-06
1.26428e-06
6.69491e-06
6.75483e-06
6.73216e-06
1.15054e-05
6.17245e-06
1.23611e-05
4.83254e-06
1.03123e-05
3.18497e-06
7.40444e-06
3.22829e-07
4.40316e-06
-2.72553e-06
8.03112e-07
-4.33921e-06
-1.86697e-06
-5.48445e-06
-2.29932e-07
-6.5032e-06
1.86626e-06
-7.01541e-06
2.24384e-06
-6.7432e-06
1.61674e-06
-5.53228e-06
3.78106e-07
-3.65944e-06
-9.36795e-07
-1.8357e-06
-1.3244e-06
-5.61866e-07
-1.42203e-06
5.5966e-08
-1.84119e-06
-2.38233e-07
-2.56738e-06
-4.26064e-07
-2.60821e-06
-4.7751e-07
-2.48281e-06
-4.19402e-07
-2.32472e-06
-2.78903e-07
-2.21512e-06
-7.34893e-08
-2.19878e-06
1.82412e-07
-2.2515e-06
3.39007e-07
-2.12608e-06
1.48378e-07
-1.08469e-06
-5.0896e-07
1.93759e-06
-1.43309e-06
6.82707e-06
-2.41489e-06
1.21648e-05
-4.08223e-06
1.29641e-05
-5.63771e-06
7.36818e-06
-6.51925e-06
2.16549e-06
-6.71271e-06
-1.22726e-06
-6.49425e-06
-3.12462e-06
-6.08325e-06
-4.14514e-06
-5.564e-06
-4.86193e-06
-4.96749e-06
-5.41077e-06
-4.30865e-06
-5.66254e-06
-3.6004e-06
-5.34106e-06
-2.84796e-06
-4.04285e-06
-2.05204e-06
-1.31972e-06
-1.33217e-06
3.02754e-06
-6.75948e-07
8.37124e-06
-1.48068e-06
1.27286e-05
-3.31013e-06
1.06904e-05
-4.69089e-06
6.40135e-06
-5.57584e-06
2.54155e-06
-5.81527e-06
-1.73984e-06
-5.00555e-06
-6.68743e-06
-3.7827e-06
-1.01067e-05
-2.45432e-06
-1.17059e-05
-1.0648e-06
-1.2305e-05
3.03586e-07
-1.01152e-05
7.43968e-06
-1.43241e-06
1.52204e-05
-2.35687e-06
7.17254e-06
-3.27561e-06
5.35352e-06
-4.13678e-06
5.1004e-06
-4.9168e-06
4.85983e-06
-5.58752e-06
4.41638e-06
-6.10402e-06
3.69301e-06
-6.41541e-06
2.65913e-06
-6.48023e-06
1.32866e-06
-6.28141e-06
-2.32304e-07
-5.83344e-06
-1.91732e-06
-5.17209e-06
-3.60311e-06
-4.34345e-06
-5.18322e-06
-3.39506e-06
-6.58375e-06
-2.36743e-06
-7.77413e-06
-1.29766e-06
-8.75281e-06
-2.29432e-07
-9.52744e-06
7.50092e-07
-1.01018e-05
1.75201e-06
-1.02057e-05
2.80018e-06
-9.96518e-06
3.88241e-06
-9.48808e-06
4.97285e-06
-8.82366e-06
6.04452e-06
-7.99836e-06
7.0689e-06
-7.02658e-06
8.0141e-06
-5.92466e-06
8.8488e-06
-4.72267e-06
9.5476e-06
-3.46299e-06
1.00929e-05
-2.19139e-06
1.04699e-05
-9.48208e-07
1.06658e-05
2.23248e-07
1.06847e-05
1.25867e-06
1.05536e-05
2.12144e-06
1.03201e-05
2.79232e-06
1.00388e-05
3.26335e-06
9.75041e-06
3.52451e-06
9.46339e-06
3.56602e-06
9.15622e-06
3.39487e-06
8.80111e-06
3.04735e-06
8.38548e-06
2.58058e-06
7.91436e-06
2.05046e-06
7.3958e-06
1.49317e-06
6.82511e-06
9.18829e-07
6.1836e-06
3.07405e-07
5.48385e-06
-3.63879e-07
5.06863e-06
-8.81986e-07
5.41586e-06
9.17058e-07
6.02124e-06
6.14945e-06
6.6519e-06
1.08747e-05
6.81214e-06
1.22008e-05
6.22283e-06
1.09017e-05
5.04166e-06
8.58561e-06
3.38166e-06
6.06317e-06
4.71151e-07
3.71362e-06
-2.5259e-06
1.13009e-06
-3.88711e-06
1.13127e-06
-4.88763e-06
2.86679e-06
-5.38019e-06
2.7364e-06
-5.05573e-06
1.29228e-06
-3.94345e-06
-7.34177e-07
-2.64662e-06
-2.23363e-06
-1.63469e-06
-2.33633e-06
-8.25949e-07
-2.23077e-06
-3.51113e-07
-2.31602e-06
-4.03159e-07
-2.51533e-06
-4.99171e-07
-2.5122e-06
-5.66673e-07
-2.41531e-06
-5.91795e-07
-2.2996e-06
-5.86413e-07
-2.2205e-06
-5.75213e-07
-2.20998e-06
-6.00125e-07
-2.22659e-06
-7.32339e-07
-1.99387e-06
-1.0116e-06
-8.05434e-07
-1.24355e-06
2.16954e-06
-1.30372e-06
6.88723e-06
-1.48641e-06
1.23475e-05
-2.83372e-06
1.43114e-05
-4.62179e-06
9.15625e-06
-5.90362e-06
3.44732e-06
-6.38063e-06
-7.50251e-07
-6.34715e-06
-3.15811e-06
-6.14206e-06
-4.35022e-06
-5.89554e-06
-5.10846e-06
-5.62426e-06
-5.68205e-06
-5.2943e-06
-5.99251e-06
-4.84173e-06
-5.79363e-06
-4.15977e-06
-4.72481e-06
-3.11292e-06
-2.36657e-06
-1.6996e-06
1.61423e-06
-2.18872e-07
6.89051e-06
2.09958e-07
1.22998e-05
-9.85517e-07
1.18858e-05
-2.21304e-06
7.62887e-06
-3.14341e-06
3.47192e-06
-3.74709e-06
-1.13616e-06
-3.25249e-06
-7.18202e-06
-2.57516e-06
-1.0784e-05
-1.83362e-06
-1.24475e-05
-9.78744e-07
-1.31599e-05
-1.56648e-07
-1.09373e-05
7.28303e-06
-1.24398e-06
1.64644e-05
-2.09704e-06
8.0256e-06
-2.9439e-06
6.20037e-06
-3.73976e-06
5.89626e-06
-4.46123e-06
5.58129e-06
-5.07532e-06
5.03047e-06
-5.53569e-06
4.15338e-06
-5.79428e-06
2.91772e-06
-5.81696e-06
1.35134e-06
-5.59852e-06
-4.50744e-07
-5.1639e-06
-2.35194e-06
-4.55565e-06
-4.21136e-06
-3.82523e-06
-5.91363e-06
-3.01722e-06
-7.39177e-06
-2.16382e-06
-8.62753e-06
-1.29269e-06
-9.62395e-06
-4.36207e-07
-1.03839e-05
3.57674e-07
-1.08957e-05
1.18258e-06
-1.10306e-05
2.05126e-06
-1.08339e-05
2.96042e-06
-1.03972e-05
3.89759e-06
-9.76083e-06
4.84658e-06
-8.94734e-06
5.7867e-06
-7.96669e-06
6.68828e-06
-6.82624e-06
7.51653e-06
-5.55092e-06
8.24042e-06
-4.18688e-06
8.83984e-06
-2.79081e-06
9.30354e-06
-1.41191e-06
9.61523e-06
-8.84381e-08
9.76784e-06
1.10606e-06
9.77876e-06
2.11052e-06
9.67847e-06
2.8926e-06
9.50183e-06
3.43999e-06
9.27678e-06
3.74955e-06
9.0142e-06
3.8286e-06
8.70933e-06
3.69974e-06
8.35332e-06
3.40337e-06
7.94307e-06
2.99083e-06
7.48125e-06
2.51228e-06
6.96829e-06
2.00613e-06
6.39406e-06
1.49305e-06
5.72807e-06
9.73399e-07
4.93876e-06
4.25424e-07
4.12989e-06
-7.31073e-08
4.22099e-06
8.2595e-07
5.07076e-06
5.29968e-06
6.13446e-06
9.81103e-06
6.82461e-06
1.15107e-05
6.79307e-06
1.09332e-05
6.0567e-06
9.32197e-06
4.71699e-06
7.40288e-06
2.92347e-06
5.50713e-06
3.11944e-07
3.74162e-06
-1.61499e-06
3.05821e-06
-2.98674e-06
4.23854e-06
-3.66709e-06
3.41675e-06
-3.52719e-06
1.15239e-06
-2.76425e-06
-1.49712e-06
-2.00158e-06
-2.9963e-06
-1.40112e-06
-2.9368e-06
-9.33971e-07
-2.69792e-06
-6.76977e-07
-2.57302e-06
-6.68952e-07
-2.52336e-06
-7.40707e-07
-2.44044e-06
-8.25285e-07
-2.33073e-06
-9.06478e-07
-2.21841e-06
-9.98585e-07
-2.12839e-06
-1.1341e-06
-2.07447e-06
-1.34908e-06
-2.0116e-06
-1.64182e-06
-1.70113e-06
-1.86882e-06
-5.78436e-07
-1.70217e-06
2.0029e-06
-1.07385e-06
6.25891e-06
-3.74897e-07
1.16485e-05
-1.0417e-06
1.49782e-05
-2.7817e-06
1.08962e-05
-4.5378e-06
5.20342e-06
-5.60275e-06
3.14703e-07
-5.8276e-06
-2.93327e-06
-5.84804e-06
-4.32977e-06
-5.89448e-06
-5.06202e-06
-5.97233e-06
-5.6042e-06
-6.00547e-06
-5.95937e-06
-5.87321e-06
-5.92589e-06
-5.39845e-06
-5.19957e-06
-4.35764e-06
-3.40738e-06
-2.55523e-06
-1.88186e-07
-3.67008e-07
4.70229e-06
1.40202e-06
1.05308e-05
1.16725e-06
1.21206e-05
3.32726e-07
8.4634e-06
-5.25661e-07
4.33031e-06
-9.93464e-07
-6.68359e-07
-1.09626e-06
-7.07923e-06
-1.12242e-06
-1.07578e-05
-1.04292e-06
-1.2527e-05
-8.09362e-07
-1.33935e-05
-5.02518e-07
-1.12442e-05
6.78051e-06
-1.10214e-06
1.75665e-05
-1.89188e-06
8.81534e-06
-2.66803e-06
6.97652e-06
-3.39596e-06
6.6242e-06
-4.05554e-06
6.24087e-06
-4.61371e-06
5.58865e-06
-5.02507e-06
4.56474e-06
-5.24462e-06
3.13727e-06
-5.24431e-06
1.35103e-06
-5.02735e-06
-6.677e-07
-4.62809e-06
-2.7512e-06
-4.09661e-06
-4.74283e-06
-3.48499e-06
-6.52525e-06
-2.82909e-06
-8.04767e-06
-2.15e-06
-9.30662e-06
-1.46537e-06
-1.03086e-05
-7.95592e-07
-1.10537e-05
-1.58657e-07
-1.15326e-05
5.04774e-07
-1.1694e-05
1.21491e-06
-1.1544e-05
1.97005e-06
-1.11524e-05
2.76485e-06
-1.05556e-05
3.59261e-06
-9.7751e-06
4.44267e-06
-8.81676e-06
5.29213e-06
-7.67569e-06
6.10602e-06
-6.36481e-06
6.84631e-06
-4.92718e-06
7.48779e-06
-3.43229e-06
8.02094e-06
-1.94506e-06
8.43342e-06
-5.00917e-07
8.70268e-06
8.36802e-07
8.83923e-06
1.97397e-06
8.8609e-06
2.87093e-06
8.79018e-06
3.51071e-06
8.64616e-06
3.89358e-06
8.43994e-06
4.03481e-06
8.17524e-06
3.96445e-06
7.85317e-06
3.72544e-06
7.47596e-06
3.36803e-06
7.04579e-06
2.94245e-06
6.55979e-06
2.49213e-06
6.00427e-06
2.04857e-06
5.35006e-06
1.62761e-06
4.54692e-06
1.22857e-06
3.5958e-06
8.78011e-07
3.21003e-06
1.21172e-06
4.05185e-06
4.45786e-06
5.36958e-06
8.49331e-06
6.41559e-06
1.04647e-05
6.78669e-06
1.05621e-05
6.42055e-06
9.68811e-06
5.39498e-06
8.42845e-06
3.83511e-06
7.06699e-06
1.82773e-06
5.749e-06
-5.78003e-08
4.94374e-06
-1.45187e-06
5.63261e-06
-2.26758e-06
4.23245e-06
-2.35523e-06
1.24004e-06
-1.90317e-06
-1.94918e-06
-1.50778e-06
-3.39169e-06
-1.23604e-06
-3.20853e-06
-1.05169e-06
-2.88227e-06
-9.80901e-07
-2.6438e-06
-1.01884e-06
-2.48542e-06
-1.10165e-06
-2.35763e-06
-1.1944e-06
-2.23798e-06
-1.29464e-06
-2.11817e-06
-1.42573e-06
-1.9973e-06
-1.62602e-06
-1.87418e-06
-1.92288e-06
-1.71474e-06
-2.26653e-06
-1.35748e-06
-2.43585e-06
-4.09117e-07
-2.08189e-06
1.64894e-06
-1.02826e-06
5.20528e-06
4.76079e-07
1.01442e-05
8.71092e-07
1.45832e-05
-2.53686e-07
1.2021e-05
-1.97522e-06
6.92495e-06
-3.72851e-06
2.068e-06
-4.66836e-06
-1.99341e-06
-5.00368e-06
-3.99446e-06
-5.40301e-06
-4.66269e-06
-5.86155e-06
-5.14565e-06
-6.28536e-06
-5.53556e-06
-6.53383e-06
-5.67742e-06
-6.40291e-06
-5.33049e-06
-5.61799e-06
-4.1923e-06
-3.89009e-06
-1.91609e-06
-1.23949e-06
2.05168e-06
1.65768e-06
7.63358e-06
2.50254e-06
1.12757e-05
2.39888e-06
8.56706e-06
1.96566e-06
4.76354e-06
1.75318e-06
-4.55875e-07
1.07234e-06
-6.39839e-06
4.35175e-07
-1.01207e-05
-1.1629e-07
-1.19755e-05
-4.98637e-07
-1.30111e-05
-5.40396e-07
-1.12024e-05
6.24012e-06
-9.92843e-07
1.85594e-05
-1.7284e-06
9.55089e-06
-2.44084e-06
7.68896e-06
-3.10556e-06
7.28892e-06
-3.70749e-06
6.8428e-06
-4.2161e-06
6.09726e-06
-4.5882e-06
4.93684e-06
-4.7817e-06
3.33077e-06
-4.77366e-06
1.34298e-06
-4.57507e-06
-8.66291e-07
-4.22995e-06
-3.09632e-06
-3.7942e-06
-5.17858e-06
-3.31404e-06
-7.00541e-06
-2.81215e-06
-8.54956e-06
-2.29791e-06
-9.82086e-06
-1.77908e-06
-1.08274e-05
-1.26469e-06
-1.15681e-05
-7.61462e-07
-1.20358e-05
-2.36881e-07
-1.22186e-05
3.38645e-07
-1.21195e-05
9.62264e-07
-1.1776e-05
1.6313e-06
-1.12247e-05
2.34484e-06
-1.04886e-05
3.10096e-06
-9.57288e-06
3.88799e-06
-8.46273e-06
4.67696e-06
-7.15379e-06
5.42275e-06
-5.67296e-06
6.09027e-06
-4.09981e-06
6.6703e-06
-2.52509e-06
7.15948e-06
-9.90098e-07
7.53322e-06
4.63063e-07
7.78338e-06
1.72381e-06
7.91837e-06
2.73594e-06
7.95348e-06
3.4756e-06
7.90208e-06
3.94498e-06
7.77419e-06
4.1627e-06
7.57673e-06
4.16191e-06
7.31528e-06
3.9869e-06
6.99472e-06
3.6886e-06
6.61763e-06
3.31954e-06
6.18085e-06
2.92891e-06
5.67178e-06
2.55765e-06
5.06572e-06
2.23366e-06
4.32456e-06
1.96973e-06
3.4217e-06
1.78087e-06
2.68995e-06
1.94346e-06
3.20899e-06
3.93881e-06
4.53554e-06
7.16677e-06
5.75079e-06
9.24941e-06
6.37838e-06
9.9345e-06
6.29294e-06
9.77356e-06
5.54201e-06
9.17938e-06
4.2653e-06
8.34371e-06
2.66803e-06
7.34627e-06
1.03339e-06
6.57838e-06
-3.58751e-07
7.02475e-06
-1.24732e-06
5.12102e-06
-1.48534e-06
1.47806e-06
-1.25493e-06
-2.17959e-06
-1.18306e-06
-3.46355e-06
-1.20155e-06
-3.19005e-06
-1.25671e-06
-2.8271e-06
-1.34219e-06
-2.55833e-06
-1.44449e-06
-2.38312e-06
-1.54015e-06
-2.26196e-06
-1.62163e-06
-2.1565e-06
-1.70262e-06
-2.03718e-06
-1.81494e-06
-1.88498e-06
-2.0002e-06
-1.68892e-06
-2.28579e-06
-1.42915e-06
-2.62076e-06
-1.02251e-06
-2.78927e-06
-2.4061e-07
-2.44217e-06
1.30184e-06
-1.27834e-06
4.04146e-06
6.98974e-07
8.16685e-06
2.12183e-06
1.31604e-05
1.97832e-06
1.21645e-05
9.26093e-07
7.97719e-06
-5.54087e-07
3.54818e-06
-2.28621e-06
-2.61288e-07
-3.46184e-06
-2.81883e-06
-4.33695e-06
-3.78758e-06
-5.20927e-06
-4.27333e-06
-6.02316e-06
-4.72167e-06
-6.66982e-06
-5.03076e-06
-6.96831e-06
-5.032e-06
-6.66008e-06
-4.50053e-06
-5.4448e-06
-3.13136e-06
-2.90216e-06
-4.90966e-07
7.2903e-07
4.0024e-06
2.96303e-06
9.04174e-06
3.4743e-06
8.05579e-06
3.47891e-06
4.75893e-06
3.49917e-06
-4.76132e-07
2.81902e-06
-5.71824e-06
1.79706e-06
-9.09871e-06
7.938e-07
-1.09723e-05
-3.74675e-08
-1.21799e-05
-3.86566e-07
-1.08533e-05
5.85355e-06
-9.06593e-07
1.94659e-05
-1.5977e-06
1.0242e-05
-2.25705e-06
8.34831e-06
-2.86802e-06
7.89989e-06
-3.42106e-06
7.39584e-06
-3.88942e-06
6.56561e-06
-4.23261e-06
5.28002e-06
-4.41137e-06
3.50953e-06
-4.40789e-06
1.33951e-06
-4.24188e-06
-1.0323e-06
-3.96735e-06
-3.37085e-06
-3.64109e-06
-5.50484e-06
-3.29685e-06
-7.34964e-06
-2.94259e-06
-8.90382e-06
-2.57743e-06
-1.0186e-05
-2.20109e-06
-1.12038e-05
-1.81442e-06
-1.19548e-05
-1.41623e-06
-1.2434e-05
-9.94844e-07
-1.264e-05
-5.29989e-07
-1.25844e-05
-1.34029e-08
-1.22926e-05
5.52716e-07
-1.17908e-05
1.16503e-06
-1.1101e-05
1.82883e-06
-1.02367e-05
2.54462e-06
-9.17851e-06
3.29705e-06
-7.90622e-06
4.03858e-06
-6.41449e-06
4.71721e-06
-4.77845e-06
5.32166e-06
-3.12954e-06
5.86543e-06
-1.53387e-06
6.32251e-06
5.98009e-09
6.66938e-06
1.37694e-06
6.90782e-06
2.4975e-06
7.04613e-06
3.33729e-06
7.09283e-06
3.89828e-06
7.05582e-06
4.19972e-06
6.94236e-06
4.27536e-06
6.75933e-06
4.16992e-06
6.51263e-06
3.9353e-06
6.20547e-06
3.6267e-06
5.836e-06
3.29838e-06
5.39521e-06
2.99844e-06
4.86588e-06
2.763e-06
4.22337e-06
2.61223e-06
3.44638e-06
2.55787e-06
2.67012e-06
2.71972e-06
2.75849e-06
3.85044e-06
3.81255e-06
6.11271e-06
4.98793e-06
8.07403e-06
5.72334e-06
9.1991e-06
5.81953e-06
9.67737e-06
5.28449e-06
9.71442e-06
4.24817e-06
9.38003e-06
2.90865e-06
8.68578e-06
1.47248e-06
8.01455e-06
1.98244e-07
8.29898e-06
-6.06272e-07
5.92554e-06
-8.75091e-07
1.74688e-06
-8.21216e-07
-2.23346e-06
-1.05336e-06
-3.23141e-06
-1.32838e-06
-2.91504e-06
-1.57791e-06
-2.57757e-06
-1.78025e-06
-2.35599e-06
-1.9265e-06
-2.23687e-06
-2.01726e-06
-2.1712e-06
-2.06686e-06
-2.1069e-06
-2.10223e-06
-2.00181e-06
-2.15901e-06
-1.8282e-06
-2.27645e-06
-1.57148e-06
-2.48386e-06
-1.22174e-06
-2.75672e-06
-7.49653e-07
-2.93763e-06
-5.96958e-08
-2.71987e-06
1.08407e-06
-1.729e-06
3.0506e-06
2.69826e-07
6.16801e-06
2.50378e-06
1.09264e-05
3.07539e-06
1.15929e-05
2.73674e-06
8.31583e-06
1.89536e-06
4.38956e-06
5.8242e-07
1.05166e-06
-1.0925e-06
-1.14391e-06
-2.68042e-06
-2.19967e-06
-4.02495e-06
-2.9288e-06
-5.18447e-06
-3.56215e-06
-6.16278e-06
-4.05245e-06
-6.85048e-06
-4.3443e-06
-7.049e-06
-4.302e-06
-6.48403e-06
-3.69634e-06
-4.74527e-06
-2.22973e-06
-1.41732e-06
6.74448e-07
2.29662e-06
5.3278e-06
3.57796e-06
6.77445e-06
4.15648e-06
4.18041e-06
4.47742e-06
-7.97073e-07
3.83466e-06
-5.07548e-06
2.64231e-06
-7.90636e-06
1.43268e-06
-9.76263e-06
4.06756e-07
-1.11539e-05
-1.90552e-07
-1.0256e-05
5.663e-06
-8.3773e-07
2.03037e-05
-1.49413e-06
1.08984e-05
-2.11227e-06
8.96645e-06
-2.68113e-06
8.46875e-06
-3.19621e-06
7.91093e-06
-3.63471e-06
7.00412e-06
-3.95887e-06
5.60418e-06
-4.13246e-06
3.68312e-06
-4.14391e-06
1.35096e-06
-4.02357e-06
-1.15264e-06
-3.83344e-06
-3.56098e-06
-3.62416e-06
-5.71412e-06
-3.41259e-06
-7.56121e-06
-3.19331e-06
-9.1231e-06
-2.95775e-06
-1.04216e-05
-2.69996e-06
-1.14615e-05
-2.41573e-06
-1.2239e-05
-2.10055e-06
-1.27492e-05
-1.7479e-06
-1.29926e-05
-1.3525e-06
-1.29798e-05
-9.13455e-07
-1.27316e-05
-4.28575e-07
-1.22757e-05
1.02319e-07
-1.16318e-05
6.83877e-07
-1.08182e-05
1.32317e-06
-9.81779e-06
2.02752e-06
-8.61058e-06
2.75718e-06
-7.14415e-06
3.43776e-06
-5.45903e-06
4.04278e-06
-3.73455e-06
4.61167e-06
-2.10275e-06
5.13214e-06
-5.14496e-07
5.55884e-06
9.50243e-07
5.88918e-06
2.16715e-06
6.12429e-06
3.10218e-06
6.26836e-06
3.75422e-06
6.32643e-06
4.14164e-06
6.3045e-06
4.29729e-06
6.20898e-06
4.26545e-06
6.04566e-06
4.09861e-06
5.81821e-06
3.85415e-06
5.52654e-06
3.59005e-06
5.1659e-06
3.35908e-06
4.72713e-06
3.20177e-06
4.19867e-06
3.14069e-06
3.57369e-06
3.18285e-06
2.91977e-06
3.37364e-06
2.72408e-06
4.04613e-06
3.34756e-06
5.48922e-06
4.28412e-06
7.13747e-06
4.97235e-06
8.51086e-06
5.1347e-06
9.51502e-06
4.72499e-06
1.01241e-05
3.84932e-06
1.02557e-05
2.70179e-06
9.83332e-06
1.45262e-06
9.26372e-06
3.86558e-07
9.36505e-06
-2.71104e-07
6.5832e-06
-4.83552e-07
1.95933e-06
-6.29377e-07
-2.08764e-06
-1.13662e-06
-2.72416e-06
-1.62335e-06
-2.4283e-06
-2.01165e-06
-2.18927e-06
-2.28122e-06
-2.08642e-06
-2.43834e-06
-2.07975e-06
-2.50565e-06
-2.1039e-06
-2.51479e-06
-2.09776e-06
-2.49987e-06
-2.01672e-06
-2.49359e-06
-1.83449e-06
-2.52587e-06
-1.53919e-06
-2.62075e-06
-1.12686e-06
-2.77822e-06
-5.92178e-07
-2.9154e-06
7.74867e-08
-2.82673e-06
9.95398e-07
-2.15736e-06
2.38122e-06
-5.68161e-07
4.57882e-06
2.0634e-06
8.29484e-06
3.24634e-06
1.041e-05
3.54088e-06
8.0213e-06
3.17165e-06
4.75878e-06
2.28999e-06
1.93332e-06
9.9572e-07
1.50356e-07
-6.05922e-07
-5.98026e-07
-2.36554e-06
-1.16918e-06
-3.85686e-06
-2.07083e-06
-5.05019e-06
-2.85912e-06
-5.96908e-06
-3.42541e-06
-6.50633e-06
-3.76475e-06
-6.50867e-06
-3.694e-06
-5.77621e-06
-2.96219e-06
-3.68763e-06
-1.41413e-06
2.78205e-07
1.36197e-06
2.82036e-06
4.23229e-06
4.16019e-06
2.84058e-06
4.65151e-06
-1.28839e-06
4.01452e-06
-4.43848e-06
2.83685e-06
-6.72869e-06
1.6821e-06
-8.60789e-06
6.98258e-07
-1.01701e-05
-5.04266e-08
-9.5073e-06
5.61257e-06
-7.82663e-07
2.10863e-05
-1.41369e-06
1.15294e-05
-2.00226e-06
9.55502e-06
-2.54092e-06
9.00741e-06
-3.0294e-06
8.3994e-06
-3.44833e-06
7.42305e-06
-3.76243e-06
5.91828e-06
-3.9392e-06
3.85989e-06
-3.97531e-06
1.38707e-06
-3.91267e-06
-1.21528e-06
-3.81707e-06
-3.65658e-06
-3.72551e-06
-5.80569e-06
-3.63704e-06
-7.64968e-06
-3.53619e-06
-9.22395e-06
-3.40933e-06
-1.05484e-05
-3.24689e-06
-1.1624e-05
-3.04189e-06
-1.2444e-05
-2.78898e-06
-1.30021e-05
-2.48438e-06
-1.32972e-05
-2.12776e-06
-1.33364e-05
-1.72394e-06
-1.31355e-05
-1.28251e-06
-1.27171e-05
-8.07737e-07
-1.21066e-05
-2.95636e-07
-1.13303e-05
2.71131e-07
-1.03846e-05
9.14767e-07
-9.25422e-06
1.62316e-06
-7.85254e-06
2.30759e-06
-6.14346e-06
2.89518e-06
-4.32215e-06
3.45544e-06
-2.66302e-06
4.01219e-06
-1.07125e-06
4.50803e-06
4.54408e-07
4.91961e-06
1.75557e-06
5.24221e-06
2.77958e-06
5.47739e-06
3.51903e-06
5.62752e-06
3.99151e-06
5.69648e-06
4.22833e-06
5.68925e-06
4.27268e-06
5.61078e-06
4.17708e-06
5.46473e-06
4.0002e-06
5.25251e-06
3.80227e-06
4.97314e-06
3.63845e-06
4.62437e-06
3.55054e-06
4.20548e-06
3.55958e-06
3.72276e-06
3.66558e-06
3.21893e-06
3.87747e-06
2.92981e-06
4.33525e-06
3.16421e-06
5.25482e-06
3.74624e-06
6.55544e-06
4.24595e-06
8.01116e-06
4.3488e-06
9.41217e-06
3.95705e-06
1.05159e-05
3.157e-06
1.10557e-05
2.14429e-06
1.0846e-05
1.04064e-06
1.03674e-05
1.97572e-07
1.02081e-05
-2.03943e-07
6.98471e-06
-2.82754e-07
2.03814e-06
-6.97594e-07
-1.6728e-06
-1.44013e-06
-1.98163e-06
-2.07574e-06
-1.79269e-06
-2.53677e-06
-1.72824e-06
-2.82327e-06
-1.79992e-06
-2.9659e-06
-1.93712e-06
-3.0071e-06
-2.0627e-06
-2.98756e-06
-2.1173e-06
-2.93947e-06
-2.06481e-06
-2.88599e-06
-1.88797e-06
-2.84383e-06
-1.58135e-06
-2.82557e-06
-1.14512e-06
-2.83705e-06
-5.80697e-07
-2.8573e-06
9.77401e-08
-2.78391e-06
9.22006e-07
-2.37423e-06
1.97155e-06
-1.27775e-06
3.48233e-06
1.0835e-06
5.9336e-06
2.80587e-06
8.6876e-06
3.58293e-06
7.24424e-06
3.60536e-06