/*--------------------------------*- C++ -*----------------------------------*\
| =========                 |                                                 |
| \\      /  F ield         | OpenFOAM: The Open Source CFD Toolbox           |
|  \\    /   O peration     | Version:  4.1                                   |
|   \\  /    A nd           | Web:      www.OpenFOAM.org                      |
|    \\/     M anipulation  |                                                 |
\*---------------------------------------------------------------------------*/
FoamFile
{
    version     2.0;
    format      ascii;
    class       volVectorField;
    location    "800";
    object      U;
}
// * * * * * * * * * * * * * * * * * * * * * * * * * * * * * * * * * * * * * //

dimensions      [0 1 -1 0 0 0 0];

internalField   nonuniform List<vector> 
1600
(
(-0.00607092 0.00101555 0)
(-0.00530533 -0.00142285 0)
(0.00280449 -0.00307759 0)
(0.00906475 -0.00118211 0)
(0.0115175 0.000397424 0)
(0.00257393 0.00221397 0)
(-0.00635515 0.00085234 0)
(-0.00747957 0.000187267 0)
(-0.00810654 -3.25313e-05 0)
(-0.00762168 -0.000261376 0)
(-0.00622148 -0.000516217 0)
(-0.00407249 -0.000741358 0)
(-0.00132432 -0.000788312 0)
(0.00137406 -0.000708666 0)
(0.0037452 -0.000684318 0)
(0.00623701 -0.000701929 0)
(0.00856454 -0.000522878 0)
(0.00970519 0.00032995 0)
(0.005229 0.00153733 0)
(-0.00204402 -0.000568431 0)
(0.00444544 -0.000390566 0)
(-0.00207027 0.00109233 0)
(-0.00446269 -0.000143858 0)
(-0.00407391 -0.000273198 0)
(-0.00485508 0.00013286 0)
(-0.00747549 0.000581523 0)
(-0.00846891 -0.000196546 0)
(-0.00588365 -0.00107312 0)
(-0.00281032 -0.000614039 0)
(-0.00136144 3.19753e-05 0)
(-0.00143412 4.37651e-05 0)
(-0.0010777 -0.000228516 0)
(0.000411152 -0.000476373 0)
(0.00223537 -0.000527873 0)
(0.00413744 -0.0005059 0)
(0.00606283 -0.000455251 0)
(0.00769487 -0.000304949 0)
(0.00872462 -0.000162386 0)
(0.00854643 0.000218712 0)
(0.00753332 0.00185967 0)
(-0.00525382 0.00315545 0)
(-0.0029232 -0.002187 0)
(0.000925439 -0.00543927 0)
(0.00749349 -0.00180574 0)
(0.010048 0.0018313 0)
(0.00224903 0.00506303 0)
(-0.00454663 0.00234922 0)
(-0.00554808 0.00072202 0)
(-0.0062484 0.000120951 0)
(-0.00565465 -0.000514169 0)
(-0.00416734 -0.00112339 0)
(-0.00204221 -0.00154973 0)
(0.000392249 -0.00159715 0)
(0.00250275 -0.0014825 0)
(0.00458705 -0.00143534 0)
(0.00656114 -0.00145989 0)
(0.00828772 -0.00108325 0)
(0.00932728 0.000866485 0)
(0.00622147 0.00332895 0)
(0.00109084 0.000428783 0)
(0.00135479 0.000191228 0)
(-0.00367633 0.00278915 0)
(-0.00612221 0.000637954 0)
(-0.00689234 0.000382562 0)
(-0.00753959 0.000899784 0)
(-0.0080724 0.00110787 0)
(-0.00785605 -0.000426076 0)
(-0.00579767 -0.00205936 0)
(-0.00415826 -0.00117381 0)
(-0.00287456 -0.00036099 0)
(-0.00175044 -0.000234779 0)
(-0.00090327 -0.000569049 0)
(-1.94368e-05 -0.000912931 0)
(0.00112266 -0.00107935 0)
(0.00271261 -0.00116218 0)
(0.00453204 -0.00112174 0)
(0.00628205 -0.000764336 0)
(0.00742784 -0.000360619 0)
(0.00712551 0.000703747 0)
(0.00673996 0.00417719 0)
(-0.00463111 0.0047209 0)
(-0.00127687 -0.00306376 0)
(-0.000124445 -0.00773626 0)
(0.00628087 -0.00332865 0)
(0.00879028 0.00277345 0)
(0.00235202 0.00763238 0)
(-0.00217798 0.00356777 0)
(-0.00332589 0.0011662 0)
(-0.00405226 0.000123303 0)
(-0.00330692 -0.000992252 0)
(-0.00177846 -0.00193324 0)
(0.000235734 -0.00242062 0)
(0.00202052 -0.00241505 0)
(0.00378153 -0.0022573 0)
(0.00544144 -0.00215958 0)
(0.00685437 -0.00210462 0)
(0.00783349 -0.00152041 0)
(0.00856514 0.00128508 0)
(0.00657485 0.00464407 0)
(0.00307526 0.00207624 0)
(-0.000713837 0.00145743 0)
(-0.00426683 0.00410732 0)
(-0.00665723 0.00120527 0)
(-0.00776254 0.000567698 0)
(-0.00793165 0.000840595 0)
(-0.00753116 0.000996949 0)
(-0.00667845 -0.000841655 0)
(-0.00545606 -0.00273005 0)
(-0.00459405 -0.00161885 0)
(-0.00367397 -0.000825859 0)
(-0.00288559 -0.000637572 0)
(-0.00231746 -0.000843252 0)
(-0.00180659 -0.00118903 0)
(-0.00107066 -0.00153869 0)
(0.000308856 -0.00186285 0)
(0.00204699 -0.00191653 0)
(0.00391559 -0.00136681 0)
(0.00535761 -0.000613239 0)
(0.00492172 0.00112162 0)
(0.00564733 0.00643491 0)
(-0.0041887 0.00580251 0)
(-0.000126823 -0.00368149 0)
(-0.00061481 -0.00940933 0)
(0.00545304 -0.00473365 0)
(0.00790097 0.00355799 0)
(0.00260036 0.00949136 0)
(0.000171755 0.00454483 0)
(-0.00162764 0.00158288 0)
(-0.0018423 0.000287845 0)
(-0.000882352 -0.00146827 0)
(0.000675723 -0.00263585 0)
(0.00220166 -0.00308921 0)
(0.00372857 -0.0030759 0)
(0.00518663 -0.002863 0)
(0.00645189 -0.00267138 0)
(0.00738191 -0.00248406 0)
(0.00780457 -0.0016891 0)
(0.00807638 0.00159284 0)
(0.00671935 0.00550202 0)
(0.00384369 0.0036563 0)
(-0.0007306 0.00279702 0)
(-0.00423751 0.00528151 0)
(-0.00670147 0.00202096 0)
(-0.00792573 0.000963168 0)
(-0.00775492 0.000678365 0)
(-0.00686206 0.000582123 0)
(-0.00599361 -0.00110329 0)
(-0.00554467 -0.00303739 0)
(-0.0052106 -0.00185768 0)
(-0.00471056 -0.00105909 0)
(-0.00432215 -0.000820759 0)
(-0.00404963 -0.000991566 0)
(-0.00372411 -0.00140049 0)
(-0.00311433 -0.00191836 0)
(-0.00210201 -0.00241998 0)
(-0.000568753 -0.00267372 0)
(0.00130854 -0.0021437 0)
(0.00349969 -0.000962849 0)
(0.0031021 0.00137447 0)
(0.00469557 0.0081545 0)
(-0.00383876 0.00653831 0)
(0.000734746 -0.00419658 0)
(-0.000666527 -0.0105971 0)
(0.00464368 -0.00621775 0)
(0.00721998 0.0041357 0)
(0.00296188 0.0105834 0)
(0.00219372 0.00551388 0)
(-0.000312115 0.00203987 0)
(0.000668157 -0.000106485 0)
(0.00155045 -0.00198218 0)
(0.00279766 -0.00315965 0)
(0.00414053 -0.00366705 0)
(0.00545017 -0.0036336 0)
(0.00662023 -0.00334223 0)
(0.00752919 -0.00302506 0)
(0.00804598 -0.00267535 0)
(0.00802873 -0.00168474 0)
(0.00786273 0.00184581 0)
(0.00684207 0.00612474 0)
(0.00441915 0.00520915 0)
(1.38417e-05 0.00422902 0)
(-0.00377502 0.00645966 0)
(-0.00644853 0.00287697 0)
(-0.00788883 0.00126359 0)
(-0.00759577 0.000358566 0)
(-0.00643954 -4.5539e-06 0)
(-0.00574908 -0.00120122 0)
(-0.00588947 -0.0030946 0)
(-0.00598657 -0.00193075 0)
(-0.0059018 -0.00113722 0)
(-0.00587322 -0.000877324 0)
(-0.00585034 -0.00105839 0)
(-0.00567548 -0.00155526 0)
(-0.00517288 -0.00223189 0)
(-0.00425798 -0.00291514 0)
(-0.00294012 -0.00331892 0)
(-0.00138914 -0.00310495 0)
(0.00143011 -0.00154036 0)
(0.0013387 0.00139257 0)
(0.00385677 0.00927658 0)
(-0.00348004 0.00701324 0)
(0.00132822 -0.00470409 0)
(-0.000370733 -0.0113611 0)
(0.00365307 -0.00771257 0)
(0.00660909 0.00452845 0)
(0.00339123 0.0110826 0)
(0.00367133 0.00616757 0)
(0.00177484 0.00224872 0)
(0.0026622 -0.000366565 0)
(0.00370348 -0.00238749 0)
(0.00485323 -0.00366814 0)
(0.00602968 -0.00417462 0)
(0.00711239 -0.00409077 0)
(0.00800319 -0.00370005 0)
(0.00859337 -0.00323733 0)
(0.00876582 -0.00270764 0)
(0.00840766 -0.00153048 0)
(0.00788084 0.00210938 0)
(0.00702138 0.00664705 0)
(0.00495987 0.00663298 0)
(0.00117005 0.00563963 0)
(-0.00294499 0.00775528 0)
(-0.00586761 0.00385993 0)
(-0.00767744 0.00164397 0)
(-0.0075463 4.45212e-05 0)
(-0.00639221 -0.000571223 0)
(-0.00583056 -0.00117337 0)
(-0.00638012 -0.00296296 0)
(-0.00684345 -0.00184582 0)
(-0.00712837 -0.00107286 0)
(-0.00740024 -0.000826469 0)
(-0.00757845 -0.00105833 0)
(-0.00753142 -0.00166653 0)
(-0.00713661 -0.00250255 0)
(-0.00634138 -0.00335827 0)
(-0.00515768 -0.00392971 0)
(-0.00363872 -0.00380989 0)
(-0.00153247 -0.00232314 0)
(-0.000739678 0.00114012 0)
(0.00307043 0.00989525 0)
(-0.00299418 0.00728492 0)
(0.00167385 -0.00521012 0)
(0.000153018 -0.0117965 0)
(0.00251225 -0.00913157 0)
(0.00599593 0.00474511 0)
(0.00381663 0.0111247 0)
(0.00481084 0.0065015 0)
(0.00398508 0.00233542 0)
(0.00477764 -0.000649801 0)
(0.00577691 -0.00282572 0)
(0.00681403 -0.00412865 0)
(0.00780231 -0.00459918 0)
(0.00864326 -0.00444438 0)
(0.00926159 -0.00394358 0)
(0.00956892 -0.00332895 0)
(0.00946458 -0.00261593 0)
(0.00886132 -0.00126208 0)
(0.00806739 0.00240803 0)
(0.00726797 0.0071091 0)
(0.00551312 0.00786195 0)
(0.00241237 0.00702076 0)
(-0.00168462 0.0091288 0)
(-0.00492939 0.00499355 0)
(-0.00725559 0.00214907 0)
(-0.0074377 -0.000193471 0)
(-0.00644638 -0.00108036 0)
(-0.00609677 -0.00105913 0)
(-0.00691543 -0.00269055 0)
(-0.0076855 -0.00162537 0)
(-0.00827048 -0.000889891 0)
(-0.00877309 -0.000690002 0)
(-0.00910012 -0.00100371 0)
(-0.0091562 -0.00173565 0)
(-0.00887405 -0.00272323 0)
(-0.00823827 -0.00373677 0)
(-0.00725818 -0.00446323 0)
(-0.0059309 -0.00444509 0)
(-0.00428232 -0.00297018 0)
(-0.00324426 0.000187665 0)
(0.00224172 0.00990276 0)
(-0.00227896 0.00741384 0)
(0.00183958 -0.00565051 0)
(0.000794055 -0.0119876 0)
(0.00140576 -0.0103667 0)
(0.00536305 0.00478087 0)
(0.00417437 0.0107919 0)
(0.00574224 0.00649767 0)
(0.0059457 0.0022789 0)
(0.00681637 -0.000931438 0)
(0.00772936 -0.00321354 0)
(0.00861426 -0.00451313 0)
(0.009384 -0.00492893 0)
(0.00996822 -0.00469187 0)
(0.010322 -0.00408013 0)
(0.0103822 -0.00331988 0)
(0.0100665 -0.00243361 0)
(0.00930898 -0.000915919 0)
(0.00834273 0.0027424 0)
(0.00755277 0.00752282 0)
(0.00606983 0.00888158 0)
(0.00351265 0.00829701 0)
(-6.70644e-06 0.0105004 0)
(-0.00356127 0.00627819 0)
(-0.00653498 0.00284728 0)
(-0.00715151 -0.000280724 0)
(-0.00640545 -0.00150717 0)
(-0.00640967 -0.000850658 0)
(-0.00739197 -0.00231502 0)
(-0.00840675 -0.00129998 0)
(-0.00920685 -0.000619793 0)
(-0.00985896 -0.000494786 0)
(-0.010272 -0.000910437 0)
(-0.0103957 -0.0017658 0)
(-0.010221 -0.0028849 0)
(-0.00977313 -0.00402678 0)
(-0.00906325 -0.00488266 0)
(-0.0080487 -0.00500522 0)
(-0.0067533 -0.00372909 0)
(-0.00536884 -0.000219466 0)
(0.00124231 0.00910911 0)
(-0.00128686 0.00724947 0)
(0.00188796 -0.00583271 0)
(0.00145897 -0.0120052 0)
(0.000490739 -0.0113226 0)
(0.00470905 0.00461922 0)
(0.00441852 0.0101296 0)
(0.0065024 0.00617134 0)
(0.0075266 0.00202988 0)
(0.00856547 -0.00126207 0)
(0.00943061 -0.00356178 0)
(0.0101532 -0.00481725 0)
(0.0106869 -0.00515827 0)
(0.0110082 -0.00483335 0)
(0.0111113 -0.00411852 0)
(0.010963 -0.00322989 0)
(0.0104997 -0.00219201 0)
(0.00967078 -0.00052632 0)
(0.00862206 0.00310301 0)
(0.00782903 0.00789697 0)
(0.00658872 0.00971112 0)
(0.00446262 0.00936365 0)
(0.00176784 0.011712 0)
(-0.00156138 0.00781907 0)
(-0.0053958 0.00379211 0)
(-0.0066074 -0.000169769 0)
(-0.00613229 -0.00183509 0)
(-0.00663163 -0.000533983 0)
(-0.00769869 -0.00187012 0)
(-0.00889667 -0.000911765 0)
(-0.00981765 -0.000307197 0)
(-0.0105264 -0.000273255 0)
(-0.010953 -0.000797795 0)
(-0.0110997 -0.00176487 0)
(-0.0110118 -0.00298533 0)
(-0.0107521 -0.00421548 0)
(-0.0103411 -0.00517008 0)
(-0.00971175 -0.00547084 0)
(-0.00876741 -0.00457704 0)
(-0.00698145 -0.00142855 0)
(5.12413e-05 0.00763327 0)
(-0.000104255 0.00682171 0)
(0.00195712 -0.00591228 0)
(0.00203812 -0.0118942 0)
(-0.000214123 -0.0119487 0)
(0.00402072 0.00424754 0)
(0.00452404 0.00918078 0)
(0.00707219 0.0055698 0)
(0.0086958 0.00159216 0)
(0.00992338 -0.0016533 0)
(0.0107744 -0.00387898 0)
(0.0113342 -0.00504067 0)
(0.0116258 -0.00528592 0)
(0.0116896 -0.00487271 0)
(0.0115654 -0.00407018 0)
(0.0112515 -0.00307915 0)
(0.0107028 -0.00191961 0)
(0.00987112 -0.000122136 0)
(0.00882595 0.00347506 0)
(0.00804588 0.00823757 0)
(0.00702116 0.0103805 0)
(0.00525487 0.0102101 0)
(0.00332454 0.0126001 0)
(0.000846715 0.00947486 0)
(-0.00365464 0.00502845 0)
(-0.00571279 0.000179306 0)
(-0.0055195 -0.00205807 0)
(-0.00661219 -8.02995e-05 0)
(-0.00770871 -0.00137615 0)
(-0.00903402 -0.000478091 0)
(-0.00997772 4.56982e-05 0)
(-0.0106649 -4.39201e-05 0)
(-0.0110534 -0.000684776 0)
(-0.011184 -0.00174422 0)
(-0.0111518 -0.00303048 0)
(-0.0110487 -0.00430247 0)
(-0.0109163 -0.00531244 0)
(-0.0106938 -0.00577355 0)
(-0.0101684 -0.00525969 0)
(-0.00837521 -0.00264838 0)
(-0.00150162 0.00556107 0)
(0.00119848 0.00611473 0)
(0.00199271 -0.00580362 0)
(0.00242424 -0.0116735 0)
(-0.000780974 -0.0122653 0)
(0.00326805 0.00366053 0)
(0.00449148 0.00799582 0)
(0.00742459 0.00475336 0)
(0.00948174 0.00101371 0)
(0.0108838 -0.00208396 0)
(0.0117094 -0.00415854 0)
(0.0120892 -0.00518002 0)
(0.0121361 -0.00531301 0)
(0.0119586 -0.0048176 0)
(0.0116405 -0.00394952 0)
(0.0112092 -0.00288841 0)
(0.0106349 -0.00164115 0)
(0.00985214 0.000256947 0)
(0.00889409 0.00383661 0)
(0.00815831 0.0085453 0)
(0.00732518 0.0109174 0)
(0.00586014 0.0108614 0)
(0.00456934 0.0131821 0)
(0.002945 0.0108012 0)
(-0.00112526 0.00668408 0)
(-0.00400166 0.000907077 0)
(-0.00449846 -0.00212941 0)
(-0.00620243 0.000495517 0)
(-0.00725303 -0.000870669 0)
(-0.00861036 -5.10782e-05 0)
(-0.00953125 0.000374738 0)
(-0.0102197 0.000172673 0)
(-0.010592 -0.000577768 0)
(-0.0106889 -0.00171407 0)
(-0.0106792 -0.00303465 0)
(-0.0106697 -0.0043055 0)
(-0.0107343 -0.00531857 0)
(-0.0108609 -0.00587112 0)
(-0.0107954 -0.00561254 0)
(-0.00940373 -0.0034573 0)
(-0.00385074 0.00342651 0)
(0.00243066 0.00514285 0)
(0.00189654 -0.00555045 0)
(0.00253922 -0.0113686 0)
(-0.00125684 -0.0123055 0)
(0.00241828 0.00296072 0)
(0.00436175 0.00664105 0)
(0.00757253 0.00377518 0)
(0.00995184 0.000303996 0)
(0.0114658 -0.00253598 0)
(0.0122029 -0.00438544 0)
(0.0123704 -0.00522925 0)
(0.012178 -0.00524349 0)
(0.0117911 -0.00468016 0)
(0.0113251 -0.00377417 0)
(0.0108291 -0.00267897 0)
(0.0102846 -0.00137956 0)
(0.00960535 0.000592675 0)
(0.00879334 0.00416869 0)
(0.00813299 0.00881765 0)
(0.00747008 0.0113444 0)
(0.00625112 0.0113491 0)
(0.00546373 0.0135246 0)
(0.00447565 0.0117735 0)
(0.00129371 0.00811439 0)
(-0.00169769 0.00224561 0)
(-0.00308189 -0.00195086 0)
(-0.00545364 0.00119269 0)
(-0.00635961 -0.000346336 0)
(-0.00776369 0.000364179 0)
(-0.00868769 0.000706609 0)
(-0.00935663 0.000388823 0)
(-0.00971161 -0.000474154 0)
(-0.0097916 -0.00168388 0)
(-0.00977815 -0.0030251 0)
(-0.00977947 -0.00427349 0)
(-0.00989167 -0.00525626 0)
(-0.0101566 -0.00584394 0)
(-0.0103504 -0.00578001 0)
(-0.00951095 -0.00439673 0)
(-0.006865 -0.00105276 0)
(0.0031155 0.00401137 0)
(0.00158045 -0.00522721 0)
(0.00234768 -0.0110133 0)
(-0.00162073 -0.0120115 0)
(0.00130477 0.00206285 0)
(0.00418979 0.005181 0)
(0.00758454 0.00267671 0)
(0.0101576 -0.000464237 0)
(0.0116572 -0.00296019 0)
(0.0122116 -0.00453302 0)
(0.0121457 -0.00518376 0)
(0.0117448 -0.00508833 0)
(0.0112036 -0.00447919 0)
(0.0106481 -0.00356535 0)
(0.0101417 -0.00247201 0)
(0.00967271 -0.00115614 0)
(0.00914081 0.000867535 0)
(0.00851216 0.00445521 0)
(0.00795077 0.0090515 0)
(0.00743832 0.0116809 0)
(0.00641424 0.0117059 0)
(0.00599605 0.0136961 0)
(0.00544838 0.0124821 0)
(0.00304896 0.00911043 0)
(0.000398817 0.00354339 0)
(-0.00138718 -0.00141337 0)
(-0.00453039 0.00196471 0)
(-0.00516291 0.000226608 0)
(-0.00676842 0.000751595 0)
(-0.00763679 0.0010371 0)
(-0.00828952 0.000600876 0)
(-0.00864093 -0.00037217 0)
(-0.0087411 -0.00165749 0)
(-0.00872181 -0.0030271 0)
(-0.00867918 -0.00425991 0)
(-0.00870618 -0.00521065 0)
(-0.00884472 -0.00580652 0)
(-0.00882632 -0.00587755 0)
(-0.00769803 -0.00516504 0)
(-0.00468612 -0.0044315 0)
(0.00286792 0.00296538 0)
(0.00112083 -0.00489608 0)
(0.0019129 -0.0106181 0)
(-0.00181958 -0.0112245 0)
(-0.000225683 0.000742512 0)
(0.00398009 0.00362406 0)
(0.00752512 0.00146278 0)
(0.010084 -0.00121965 0)
(0.0113842 -0.00330968 0)
(0.0116887 -0.00458594 0)
(0.0114185 -0.00505419 0)
(0.0108809 -0.00487177 0)
(0.0102635 -0.00424163 0)
(0.00968348 -0.00334684 0)
(0.00921419 -0.00228663 0)
(0.00884958 -0.000986929 0)
(0.00848912 0.001069 0)
(0.0080584 0.00468656 0)
(0.00760735 0.00924535 0)
(0.00722669 0.0119439 0)
(0.0063537 0.011965 0)
(0.00617901 0.0137521 0)
(0.00594568 0.0129903 0)
(0.00417579 0.00989706 0)
(0.00197741 0.00448068 0)
(0.000375859 -0.000532795 0)
(-0.0035245 0.00277224 0)
(-0.0039619 0.000797662 0)
(-0.0057234 0.00113278 0)
(-0.00652101 0.00136428 0)
(-0.0071892 0.000814828 0)
(-0.00757112 -0.000260409 0)
(-0.00772662 -0.00162723 0)
(-0.00771992 -0.00304446 0)
(-0.00763403 -0.00428444 0)
(-0.00755706 -0.00522163 0)
(-0.00753258 -0.00582944 0)
(-0.00729816 -0.00601863 0)
(-0.00608761 -0.00576494 0)
(-0.0029583 -0.00632904 0)
(0.00202404 0.00222004 0)
(0.000758816 -0.00463569 0)
(0.00144864 -0.0101935 0)
(-0.00183996 -0.0102024 0)
(-0.00252542 -0.000964926 0)
(0.00390214 0.0021441 0)
(0.00728859 0.000227495 0)
(0.00955524 -0.00187706 0)
(0.0105488 -0.00355317 0)
(0.0106431 -0.00455591 0)
(0.010267 -0.00487319 0)
(0.00969556 -0.00463036 0)
(0.00908607 -0.00399831 0)
(0.00853716 -0.0031403 0)
(0.00813476 -0.00213608 0)
(0.00788239 -0.000879781 0)
(0.00769329 0.00119426 0)
(0.00745287 0.00486062 0)
(0.00711135 0.00939992 0)
(0.00684584 0.0121482 0)
(0.00609219 0.0121571 0)
(0.00604971 0.0137318 0)
(0.00606513 0.0133331 0)
(0.00484434 0.0105133 0)
(0.00316899 0.00533907 0)
(0.00198165 0.000489698 0)
(-0.00228614 0.00359177 0)
(-0.00269568 0.00142741 0)
(-0.00469882 0.00150196 0)
(-0.00540841 0.00169435 0)
(-0.00613018 0.00104205 0)
(-0.00657321 -0.000123528 0)
(-0.00680972 -0.00157968 0)
(-0.00683306 -0.00306689 0)
(-0.00671785 -0.00433946 0)
(-0.00654565 -0.00528424 0)
(-0.00637043 -0.00591934 0)
(-0.00597142 -0.00626836 0)
(-0.0048462 -0.00651682 0)
(-0.00198413 -0.00798097 0)
(0.00121601 0.00175258 0)
(0.000626829 -0.00451363 0)
(0.00117205 -0.00977801 0)
(-0.00149277 -0.00934651 0)
(-0.00237097 -0.0025661 0)
(0.0036717 -0.000249519 0)
(0.00655567 -0.00108723 0)
(0.0084288 -0.00246596 0)
(0.00919321 -0.0037282 0)
(0.00921338 -0.00449056 0)
(0.00885393 -0.00468695 0)
(0.00834136 -0.00440138 0)
(0.00780219 -0.00377454 0)
(0.00731661 -0.00295889 0)
(0.00698648 -0.00202421 0)
(0.00683421 -0.000832627 0)
(0.00679481 0.00124933 0)
(0.00672075 0.00498171 0)
(0.00648034 0.00951739 0)
(0.00631849 0.012304 0)
(0.00567056 0.0123074 0)
(0.00567356 0.0136614 0)
(0.00591157 0.0135254 0)
(0.00521616 0.0109284 0)
(0.00408453 0.00604213 0)
(0.00310517 0.00150659 0)
(-0.000698228 0.00435175 0)
(-0.00135812 0.00214864 0)
(-0.0037225 0.00187853 0)
(-0.0043236 0.00203273 0)
(-0.00512883 0.00129299 0)
(-0.00565568 5.01086e-05 0)
(-0.00598954 -0.00150514 0)
(-0.00605734 -0.00308628 0)
(-0.00592936 -0.00441635 0)
(-0.00567656 -0.00538778 0)
(-0.00536825 -0.00605326 0)
(-0.00482953 -0.00653856 0)
(-0.0038348 -0.00718472 0)
(-0.00134268 -0.00923642 0)
(0.000671035 0.00143864 0)
(0.000677301 -0.00452445 0)
(0.00103133 -0.00940381 0)
(-0.00108263 -0.00870549 0)
(-0.00114671 -0.00340252 0)
(0.00292209 -0.00170615 0)
(0.00534578 -0.0018901 0)
(0.00690814 -0.00286965 0)
(0.00757565 -0.00384657 0)
(0.00762916 -0.00442692 0)
(0.00736064 -0.0045288 0)
(0.00695563 -0.00420828 0)
(0.00651547 -0.00358339 0)
(0.00610221 -0.00280517 0)
(0.00582842 -0.00194548 0)
(0.00574992 -0.000835102 0)
(0.00582406 0.0012467 0)
(0.00588494 0.00505787 0)
(0.00573674 0.00959943 0)
(0.00567641 0.0124153 0)
(0.00514349 0.0124312 0)
(0.00514394 0.0135554 0)
(0.00559918 0.0135683 0)
(0.00542536 0.0111323 0)
(0.00481997 0.00655061 0)
(0.0040005 0.00232937 0)
(0.000907956 0.00496903 0)
(0.000136945 0.00309938 0)
(-0.00277158 0.00231469 0)
(-0.00327725 0.00237876 0)
(-0.00418158 0.00157318 0)
(-0.0048083 0.000264553 0)
(-0.00524785 -0.00139908 0)
(-0.00536881 -0.00309754 0)
(-0.00524645 -0.00450854 0)
(-0.00493621 -0.0055281 0)
(-0.0045268 -0.00623513 0)
(-0.00387223 -0.00683183 0)
(-0.00300645 -0.0077634 0)
(-0.000885592 -0.0101917 0)
(0.000314456 0.00120424 0)
(0.00079861 -0.00462927 0)
(0.000876741 -0.00905227 0)
(-0.000905255 -0.00819889 0)
(-0.000815778 -0.00420629 0)
(0.00213295 -0.0027286 0)
(0.00401931 -0.00262594 0)
(0.00532337 -0.00326448 0)
(0.00593888 -0.00397912 0)
(0.00605858 -0.00439816 0)
(0.00590387 -0.00441601 0)
(0.00561967 -0.00406016 0)
(0.00528367 -0.00342821 0)
(0.00494078 -0.0026751 0)
(0.00469418 -0.00188799 0)
(0.00465354 -0.000871817 0)
(0.00479802 0.00120248 0)
(0.00496331 0.00509739 0)
(0.00490477 0.00964489 0)
(0.0049569 0.0124783 0)
(0.0045715 0.0125298 0)
(0.00457241 0.013417 0)
(0.0052465 0.0134589 0)
(0.00557933 0.0111334 0)
(0.00545034 0.00688174 0)
(0.00481679 0.00305672 0)
(0.00236826 0.00542956 0)
(0.00171437 0.00413488 0)
(-0.00180664 0.00287038 0)
(-0.00228539 0.00272612 0)
(-0.00327589 0.00188552 0)
(-0.00400439 0.000523646 0)
(-0.00455601 -0.00125798 0)
(-0.00473083 -0.00309552 0)
(-0.00463249 -0.00460619 0)
(-0.00429231 -0.0056927 0)
(-0.00382361 -0.00645353 0)
(-0.00308496 -0.00713768 0)
(-0.00233175 -0.00825534 0)
(-0.000546858 -0.0109095 0)
(4.75766e-05 0.00102227 0)
(0.000898685 -0.00478866 0)
(0.000645447 -0.00869479 0)
(-0.000902347 -0.00778823 0)
(-0.000882639 -0.00477709 0)
(0.00121366 -0.00351099 0)
(0.00267863 -0.00321857 0)
(0.00378444 -0.00360706 0)
(0.0043759 -0.00411753 0)
(0.00457438 -0.00440558 0)
(0.0045357 -0.0043499 0)
(0.00436746 -0.00395672 0)
(0.00412798 -0.00330799 0)
(0.00385326 -0.00256324 0)
(0.00359801 -0.00183477 0)
(0.0035575 -0.000925568 0)
(0.0037258 0.00113305 0)
(0.00397002 0.00510528 0)
(0.00400933 0.00964799 0)
(0.00419886 0.0124817 0)
(0.00401106 0.0125896 0)
(0.00406744 0.013239 0)
(0.00496083 0.0131992 0)
(0.00575284 0.0109546 0)
(0.00601965 0.00706133 0)
(0.00556065 0.00365798 0)
(0.00363232 0.00577303 0)
(0.00301678 0.00511133 0)
(-0.000533569 0.00363794 0)
(-0.00136413 0.00308783 0)
(-0.00239611 0.00222897 0)
(-0.00322021 0.000825644 0)
(-0.00388227 -0.00108155 0)
(-0.00410346 -0.00307709 0)
(-0.0040475 -0.00470006 0)
(-0.00370592 -0.0058679 0)
(-0.0032222 -0.00669329 0)
(-0.0024393 -0.00744633 0)
(-0.00178409 -0.00867181 0)
(-0.000289918 -0.0114383 0)
(-0.000175734 0.000881968 0)
(0.000929474 -0.00495856 0)
(0.000317362 -0.00831306 0)
(-0.00105097 -0.00741677 0)
(-0.00113176 -0.00514949 0)
(0.000225923 -0.0040871 0)
(0.00139861 -0.00370084 0)
(0.00235716 -0.00392234 0)
(0.0029387 -0.00427423 0)
(0.00321035 -0.00445197 0)
(0.00327324 -0.00432778 0)
(0.00320371 -0.00389349 0)
(0.00304586 -0.00322016 0)
(0.00284053 -0.00246476 0)
(0.00254306 -0.00176537 0)
(0.00246725 -0.000976246 0)
(0.00261103 0.00105596 0)
(0.00291758 0.0050814 0)
(0.00307606 0.00959782 0)
(0.00343896 0.0124086 0)
(0.00350537 0.0125846 0)
(0.00370757 0.0130052 0)
(0.00481589 0.0128024 0)
(0.00598125 0.01063 0)
(0.00654231 0.00711729 0)
(0.00622928 0.00413562 0)
(0.00470828 0.00605511 0)
(0.00410688 0.00602663 0)
(0.000873197 0.00453696 0)
(-0.000493152 0.00348191 0)
(-0.00153723 0.00259506 0)
(-0.0024342 0.00116406 0)
(-0.00319599 -0.000871669 0)
(-0.0034494 -0.00303981 0)
(-0.00345516 -0.00478105 0)
(-0.0031406 -0.0060397 0)
(-0.00268337 -0.00693713 0)
(-0.00189997 -0.00774651 0)
(-0.00133749 -0.00902357 0)
(-9.14434e-05 -0.0118159 0)
(-0.000360739 0.000779582 0)
(0.00087439 -0.00509118 0)
(-9.81818e-05 -0.00789482 0)
(-0.00132894 -0.00706528 0)
(-0.00150867 -0.00536061 0)
(-0.000708524 -0.00449754 0)
(0.000222329 -0.0040996 0)
(0.00106651 -0.00421574 0)
(0.00164007 -0.00444787 0)
(0.00196651 -0.00453131 0)
(0.00210762 -0.00434164 0)
(0.00211469 -0.00386304 0)
(0.00202228 -0.00316035 0)
(0.00188639 -0.00237621 0)
(0.0015404 -0.00167433 0)
(0.00141079 -0.00100824 0)
(0.00145741 0.000988986 0)
(0.00181944 0.00501901 0)
(0.0021321 0.00947916 0)
(0.00270828 0.0122405 0)
(0.00307827 0.0124836 0)
(0.0035213 0.0126955 0)
(0.00483308 0.0122921 0)
(0.00625938 0.0102018 0)
(0.00700947 0.007081 0)
(0.00681107 0.00451051 0)
(0.00560886 0.00630409 0)
(0.00502358 0.00683797 0)
(0.00217649 0.00545146 0)
(0.000450775 0.00400788 0)
(-0.000697565 0.00296598 0)
(-0.00162853 0.00152691 0)
(-0.0024686 -0.000629962 0)
(-0.00273743 -0.00298153 0)
(-0.00282541 -0.0048402 0)
(-0.00256646 -0.00619479 0)
(-0.00217222 -0.00716817 0)
(-0.00143167 -0.00802606 0)
(-0.000967005 -0.00931806 0)
(6.49777e-05 -0.0120709 0)
(-0.000493894 0.000734244 0)
(0.000717518 -0.0051512 0)
(-0.000574813 -0.00743657 0)
(-0.00170445 -0.00672676 0)
(-0.00198554 -0.00546391 0)
(-0.00150813 -0.00476251 0)
(-0.000825705 -0.00443597 0)
(-9.57766e-05 -0.00448632 0)
(0.000464878 -0.00463256 0)
(0.00082328 -0.0046347 0)
(0.00101789 -0.00438233 0)
(0.00108062 -0.00385753 0)
(0.00103987 -0.00312201 0)
(0.000961195 -0.00229833 0)
(0.000626505 -0.00159036 0)
(0.000443594 -0.00100036 0)
(0.00026339 0.000933952 0)
(0.000690276 0.00493219 0)
(0.00120651 0.00927712 0)
(0.00202972 0.0119624 0)
(0.00273205 0.0122605 0)
(0.00348346 0.0122934 0)
(0.00497658 0.0116978 0)
(0.00654772 0.00971317 0)
(0.00739502 0.00698279 0)
(0.00728477 0.00480227 0)
(0.0063382 0.00652746 0)
(0.00578365 0.00753365 0)
(0.00332105 0.00634713 0)
(0.00141122 0.00462074 0)
(0.00016915 0.00337256 0)
(-0.00079146 0.00188721 0)
(-0.00166846 -0.000352594 0)
(-0.00194493 -0.00290227 0)
(-0.00213461 -0.00486937 0)
(-0.00196059 -0.00632101 0)
(-0.00166071 -0.00737108 0)
(-0.00100342 -0.00827266 0)
(-0.000649534 -0.00955912 0)
(0.000191897 -0.0122236 0)
(-0.000548236 0.000738931 0)
(0.000431963 -0.00512624 0)
(-0.00107507 -0.00693599 0)
(-0.00213805 -0.00639703 0)
(-0.00250379 -0.00548797 0)
(-0.0022401 -0.00494501 0)
(-0.00172445 -0.00470059 0)
(-0.0011237 -0.00473187 0)
(-0.000613541 -0.00481327 0)
(-0.000244203 -0.00475017 0)
(-1.81038e-05 -0.0044406 0)
(8.30775e-05 -0.00386965 0)
(8.3107e-05 -0.00309959 0)
(3.45378e-05 -0.00223362 0)
(-0.000196608 -0.00151388 0)
(-0.000543303 -0.000918162 0)
(-0.000899416 0.000934565 0)
(-0.000465324 0.00469717 0)
(0.000319356 0.00899574 0)
(0.00141524 0.0115679 0)
(0.00244897 0.0119021 0)
(0.00352868 0.011793 0)
(0.00516762 0.0110495 0)
(0.00678557 0.00920076 0)
(0.0076635 0.00684657 0)
(0.00762559 0.00502409 0)
(0.00689621 0.00672544 0)
(0.00639497 0.00812313 0)
(0.00429579 0.0071912 0)
(0.00234504 0.00527803 0)
(0.00104363 0.00379956 0)
(0.00010587 0.00226413 0)
(-0.000735011 -0.000112883 0)
(-0.00106042 -0.00280218 0)
(-0.00136508 -0.00486104 0)
(-0.0013061 -0.00640744 0)
(-0.00112726 -0.00753259 0)
(-0.000590484 -0.00847411 0)
(-0.000364391 -0.00974778 0)
(0.000299509 -0.0122877 0)
(-0.000531661 0.000792124 0)
(2.97791e-05 -0.0050015 0)
(-0.00157015 -0.00641088 0)
(-0.0025953 -0.00607238 0)
(-0.00302506 -0.00545481 0)
(-0.00291162 -0.00506657 0)
(-0.0025334 -0.00490749 0)
(-0.00204695 -0.00494203 0)
(-0.00159782 -0.00498383 0)
(-0.00124741 -0.00486655 0)
(-0.00101367 -0.00450421 0)
(-0.000890726 -0.00389109 0)
(-0.000858747 -0.00308947 0)
(-0.000888719 -0.00219732 0)
(-0.00107796 -0.00140504 0)
(-0.00157478 -0.00069193 0)
(-0.00194142 0.000995267 0)
(-0.00156474 0.00445032 0)
(-0.000546504 0.00855055 0)
(0.000856862 0.0110602 0)
(0.00219501 0.011412 0)
(0.00357387 0.0112023 0)
(0.00531184 0.0103743 0)
(0.00690839 0.00869015 0)
(0.00777979 0.00668727 0)
(0.00781223 0.0051827 0)
(0.00728295 0.00689396 0)
(0.00686178 0.00861611 0)
(0.00510325 0.0079581 0)
(0.0032276 0.0059483 0)
(0.00189219 0.00420982 0)
(0.00101153 0.00262732 0)
(0.000333311 0.000244594 0)
(-8.10852e-05 -0.00265139 0)
(-0.000506153 -0.00480239 0)
(-0.000591413 -0.00644227 0)
(-0.000555602 -0.0076414 0)
(-0.000174108 -0.00861985 0)
(-9.39652e-05 -0.00988216 0)
(0.000396376 -0.0122724 0)
(-0.000492842 0.000939208 0)
(-0.000424805 -0.00476328 0)
(-0.00205048 -0.0058874 0)
(-0.00305133 -0.00575022 0)
(-0.00352858 -0.00538015 0)
(-0.0035286 -0.00513924 0)
(-0.00327143 -0.0050646 0)
(-0.00289513 -0.00511663 0)
(-0.00251797 -0.0051367 0)
(-0.00220262 -0.00498077 0)
(-0.00197681 -0.00457576 0)
(-0.00184434 -0.00392395 0)
(-0.00179182 -0.00308779 0)
(-0.00180977 -0.00216731 0)
(-0.00199409 -0.00131714 0)
(-0.00247216 -0.000508133 0)
(-0.00286879 0.00106075 0)
(-0.00255607 0.00418246 0)
(-0.00138585 0.00798714 0)
(0.000322778 0.0104387 0)
(0.00192627 0.0108087 0)
(0.00353931 0.010541 0)
(0.00532592 0.00969368 0)
(0.00686361 0.00819513 0)
(0.00771812 0.0065107 0)
(0.00783185 0.00527888 0)
(0.00750123 0.00702529 0)
(0.00718768 0.0090172 0)
(0.00575144 0.00862998 0)
(0.00403929 0.00659726 0)
(0.00272148 0.00461828 0)
(0.00187623 0.00289109 0)
(0.00138526 0.000455623 0)
(0.000950549 -0.00237588 0)
(0.000439672 -0.00466809 0)
(0.000188509 -0.00640953 0)
(6.53507e-05 -0.00768632 0)
(0.000259845 -0.00870236 0)
(0.000172346 -0.00993952 0)
(0.000491366 -0.0121897 0)
(-0.0004622 0.00116727 0)
(-0.00088207 -0.00441092 0)
(-0.00249948 -0.00536962 0)
(-0.00348772 -0.00542887 0)
(-0.00400224 -0.00527399 0)
(-0.00409532 -0.00516966 0)
(-0.00395094 -0.00517502 0)
(-0.0036849 -0.00525372 0)
(-0.00338912 -0.00526618 0)
(-0.00312212 -0.00508404 0)
(-0.00291791 -0.00464538 0)
(-0.00278785 -0.00396031 0)
(-0.00272516 -0.00309294 0)
(-0.00273221 -0.0021431 0)
(-0.00289558 -0.00123852 0)
(-0.00331006 -0.000340461 0)
(-0.00370428 0.00114135 0)
(-0.00343067 0.00390304 0)
(-0.00218248 0.00735031 0)
(-0.000237715 0.00970508 0)
(0.00159683 0.0101176 0)
(0.00336278 0.00983401 0)
(0.00515341 0.00902305 0)
(0.00662017 0.00771947 0)
(0.00746744 0.00631515 0)
(0.00768263 0.00530869 0)
(0.00755825 0.00710983 0)
(0.00737735 0.00932752 0)
(0.00625014 0.00919448 0)
(0.00476787 0.00719335 0)
(0.00353458 0.00502071 0)
(0.0027346 0.0031117 0)
(0.00235661 0.000639711 0)
(0.00195896 -0.00216425 0)
(0.00142786 -0.00450589 0)
(0.00102713 -0.00631067 0)
(0.000737014 -0.00765189 0)
(0.000723554 -0.00870683 0)
(0.000449362 -0.00992483 0)
(0.000590325 -0.012036 0)
(-0.000455576 0.00147368 0)
(-0.00130807 -0.00395971 0)
(-0.00290303 -0.00485828 0)
(-0.00388878 -0.0051064 0)
(-0.00443656 -0.00514194 0)
(-0.00461234 -0.00516125 0)
(-0.00457764 -0.00523988 0)
(-0.00442477 -0.00535101 0)
(-0.00421947 -0.00536779 0)
(-0.0040131 -0.00517113 0)
(-0.00384355 -0.00470794 0)
(-0.00372807 -0.00399589 0)
(-0.00366595 -0.00310176 0)
(-0.00366662 -0.00212271 0)
(-0.00380324 -0.00116471 0)
(-0.0041414 -0.000189572 0)
(-0.00447335 0.00121909 0)
(-0.00421006 0.00362367 0)
(-0.00294582 0.00666728 0)
(-0.000873448 0.00888298 0)
(0.00116812 0.00936523 0)
(0.00300676 0.00910615 0)
(0.00476897 0.00837106 0)
(0.0061708 0.00725971 0)
(0.00703291 0.00609382 0)
(0.00737397 0.00526544 0)
(0.00746589 0.00713855 0)
(0.00743685 0.0095469 0)
(0.00660911 0.00964267 0)
(0.00540628 0.0077089 0)
(0.00432917 0.00539834 0)
(0.00360789 0.00330807 0)
(0.00330283 0.000806151 0)
(0.00295898 -0.00194244 0)
(0.00242867 -0.0043097 0)
(0.00190745 -0.00615711 0)
(0.00145161 -0.00754495 0)
(0.0012246 -0.00863361 0)
(0.000746023 -0.00983191 0)
(0.000697264 -0.0118065 0)
(-0.000474919 0.00185796 0)