/*--------------------------------*- C++ -*----------------------------------*\
| =========                 |                                                 |
| \\      /  F ield         | OpenFOAM: The Open Source CFD Toolbox           |
|  \\    /   O peration     | Version:  4.1                                   |
|   \\  /    A nd           | Web:      www.OpenFOAM.org                      |
|    \\/     M anipulation  |                                                 |
\*---------------------------------------------------------------------------*/
FoamFile
{
    version     2.0;
    format      ascii;
    class       volScalarField;
    location    "580";
    object      mag(U);
}
// * * * * * * * * * * * * * * * * * * * * * * * * * * * * * * * * * * * * * //

dimensions      [0 1 -1 0 0 0 0];

internalField   nonuniform List<scalar> 
5000
(
0.00221968
0.00219683
0.0013222
0.00162461
0.0021052
0.00249641
0.00279998
0.00305711
0.00330268
0.00356429
0.00387188
0.00426583
0.00480484
0.005565
0.00662161
0.00802048
0.00974597
0.0116825
0.0135821
0.0151049
0.0159761
0.0160222
0.0151438
0.0131385
0.00909703
0.00291077
0.000944672
0.00115109
0.000968066
0.000717626
0.00133974
0.00221752
0.00296092
0.00347148
0.0037648
0.00391927
0.00403216
0.00418153
0.00440476
0.00470179
0.00505265
0.00543068
0.00580843
0.0061618
0.00647524
0.00674855
0.0070004
0.00724544
0.00734649
0.00678906
0.0057518
0.00500414
0.00540453
0.00682143
0.00776136
0.00853857
0.00925235
0.00994263
0.010623
0.0112945
0.011953
0.0125926
0.0132078
0.0137935
0.0143457
0.0148617
0.0153391
0.0157761
0.0161707
0.0165204
0.016822
0.0170718
0.0172651
0.0173961
0.0174582
0.0174441
0.0173437
0.0171483
0.0168507
0.0164444
0.0159236
0.0152831
0.0145191
0.0136288
0.0126117
0.0114701
0.0102101
0.00884354
0.00738899
0.00587351
0.00433508
0.00283846
0.00155095
0.00106024
0.00194483
0.00278696
0.00358662
0.00425387
0.00427418
0.0041731
0.00322195
0.00236614
0.00193473
0.000976611
0.000771138
0.000929072
0.00118026
0.00146778
0.00180561
0.00221423
0.00271371
0.00332205
0.00406092
0.00496924
0.0060995
0.00748671
0.00911278
0.0108778
0.0125884
0.0139772
0.0147933
0.0147713
0.0139271
0.0125525
0.0106505
0.00748028
0.00273639
0.000546273
0.00123042
0.00159493
0.00183028
0.00224566
0.00281552
0.00342887
0.00401157
0.00452138
0.00494129
0.00527614
0.00554683
0.00578081
0.00599908
0.00620876
0.00640399
0.00657119
0.00669561
0.00676524
0.00676582
0.00665515
0.00622421
0.0057644
0.0076621
0.00758848
0.00667302
0.00800508
0.00916175
0.0101772
0.011091
0.011938
0.0127356
0.0134897
0.0142002
0.0148645
0.0154799
0.0160441
0.0165561
0.0170153
0.0174222
0.0177771
0.0180798
0.0183294
0.018524
0.0186606
0.0187354
0.0187435
0.0186789
0.0185364
0.0183137
0.018006
0.0176072
0.0171117
0.0165142
0.0158103
0.0149963
0.0140702
0.0130319
0.0118842
0.010634
0.00929388
0.00788422
0.00643604
0.00499783
0.00365627
0.00258651
0.00205439
0.00209343
0.0024435
0.00278623
0.00301786
0.00299478
0.00542584
0.00424274
0.00253854
0.00228172
0.00155477
0.00107924
0.00084023
0.000799214
0.000892965
0.00109117
0.00137906
0.0017627
0.00226866
0.0029424
0.0038524
0.00503245
0.00644486
0.00799757
0.00953736
0.0108553
0.0118496
0.0124311
0.0124123
0.0120675
0.0120818
0.0122218
0.010395
0.00614393
0.00203617
0.00154053
0.00247706
0.00290867
0.0031388
0.0033667
0.00363847
0.00393308
0.00421769
0.00447092
0.00468842
0.00487941
0.00505852
0.00523533
0.00540781
0.00556213
0.00567678
0.0057271
0.00568321
0.00547419
0.00499118
0.00436894
0.00607169
0.0117452
0.0101416
0.00772081
0.00823549
0.00915026
0.0101195
0.0110433
0.0119106
0.0127218
0.0134766
0.0141731
0.0148099
0.0153863
0.0159032
0.0163626
0.0167672
0.01712
0.0174235
0.0176791
0.0178869
0.0180458
0.0181533
0.018206
0.0181998
0.0181291
0.0179928
0.017784
0.0174977
0.0171288
0.0166727
0.016125
0.0154822
0.0147418
0.0139031
0.0129674
0.011939
0.0108267
0.00964491
0.00841602
0.00717277
0.00596298
0.00485663
0.00394642
0.00329459
0.00282488
0.00263705
0.00251822
0.00231629
0.00249828
0.00719122
0.00491427
0.00247428
0.00233966
0.00180757
0.00147624
0.00124949
0.00112352
0.00106848
0.00107914
0.00117891
0.00140495
0.00184115
0.00254117
0.00355461
0.0048134
0.00620054
0.00759457
0.00881732
0.00955654
0.00975924
0.00987124
0.00987701
0.0103198
0.0118686
0.0132299
0.0116765
0.00789561
0.00449114
0.00326133
0.00372619
0.00406865
0.0041258
0.00408639
0.00406305
0.00408448
0.00413973
0.00421166
0.00429179
0.00438139
0.00448526
0.00460293
0.00472275
0.00482221
0.00487339
0.00484841
0.00469449
0.0043752
0.00387764
0.00383472
0.00887644
0.0152085
0.0119591
0.00871734
0.00851075
0.0090538
0.0098505
0.0106947
0.011521
0.0123033
0.0130287
0.0136904
0.014286
0.0148166
0.015286
0.0156991
0.0160616
0.0163787
0.0166543
0.0168904
0.0170875
0.0172441
0.0173572
0.0174235
0.0174383
0.0173963
0.017295
0.0171284
0.0168921
0.0165817
0.0161934
0.0157244
0.0151724
0.0145367
0.013818
0.0130194
0.0121468
0.0112099
0.010223
0.00920535
0.00818143
0.00717983
0.00623027
0.0053544
0.00453994
0.00362446
0.00291023
0.00242069
0.00196854
0.00260453
0.00863144
0.00539571
0.0021834
0.00223211
0.00198228
0.00191816
0.00191601
0.00195508
0.00200266
0.00203835
0.00207307
0.00217398
0.00247944
0.00310449
0.00410319
0.00528326
0.00650893
0.0076552
0.00854938
0.00883459
0.00797936
0.00717808
0.00727869
0.00889076
0.0117434
0.0133986
0.0117803
0.00860372
0.00616883
0.00530991
0.00537417
0.00539991
0.00520827
0.004922
0.00465291
0.00444545
0.00429979
0.0042023
0.00414276
0.00411822
0.00412835
0.00416687
0.00421505
0.00424334
0.00422084
0.00411694
0.00389729
0.00359568
0.00332623
0.00436233
0.0125861
0.0175168
0.0130322
0.00947089
0.00884648
0.00908487
0.00968476
0.0104037
0.0111427
0.011854
0.0125134
0.0131096
0.0136397
0.0141069
0.0145181
0.0148813
0.0152044
0.015494
0.0157543
0.015987
0.0161911
0.016364
0.0165014
0.0165987
0.0166509
0.0166528
0.0166
0.0164884
0.016314
0.0160737
0.0157653
0.0153873
0.0149396
0.0144232
0.0138407
0.0131967
0.0124981
0.0117539
0.0109751
0.0101732
0.00935772
0.00853268
0.007691
0.00680937
0.00584395
0.00455029
0.00324974
0.00237259
0.00172342
0.00283576
0.00976711
0.00580981
0.00168379
0.0020446
0.00216145
0.00239048
0.00259908
0.00275143
0.00282318
0.00282303
0.0028121
0.00291116
0.00326096
0.00392118
0.00485539
0.0059324
0.00695716
0.00781196
0.00836685
0.00841492
0.00698342
0.0045502
0.00505483
0.00805349
0.0114645
0.0127098
0.0111397
0.00889857
0.00757652
0.0072128
0.0070977
0.00680644
0.0063363
0.00581162
0.00533013
0.00493099
0.00461368
0.00436387
0.00416936
0.00402514
0.00392975
0.00387582
0.00384093
0.00378967
0.00368995
0.00351004
0.00328271
0.00309016
0.00329104
0.00631561
0.0159036
0.0189926
0.013603
0.0100016
0.00918845
0.00922988
0.00965706
0.010235
0.0108551
0.0114599
0.01202
0.0125227
0.0129664
0.013357
0.0137042
0.0140184
0.0143086
0.0145811
0.0148387
0.0150809
0.0153047
0.015505
0.0156759
0.0158115
0.0159059
0.0159545
0.0159516
0.0158957
0.0157835
0.0156138
0.0153861
0.0151011
0.0147606
0.0143675
0.0139265
0.0134432
0.0129243
0.0123768
0.0118059
0.0112127
0.0105906
0.00992053
0.00916714
0.00827706
0.00717799
0.00564378
0.00369678
0.00231754
0.00148359
0.00313026
0.0107342
0.00621911
0.00109993
0.00188774
0.00231489
0.00269476
0.00295586
0.00310194
0.00315513
0.00316555
0.00322569
0.00345989
0.00395671
0.0047047
0.00562159
0.00658401
0.0073994
0.00793898
0.00811309
0.00790015
0.00673369
0.00213132
0.00381064
0.00755231
0.0106171
0.0113404
0.0103087
0.00930492
0.00898901
0.00892591
0.00865912
0.00811229
0.0074121
0.00669808
0.00605408
0.00550618
0.00504735
0.00466156
0.00433611
0.00406621
0.00385284
0.00369296
0.00356556
0.00343125
0.00325408
0.00302618
0.00284652
0.00285793
0.00362232
0.00923633
0.0185067
0.0199164
0.0138825
0.0103898
0.00952145
0.0094498
0.00973939
0.0101783
0.0106636
0.0111392
0.0115776
0.0119686
0.012314
0.0126228
0.0129071
0.0131782
0.0134444
0.0137096
0.0139738
0.0142331
0.0144815
0.0147115
0.0149158
0.0150872
0.0152199
0.0153097
0.0153509
0.0153444
0.0152887
0.0151844
0.015033
0.0148375
0.0146018
0.014331
0.0140311
0.0137085
0.0133689
0.0130159
0.0126479
0.012255
0.0118152
0.0112898
0.0106216
0.00973393
0.00853308
0.00686181
0.00432218
0.00226947
0.00125786
0.00343711
0.011588
0.0066563
0.000800942
0.00179793
0.00231985
0.00271056
0.00297793
0.00314576
0.00324543
0.0033431
0.00355026
0.00397159
0.00462751
0.00545062
0.0063415
0.00719165
0.00781058
0.0080497
0.00784438
0.00727403
0.00604533
0.00197156
0.00314723
0.00669533
0.00912912
0.00987997
0.009898
0.0100518
0.010297
0.0102581
0.00982336
0.00911232
0.00829446
0.00749358
0.00677206
0.0061445
0.00559136
0.00509112
0.00463434
0.00422714
0.00387998
0.00359726
0.00336606
0.00314721
0.00289849
0.00266471
0.00261784
0.00294869
0.00426637
0.0122589
0.0205468
0.0204724
0.0140006
0.0106945
0.00984449
0.00971478
0.00989842
0.0102088
0.0105561
0.0108926
0.0111983
0.0114697
0.0117136
0.0119425
0.0121698
0.0124058
0.0126562
0.0129211
0.013196
0.0134734
0.0137442
0.013999
0.0142292
0.0144275
0.0145884
0.0147091
0.0147841
0.0148174
0.0148093
0.0147623
0.0146803
0.0145684
0.0144327
0.0142802
0.0141182
0.0139533
0.0137894
0.0136262
0.0134551
0.0132558
0.0129925
0.0126101
0.0120327
0.0111643
0.00989562
0.00811544
0.00519825
0.00226926
0.00107942
0.00368438
0.0123458
0.00711976
0.0012284
0.00177811
0.0022454
0.0026303
0.00291959
0.00311803
0.00327166
0.00348088
0.00386659
0.00447955
0.00527067
0.00614445
0.00700205
0.00774493
0.00819372
0.00818409
0.00767483
0.00673514
0.00537009
0.00264974
0.00191505
0.00531072
0.00764263
0.00903891
0.0100084
0.0106967
0.0109896
0.0108358
0.0103233
0.00961084
0.00884054
0.00809801
0.00741172
0.00677661
0.00618463
0.00562007
0.00506917
0.00453047
0.00402741
0.00359516
0.00323953
0.00292926
0.00262277
0.00243665
0.00260314
0.0032921
0.00543054
0.0149458
0.0221529
0.0207897
0.014034
0.0109488
0.0101567
0.0100041
0.0101076
0.010304
0.0105183
0.0107157
0.0108873
0.0110392
0.0111849
0.0113399
0.0115177
0.0117262
0.0119664
0.0122333
0.0125178
0.0128085
0.0130939
0.0133633
0.0136078
0.0138206
0.0139976
0.0141371
0.0142344
0.0142968
0.0143266
0.0143282
0.0143077
0.0142726
0.014231
0.0141915
0.0141624
0.0141499
0.0141563
0.0141769
0.0141967
0.0141861
0.0140976
0.0138619
0.013387
0.0125596
0.0112539
0.00933149
0.00633848
0.00236974
0.000997143
0.00383393
0.0130186
0.00758329
0.00185057
0.00191155
0.00223384
0.00257999
0.00286059
0.00306611
0.0032697
0.00361555
0.00419482
0.00497905
0.00587288
0.00677732
0.00759924
0.00824943
0.00855741
0.0083646
0.00766574
0.00654157
0.00501683
0.00300463
0.00189383
0.00439243
0.00681454
0.00862188
0.00985599
0.0105423
0.0107354
0.0105498
0.01012
0.0095602
0.00895354
0.0083496
0.00776776
0.00720535
0.00664979
0.00608742
0.00550764
0.00490655
0.00429482
0.00370952
0.00320425
0.0027824
0.00244703
0.00235694
0.00276989
0.00376021
0.00701361
0.0171854
0.0234516
0.0209731
0.0140348
0.011173
0.0104574
0.0103043
0.0103486
0.0104464
0.0105379
0.0106027
0.0106452
0.0106831
0.0107374
0.0108266
0.0109627
0.0111492
0.0113817
0.0116494
0.0119383
0.0122338
0.0125226
0.0127936
0.0130386
0.0132518
0.0134307
0.0135751
0.0136868
0.0137677
0.0138259
0.0138675
0.013901
0.0139357
0.0139818
0.0140491
0.0141467
0.01428
0.0144494
0.0146466
0.014851
0.0150253
0.0151123
0.0150306
0.0146736
0.0139117
0.0125988
0.0105722
0.00756218
0.002647
0.00103655
0.00391265
0.0136217
0.00802778
0.00248264
0.0022455
0.00239477
0.00262936
0.00282589
0.00299504
0.0032587
0.00376575
0.00453097
0.00545409
0.00642386
0.00734869
0.0081408
0.00870823
0.00890885
0.00859454
0.0077913
0.00661191
0.00515853
0.00360512
0.00290383
0.00415443
0.00614131
0.00780584
0.00895058
0.0095999
0.00984614
0.00980087
0.00956516
0.00921762
0.00881268
0.00838174
0.00793672
0.00747576
0.00699017
0.00646954
0.00590433
0.00528848
0.0046252
0.00393946
0.00329169
0.00275204
0.00239995
0.00243911
0.00308605
0.00431231
0.00857932
0.0190454
0.0245432
0.0211033
0.0140389
0.0113808
0.0107472
0.0106077
0.0106096
0.0106243
0.0106056
0.0105477
0.0104697
0.0104018
0.0103732
0.0104047
0.0105056
0.0106739
0.0108984
0.0111625
0.011448
0.0117378
0.0120177
0.0122769
0.0125086
0.0127091
0.0128778
0.0130165
0.0131294
0.0132191
0.013297
0.0133709
0.0134514
0.0135497
0.0136772
0.013845
0.0140619
0.0143329
0.0146565
0.0150214
0.015403
0.0157583
0.0160224
0.0161037
0.0158823
0.0152116
0.0139226
0.0118339
0.00877195
0.00323403
0.00114235
0.00407065
0.0141806
0.00845492
0.00310381
0.00269465
0.00268201
0.0027548
0.00280978
0.00291718
0.00325738
0.003933
0.00485873
0.00589038
0.00691988
0.00786264
0.00863108
0.00912905
0.00925
0.00886356
0.00801045
0.00682994
0.00547414
0.00416858
0.00345577
0.00395547
0.00525082
0.00660528
0.0076586
0.00835528
0.00874217
0.00888944
0.00886576
0.00872739
0.00851476
0.0082518
0.00794796
0.00760231
0.00720819
0.00675689
0.00623965
0.00564905
0.00498223
0.00425176
0.00351112
0.00287407
0.00251085
0.00267987
0.003521
0.00493639
0.00994277
0.0205809
0.0255164
0.0212432
0.0140701
0.0115813
0.0110274
0.0109106
0.010884
0.0108304
0.0107148
0.0105456
0.010357
0.0101923
0.0100891
0.0100699
0.0101402
0.0102912
0.0105052
0.0107598
0.0110332
0.0113065
0.0115653
0.0118002
0.0120059
0.0121812
0.0123277
0.0124495
0.0125531
0.0126431
0.0127334
0.0128336
0.012956
0.0131129
0.0133167
0.0135785
0.0139068
0.0143057
0.0147724
0.015294
0.0158433
0.0163744
0.0168166
0.0170704
0.0170033
0.0164511
0.0152222
0.0131131
0.00990667
0.00429593
0.00122025
0.00436246
0.0147191
0.00887061
0.003717
0.0032002
0.00304567
0.00293854
0.00282128
0.00285384
0.00327692
0.00410705
0.00516222
0.00628031
0.00736173
0.00832394
0.0090761
0.0095222
0.00957909
0.0091587
0.00829261
0.00713154
0.00584873
0.0046483
0.00385815
0.00384967
0.00455249
0.00550828
0.00640904
0.00712722
0.00763484
0.00794666
0.00810491
0.00814936
0.00810951
0.00800338
0.0078381
0.00761284
0.00732205
0.00695812
0.00651293
0.00597851
0.00534853
0.00462602
0.0038511
0.00315357
0.00278312
0.00305227
0.00403699
0.00559774
0.011013
0.0218377
0.0264494
0.021445
0.0141451
0.0117809
0.0112996
0.0112114
0.0111684
0.0110601
0.010861
0.0105921
0.0103027
0.0100495
0.00987827
0.00981295
0.00985458
0.00998739
0.0101866
0.010425
0.0106776
0.0109243
0.011151
0.0113498
0.0115179
0.0116564
0.0117698
0.0118649
0.011951
0.0120349
0.0121329
0.0122562
0.0124179
0.0126308
0.0129071
0.013257
0.0136881
0.0142035
0.0147998
0.0154637
0.0161684
0.016867
0.0174864
0.0179206
0.0180262
0.0176209
0.0164905
0.0144038
0.0110984
0.00556796
0.00122876
0.00471926
0.0152415
0.00927903
0.00432506
0.00373315
0.00345266
0.00316498
0.00286405
0.00281536
0.00331571
0.00427407
0.00543106
0.00662174
0.00775232
0.00873787
0.00948352
0.00989459
0.00989924
0.00946904
0.00862013
0.00749184
0.00626418
0.00511562
0.0042538
0.00391396
0.00415981
0.0047679
0.00546958
0.00611309
0.00664712
0.00706622
0.00735821
0.0075472
0.00765228
0.00768459
0.00764812
0.00754102
0.00735794
0.00709177
0.00673477
0.0062788
0.00571583
0.00504299
0.00428698
0.00357237
0.00319537
0.00352015
0.00459853
0.00626242
0.0117555
0.0228307
0.0274076
0.0217541
0.0142782
0.0119849
0.0115653
0.0115096
0.0114609
0.011311
0.0110413
0.0106839
0.0103024
0.009967
0.00973193
0.00962228
0.0096345
0.00974587
0.00992517
0.0101406
0.0103644
0.0105755
0.0107605
0.0109131
0.011033
0.0111246
0.0111957
0.0112563
0.0113189
0.0113933
0.0114978
0.0116445
0.0118465
0.0121158
0.0124628
0.0128959
0.0134207
0.0140394
0.0147487
0.0155372
0.0163803
0.0172338
0.0180253
0.0186451
0.0189397
0.0187093
0.0177147
0.0156902
0.0123302
0.00694501
0.00113683
0.00505149
0.0157324
0.00968384
0.00493079
0.00428126
0.00388562
0.00342376
0.00293892
0.00280357
0.00336498
0.00442231
0.00566018
0.00691538
0.00809493
0.00910893
0.00985898
0.0102526
0.0102283
0.00978087
0.00897555
0.00790484
0.00672563
0.00561485
0.00471525
0.00417744
0.0040915
0.00438269
0.00487154
0.00540676
0.00590429
0.00633863
0.00670602
0.00699158
0.00720415
0.00734786
0.00742242
0.00742384
0.00734573
0.00718059
0.00692047
0.00655698
0.00608115
0.00548651
0.00478878
0.00409568
0.0037138
0.00405194
0.00518112
0.00690673
0.012135
0.0235521
0.0284381
0.0222153
0.0144847
0.0121991
0.0118259
0.0118043
0.0117593
0.0115807
0.0112533
0.0108183
0.010352
0.00993842
0.00964067
0.00948539
0.00946486
0.00954995
0.00970355
0.00988953
0.0100776
0.0102458
0.0103811
0.0104788
0.0105417
0.0105777
0.0105989
0.0106194
0.0106555
0.0107206
0.0108347
0.0110095
0.0112569
0.0115863
0.0120047
0.0125171
0.0131266
0.0138339
0.0146369
0.0155276
0.016487
0.0174771
0.0184297
0.0192348
0.0197306
0.0197
0.0188764
0.0169525
0.0135801
0.00832187
0.000938456
0.00531227
0.0161745
0.0100883
0.00553618
0.00483891
0.00433555
0.00370847
0.00304567
0.00281652
0.00341478
0.00454388
0.00584766
0.00716274
0.00839245
0.00944105
0.0102074
0.0106014
0.01057
0.0101218
0.00933722
0.00834666
0.00724094
0.00616204
0.0052532
0.00461507
0.00432179
0.00436011
0.00463396
0.00502554
0.00544681
0.00584807
0.00622177
0.00654889
0.0068241
0.00704464
0.00720511
0.00729827
0.00731546
0.00724771
0.00708602
0.00682122
0.00644343
0.00594367
0.00532884
0.00468544
0.00430331
0.00462108
0.00576128
0.00751133
0.0122809
0.0239355
0.0295414
0.0228837
0.0147853
0.0124304
0.0120817
0.0120933
0.0120606
0.0118664
0.0114946
0.0109926
0.010448
0.00995805
0.00959579
0.00939061
0.00933164
0.00938421
0.00950594
0.00965667
0.00980339
0.00992269
0.0100017
0.0100374
0.0100358
0.0100092
0.00997476
0.00995206
0.00996187
0.0100222
0.0101532
0.0103655
0.0106674
0.0110639
0.0115569
0.0121466
0.012832
0.0136127
0.0144879
0.0154548
0.0165027
0.0176038
0.0186988
0.0196813
0.0203842
0.0205733
0.0199511
0.0181652
0.0148212
0.00956096
0.000732425
0.00551576
0.0165664
0.010495
0.00614188
0.00540271
0.00479726
0.00401486
0.00318328
0.00285065
0.00345679
0.00463396
0.00599286
0.00736493
0.00864685
0.00973709
0.0105322
0.010944
0.0109252
0.0104928
0.00973569
0.00879045
0.00778983
0.00676049
0.00585811
0.00517943
0.00477268
0.00463368
0.00471608
0.00494746
0.00525712
0.00559353
0.00592823
0.00625525
0.00655329
0.0068155
0.00703356
0.00719686
0.00729412
0.00731408
0.00724592
0.00707901
0.00680216
0.00640419
0.00588481
0.00530882
0.00493283
0.00520481
0.00631502
0.0080549
0.0123182
0.0240028
0.0306071
0.0238139
0.0152084
0.0126836
0.0123303
0.0123713
0.012359
0.012163
0.0117616
0.0112043
0.0105876
0.0100215
0.00959026
0.00932821
0.00922302
0.00923561
0.00931899
0.00942908
0.00952982
0.0095958
0.00961362
0.00958181
0.00950956
0.00941454
0.00932045
0.00925372
0.00924091
0.00930454
0.00946412
0.00972693
0.010096
0.0105695
0.0111427
0.0118093
0.0125637
0.0134033
0.0143287
0.0153431
0.0164469
0.017626
0.0188355
0.0199783
0.0208857
0.0213074
0.0209134
0.0193045
0.0160302
0.0105966
0.00133481
0.00568503
0.0169235
0.0109054
0.00674728
0.00596991
0.0052673
0.00433977
0.00334977
0.00290197
0.003485
0.00468961
0.00609527
0.00752235
0.00885904
0.00999854
0.0108353
0.0112816
0.011293
0.0108912
0.01017
0.00926995
0.00832874
0.00740682
0.00652035
0.00583318
0.00536732
0.00510727
0.00502946
0.00510009
0.00527759
0.00552206
0.00580184
0.00609861
0.006394
0.00667392
0.00692684
0.00714017
0.00730086
0.00739557
0.00741148
0.00733613
0.00715672
0.00685995
0.00643955
0.00594022
0.00557739
0.00578644
0.00682654
0.00852251
0.0122765
0.0237327
0.0314287
0.0252511
0.015803
0.0129549
0.0125634
0.0126282
0.0126451
0.0124625
0.0120487
0.0114499
0.0107684
0.010126
0.00961954
0.00929134
0.00913019
0.00909413
0.00913222
0.00919658
0.00924767
0.00925731
0.00921073
0.00910724
0.00895948
0.00879128
0.00863457
0.00852466
0.00849529
0.0085733
0.0087761
0.00910527
0.00955599
0.0101181
0.0107787
0.0115242
0.0123431
0.0132296
0.0141853
0.0152191
0.0163432
0.0175612
0.018848
0.0201229
0.0212217
0.0218812
0.0217394
0.02035
0.0172025
0.0117062
0.00267814
0.00581525
0.0172485
0.01132
0.00735064
0.00653772
0.0057428
0.00468043
0.00354234
0.00296682
0.00349501
0.00470866
0.00615409
0.00763467
0.00902906
0.0102256
0.0111166
0.0116133
0.0116712
0.0113133
0.0106361
0.00978398
0.00889635
0.0080602
0.00722945
0.00655054
0.00605071
0.00569922
0.0054829
0.00539658
0.00542948
0.00556192
0.0057687
0.00602678
0.00631127
0.00659982
0.00687727
0.00712926
0.00734138
0.00749913
0.00758841
0.00759536
0.00750577
0.00730451
0.00698054
0.00656117
0.00621908
0.00635818
0.00729634
0.00891956
0.0121931
0.0231429
0.031913
0.0270559
0.0168212
0.013242
0.0127654
0.0128494
0.0129054
0.0127537
0.0123476
0.0117248
0.0109886
0.0102707
0.00968215
0.00927671
0.00904804
0.00895331
0.0089384
0.00895181
0.00895023
0.00890184
0.00878929
0.00861162
0.00838455
0.00813879
0.0079165
0.00776446
0.0077256
0.00783051
0.00809283
0.00850528
0.00905281
0.00971558
0.0104718
0.0112999
0.0121821
0.013108
0.0140785
0.0151072
0.0162172
0.0174314
0.01875
0.020117
0.0213821
0.0222752
0.0224051
0.0212793
0.0183238
0.0128833
0.00424875
0.0059073
0.0175139
0.011738
0.00794906
0.00710292
0.00622093
0.00503394
0.0037574
0.00304183
0.00348365
0.00468915
0.00616806
0.00770092
0.00915602
0.0104173
0.0113744
0.0119365
0.0120561
0.0117544
0.0111291
0.0103282
0.00949456
0.00872243
0.00797234
0.00730968
0.00678382
0.00635091
0.00600458
0.00576126
0.00563861
0.00564196
0.00576033
0.00597223
0.0062449
0.00654525
0.00685081
0.00714261
0.00740376
0.00761903
0.00777403
0.00785457
0.00784591
0.00773201
0.00749846
0.00715858
0.00684497
0.00691672
0.00773169
0.00925556
0.0120975
0.0222748
0.0320152
0.0287791
0.018703
0.0136028
0.0129194
0.0130175
0.0131233
0.013022
0.012647
0.0120223
0.011246
0.0104567
0.00978001
0.0092853
0.00897573
0.00881059
0.00873378
0.00869044
0.00863337
0.00852635
0.008348
0.00809541
0.00778614
0.00745798
0.00716542
0.00697045
0.00692842
0.00707292
0.00741153
0.00792411
0.00858272
0.00935729
0.0102174
0.0111336
0.0120808
0.0130434
0.0140199
0.0150258
0.0160928
0.0172616
0.0185612
0.0199691
0.0213612
0.022471
0.0228841
0.0220622
0.0193698
0.0140983
0.00567226
0.00579033
0.0176746
0.0121572
0.00853858
0.0076616
0.00669846
0.005397
0.00399065
0.00312386
0.00344849
0.00462917
0.00613567
0.00771967
0.00923824
0.0105712
0.0116056
0.0122468
0.0124421
0.0122081
0.0116422
0.0108964
0.0101179
0.00940106
0.00872821
0.00808929
0.00753575
0.0070201
0.00654264
0.00613695
0.00584561
0.00570103
0.00571335
0.00586867
0.00613188
0.00645289
0.00679865
0.00714155
0.00745963
0.00773576
0.00795532
0.00810474
0.00817001
0.00813546
0.00798521
0.00772222
0.00744424
0.0074584
0.00813966
0.00953938
0.0120043
0.0211795
0.0317281
0.0302435
0.0212226
0.0143261
0.013029
0.0131177
0.0132819
0.0132507
0.0129326
0.0123326
0.0115372
0.010686
0.00991847
0.00932286
0.00891744
0.0086681
0.00851864
0.00841144
0.00829555
0.00812998
0.00788785
0.0075618
0.00716872
0.00675233
0.00638119
0.00613782
0.0060959
0.00629198
0.00672411
0.00735313
0.00813544
0.00903132
0.0100029
0.0110131
0.0120293
0.0130301
0.0140102
0.0149842
0.0159882
0.0170768
0.0183064
0.0196955
0.0211604
0.0224539
0.0231476
0.0226607
0.0202993
0.0152925
0.00691888
0.00514104
0.0176357
0.0125741
0.00911417
0.00820919
0.00717164
0.00576576
0.00423738
0.00321032
0.0033876
0.004527
0.00605563
0.00768961
0.00927374
0.0106843
0.0118055
0.0125379
0.0128217
0.0126661
0.0121664
0.0114791
0.0107562
0.0100911
0.00948197
0.00886796
0.00827988
0.00767504
0.00706108
0.00648526
0.00601047
0.00569556
0.00557824
0.00566132
0.00591585
0.00626773
0.00666937
0.0070806
0.00747112
0.0078195
0.0081099
0.00832949
0.00846589
0.00850523
0.00843203
0.00824262
0.00800631
0.00797705
0.0085246
0.00977975
0.0119189
0.019928
0.0310551
0.0313447
0.0238133
0.0159939
0.0131793
0.0131414
0.0133658
0.0134223
0.0131869
0.012642
0.0118555
0.0109603
0.0101056
0.0094002
0.00888341
0.00853367
0.00829821
0.00811784
0.00793835
0.0077141
0.00741176
0.00701665
0.00654071
0.00602965
0.00556617
0.0052605
0.00521651
0.00547621
0.006021
0.0067828
0.00769925
0.00872353
0.00981255
0.0109221
0.0120121
0.0130549
0.0140407
0.0149814
0.0159133
0.0168979
0.0180136
0.0193212
0.0207912
0.0222167
0.0231706
0.0230366
0.0210648
0.0164157
0.00824893
0.00433423
0.0172898
0.012984
0.00966982
0.00874038
0.0076362
0.00613596
0.00449281
0.00329922
0.00329977
0.00438155
0.00592737
0.00761009
0.00926082
0.0107529
0.0119685
0.0128027
0.0131862
0.0131185
0.0126912
0.0120648
0.0113967
0.0107788
0.0102189
0.00962397
0.00899286
0.008292
0.00753738
0.00678655
0.00611645
0.00560736
0.00532852
0.00531287
0.00555021
0.0059428
0.00641783
0.00691751
0.00739991
0.00783696
0.00821021
0.00850697
0.00871674
0.00882831
0.00882826
0.00870962
0.00851994
0.00846339
0.00888658
0.00998355
0.0118395
0.0186054
0.0300244
0.0320004
0.026206
0.0184323
0.013755
0.0131098
0.0133654
0.0135204
0.0133905
0.0129322
0.012189
0.0112779
0.01035
0.00953277
0.00889082
0.00842255
0.00808439
0.00781824
0.0075675
0.0072827
0.00692419
0.00646783
0.00591484
0.00530479
0.00472915
0.00433375
0.00427686
0.00461584
0.00529798
0.00620957
0.00726741
0.00842366
0.00963336
0.0108457
0.012013
0.0131014
0.014097
0.0150081
0.0158681
0.0167387
0.0177099
0.0188786
0.0202783
0.0217659
0.0229398
0.0231602
0.0216244
0.0174209
0.00959465
0.00336394
0.0166489
0.0133809
0.0101987
0.00924927
0.00808745
0.00650315
0.00475235
0.00338937
0.00318438
0.00419236
0.00575143
0.00748169
0.00919867
0.010774
0.0120888
0.0130327
0.0135256
0.0135541
0.0132042
0.0126403
0.0120251
0.0114486
0.0109206
0.0103368
0.00965479
0.0088544
0.00796108
0.00703957
0.00617296
0.00545178
0.00497279
0.00481551
0.00500248
0.00544407
0.00601087
0.00662033
0.00721511
0.00775875
0.0082294
0.00861389
0.00890327
0.00908919
0.00916129
0.00911193
0.00897304
0.0089054
0.00922083
0.0101546
0.0117603
0.017299
0.0286809
0.032174
0.0281925
0.0211364
0.0152478
0.0131822
0.0132847
0.013532
0.013523
0.0131797
0.0125178
0.0116295
0.0106568
0.00973789
0.00896384
0.00835942
0.00789841
0.00752926
0.00719514
0.0068439
0.0064312
0.00592371
0.00530737
0.00460329
0.00389459
0.00336183
0.00326555
0.00371147
0.00456683
0.00564442
0.00684484
0.008131
0.00946009
0.0107749
0.0120201
0.0131558
0.0141642
0.0150507
0.0158446
0.0166032
0.0174168
0.0184044
0.0196596
0.0211253
0.0224581
0.0230164
0.0219502
0.018275
0.0109258
0.00239497
0.0157742
0.0137579
0.010693
0.00972934
0.00852044
0.00686305
0.00501202
0.00348056
0.00304287
0.00395975
0.00552995
0.00730664
0.00908781
0.0107449
0.0121604
0.0132191
0.0138286
0.0139603
0.0136918
0.0131912
0.0126262
0.0120846
0.0115671
0.0109895
0.0102505
0.0093518
0.00833168
0.00725829
0.00621326
0.00528118
0.00456767
0.0042043
0.00428066
0.00476308
0.00543455
0.00617307
0.00689867
0.00756506
0.00814691
0.00863021
0.00900714
0.00927197
0.00941761
0.00943751
0.0093531
0.00928943
0.00951833
0.0102934
0.0116748
0.0160832
0.0270777
0.0318617
0.0296533
0.0237462
0.0174812
0.013839
0.0131954
0.0134537
0.013565
0.0133583
0.0128159
0.0119956
0.0110189
0.0100267
0.00912923
0.00837859
0.00777397
0.00727972
0.00684389
0.00641375
0.00594272
0.00539197
0.00473358
0.00396079
0.00311747
0.00237778
0.00217843
0.00279305
0.00387233
0.00512144
0.00645341
0.0078585
0.00929879
0.0107102
0.0120292
0.01321
0.0142313
0.0150967
0.0158313
0.016487
0.0171461
0.017932
0.0189825
0.0203365
0.0217476
0.0226064
0.0220279
0.0189562
0.0122496
0.00210194
0.0147294
0.0141072
0.0111444
0.0101734
0.0089299
0.00721178
0.00526907
0.00357356
0.00288258
0.00368543
0.0052671
0.00708928
0.00893049
0.0106643
0.0121779
0.0133529
0.0140839
0.0143241
0.0141402
0.0137028
0.0131849
0.0126713
0.0121528
0.0115583
0.0107699
0.00978126
0.00865528
0.0074641
0.00628201
0.00517312
0.00421956
0.00357516
0.0034421
0.00391503
0.00469504
0.00557807
0.00644835
0.00724928
0.00795237
0.00854309
0.00901454
0.00936311
0.00958475
0.0096748
0.00964809
0.00960163
0.00976738
0.010398
0.0115787
0.0150097
0.025274
0.0310914
0.030547
0.0260076
0.0200643
0.0153172
0.0133929
0.0133229
0.0135031
0.0134329
0.0130388
0.0123444
0.0114319
0.010407
0.00940816
0.00851579
0.00775617
0.00711467
0.0065528
0.00602281
0.00547936
0.00488296
0.00420094
0.00340649
0.0024877
0.0015021
0.00103551
0.0019709
0.00331018
0.00469987
0.00613297
0.00763436
0.00916856
0.0106632
0.0120458
0.0132645
0.0142947
0.0151386
0.015818
0.0163809
0.0168985
0.0174846
0.0182945
0.0194538
0.0208471
0.021945
0.0218515
0.0194422
0.0134841
0.00328085
0.0135099
0.0144205
0.0115434
0.0105735
0.00931015
0.00754569
0.00552157
0.00366955
0.00270745
0.00337268
0.00496889
0.00683606
0.00873097
0.0105323
0.0121365
0.0134251
0.0142797
0.0146322
0.0145352
0.0141607
0.0136866
0.0131947
0.0126682
0.0120324
0.011207
0.0101479
0.00894423
0.00768043
0.00641674
0.00519643
0.00405138
0.00309086
0.0025965
0.00292999
0.00381709
0.00485575
0.00587852
0.00681932
0.00764758
0.00834935
0.00891882
0.00935403
0.00965337
0.00981421
0.00984751
0.00982922
0.00995512
0.0104638
0.0114694
0.0141026
0.0233327
0.0299076
0.0308711
0.0277734
0.022613
0.0174641
0.0142374
0.0133207
0.0133703
0.0133975
0.0131526
0.0126096
0.0118162
0.0108543
0.00983138
0.00882958
0.00790981
0.00710153
0.00638463
0.00572416
0.00508076
0.00441885
0.00371214
0.00294013
0.00208272
0.00109472
0.000159978
0.00153706
0.00301183
0.00445102
0.00593506
0.00749805
0.0090984
0.0106539
0.0120825
0.0133258
0.0143559
0.0151725
0.015797
0.0162745
0.0166664
0.0170693
0.0176328
0.018536
0.019808
0.0210563
0.0214162
0.0197055
0.0145811
0.0048642
0.0120585
0.014689
0.0118799
0.0109204
0.00965465
0.00786115
0.00576848
0.00377083
0.0025232
0.00302307
0.00464208
0.00655487
0.00849518
0.0103502
0.0120328
0.0134277
0.0144049
0.014872
0.0148638
0.0145518
0.0141183
0.013643
0.0131042
0.0124269
0.0115416
0.0104474
0.0092149
0.00793032
0.00664125
0.00538212
0.00413941
0.00292898
0.00195649
0.00184856
0.0028408
0.0040437
0.00522082
0.00629808
0.00724698
0.00805647
0.00872198
0.00924277
0.00961895
0.00984958
0.00994347
0.00996144
0.0100686
0.0104829
0.0113421
0.0133587
0.0213273
0.0283721
0.0306581
0.0289818
0.0248542
0.0199045
0.0158289
0.0137655
0.0132945
0.0132794
0.0131486
0.0127613
0.0121192
0.0112751
0.0103065
0.00929296
0.0082953
0.00735518
0.00648356
0.005661
0.00487479
0.00409933
0.00331704
0.00251345
0.00176351
0.00114036
0.00100481
0.00180566
0.00306876
0.00444315
0.00591727
0.00749555
0.00912302
0.0107068
0.0121552
0.013403
0.0144183
0.015198
0.015765