/*--------------------------------*- C++ -*----------------------------------*\
| =========                 |                                                 |
| \\      /  F ield         | OpenFOAM: The Open Source CFD Toolbox           |
|  \\    /   O peration     | Version:  4.1                                   |
|   \\  /    A nd           | Web:      www.OpenFOAM.org                      |
|    \\/     M anipulation  |                                                 |
\*---------------------------------------------------------------------------*/
FoamFile
{
    version     2.0;
    format      ascii;
    class       volScalarField;
    location    "580";
    object      p_rgh;
}
// * * * * * * * * * * * * * * * * * * * * * * * * * * * * * * * * * * * * * //

dimensions      [0 2 -2 0 0 0 0];

internalField   nonuniform List<scalar> 
5000
(
0.0492291
0.0492405
0.0492379
0.0492335
0.0492296
0.0492264
0.0492237
0.0492216
0.0492198
0.0492185
0.0492176
0.0492171
0.049217
0.0492166
0.0492149
0.0492102
0.0492005
0.049184
0.0491605
0.0491333
0.0491092
0.0490936
0.0490878
0.0490902
0.0490955
0.0490939
0.0490891
0.0490869
0.0490889
0.0490932
0.0490968
0.0490985
0.0490983
0.0490974
0.049097
0.0490981
0.0491007
0.0491044
0.0491085
0.0491124
0.0491158
0.0491183
0.04912
0.0491209
0.0491211
0.0491209
0.0491204
0.049119
0.0491161
0.049114
0.0491181
0.0491226
0.049116
0.0491126
0.04911
0.0491076
0.0491049
0.0491018
0.0490984
0.0490945
0.0490905
0.0490862
0.049082
0.0490779
0.0490741
0.0490706
0.0490677
0.0490654
0.0490638
0.049063
0.0490632
0.0490643
0.0490665
0.04907
0.0490747
0.0490809
0.0490884
0.0490973
0.0491077
0.0491194
0.0491324
0.0491464
0.0491613
0.0491768
0.0491923
0.0492075
0.0492217
0.0492343
0.0492448
0.0492525
0.0492572
0.0492586
0.049257
0.0492535
0.0492487
0.0492436
0.0492382
0.0492324
0.0492263
0.0492249
0.0492289
0.0492548
0.0492562
0.0492572
0.0492584
0.0492596
0.0492609
0.0492622
0.0492634
0.0492642
0.0492643
0.0492636
0.0492617
0.0492581
0.0492521
0.0492426
0.0492282
0.0492075
0.0491807
0.049152
0.0491291
0.0491129
0.0491014
0.0490924
0.0490859
0.049088
0.0491073
0.0491139
0.0491192
0.0491304
0.0491412
0.0491505
0.0491577
0.0491632
0.0491673
0.0491703
0.0491727
0.0491746
0.0491763
0.0491778
0.0491793
0.0491808
0.0491823
0.0491839
0.0491856
0.0491875
0.0491896
0.0491915
0.0491865
0.0491592
0.0491157
0.0491285
0.0491461
0.0491527
0.0491534
0.049152
0.0491495
0.0491464
0.0491428
0.0491388
0.0491345
0.04913
0.0491254
0.0491209
0.0491165
0.0491124
0.0491088
0.0491056
0.0491031
0.0491013
0.0491003
0.0491002
0.0491011
0.049103
0.0491061
0.0491104
0.0491161
0.0491234
0.0491322
0.0491425
0.0491541
0.0491669
0.0491807
0.049195
0.0492096
0.0492239
0.0492374
0.0492494
0.0492595
0.0492669
0.0492715
0.0492728
0.0492713
0.0492676
0.0492633
0.0492594
0.0492563
0.0492547
0.0492445
0.0492228
0.0492231
0.0492544
0.0492555
0.0492563
0.0492577
0.0492592
0.0492608
0.0492622
0.0492634
0.049264
0.0492638
0.0492625
0.0492599
0.0492557
0.0492489
0.0492385
0.0492227
0.0491997
0.0491685
0.0491339
0.0491076
0.0490928
0.0490827
0.0490681
0.0490528
0.0490579
0.0490757
0.0490894
0.0491059
0.049123
0.0491383
0.0491501
0.0491585
0.0491644
0.0491686
0.0491717
0.049174
0.0491759
0.0491775
0.0491789
0.0491803
0.0491817
0.0491832
0.0491848
0.0491867
0.0491888
0.0491914
0.0491938
0.0491913
0.0491568
0.0490755
0.0491187
0.0491617
0.0491762
0.0491792
0.0491781
0.0491748
0.0491703
0.0491649
0.0491589
0.0491523
0.0491455
0.0491386
0.0491318
0.0491252
0.0491191
0.0491136
0.0491087
0.0491046
0.0491014
0.0490992
0.049098
0.0490981
0.0490993
0.049102
0.0491061
0.0491118
0.049119
0.0491277
0.0491378
0.0491493
0.049162
0.0491756
0.0491898
0.0492043
0.0492186
0.0492321
0.0492442
0.0492543
0.0492619
0.0492666
0.0492681
0.0492666
0.0492629
0.0492583
0.0492542
0.0492518
0.0492524
0.0492463
0.0492094
0.0492178
0.0492543
0.0492551
0.0492558
0.0492569
0.0492583
0.0492598
0.049261
0.0492618
0.0492618
0.049261
0.0492592
0.0492563
0.049252
0.0492452
0.0492346
0.0492183
0.0491939
0.0491577
0.0491116
0.0490765
0.0490596
0.04905
0.0490329
0.0490162
0.0490257
0.0490444
0.0490631
0.049088
0.0491134
0.0491343
0.049149
0.0491587
0.0491649
0.049169
0.0491718
0.0491738
0.0491755
0.0491769
0.0491783
0.0491796
0.049181
0.0491825
0.0491842
0.0491861
0.0491883
0.0491908
0.049193
0.0491891
0.0491237
0.0490291
0.0491068
0.0491684
0.0491881
0.0491925
0.0491911
0.0491866
0.0491804
0.0491729
0.0491647
0.0491561
0.0491473
0.0491387
0.0491305
0.0491228
0.0491159
0.0491097
0.0491043
0.0490999
0.0490965
0.0490941
0.0490928
0.0490928
0.049094
0.0490966
0.0491006
0.0491062
0.0491132
0.0491217
0.0491317
0.049143
0.0491554
0.0491688
0.0491829
0.0491973
0.0492115
0.049225
0.0492373
0.0492477
0.0492557
0.0492608
0.0492627
0.0492615
0.0492578
0.0492526
0.0492478
0.0492452
0.0492477
0.0492445
0.0491948
0.0492133
0.0492547
0.0492553
0.0492557
0.0492565
0.0492574
0.0492582
0.0492588
0.049259
0.0492589
0.0492582
0.0492568
0.0492542
0.0492501
0.0492434
0.049233
0.0492173
0.049194
0.049157
0.0490959
0.0490423
0.0490217
0.0490139
0.0489984
0.0489873
0.0490011
0.0490218
0.049046
0.0490762
0.0491069
0.0491318
0.049149
0.0491596
0.0491659
0.0491696
0.049172
0.0491736
0.0491748
0.049176
0.0491771
0.0491785
0.04918
0.0491816
0.0491834
0.0491853
0.0491875
0.0491898
0.0491911
0.0491836
0.0490736
0.0489929
0.0491005
0.0491717
0.0491932
0.0491978
0.0491957
0.0491901
0.0491822
0.0491731
0.0491633
0.0491533
0.0491435
0.0491341
0.0491253
0.0491174
0.0491102
0.049104
0.0490986
0.0490942
0.0490908
0.0490884
0.0490871
0.049087
0.0490881
0.0490906
0.0490944
0.0490997
0.0491064
0.0491146
0.0491242
0.0491351
0.0491472
0.0491603
0.0491741
0.0491882
0.0492024
0.049216
0.0492285
0.0492393
0.0492478
0.0492535
0.0492562
0.0492557
0.0492523
0.049247
0.0492409
0.0492373
0.0492402
0.0492405
0.0491808
0.0492093
0.0492554
0.0492558
0.0492559
0.0492561
0.0492564
0.0492567
0.0492571
0.0492576
0.0492579
0.0492576
0.0492565
0.049254
0.0492497
0.0492432
0.0492333
0.0492193
0.0491997
0.0491694
0.0491064
0.0490162
0.048989
0.0489834
0.0489726
0.0489705
0.0489879
0.0490119
0.0490413
0.0490751
0.0491077
0.0491335
0.0491509
0.0491613
0.0491671
0.0491702
0.049172
0.0491731
0.0491739
0.0491748
0.0491758
0.0491772
0.0491788
0.0491806
0.0491826
0.0491846
0.0491867
0.0491887
0.0491892
0.049162
0.0490231
0.0489685
0.0490996
0.0491739
0.0491946
0.0491984
0.0491953
0.0491885
0.0491794
0.0491692
0.0491584
0.0491477
0.0491374
0.0491278
0.049119
0.049111
0.049104
0.0490979
0.0490926
0.0490882
0.0490848
0.0490823
0.0490809
0.0490805
0.0490814
0.0490835
0.0490869
0.0490917
0.049098
0.0491056
0.0491147
0.049125
0.0491366
0.0491492
0.0491626
0.0491765
0.0491905
0.0492041
0.0492169
0.0492283
0.0492376
0.0492443
0.049248
0.0492485
0.0492461
0.0492413
0.049234
0.0492286
0.0492307
0.0492351
0.049167
0.0492054
0.0492558
0.0492562
0.0492564
0.0492566
0.0492569
0.0492573
0.0492577
0.0492581
0.0492583
0.0492582
0.0492571
0.0492547
0.0492504
0.0492439
0.0492348
0.0492225
0.0492076
0.049188
0.0491509
0.0490085
0.0489733
0.0489681
0.0489636
0.0489708
0.048992
0.0490204
0.0490537
0.0490881
0.0491182
0.0491408
0.0491555
0.049164
0.0491685
0.0491707
0.0491718
0.0491724
0.0491729
0.0491735
0.0491744
0.0491758
0.0491776
0.0491797
0.0491819
0.049184
0.049186
0.0491876
0.0491874
0.0491257
0.0489783
0.0489531
0.0491024
0.0491754
0.0491939
0.0491962
0.0491919
0.049184
0.049174
0.049163
0.0491518
0.0491408
0.0491304
0.0491209
0.0491123
0.0491045
0.0490976
0.0490916
0.0490863
0.0490818
0.0490782
0.0490755
0.0490738
0.0490731
0.0490735
0.0490751
0.0490779
0.0490821
0.0490876
0.0490946
0.0491029
0.0491126
0.0491235
0.0491354
0.0491483
0.0491618
0.0491756
0.0491893
0.0492025
0.0492145
0.0492247
0.0492326
0.0492377
0.0492396
0.0492385
0.0492346
0.0492274
0.0492198
0.0492203
0.0492293
0.0491531
0.0492011
0.0492558
0.0492569
0.0492576
0.049258
0.0492581
0.0492581
0.0492582
0.0492585
0.049259
0.0492592
0.0492584
0.049256
0.0492516
0.0492452
0.0492365
0.0492256
0.0492142
0.0492038
0.0491879
0.0491019
0.0490036
0.0489869
0.0489857
0.0489995
0.0490246
0.0490557
0.0490883
0.0491168
0.0491386
0.0491535
0.0491625
0.0491673
0.0491697
0.0491707
0.0491712
0.0491714
0.0491716
0.049172
0.0491728
0.0491743
0.0491764
0.0491788
0.0491813
0.0491834
0.0491853
0.0491865
0.0491849
0.0490846
0.0489393
0.0489444
0.0491072
0.0491764
0.0491918
0.0491924
0.0491868
0.0491779
0.0491672
0.0491558
0.0491444
0.0491334
0.0491232
0.049114
0.0491056
0.049098
0.0490912
0.0490851
0.0490797
0.049075
0.049071
0.0490679
0.0490657
0.0490644
0.0490642
0.0490652
0.0490672
0.0490706
0.0490754
0.0490815
0.0490889
0.0490977
0.0491078
0.0491191
0.0491313
0.0491444
0.049158
0.0491717
0.0491852
0.0491979
0.0492092
0.0492185
0.0492252
0.0492289
0.0492294
0.0492267
0.0492208
0.049211
0.0492096
0.0492243
0.0491391
0.0491964
0.049256
0.049258
0.0492588
0.0492588
0.0492584
0.0492581
0.0492583
0.0492592
0.0492604
0.049261
0.0492603
0.0492576
0.049253
0.0492463
0.0492378
0.0492277
0.0492182
0.0492112
0.0492085
0.0492069
0.0491133
0.04907
0.0490612
0.0490726
0.0490939
0.0491177
0.0491387
0.0491535
0.0491622
0.0491669
0.0491692
0.04917
0.0491703
0.0491702
0.0491701
0.04917
0.0491699
0.0491702
0.049171
0.0491726
0.049175
0.0491778
0.0491806
0.0491829
0.0491846
0.0491853
0.0491761
0.0490444
0.048906
0.0489407
0.0491127
0.0491768
0.0491891
0.0491877
0.0491808
0.049171
0.0491597
0.0491481
0.0491368
0.049126
0.0491162
0.0491071
0.0490989
0.0490915
0.0490846
0.0490783
0.0490726
0.0490675
0.049063
0.0490594
0.0490565
0.0490546
0.0490536
0.0490537
0.049055
0.0490575
0.0490613
0.0490664
0.049073
0.0490809
0.0490901
0.0491005
0.0491121
0.0491246
0.0491379
0.0491516
0.0491655
0.0491789
0.0491914
0.0492022
0.0492107
0.0492164
0.0492187
0.0492177
0.0492136
0.0492025
0.0491991
0.0492208
0.0491252
0.0491915
0.0492557
0.0492584
0.0492591
0.0492587
0.049258
0.0492579
0.0492589
0.0492607
0.0492624
0.0492631
0.0492621
0.049259
0.0492539
0.0492468
0.0492381
0.0492283
0.0492194
0.0492135
0.0492121
0.0492169
0.0492086
0.0491781
0.0491638
0.0491635
0.0491688
0.0491739
0.0491764
0.0491763
0.0491748
0.0491729
0.0491713
0.0491701
0.0491693
0.0491687
0.0491683
0.0491681
0.049168
0.0491681
0.0491688
0.0491705
0.0491732
0.0491766
0.0491799
0.0491824
0.049184
0.0491842
0.0491609
0.0490069
0.0488772
0.0489401
0.0491184
0.0491768
0.0491859
0.0491826
0.0491744
0.0491638
0.0491522
0.0491405
0.0491293
0.0491189
0.0491093
0.0491005
0.0490924
0.0490849
0.0490778
0.0490712
0.049065
0.0490593
0.0490542
0.0490498
0.0490462
0.0490435
0.0490417
0.049041
0.0490413
0.0490429
0.0490458
0.04905
0.0490555
0.0490625
0.0490707
0.0490803
0.0490911
0.049103
0.0491159
0.0491296
0.0491437
0.0491579
0.0491715
0.049184
0.0491945
0.0492022
0.0492066
0.0492075
0.0492047
0.0491944
0.0491894
0.0492161
0.0491115
0.0491865
0.0492546
0.0492576
0.0492582
0.0492576
0.0492572
0.0492579
0.04926
0.0492626
0.0492646
0.049265
0.0492635
0.0492599
0.0492542
0.0492466
0.0492374
0.0492273
0.0492181
0.0492117
0.0492094
0.0492117
0.0492176
0.0492175
0.049212
0.0492062
0.0492001
0.0491932
0.0491862
0.0491799
0.0491749
0.0491713
0.0491688
0.0491673
0.0491663
0.0491658
0.0491655
0.0491654
0.0491654
0.0491656
0.0491663
0.0491679
0.0491709
0.0491749
0.0491789
0.0491817
0.0491833
0.0491832
0.0491446
0.0489726
0.0488517
0.0489411
0.0491236
0.0491765
0.0491825
0.0491774
0.049168
0.0491566
0.0491447
0.049133
0.0491221
0.049112
0.0491027
0.0490941
0.049086
0.0490782
0.0490707
0.0490636
0.0490568
0.0490505
0.0490446
0.0490395
0.0490351
0.0490315
0.0490288
0.0490272
0.0490267
0.0490274
0.0490293
0.0490326
0.0490373
0.0490433
0.0490506
0.0490592
0.0490692
0.0490804
0.0490927
0.0491061
0.0491204
0.0491352
0.04915
0.0491641
0.0491767
0.0491867
0.0491933
0.0491959
0.0491942
0.0491867
0.0491806
0.0492061
0.0490975
0.0491816
0.0492529
0.0492561
0.0492567
0.0492564
0.0492567
0.0492585
0.0492617
0.0492648
0.0492667
0.0492666
0.0492644
0.0492601
0.0492539
0.0492457
0.0492357
0.0492249
0.0492148
0.0492072
0.049203
0.0492024
0.0492042
0.0492063
0.0492056
0.0492014
0.0491945
0.0491867
0.0491793
0.0491732
0.0491685
0.0491652
0.0491632
0.049162
0.0491614
0.0491613
0.0491614
0.0491616
0.0491619
0.0491623
0.0491631
0.0491649
0.0491681
0.0491728
0.0491775
0.0491807
0.0491822
0.0491817
0.04913
0.0489419
0.048828
0.048942
0.049128
0.049176
0.0491792
0.0491723
0.0491617
0.0491497
0.0491375
0.0491259
0.0491152
0.0491054
0.0490964
0.0490878
0.0490795
0.0490714
0.0490634
0.0490556
0.0490481
0.049041
0.0490344
0.0490284
0.0490232
0.0490188
0.0490153
0.0490129
0.0490116
0.0490115
0.0490126
0.0490151
0.0490189
0.049024
0.0490304
0.0490381
0.0490471
0.0490574
0.049069
0.0490819
0.0490961
0.0491113
0.0491271
0.0491428
0.0491575
0.0491699
0.0491788
0.0491831
0.0491826
0.0491781
0.0491712
0.0491917
0.049083
0.0491766
0.0492509
0.0492543
0.049255
0.0492552
0.0492565
0.0492595
0.0492635
0.0492669
0.0492683
0.0492676
0.0492648
0.04926
0.0492531
0.0492441
0.0492335
0.0492218
0.0492106
0.0492014
0.0491952
0.0491921
0.0491909
0.0491903
0.0491885
0.0491847
0.0491793
0.0491732
0.0491674
0.0491625
0.0491589
0.0491565
0.0491551
0.0491546
0.0491547
0.0491552
0.0491559
0.0491566
0.0491573
0.0491581
0.0491592
0.0491611
0.0491646
0.0491699
0.0491754
0.0491793
0.0491807
0.0491796
0.0491189
0.0489147
0.0488047
0.0489418
0.0491313
0.0491753
0.0491761
0.0491674
0.0491557
0.0491431
0.0491307
0.0491192
0.0491087
0.0490992
0.0490902
0.0490816
0.049073
0.0490644
0.0490558
0.0490473
0.049039
0.0490311
0.0490238
0.049017
0.049011
0.0490058
0.0490016
0.0489985
0.0489966
0.0489959
0.0489964
0.0489982
0.0490013
0.0490056
0.049011
0.0490177
0.0490257
0.0490349
0.0490456
0.0490577
0.0490715
0.0490867
0.0491032
0.0491204
0.0491372
0.049152
0.0491633
0.0491694
0.04917
0.0491668
0.0491604
0.0491757
0.0490677
0.0491715
0.0492485
0.0492521
0.0492531
0.049254
0.0492565
0.0492607
0.0492653
0.0492685
0.0492695
0.0492682
0.0492649
0.0492595
0.049252
0.0492423
0.0492308
0.0492184
0.0492061
0.0491955
0.0491876
0.0491824
0.0491792
0.0491767
0.0491739
0.04917
0.0491652
0.0491599
0.0491549
0.0491509
0.049148
0.0491462
0.0491455
0.0491456
0.0491464
0.0491476
0.0491489
0.0491503
0.0491517
0.0491529
0.0491543
0.0491565
0.0491603
0.0491661
0.0491726
0.0491772
0.0491787
0.049177
0.0491129
0.0488912
0.04878
0.0489393
0.0491334
0.0491745
0.0491731
0.0491629
0.0491501
0.0491369
0.0491243
0.0491128
0.0491026
0.0490932
0.0490843
0.0490755
0.0490665
0.0490573
0.049048
0.0490388
0.0490297
0.0490211
0.0490129
0.0490054
0.0489987
0.048993
0.0489882
0.0489847
0.0489823
0.0489813
0.0489814
0.0489828
0.0489853
0.0489889
0.0489935
0.0489991
0.0490059
0.0490139
0.0490233
0.0490343
0.0490472
0.0490621
0.049079
0.0490973
0.049116
0.0491333
0.0491469
0.0491548
0.0491563
0.0491528
0.0491477
0.0491599
0.0490519
0.0491664
0.0492459
0.0492497
0.0492511
0.0492529
0.0492566
0.0492618
0.0492667
0.0492697
0.0492701
0.0492683
0.0492646
0.0492588
0.0492508
0.0492404
0.0492281
0.0492148
0.0492018
0.0491902
0.0491809
0.0491742
0.0491696
0.049166
0.0491625
0.0491585
0.0491538
0.0491488
0.049144
0.0491399
0.049137
0.0491354
0.049135
0.0491356
0.0491369
0.0491387
0.0491407
0.0491428
0.0491448
0.0491467
0.0491486
0.0491511
0.0491551
0.0491614
0.0491689
0.0491744
0.0491761
0.0491739
0.0491132
0.0488724
0.0487524
0.0489334
0.0491343
0.0491737
0.0491705
0.0491588
0.049145
0.0491311
0.0491182
0.0491068
0.0490967
0.0490875
0.0490786
0.0490696
0.0490601
0.0490503
0.0490403
0.0490303
0.0490205
0.0490111
0.0490023
0.0489942
0.048987
0.0489808
0.0489758
0.048972
0.0489695
0.0489684
0.0489685
0.0489696
0.0489717
0.0489746
0.0489784
0.0489831
0.0489886
0.0489952
0.049003
0.0490125
0.0490241
0.0490381
0.0490548
0.0490738
0.0490942
0.0491139
0.04913
0.0491398
0.0491419
0.0491371
0.0491345
0.0491454
0.0490364
0.0491613
0.049243
0.0492469
0.0492489
0.0492517
0.0492566
0.0492627
0.0492677
0.0492702
0.0492701
0.049268
0.049264
0.049258
0.0492496
0.0492387
0.0492257
0.0492115
0.0491977
0.0491856
0.0491755
0.0491677
0.0491622
0.049158
0.0491541
0.0491499
0.0491453
0.0491403
0.0491353
0.0491308
0.0491274
0.0491253
0.0491246
0.0491251
0.0491267
0.0491289
0.0491315
0.0491343
0.049137
0.0491395
0.049142
0.0491448
0.0491491
0.0491558
0.0491642
0.0491707
0.0491728
0.0491703
0.0491162
0.0488605
0.0487208
0.048923
0.0491337
0.049173
0.0491683
0.0491552
0.0491403
0.0491258
0.0491126
0.0491012
0.0490912
0.0490821
0.0490732
0.0490638
0.049054
0.0490435
0.0490328
0.0490221
0.0490116
0.0490015
0.0489921
0.0489836
0.0489761
0.0489697
0.0489647
0.048961
0.0489588
0.0489579
0.0489581
0.0489592
0.0489611
0.0489636
0.0489666
0.0489703
0.0489745
0.0489795
0.0489856
0.0489932
0.049003
0.0490155
0.0490314
0.0490506
0.0490723
0.0490942
0.049113
0.0491249
0.0491275
0.0491215
0.0491215
0.0491324
0.0490219
0.0491561
0.0492397
0.0492439
0.0492465
0.0492504
0.0492565
0.0492633
0.0492681
0.0492701
0.0492696
0.0492673
0.0492632
0.0492571
0.0492486
0.0492373
0.0492237
0.0492089
0.0491943
0.0491814
0.049171
0.0491626
0.0491565
0.0491521
0.0491482
0.0491441
0.0491394
0.0491343
0.049129
0.049124
0.0491197
0.0491166
0.0491151
0.0491151
0.0491164
0.0491187
0.0491217
0.049125
0.0491283
0.0491315
0.0491345
0.0491378
0.0491423
0.0491493
0.0491585
0.0491662
0.0491689
0.0491662
0.0491192
0.0488543
0.0486886
0.0489055
0.0491314
0.0491721
0.0491665
0.0491521
0.0491362
0.049121
0.0491075
0.0490959
0.049086
0.049077
0.049068
0.0490585
0.0490482
0.0490373
0.0490259
0.0490145
0.0490033
0.0489927
0.0489829
0.0489741
0.0489665
0.0489602
0.0489555
0.0489523
0.0489506
0.0489502
0.0489508
0.0489521
0.0489539
0.0489561
0.0489585
0.0489612
0.0489641
0.0489675
0.0489716
0.0489771
0.0489845
0.048995
0.0490094
0.0490281
0.0490506
0.0490746
0.0490962
0.0491104
0.0491138
0.0491073
0.049108
0.0491198
0.0490081
0.0491507
0.0492361
0.0492406
0.0492438
0.0492489
0.0492561
0.0492633
0.0492679
0.0492694
0.0492686
0.0492662
0.0492622
0.0492562
0.0492477
0.0492363
0.0492223
0.0492068
0.0491914
0.0491778
0.0491669
0.0491584
0.0491519
0.0491475
0.0491439
0.04914
0.0491354
0.0491303
0.0491248
0.0491193
0.0491142
0.04911
0.0491073
0.0491062
0.0491068
0.0491087
0.0491116
0.0491152
0.049119
0.0491228
0.0491264
0.0491301
0.0491349
0.0491421
0.0491518
0.0491607
0.0491643
0.0491619
0.0491221
0.0488562
0.0486605
0.0488703
0.0491265
0.0491712
0.0491651
0.0491497
0.0491327
0.0491167
0.0491028
0.0490911
0.0490812
0.0490722
0.0490632
0.0490536
0.049043
0.0490317
0.0490198
0.0490079
0.0489961
0.0489851
0.048975
0.048966
0.0489586
0.0489527
0.0489485
0.0489461
0.0489452
0.0489457
0.0489469
0.0489485
0.0489504
0.0489523
0.0489541
0.0489559
0.0489577
0.0489595
0.0489616
0.0489646
0.0489695
0.0489773
0.0489894
0.0490069
0.0490296
0.0490555
0.0490799
0.0490968
0.0491013
0.0490945
0.0490925
0.0491067
0.0489946
0.0491452
0.0492322
0.049237
0.049241
0.0492472
0.0492553
0.0492627
0.0492669
0.049268
0.0492671
0.0492647
0.0492609
0.0492552
0.0492469
0.0492356
0.0492213
0.0492052
0.049189
0.0491745
0.049163
0.0491544
0.0491478
0.0491437
0.0491404
0.0491368
0.0491324
0.0491272
0.0491216
0.0491159
0.0491103
0.0491052
0.0491013
0.0490989
0.0490983
0.0490993
0.0491018
0.0491053
0.0491093
0.0491135
0.0491176
0.0491218
0.0491269
0.0491342
0.0491443
0.0491543
0.0491591
0.0491573
0.0491246
0.0488659
0.0486398
0.0488212
0.0491096
0.0491702
0.0491644
0.0491481
0.0491301
0.0491132
0.0490987
0.0490866
0.0490767
0.0490677
0.0490589
0.0490493
0.0490387
0.0490271
0.0490149
0.0490025
0.0489903
0.0489789
0.0489686
0.0489597
0.0489526
0.0489473
0.048944
0.0489426
0.0489428
0.0489443
0.0489462
0.0489483
0.0489503
0.048952
0.0489534
0.0489544
0.0489551
0.0489554
0.0489556
0.0489563
0.0489583
0.048963
0.0489723
0.0489877
0.0490099
0.0490371
0.0490643
0.0490843
0.0490904
0.0490827
0.0490758
0.049095
0.0489821
0.0491395
0.049228
0.0492331
0.0492378
0.0492451
0.049254
0.0492614
0.0492653
0.049266
0.049265
0.0492628
0.0492593
0.0492541
0.0492463
0.0492352
0.0492207
0.0492039
0.0491868
0.0491714
0.0491592
0.0491502
0.0491438
0.0491399
0.049137
0.0491336
0.0491292
0.0491241
0.0491185
0.0491127
0.049107
0.0491016
0.0490968
0.0490932
0.0490913
0.0490912
0.0490927
0.0490957
0.0490996
0.049104
0.0491085
0.0491131
0.0491184
0.0491258
0.0491362
0.0491472
0.0491535
0.0491527
0.0491263
0.0488833
0.0486277
0.0487715
0.0490649
0.0491686
0.0491644
0.0491474
0.0491284
0.0491106
0.0490952
0.0490827
0.0490726
0.0490637
0.049055
0.0490456
0.0490352
0.0490236
0.0490113
0.0489987
0.0489862
0.0489746
0.0489641
0.0489554
0.0489487
0.0489443
0.048942
0.0489419
0.0489433
0.0489459
0.0489487
0.0489512
0.0489533
0.0489548
0.0489558
0.0489562
0.048956
0.048955
0.0489536
0.048952
0.0489512
0.0489526
0.0489585
0.048971
0.0489918
0.0490198
0.04905
0.0490736
0.0490819
0.049073
0.0490613
0.0490874
0.0489717
0.0491336
0.0492235
0.0492289
0.0492344
0.0492427
0.0492522
0.0492595
0.049263
0.0492634
0.0492624
0.0492604
0.0492574
0.0492528
0.0492457
0.049235
0.0492205
0.049203
0.0491847
0.0491682
0.0491552
0.0491458
0.0491395
0.0491358
0.0491332
0.0491298
0.0491253
0.04912
0.0491143
0.0491086
0.049103
0.0490978
0.0490928
0.0490886
0.0490856
0.0490843
0.0490847
0.0490868
0.0490902
0.0490945
0.0490992
0.0491041
0.0491096
0.0491171
0.0491275
0.0491394
0.0491473
0.0491478
0.0491272
0.0489073
0.048625
0.0487245
0.0490003
0.0491586
0.0491652
0.0491479
0.0491279
0.049109
0.0490927
0.0490795
0.049069
0.0490601
0.0490516
0.0490426
0.0490326
0.0490214
0.0490094
0.0489968
0.0489842
0.0489724
0.0489619
0.0489533
0.0489471
0.0489435
0.0489424
0.0489436
0.0489465
0.0489502
0.0489539
0.048957
0.0489591
0.0489604
0.048961
0.0489608
0.0489598
0.0489578
0.048955
0.0489515
0.0489482
0.0489464
0.0489485
0.0489575
0.048976
0.0490041
0.049037
0.049065
0.0490768
0.0490676
0.0490521
0.0490809
0.048965
0.0491275
0.0492187
0.0492244
0.0492307
0.0492399
0.0492498
0.0492571
0.0492601
0.0492603
0.0492592
0.0492575
0.0492551
0.0492513
0.0492451
0.049235
0.0492205
0.0492023
0.0491827
0.0491649
0.0491508
0.049141
0.0491348
0.0491313
0.0491287
0.0491251
0.0491202
0.0491145
0.0491085
0.0491028
0.0490975
0.0490927
0.0490882
0.0490841
0.0490807
0.0490784
0.0490778
0.0490788
0.0490815
0.0490853
0.0490899
0.049095
0.0491007
0.0491082
0.0491186
0.049131
0.0491406
0.0491428
0.0491273
0.0489363
0.0486321
0.0486838
0.048931
0.0491218
0.0491658
0.0491498
0.0491289
0.0491088
0.0490913
0.0490772
0.0490661
0.049057
0.0490487
0.0490402
0.0490308
0.0490204
0.049009
0.0489968
0.0489845
0.0489726
0.0489621
0.0489536
0.0489478
0.0489449
0.048945
0.0489476
0.0489519
0.048957
0.0489616
0.0489651
0.0489672
0.0489681
0.0489682
0.0489675
0.0489659
0.0489632
0.0489593
0.0489543
0.0489489
0.0489443
0.0489427
0.0489477
0.048963
0.0489902
0.0490256
0.0490587
0.0490758
0.0490683
0.0490483
0.0490699
0.0489641
0.0491212
0.0492138
0.0492198
0.0492268
0.0492367
0.049247
0.049254
0.0492568
0.0492567
0.0492556
0.0492541
0.0492523
0.0492495
0.0492443
0.0492351
0.0492207
0.0492018
0.0491808
0.0491614
0.0491462
0.0491359
0.0491297
0.0491262
0.0491236
0.0491195
0.0491138
0.0491073
0.0491008
0.0490949
0.0490898
0.0490856
0.0490821
0.0490787
0.0490756
0.0490731
0.0490717
0.0490718
0.0490736
0.0490768
0.0490811
0.0490861
0.0490919
0.0490993
0.0491096
0.0491224
0.0491334
0.0491376
0.0491266
0.0489679
0.0486491
0.0486516
0.0488613
0.049064
0.0491573
0.049153
0.0491316
0.0491102
0.0490913
0.0490759
0.049064
0.0490545
0.0490462
0.0490382
0.0490297
0.0490204
0.0490101
0.0489989
0.0489872
0.0489756
0.0489651
0.0489566
0.0489508
0.0489484
0.0489494
0.0489533
0.0489592
0.0489656
0.0489715
0.0489754
0.0489772
0.0489776
0.048977
0.0489758
0.0489737
0.0489704
0.0489658
0.0489598
0.0489529
0.048946
0.0489411
0.0489419
0.0489531
0.0489783
0.0490155
0.0490543
0.0490786
0.0490755
0.0490509
0.0490543
0.0489691
0.0491147
0.0492087
0.049215
0.0492226
0.0492333
0.0492438
0.0492506
0.0492531
0.0492528
0.0492517
0.0492504
0.0492491
0.0492473
0.0492435
0.0492353
0.0492213
0.0492016
0.049179
0.0491578
0.0491414
0.0491306
0.0491244
0.049121
0.049118
0.0491132
0.0491064
0.0490989
0.0490915
0.0490851
0.04908
0.0490763
0.0490739
0.0490717
0.0490695
0.0490675
0.049066
0.0490656
0.0490666
0.0490691
0.0490729
0.0490777
0.0490834
0.0490907
0.0491008
0.0491138
0.049126
0.0491322
0.0491253
0.0489994
0.0486752
0.0486301
0.0487969
0.048996
0.0491259
0.0491552
0.0491359
0.0491134
0.049093
0.0490762
0.0490629
0.0490527
0.0490443
0.0490366
0.049029
0.0490209
0.0490122
0.0490026
0.0489922
0.0489815
0.0489713
0.0489626
0.0489566
0.0489541
0.0489555
0.0489604
0.0489678
0.0489759
0.0489831
0.0489874
0.0489887
0.0489882
0.0489869
0.0489851
0.0489826
0.048979
0.0489739
0.0489673
0.0489594
0.0489509
0.0489434
0.0489403
0.0489468
0.0489686
0.0490064
0.0490508
0.0490841
0.0490885
0.0490615
0.0490386
0.0489788
0.0491082
0.0492037
0.0492102
0.0492184
0.0492295
0.0492403
0.049247
0.0492492
0.0492488
0.0492475
0.0492463
0.0492456
0.0492449
0.0492424
0.0492356
0.0492222
0.0492018
0.0491774
0.0491543
0.0491366
0.0491253
0.0491192
0.0491158
0.0491123
0.0491065
0.0490985
0.0490896
0.0490811
0.049074
0.0490686
0.0490652
0.0490635
0.0490627
0.049062
0.0490611
0.0490602
0.0490598
0.0490604
0.0490623
0.0490656
0.04907
0.0490755
0.0490827
0.0490925
0.0491054
0.0491185
0.0491267
0.0491235
0.0490282
0.0487096
0.0486206
0.0487416
0.0489251
0.0490755
0.0491445
0.0491413
0.0491185
0.0490967
0.0490783
0.0490635
0.049052
0.049043
0.0490353
0.0490283
0.0490214
0.0490145
0.049007
0.0489988
0.0489898
0.0489806
0.0489722
0.0489657
0.0489624
0.0489633
0.0489686
0.0489772
0.0489871
0.0489961
0.0490007
0.0490012
0.0489996
0.0489974
0.048995
0.0489921
0.0489883
0.048983
0.0489762
0.0489678
0.0489584
0.0489491
0.0489427
0.0489444
0.0489615
0.048998
0.049047
0.0490901
0.0491053
0.0490804
0.0490299
0.0489908
0.0491017
0.0491989
0.0492055
0.0492141
0.0492257
0.0492366
0.0492432
0.0492453
0.0492447
0.0492434
0.0492421
0.0492418
0.0492421
0.0492413
0.0492361
0.0492235
0.0492025
0.0491763
0.0491511
0.049132
0.0491202
0.0491142
0.0491108
0.0491068
0.0490999
0.0490905
0.0490803
0.0490707
0.0490627
0.0490568
0.0490531
0.0490517
0.0490522
0.0490531
0.0490537
0.049054
0.0490541
0.0490547
0.0490564
0.0490592
0.0490632
0.0490684
0.0490753
0.0490849
0.0490976
0.0491113
0.0491213
0.0491215
0.0490528
0.0487511
0.0486236
0.0486982
0.0488571
0.0490132
0.0491146
0.0491414
0.049125
0.0491024
0.0490825
0.0490662
0.0490532
0.049043
0.0490347
0.0490276
0.0490215
0.049016
0.0490108
0.0490054
0.0489994
0.0489926
0.0489855
0.0489791
0.0489747
0.0489739
0.0489779
0.0489869
0.0489988
0.0490101
0.0490149
0.0490142
0.0490113
0.0490081
0.0490051
0.0490019
0.0489979
0.0489926
0.0489858
0.0489774
0.0489676
0.0489574
0.0489487
0.048946
0.0489575
0.0489905
0.0490422
0.0490949
0.0491228
0.0491058
0.0490479
0.0490041
0.0490953
0.0491944
0.049201
0.0492098
0.0492218
0.0492329
0.0492396
0.0492416
0.049241
0.0492394
0.049238
0.0492378
0.0492391
0.04924
0.0492368
0.0492254
0.0492039
0.0491759
0.0491484
0.0491278
0.0491156
0.0491098
0.0491064
0.0491018
0.0490939
0.0490832
0.0490718
0.0490612
0.0490525
0.0490459
0.0490416
0.0490398
0.0490408
0.0490432
0.0490455
0.0490472
0.0490484
0.0490495
0.0490511
0.0490537
0.0490574
0.0490623
0.049069
0.0490782
0.0490906
0.0491048
0.0491162
0.0491196
0.0490725
0.0487986
0.0486394
0.0486683
0.0487967
0.0489466
0.0490673
0.0491275
0.0491299
0.04911
0.0490891
0.0490712
0.0490566
0.0490449
0.0490354
0.0490277
0.0490214
0.0490165
0.0490128
0.04901
0.0490076
0.0490048
0.0490012
0.0489968
0.0489924
0.0489896
0.0489903
0.0489971
0.049011
0.0490244
0.0490288
0.0490269
0.0490227
0.0490185
0.0490149
0.0490114
0.0490074
0.0490022
0.0489957
0.0489876
0.048978
0.0489675
0.0489576
0.0489515
0.0489571
0.0489845
0.0490361
0.0490972
0.0491387
0.0491327
0.0490745
0.049019
0.0490892
0.0491905
0.049197
0.0492058
0.049218
0.0492294
0.0492362
0.0492384
0.0492378
0.0492361
0.0492342
0.0492339
0.0492361
0.0492387
0.0492377
0.0492278
0.0492063
0.0491763
0.0491465
0.0491244
0.0491118
0.0491062
0.0491028
0.0490976
0.0490887
0.0490771
0.0490649
0.0490537
0.0490445
0.0490373
0.0490321
0.0490293
0.0490296
0.0490329
0.0490369
0.0490402
0.0490426
0.0490445
0.0490464
0.049049
0.0490526
0.0490573
0.0490637
0.0490727
0.0490848
0.0490991
0.0491117
0.0491178
0.0490876
0.0488506
0.0486676
0.0486531
0.0487471
0.048882
0.0490095
0.0490958
0.0491259
0.0491172
0.0490975
0.0490786
0.0490625
0.0490492
0.0490384
0.0490294
0.0490222
0.0490167
0.049013
0.0490113
0.0490113
0.0490125
0.049014
0.049015
0.0490148
0.0490122
0.0490102
0.0490139
0.0490259
0.0490372
0.0490407
0.049038
0.0490329
0.0490281
0.0490241
0.0490205
0.0490166
0.0490117
0.0490056
0.0489979
0.0489888
0.0489786
0.0489684
0.0489602
0.0489606
0.0489808
0.0490292
0.0490963
0.0491519
0.0491598
0.0491048
0.0490359
0.0490835
0.0491873
0.0491935
0.0492021
0.0492144
0.049226
0.0492333
0.0492359
0.0492355
0.0492336
0.049231
0.0492304
0.0492332
0.0492375
0.0492389
0.049231
0.0492097
0.0491779
0.0491456
0.0491218
0.0491088
0.0491035
0.0491004
0.0490947
0.049085
0.0490726
0.0490601
0.0490488
0.0490395
0.0490318
0.0490258
0.0490217
0.0490202
0.0490234
0.0490285
0.0490332
0.049037
0.0490398
0.0490424
0.0490452
0.0490487
0.0490534
0.0490597
0.0490684
0.0490802
0.0490945
0.049108
0.0491163
0.0490988
0.0489046
0.0487069
0.0486527
0.0487106
0.0488241
0.0489481
0.0490495
0.0491067
0.0491187
0.0491062
0.049088
0.0490708
0.0490561
0.0490438
0.0490335
0.049025
0.0490182
0.0490135
0.049011
0.049011
0.0490134
0.0490179
0.0490239
0.0490301
0.0490338
0.049035
0.0490387
0.0490449
0.0490499
0.0490503
0.0490466
0.0490414
0.0490366
0.0490327
0.0490293
0.0490256
0.049021
0.0490153
0.0490082
0.0489995
0.0489897
0.0489796
0.048971
0.0489677
0.0489804
0.0490224
0.0490921
0.0491613
0.0491863
0.0491384
0.0490544
0.0490783
0.0491851
0.0491908
0.049199
0.0492111
0.049223
0.0492308
0.0492341
0.0492343
0.0492321
0.0492286
0.0492274
0.0492306
0.0492365
0.0492405
0.0492351
0.0492143
0.0491807
0.0491459
0.0491203
0.0491069
0.049102
0.0490992
0.0490934
0.0490832
0.0490705
0.0490578
0.0490467
0.0490374
0.0490297
0.0490232
0.0490179
0.0490143
0.0490152
0.0490211
0.049027
0.0490319
0.0490358
0.049039
0.0490422
0.0490459
0.0490506
0.0490569
0.0490654
0.0490771
0.0490913