/*--------------------------------*- C++ -*----------------------------------*\
| =========                 |                                                 |
| \\      /  F ield         | OpenFOAM: The Open Source CFD Toolbox           |
|  \\    /   O peration     | Version:  4.1                                   |
|   \\  /    A nd           | Web:      www.OpenFOAM.org                      |
|    \\/     M anipulation  |                                                 |
\*---------------------------------------------------------------------------*/
FoamFile
{
    version     2.0;
    format      ascii;
    class       surfaceScalarField;
    location    "580";
    object      phi;
}
// * * * * * * * * * * * * * * * * * * * * * * * * * * * * * * * * * * * * * //

dimensions      [0 3 -1 0 0 0 0];

internalField   nonuniform List<scalar> 
9850
(
-2.16353e-06
2.16353e-06
-3.40959e-07
-1.82257e-06
1.0465e-06
-1.38746e-06
1.78346e-06
-7.36958e-07
2.26642e-06
-4.82961e-07
2.62065e-06
-3.54232e-07
2.90864e-06
-2.87987e-07
3.16609e-06
-2.57451e-07
3.42173e-06
-2.55639e-07
3.70507e-06
-2.83342e-07
4.05038e-06
-3.45311e-07
4.50568e-06
-4.55303e-07
5.13851e-06
-6.32824e-07
6.02744e-06
-8.88936e-07
7.24055e-06
-1.21311e-06
8.80664e-06
-1.56609e-06
1.06758e-05
-1.86913e-06
1.26627e-05
-1.98694e-06
1.44213e-05
-1.75856e-06
1.5594e-05
-1.17276e-06
1.60119e-05
-4.17838e-07
1.5541e-05
4.70882e-07
1.39085e-05
1.63249e-06
1.05531e-05
3.35539e-06
5.28597e-06
5.26713e-06
6.03487e-07
4.68248e-06
-1.06923e-06
1.67272e-06
-1.07087e-06
1.64121e-09
-3.87421e-07
-6.8345e-07
6.55249e-07
-1.04267e-06
1.70703e-06
-1.05179e-06
2.59233e-06
-8.85294e-07
3.23236e-06
-6.40037e-07
3.62844e-06
-3.96077e-07
3.84396e-06
-2.1552e-07
3.97173e-06
-1.27768e-07
4.09875e-06
-1.27023e-07
4.28405e-06
-1.85299e-07
4.54496e-06
-2.60912e-07
4.87036e-06
-3.25392e-07
5.23691e-06
-3.66554e-07
5.61709e-06
-3.80179e-07
5.98424e-06
-3.67155e-07
6.31747e-06
-3.3323e-07
6.60788e-06
-2.90406e-07
6.86556e-06
-2.57679e-07
7.11861e-06
-2.53052e-07
7.35248e-06
-2.33872e-07
7.19459e-06
1.57894e-07
5.45814e-06
1.73645e-06
2.22147e-07
5.236e-06
-4.15569e-06
4.37784e-06
-6.15484e-06
1.99915e-06
-7.30106e-06
1.14622e-06
-8.1527e-06
8.51638e-07
-8.89342e-06
7.40718e-07
-9.59286e-06
6.99445e-07
-1.02767e-05
6.83822e-07
-1.09517e-05
6.75029e-07
-1.16164e-05
6.64666e-07
-1.22656e-05
6.4926e-07
-1.28935e-05
6.27909e-07
-1.34946e-05
6.01035e-07
-1.40642e-05
5.6963e-07
-1.4599e-05
5.34772e-07
-1.50963e-05
4.97327e-07
-1.55541e-05
4.57802e-07
-1.59704e-05
4.16296e-07
-1.6343e-05
3.72546e-07
-1.6669e-05
3.26008e-07
-1.69449e-05
2.75973e-07
-1.71666e-05
2.21667e-07
-1.73289e-05
1.62318e-07
-1.7426e-05
9.70971e-08
-1.74504e-05
2.43674e-08
-1.73933e-05
-5.70407e-08
-1.72458e-05
-1.4758e-07
-1.69995e-05
-2.46235e-07
-1.66477e-05
-3.51813e-07
-1.61841e-05
-4.63608e-07
-1.56032e-05
-5.80923e-07
-1.49003e-05
-7.02881e-07
-1.4072e-05
-8.28291e-07
-1.31165e-05
-9.55498e-07
-1.20343e-05
-1.08221e-06
-1.0829e-05
-1.20528e-06
-9.50848e-06
-1.32054e-06
-8.08593e-06
-1.42255e-06
-6.58151e-06
-1.50442e-06
-5.0239e-06
-1.55762e-06
-3.45084e-06
-1.57305e-06
-1.90472e-06
-1.54612e-06
-4.19816e-07
-1.4849e-06
9.88042e-07
-1.40786e-06
2.16394e-06
-1.1759e-06
3.13782e-06
-9.73877e-07
3.94935e-06
-8.11529e-07
4.43789e-06
-4.88543e-07
3.63291e-06
8.04977e-07
3.63291e-06
-1.3792e-06
3.54273e-06
-8.3975e-07
-2.36202e-06
-2.80866e-07
-1.94634e-06
2.56384e-07
-1.27421e-06
6.38922e-07
-8.655e-07
9.50462e-07
-6.65772e-07
1.25176e-06
-5.89282e-07
1.57424e-06
-5.79929e-07
1.94514e-06
-6.26543e-07
2.38839e-06
-7.26589e-07
2.92151e-06
-8.78437e-07
3.5601e-06
-1.09389e-06
4.32716e-06
-1.39988e-06
5.26909e-06
-1.83086e-06
6.4436e-06
-2.38762e-06
7.89047e-06
-3.01295e-06
9.60203e-06
-3.58069e-06
1.14729e-05
-3.8578e-06
1.32092e-05
-3.49483e-06
1.43906e-05
-2.35418e-06
1.47701e-05
-7.97374e-07
1.41916e-05
1.04937e-06
1.25216e-05
3.30253e-06
9.70757e-06
6.16942e-06
6.19079e-06
8.7839e-06
2.62668e-06
8.2466e-06
8.95849e-08
4.20981e-06
-6.66007e-07
7.57233e-07
-3.51088e-07
-9.98369e-07
4.11733e-07
-1.80549e-06
1.31924e-06
-1.9593e-06
2.19725e-06
-1.7633e-06
2.98628e-06
-1.42907e-06
3.67263e-06
-1.08242e-06
4.25271e-06
-7.95597e-07
4.72708e-06
-6.02142e-07
5.10463e-06
-5.0457e-07
5.40294e-06
-4.83614e-07
5.65021e-06
-5.08175e-07
5.87305e-06
-5.48234e-07
6.0861e-06
-5.79605e-07
6.28992e-06
-5.83997e-07
6.4739e-06
-5.51141e-07
6.62257e-06
-4.81895e-07
6.72201e-06
-3.89847e-07
6.76187e-06
-2.9754e-07
6.71903e-06
-2.10211e-07
6.51531e-06
-3.01529e-08
5.78206e-06
8.91149e-07
3.25041e-06
4.26809e-06
-1.44006e-06
9.92647e-06
-4.81078e-06
7.74856e-06
-6.94604e-06
4.13441e-06
-8.43084e-06
2.63102e-06
-9.5883e-06
2.0091e-06
-1.05741e-05
1.72656e-06
-1.14633e-05
1.58862e-06
-1.22907e-05
1.51117e-06
-1.30705e-05
1.45484e-06
-1.38066e-05
1.40082e-06
-1.44981e-05
1.34074e-06
-1.51422e-05
1.27197e-06
-1.57361e-05
1.19498e-06
-1.62781e-05
1.1116e-06
-1.67672e-05
1.02394e-06
-1.72036e-05
9.33648e-07
-1.75873e-05
8.41559e-07
-1.79186e-05
7.47602e-07
-1.8197e-05
6.50906e-07
-1.8421e-05
5.50021e-07
-1.85882e-05
4.43203e-07
-1.86952e-05
3.28643e-07
-1.87375e-05
2.04597e-07
-1.87096e-05
6.92518e-08
-1.86065e-05
-7.88172e-08
-1.84236e-05
-2.3994e-07
-1.81567e-05
-4.14417e-07
-1.78004e-05
-6.02526e-07
-1.73486e-05
-8.03626e-07
-1.67954e-05
-1.01686e-06
-1.61352e-05
-1.24107e-06
-1.53634e-05
-1.4747e-06
-1.44761e-05
-1.71556e-06
-1.34711e-05
-1.96053e-06
-1.2348e-05
-2.20529e-06
-1.11095e-05
-2.44384e-06
-9.76188e-06
-2.66811e-06
-8.31699e-06
-2.86744e-06
-6.7932e-06
-3.02821e-06
-5.21714e-06
-3.13368e-06
-3.62474e-06
-3.16546e-06
-2.06352e-06
-3.10734e-06
-6.00218e-07
-2.9482e-06
6.56616e-07
-2.66469e-06
1.62988e-06
-2.14916e-06
2.33623e-06
-1.68023e-06
2.82834e-06
-1.30365e-06
3.07841e-06
-7.38611e-07
2.40807e-06
1.47532e-06
6.04098e-06
-8.58868e-07
4.4016e-06
-7.57154e-07
-2.46373e-06
-5.89454e-07
-2.11404e-06
-3.30948e-07
-1.53271e-06
-9.13345e-08
-1.10511e-06
1.37743e-07
-8.9485e-07
3.57579e-07
-8.09118e-07
5.89474e-07
-8.11824e-07
8.54026e-07
-8.91095e-07
1.17107e-06
-1.04363e-06
1.56494e-06
-1.27231e-06
2.06515e-06
-1.5941e-06
2.71013e-06
-2.04486e-06
3.55675e-06
-2.67748e-06
4.63317e-06
-3.46403e-06
5.93731e-06
-4.3171e-06
7.45603e-06
-5.09941e-06
9.15305e-06
-5.55483e-06
1.08399e-05
-5.18164e-06
1.20107e-05
-3.52499e-06
1.23561e-05
-1.14282e-06
1.18027e-05
1.60274e-06
1.03894e-05
4.71592e-06
8.23617e-06
8.32261e-06
5.96744e-06
1.10526e-05
4.09816e-06
1.01159e-05
2.23943e-06
6.06854e-06
1.09019e-06
1.90648e-06
9.68146e-07
-8.76327e-07
1.37988e-06
-2.21722e-06
1.97889e-06
-2.55831e-06
2.58596e-06
-2.37036e-06
3.12891e-06
-1.97202e-06
3.59045e-06
-1.54397e-06
3.97318e-06
-1.17832e-06
4.28501e-06
-9.13978e-07
4.53718e-06
-7.56741e-07
4.74532e-06
-6.91749e-07
4.92904e-06
-6.91897e-07
5.10522e-06
-7.24417e-07
5.28078e-06
-7.5516e-07
5.44946e-06
-7.52678e-07
5.59307e-06
-6.94757e-07
5.68599e-06
-5.74816e-07
5.69816e-06
-4.0201e-07
5.5827e-06
-1.82082e-07
5.27335e-06
9.91346e-08
4.6931e-06
5.50106e-07
3.67684e-06
1.9074e-06
7.31795e-07
7.21313e-06
-2.88794e-06
1.35462e-05
-5.08475e-06
9.94537e-06
-6.76556e-06
5.81522e-06
-8.15064e-06
4.0161e-06
-9.32635e-06
3.18481e-06
-1.0362e-05
2.76224e-06
-1.13014e-05
2.52796e-06
-1.21676e-05
2.37735e-06
-1.29707e-05
2.25801e-06
-1.37138e-05
2.14386e-06
-1.43964e-05
2.02339e-06
-1.50179e-05
1.89342e-06
-1.55781e-05
1.7552e-06
-1.60783e-05
1.61183e-06
-1.65209e-05
1.46652e-06
-1.69088e-05
1.32149e-06
-1.72447e-05
1.1775e-06
-1.75309e-05
1.03377e-06
-1.77682e-05
8.88261e-07
-1.79563e-05
7.3813e-07
-1.80934e-05
5.80226e-07
-1.81762e-05
4.11509e-07
-1.8201e-05
2.29369e-07
-1.81629e-05
3.11694e-08
-1.80585e-05
-1.83194e-07
-1.78821e-05
-4.16416e-07
-1.76275e-05
-6.68999e-07
-1.7289e-05
-9.41047e-07
-1.68605e-05
-1.23204e-06
-1.63364e-05
-1.541e-06
-1.5711e-05
-1.86646e-06
-1.49794e-05
-2.20634e-06
-1.41373e-05
-2.55764e-06
-1.31817e-05
-2.9161e-06
-1.21114e-05
-3.2756e-06
-1.09276e-05
-3.62765e-06
-9.63512e-06
-3.96059e-06
-8.24366e-06
-4.2589e-06
-6.76941e-06
-4.50246e-06
-5.23678e-06
-4.66631e-06
-3.68086e-06
-4.72137e-06
-2.15203e-06
-4.63618e-06
-7.23e-07
-4.37723e-06
5.08909e-07
-3.8966e-06
1.41079e-06
-3.05104e-06
1.92653e-06
-2.19597e-06
2.17514e-06
-1.55225e-06
2.16367e-06
-7.27143e-07
1.66779e-06
1.97121e-06
7.70877e-06
-6.27043e-07
5.02864e-06
-7.76525e-07
-2.31425e-06
-8.78273e-07
-2.01229e-06
-8.80204e-07
-1.53078e-06
-8.14942e-07
-1.17038e-06
-7.37121e-07
-9.72671e-07
-6.57675e-07
-8.88564e-07
-5.64134e-07
-9.05365e-07
-4.32152e-07
-1.02308e-06
-2.21831e-07
-1.25395e-06
1.06932e-07
-1.60107e-06
5.97567e-07
-2.08474e-06
1.26602e-06
-2.71332e-06
2.12917e-06
-3.54063e-06
3.14446e-06
-4.47932e-06
4.26477e-06
-5.43741e-06
5.47358e-06
-6.30823e-06
6.80503e-06
-6.88628e-06
8.2815e-06
-6.65811e-06
9.42728e-06
-4.67077e-06
9.69786e-06
-1.41339e-06
9.19261e-06
2.10799e-06
8.03589e-06
5.87264e-06
6.50347e-06
9.85503e-06
5.31764e-06
1.22385e-05
4.69851e-06
1.0735e-05
4.03942e-06
6.72763e-06
3.32658e-06
2.61932e-06
2.94674e-06
-4.96488e-07
2.93088e-06
-2.20136e-06
3.1186e-06
-2.74602e-06
3.36614e-06
-2.6179e-06
3.59956e-06
-2.20544e-06
3.79485e-06
-1.73925e-06
3.95122e-06
-1.3347e-06
4.07573e-06
-1.03848e-06
4.17819e-06
-8.59197e-07
4.27046e-06
-7.84026e-07
4.36529e-06
-7.86723e-07
4.47213e-06
-8.31253e-07
4.5915e-06
-8.74532e-07
4.71088e-06
-8.72064e-07
4.80475e-06
-7.88622e-07
4.83837e-06
-6.08434e-07
4.76784e-06
-3.3148e-07
4.53949e-06
4.62661e-08
4.10629e-06
5.32332e-07
3.38464e-06
1.27176e-06
2.11364e-06
3.1784e-06
-1.37113e-06
1.06979e-05
-3.90691e-06
1.6082e-05
-5.30579e-06
1.13443e-05
-6.52094e-06
7.03037e-06
-7.6828e-06
5.17795e-06
-8.76838e-06
4.27039e-06
-9.77797e-06
3.77182e-06
-1.07174e-05
3.46739e-06
-1.15899e-05
3.24982e-06
-1.23953e-05
3.06342e-06
-1.31319e-05
2.88051e-06
-1.37984e-05
2.68988e-06
-1.4395e-05
2.49001e-06
-1.49242e-05
2.28438e-06
-1.53904e-05
2.07807e-06
-1.57994e-05
1.87547e-06
-1.61569e-05
1.67898e-06
-1.64679e-05
1.48859e-06
-1.67362e-05
1.30199e-06
-1.69632e-05
1.11527e-06
-1.71487e-05
9.23614e-07
-1.72905e-05
7.22115e-07
-1.73853e-05
5.063e-07
-1.74285e-05
2.72522e-07
-1.74155e-05
1.81996e-08
-1.73408e-05
-2.57889e-07
-1.71989e-05
-5.58306e-07
-1.69836e-05
-8.84352e-07
-1.66887e-05
-1.23595e-06
-1.63083e-05
-1.61245e-06
-1.58366e-05
-2.0127e-06
-1.5268e-05
-2.43499e-06
-1.45975e-05
-2.87686e-06
-1.38204e-05
-3.33475e-06
-1.2933e-05
-3.80347e-06
-1.19331e-05
-4.27551e-06
-1.08206e-05
-4.74021e-06
-9.59837e-06
-5.18278e-06
-8.27405e-06
-5.58323e-06
-6.86112e-06
-5.91539e-06
-5.38119e-06
-6.14624e-06
-3.86676e-06
-6.2358e-06
-2.3652e-06
-6.13774e-06
-9.42534e-07
-5.7999e-06
3.21117e-07
-5.16025e-06
1.27096e-06
-4.00089e-06
1.72923e-06
-2.65424e-06
1.83804e-06
-1.66106e-06
1.76019e-06
-6.49299e-07
1.32634e-06
2.40507e-06
9.0351e-06
-4.97751e-07
5.52639e-06
-8.95611e-07
-1.91639e-06
-1.22999e-06
-1.67791e-06
-1.45927e-06
-1.3015e-06
-1.60672e-06
-1.02292e-06
-1.71437e-06
-8.6502e-07
-1.78112e-06
-8.21817e-07
-1.78222e-06
-9.04264e-07
-1.67691e-06
-1.12839e-06
-1.42629e-06
-1.50457e-06
-9.97533e-07
-2.02983e-06
-3.85345e-07
-2.69693e-06
3.91682e-07
-3.49035e-06
1.26446e-06
-4.41341e-06
2.17085e-06
-5.38571e-06
3.04803e-06
-6.31458e-06
3.86181e-06
-7.12201e-06
4.65739e-06
-7.68185e-06
5.6644e-06
-7.66512e-06
6.74674e-06
-5.75311e-06
6.85227e-06
-1.51892e-06
6.41311e-06
2.54715e-06
5.57563e-06
6.71011e-06
4.7837e-06
1.0647e-05
4.73057e-06
1.22916e-05
5.16596e-06
1.02996e-05
5.40463e-06
6.48896e-06
5.30993e-06
2.71402e-06
5.03394e-06
-2.20497e-07
4.77252e-06
-1.93994e-06
4.58776e-06
-2.56126e-06
4.46253e-06
-2.49268e-06
4.36776e-06
-2.11067e-06
4.28621e-06
-1.6577e-06
4.21216e-06
-1.26065e-06
4.14592e-06
-9.72241e-07
4.09082e-06
-8.04102e-07
4.0525e-06
-7.45704e-07
4.03785e-06
-7.72068e-07
4.05192e-06
-8.45325e-07
4.09245e-06
-9.15068e-07
4.14402e-06
-9.23625e-07
4.17613e-06
-8.20735e-07
4.14692e-06
-5.79221e-07
4.00549e-06
-1.90052e-07
3.70801e-06
3.43742e-07
3.22686e-06
1.01348e-06
2.50105e-06
1.99757e-06
5.83034e-07
5.09641e-06
-2.84502e-06
1.4126e-05
-4.52788e-06
1.77648e-05
-5.38688e-06
1.22033e-05
-6.27419e-06
7.91769e-06
-7.23597e-06
6.13973e-06
-8.21052e-06
5.24494e-06
-9.16288e-06
4.72419e-06
-1.00721e-05
4.37662e-06
-1.09241e-05
4.10181e-06
-1.17087e-05
3.84804e-06
-1.24195e-05
3.59131e-06
-1.30541e-05
3.32444e-06
-1.36142e-05
3.05012e-06
-1.41054e-05
2.77554e-06
-1.45357e-05
2.50837e-06
-1.49142e-05
2.25401e-06
-1.52495e-05
2.01427e-06
-1.55482e-05
1.78726e-06
-1.58143e-05
1.56809e-06
-1.6049e-05
1.35005e-06
-1.62512e-05
1.12578e-06
-1.64174e-05
8.88322e-07
-1.65429e-05
6.31792e-07
-1.66222e-05
3.51813e-07
-1.66494e-05
4.54152e-08
-1.66186e-05
-2.88717e-07
-1.65234e-05
-6.5347e-07
-1.63577e-05
-1.0501e-06
-1.61154e-05
-1.47826e-06
-1.57908e-05
-1.93703e-06
-1.53784e-05
-2.42506e-06
-1.48729e-05
-2.94046e-06
-1.42693e-05
-3.48054e-06
-1.35626e-05
-4.04138e-06
-1.27489e-05
-4.61717e-06
-1.18251e-05
-5.19934e-06
-1.07898e-05
-5.77549e-06
-9.64445e-06
-6.32816e-06
-8.39424e-06
-6.83343e-06
-7.05006e-06
-7.25957e-06
-5.63046e-06
-7.56585e-06
-4.16437e-06
-7.70189e-06
-2.69435e-06
-7.60776e-06
-1.27891e-06
-7.21534e-06
1.11001e-08
-6.45026e-06
1.07888e-06
-5.06866e-06
1.5949e-06
-3.17026e-06
1.63802e-06
-1.70418e-06
1.50985e-06
-5.21122e-07
1.11017e-06
2.80474e-06
1.01453e-05
-4.49018e-07
5.97541e-06
-1.0861e-06
-1.27931e-06
-1.62471e-06
-1.1393e-06
-2.04575e-06
-8.80463e-07
-2.35894e-06
-7.0973e-07
-2.57121e-06
-6.52757e-07
-2.6668e-06
-7.26222e-07
-2.6211e-06
-9.49965e-07
-2.41316e-06
-1.33633e-06
-2.03356e-06
-1.88417e-06
-1.48541e-06
-2.57798e-06
-7.92191e-07
-3.39015e-06
1.11293e-09
-4.28365e-06
8.20467e-07
-5.23277e-06
1.60369e-06
-6.16894e-06
2.26277e-06
-6.97365e-06
2.71784e-06
-7.57709e-06
2.96512e-06
-7.92913e-06
3.23409e-06
-7.93408e-06
4.12316e-06
-6.64218e-06
4.08667e-06
-1.48243e-06
3.77967e-06
2.85415e-06
3.43148e-06
7.0583e-06
3.58664e-06
1.04918e-05
4.62807e-06
1.12502e-05
5.89529e-06
9.0324e-06
6.76165e-06
5.6226e-06
7.10261e-06
2.37306e-06
6.98158e-06
-9.94716e-08
6.5998e-06
-1.55816e-06
6.13889e-06
-2.10035e-06
5.69437e-06
-2.04816e-06
5.29965e-06
-1.71595e-06
4.95895e-06
-1.317e-06
4.66723e-06
-9.68934e-07
4.41848e-06
-7.23494e-07
4.20817e-06
-5.93784e-07
4.03466e-06
-5.722e-07
3.89937e-06
-6.36782e-07
3.8049e-06
-7.50853e-07
3.74961e-06
-8.59772e-07
3.7191e-06
-8.93115e-07
3.68076e-06
-7.824e-07
3.58611e-06
-4.84575e-07
3.3801e-06
1.59613e-08
3.03141e-06
6.92436e-07
2.51386e-06
1.53103e-06
1.803e-06
2.70843e-06
-8.51157e-07
7.75057e-06
-3.70809e-06
1.69829e-05
-4.82511e-06
1.88819e-05
-5.33403e-06
1.27122e-05
-6.00994e-06
8.59359e-06
-6.82511e-06
6.9549e-06
-7.70057e-06
6.1204e-06
-8.58606e-06
5.60967e-06
-9.4465e-06
5.23707e-06
-1.02571e-05
4.91239e-06
-1.1001e-05
4.59195e-06
-1.16688e-05
4.25915e-06
-1.22583e-05
3.91391e-06
-1.27734e-05
3.56526e-06
-1.32232e-05
3.22531e-06
-1.36193e-05
2.90449e-06
-1.39739e-05
2.60855e-06
-1.42971e-05
2.33753e-06
-1.45962e-05
2.0863e-06
-1.48743e-05
1.8462e-06
-1.51311e-05
1.60687e-06
-1.53634e-05
1.35805e-06
-1.55658e-05
1.09074e-06
-1.57319e-05
7.97899e-07
-1.58548e-05
4.74688e-07
-1.59276e-05
1.18225e-07
-1.59433e-05
-2.72962e-07
-1.58961e-05
-7.00672e-07
-1.578e-05
-1.16627e-06
-1.55893e-05
-1.66891e-06
-1.5319e-05
-2.20734e-06
-1.49641e-05
-2.77998e-06
-1.45197e-05
-3.38483e-06
-1.39811e-05
-4.01912e-06
-1.33437e-05
-4.67879e-06
-1.26032e-05
-5.35772e-06
-1.17559e-05
-6.04666e-06
-1.07994e-05
-6.73196e-06
-9.73353e-06
-7.39404e-06
-8.56132e-06
-8.00564e-06
-7.29086e-06
-8.53003e-06
-5.93737e-06
-8.91935e-06
-4.5258e-06
-9.11346e-06
-3.09357e-06
-9.03998e-06
-1.69254e-06
-8.61637e-06
-3.91993e-07
-7.75081e-06
7.8046e-07
-6.24112e-06
1.4395e-06
-3.8293e-06
1.48031e-06
-1.74499e-06
1.30553e-06
-3.4634e-07
9.48037e-07
3.16223e-06
1.10933e-05
-4.52493e-07
6.4279e-06
-1.27572e-06
-4.56079e-07
-1.93462e-06
-4.80402e-07
-2.43122e-06
-3.83864e-07
-2.772e-06
-3.6895e-07
-2.96546e-06
-4.59302e-07
-3.01313e-06
-6.7855e-07
-2.9085e-06
-1.0546e-06
-2.64142e-06
-1.60341e-06
-2.20773e-06
-2.31785e-06
-1.62069e-06
-3.16502e-06
-9.16229e-07
-4.09461e-06
-1.48367e-07
-5.05151e-06
6.08776e-07
-5.98991e-06
1.28549e-06
-6.84565e-06
1.79741e-06
-7.48557e-06
2.03472e-06
-7.8144e-06
1.91187e-06
-7.80628e-06
1.51718e-06
-7.5394e-06
1.5482e-06
-6.6732e-06
1.88611e-06
-1.82033e-06
1.85567e-06
2.88459e-06
2.20273e-06
6.71124e-06
3.3768e-06
9.31773e-06
5.26711e-06
9.35984e-06
7.05589e-06
7.24361e-06
8.26414e-06
4.41435e-06
8.78853e-06
1.84867e-06
8.70119e-06
-1.21392e-08
8.21288e-06
-1.06984e-06
7.55412e-06
-1.44159e-06
6.87772e-06
-1.37176e-06
6.25617e-06
-1.0944e-06
5.71051e-06
-7.7134e-07
5.23813e-06
-4.96555e-07
4.82973e-06
-3.15087e-07
4.47602e-06
-2.40074e-07
4.17067e-06
-2.66849e-07
3.91108e-06
-3.77198e-07
3.69886e-06
-5.38634e-07
3.53552e-06
-6.96432e-07
3.41154e-06
-7.69129e-07
3.29587e-06
-6.66734e-07
3.13331e-06
-3.22015e-07
2.86879e-06
2.80485e-07
2.46778e-06
1.09344e-06
1.89064e-06
2.10817e-06
1.03665e-06
3.56242e-06
-1.9287e-06
1.07159e-05
-4.16937e-06
1.92236e-05
-4.89421e-06
1.96067e-05
-5.18864e-06
1.30066e-05
-5.73025e-06
9.1352e-06
-6.4404e-06
7.66505e-06
-7.23287e-06
6.91287e-06
-8.05118e-06
6.42799e-06
-8.85405e-06
6.03993e-06
-9.61144e-06
5.66978e-06
-1.03033e-05
5.28378e-06
-1.09192e-05
4.87509e-06
-1.14582e-05
4.45293e-06
-1.19272e-05
4.03422e-06
-1.23385e-05
3.6366e-06
-1.27069e-05
3.27294e-06
-1.30466e-05
2.94826e-06
-1.33684e-05
2.65934e-06
-1.36786e-05
2.39641e-06
-1.39783e-05
2.14594e-06
-1.42649e-05
1.8935e-06
-1.45328e-05
1.62588e-06
-1.47744e-05
1.33239e-06
-1.49818e-05
1.0053e-06
-1.51469e-05
6.39748e-07
-1.52619e-05
2.33244e-07
-1.53197e-05
-2.15115e-07
-1.5315e-05
-7.0546e-07
-1.52422e-05
-1.23903e-06
-1.50967e-05
-1.81442e-06
-1.48741e-05
-2.42995e-06
-1.45702e-05
-3.08383e-06
-1.41811e-05
-3.774e-06
-1.37024e-05
-4.49778e-06
-1.313e-05
-5.25118e-06
-1.24596e-05
-6.0281e-06
-1.16873e-05
-6.81903e-06
-1.08096e-05
-7.60963e-06
-9.82475e-06
-8.37887e-06
-8.73352e-06
-9.09686e-06
-7.54093e-06
-9.72262e-06
-6.25847e-06
-1.02018e-05
-4.90679e-06
-1.04651e-05
-3.51858e-06
-1.04282e-05
-2.1418e-06
-9.99315e-06
-8.41022e-07
-9.05159e-06
3.80274e-07
-7.46241e-06
1.23976e-06
-4.68879e-06
1.32405e-06
-1.82928e-06
1.12399e-06
-1.46285e-07
8.24815e-07
3.4614e-06
1.19181e-05
-4.64275e-07
6.89218e-06
-1.36467e-06
4.44316e-07
-2.02535e-06
1.80276e-07
-2.5006e-06
9.13844e-08
-2.82575e-06
-4.38009e-08
-3.01581e-06
-2.69237e-07
-3.06808e-06
-6.26284e-07
-2.96129e-06
-1.16138e-06
-2.67829e-06
-1.88641e-06
-2.22382e-06
-2.77232e-06
-1.62919e-06
-3.75965e-06
-9.43645e-07
-4.78016e-06
-2.23615e-07
-5.77154e-06
4.66216e-07
-6.67974e-06
1.06725e-06
-7.44669e-06
1.50587e-06
-7.92419e-06
1.67599e-06
-7.98452e-06
1.47744e-06
-7.60773e-06
8.17458e-07
-6.87941e-06
-1.69755e-07
-5.68599e-06
4.44217e-07
-2.43431e-06
1.12962e-06
2.19919e-06
2.29353e-06
5.54733e-06
4.26627e-06
7.34499e-06
6.58686e-06
7.03926e-06
8.52442e-06
5.30605e-06
9.74005e-06
3.19872e-06
1.01892e-05
1.39956e-06
9.99963e-06
1.77392e-07
9.40467e-06
-4.7488e-07
8.63521e-06
-6.72137e-07
7.84421e-06
-5.80765e-07
7.10741e-06
-3.576e-07
6.44854e-06
-1.12463e-07
5.86579e-06
8.61957e-08
5.34064e-06
2.10059e-07
4.86148e-06
2.39089e-07
4.42586e-06
1.68767e-07
4.03794e-06
1.07247e-08
3.7035e-06
-2.042e-07
3.42535e-06
-4.1828e-07
3.20001e-06
-5.43787e-07
3.00084e-06
-4.67564e-07
2.76772e-06
-8.88957e-08
2.4503e-06
5.97906e-07
2.00995e-06
1.53379e-06
1.40886e-06
2.70926e-06
2.40253e-07
4.73103e-06
-2.571e-06
1.35272e-05
-4.35486e-06
2.10074e-05
-4.8137e-06
2.00655e-05
-4.98551e-06
1.31784e-05
-5.44125e-06
9.59094e-06
-6.07322e-06
8.29702e-06
-6.79541e-06
7.63506e-06
-7.54999e-06
7.18257e-06
-8.29364e-06
6.78358e-06
-8.9944e-06
6.37055e-06
-9.63125e-06
5.92063e-06
-1.01943e-05
5.43816e-06
-1.06845e-05
4.94314e-06
-1.11117e-05
4.46136e-06
-1.14912e-05
4.0161e-06
-1.18402e-05
3.62196e-06
-1.21738e-05
3.28183e-06
-1.25021e-05
2.98768e-06
-1.28295e-05
2.72382e-06
-1.31548e-05
2.47121e-06
-1.34725e-05
2.21123e-06
-1.37747e-05
1.92807e-06
-1.40521e-05
1.60983e-06
-1.42955e-05
1.24864e-06
-1.44958e-05
8.40085e-07
-1.46451e-05
3.82528e-07
-1.47364e-05
-1.23796e-07
-1.4765e-05
-6.7686e-07
-1.47266e-05
-1.2775e-06
-1.46172e-05
-1.92379e-06
-1.44335e-05
-2.61359e-06
-1.41725e-05
-3.34488e-06
-1.38309e-05
-4.11558e-06
-1.34055e-05
-4.92318e-06
-1.28927e-05
-5.76401e-06
-1.22885e-05
-6.63227e-06
-1.15888e-05
-7.51874e-06
-1.07894e-05
-8.409e-06
-9.88695e-06
-9.28134e-06
-8.87963e-06
-1.01042e-05
-7.76909e-06
-1.08332e-05
-6.56257e-06
-1.14083e-05
-5.27579e-06
-1.17519e-05
-3.93645e-06
-1.17675e-05
-2.58763e-06
-1.1342e-05
-1.28718e-06
-1.0352e-05
-7.47528e-08
-8.67484e-06
9.92139e-07
-5.75568e-06
1.15733e-06
-1.99446e-06
9.3722e-07
7.38215e-08
7.24884e-07
3.67374e-06
1.2643e-05
-4.64798e-07
7.35697e-06
-1.30909e-06
1.28861e-06
-1.93898e-06
8.1016e-07
-2.41537e-06
5.67776e-07
-2.76572e-06
3.06549e-07
-2.98694e-06
-4.80128e-08
-3.05292e-06
-5.6031e-07
-2.94006e-06
-1.27424e-06
-2.6404e-06
-2.18607e-06
-2.17875e-06
-3.23397e-06
-1.60141e-06
-4.33699e-06
-9.59211e-07
-5.42236e-06
-2.99691e-07
-6.43106e-06
3.27682e-07
-7.30712e-06
8.65703e-07
-7.98471e-06
1.26437e-06
-8.32286e-06
1.45522e-06
-8.17537e-06
1.38055e-06
-7.53306e-06
9.72369e-07
-6.47123e-06
2.71239e-07
-4.98486e-06
4.18449e-07
-2.58152e-06
1.62441e-06
9.93239e-07
3.43096e-06
3.74077e-06
5.75692e-06
5.01903e-06
8.03067e-06
4.7655e-06
9.72243e-06
3.61429e-06
1.06444e-05
2.27672e-06
1.08615e-05
1.18251e-06
1.05606e-05
4.78299e-07
9.95093e-06
1.34763e-07
9.21351e-06
6.52851e-08
8.46299e-06
1.69752e-07
7.74919e-06
3.56202e-07
7.08428e-06
5.52453e-07
6.46319e-06
7.07285e-07
5.87932e-06
7.93926e-07
5.32223e-06
7.96184e-07
4.78509e-06
7.05901e-07
4.27339e-06
5.22426e-07
3.80534e-06
2.63852e-07
3.4017e-06
-1.46391e-08
3.06788e-06
-2.09965e-07
2.7761e-06
-1.75787e-07
2.47372e-06
2.13485e-07
2.10866e-06
9.62961e-07
1.64027e-06
2.00219e-06
1.05097e-06
3.29856e-06
-4.09196e-07
6.1912e-06
-2.86303e-06
1.5981e-05
-4.32732e-06
2.24717e-05
-4.62888e-06
2.03671e-05
-4.74335e-06
1.32929e-05
-5.14442e-06
9.99201e-06
-5.71604e-06
8.86864e-06
-6.37805e-06
8.29707e-06
-7.07442e-06
7.87895e-06
-7.76213e-06
7.47128e-06
-8.40905e-06
7.01747e-06
-8.99441e-06
6.50599e-06
-9.50945e-06
5.9532e-06
-9.95714e-06
5.39083e-06
-1.03499e-05
4.85412e-06
-1.07056e-05
4.37179e-06
-1.10427e-05
3.9591e-06
-1.13763e-05
3.6154e-06
-1.17151e-05
3.32643e-06
-1.2061e-05
3.06972e-06
-1.24102e-05
2.82044e-06
-1.2755e-05
2.556e-06
-1.30854e-05
2.25847e-06
-1.33909e-05
1.91534e-06
-1.36613e-05
1.5191e-06
-1.38876e-05
1.06633e-06
-1.40616e-05
5.56574e-07
-1.41767e-05
-8.73862e-09
-1.42284e-05
-6.25091e-07
-1.42144e-05
-1.29152e-06
-1.41315e-05
-2.00671e-06
-1.39774e-05
-2.7677e-06
-1.37502e-05
-3.57211e-06
-1.34479e-05
-4.41784e-06
-1.30685e-05
-5.30263e-06
-1.26092e-05
-6.22329e-06
-1.20667e-05
-7.17471e-06
-1.1437e-05
-8.14844e-06
-1.07153e-05
-9.13073e-06
-9.89651e-06
-1.01001e-05
-8.97625e-06
-1.10244e-05
-7.95234e-06
-1.18571e-05
-6.82719e-06
-1.25335e-05
-5.61096e-06
-1.29681e-05
-4.32537e-06
-1.30531e-05
-3.00702e-06
-1.26603e-05
-1.7094e-06
-1.16497e-05
-5.13731e-07
-9.87051e-06
6.74547e-07
-6.94396e-06
9.86172e-07
-2.30609e-06
7.77054e-07
2.8294e-07
6.42741e-07
3.80805e-06
1.32858e-05
-4.48689e-07
7.80566e-06
-1.17959e-06
2.01951e-06
-1.78901e-06
1.41958e-06
-2.2926e-06
1.07136e-06
-2.68744e-06
7.01392e-07
-2.93829e-06
2.0284e-07
-3.00593e-06
-4.92669e-07
-2.87819e-06
-1.40199e-06
-2.57078e-06
-2.49347e-06
-2.12544e-06
-3.67931e-06
-1.5911e-06
-4.87133e-06
-1.00996e-06
-6.0035e-06
-4.18669e-07
-7.02235e-06
1.42487e-07
-7.86827e-06
6.33265e-07
-8.47549e-06
1.01345e-06
-8.70305e-06
1.24989e-06
-8.4118e-06
1.33268e-06
-7.61586e-06
1.26826e-06
-6.40682e-06
1.10736e-06
-4.82395e-06
1.31345e-06
-2.78761e-06
2.68404e-06
-3.77349e-07
4.64484e-06
1.77997e-06
6.81128e-06
2.85259e-06
8.67974e-06
2.89704e-06
9.93414e-06
2.35989e-06
1.05314e-05
1.67945e-06
1.05979e-05
1.11604e-06
1.03106e-05
7.65562e-07
9.82029e-06
6.25081e-07
9.23542e-06
6.5015e-07
8.62289e-06
7.82283e-07
8.01585e-06
9.63242e-07
7.42469e-06
1.14362e-06
6.84586e-06
1.28611e-06
6.27358e-06
1.36621e-06
5.70175e-06
1.36801e-06
5.12644e-06
1.28122e-06
4.54831e-06
1.10055e-06
3.98026e-06
8.31904e-07
3.45455e-06
5.11068e-07
2.99932e-06
2.45271e-07
2.60885e-06
2.14682e-07
2.24012e-06
5.82212e-07
1.82849e-06
1.37459e-06
1.32826e-06
2.50242e-06
7.19824e-07
3.90699e-06
-8.73913e-07
7.78493e-06
-2.91427e-06
1.80214e-05
-4.14698e-06
2.37044e-05
-4.3713e-06
2.05914e-05
-4.47194e-06
1.33935e-05
-4.83845e-06
1.03585e-05
-5.36233e-06
9.39252e-06
-5.97292e-06
8.90766e-06
-6.618e-06
8.52403e-06
-7.25616e-06
8.10944e-06
-7.85597e-06
7.61728e-06
-8.3973e-06
7.04732e-06
-8.87255e-06
6.42846e-06
-9.28642e-06
5.8047e-06
-9.65332e-06
5.22102e-06
-9.9927e-06
4.71117e-06
-1.03236e-05
4.29e-06
-1.06602e-05
3.95198e-06
-1.10094e-05
3.67564e-06
-1.13709e-05
3.43121e-06
-1.17386e-05
3.18819e-06
-1.2103e-05
2.9204e-06
-1.24528e-05
2.60827e-06
-1.27766e-05
2.23914e-06
-1.30638e-05
1.8063e-06
-1.33052e-05
1.3077e-06
-1.34933e-05
7.44711e-07
-1.36231e-05
1.21003e-07
-1.36896e-05
-5.58626e-07
-1.36905e-05
-1.29062e-06
-1.36243e-05
-2.07289e-06
-1.34901e-05
-2.90185e-06
-1.32875e-05
-3.77473e-06
-1.3016e-05
-4.68936e-06
-1.26748e-05
-5.64379e-06
-1.22626e-05
-6.63549e-06
-1.1777e-05
-7.66036e-06
-1.12142e-05
-8.71125e-06
-1.0569e-05
-9.7759e-06
-9.83495e-06
-1.08342e-05
-9.00491e-06
-1.18545e-05
-8.07256e-06
-1.27894e-05
-7.03489e-06
-1.35711e-05
-5.89568e-06
-1.41074e-05
-4.66976e-06
-1.4279e-05
-3.3876e-06
-1.39425e-05
-2.10156e-06
-1.29357e-05
-8.90528e-07
-1.10815e-05
3.10604e-07
-8.14509e-06
8.64101e-07
-2.85959e-06
7.363e-07
4.10741e-07
5.85957e-07
3.9584e-06
1.38717e-05
-4.34075e-07
8.23974e-06
-1.10332e-06
2.68876e-06
-1.70074e-06
2.017e-06
-2.21931e-06
1.58993e-06
-2.62833e-06
1.11041e-06
-2.87969e-06
4.542e-07
-2.93733e-06
-4.35027e-07
-2.80194e-06
-1.53737e-06
-2.50814e-06
-2.78728e-06
-2.10368e-06
-4.08377e-06
-1.63011e-06
-5.3449e-06
-1.11759e-06
-6.51602e-06
-5.93099e-07
-7.54684e-06
-8.80725e-08
-8.3733e-06
3.53656e-07
-8.91722e-06
7.15882e-07
-9.06527e-06
9.95391e-07
-8.69131e-06
1.20456e-06
-7.82502e-06
1.38107e-06
-6.58334e-06
1.61864e-06
-5.06152e-06
2.15473e-06
-3.3237e-06
3.30589e-06
-1.52851e-06
5.00525e-06
8.06203e-08
6.75984e-06
1.098e-06
8.20114e-06
1.45573e-06
9.1624e-06
1.39864e-06
9.65425e-06
1.18761e-06
9.77528e-06
9.95013e-07
9.64072e-06
9.0012e-07
9.34534e-06
9.20463e-07
8.95637e-06
1.03912e-06
8.51605e-06
1.2226e-06
8.04699e-06
1.4323e-06
7.55826e-06
1.63235e-06
7.05083e-06
1.79353e-06
6.52253e-06
1.89451e-06
5.97031e-06
1.92022e-06
5.39198e-06
1.85955e-06
4.78832e-06
1.70421e-06
4.16793e-06
1.45229e-06
3.55476e-06
1.12424e-06
2.98908e-06
8.10949e-07
2.49926e-06
7.04501e-07
2.06069e-06
1.02078e-06
1.60157e-06
1.83372e-06
1.06488e-06
3.0391e-06
4.14305e-07
4.55757e-06
-1.06144e-06
9.26068e-06
-2.77033e-06
1.97302e-05
-3.85483e-06
2.47889e-05
-4.06396e-06
2.08005e-05
-4.17812e-06
1.35077e-05
-4.52228e-06
1.07027e-05
-5.00732e-06
9.87757e-06
-5.57415e-06
9.47449e-06
-6.17542e-06
9.1253e-06
-6.77203e-06
8.70605e-06
-7.33353e-06
8.17878e-06
-7.84035e-06
7.55414e-06
-8.28565e-06
6.87376e-06
-8.67518e-06
6.19422e-06
-9.02449e-06
5.57033e-06
-9.35373e-06
5.04041e-06
-9.68171e-06
4.61798e-06
-1.00214e-05
4.29168e-06
-1.0378e-05
4.03223e-06
-1.07494e-05
3.80259e-06
-1.1128e-05
3.5668e-06
-1.15031e-05
3.29552e-06
-1.18628e-05
2.96796e-06
-1.21953e-05
2.57159e-06
-1.24898e-05
2.10084e-06
-1.27374e-05
1.55535e-06
-1.29311e-05
9.38372e-07
-1.30655e-05
2.55435e-07
-1.31367e-05
-4.87452e-07
-1.3143e-05
-1.28437e-06
-1.3084e-05
-2.13183e-06
-1.29605e-05
-3.0254e-06
-1.27734e-05
-3.96178e-06
-1.25241e-05
-4.9387e-06
-1.22134e-05
-5.95451e-06
-1.18414e-05
-7.00746e-06
-1.1407e-05
-8.09474e-06
-1.09072e-05
-9.21102e-06
-1.03368e-05
-1.03463e-05
-9.68804e-06
-1.1483e-05
-8.95106e-06
-1.25915e-05
-8.11526e-06
-1.36252e-05
-7.17171e-06
-1.45147e-05
-6.11698e-06
-1.51621e-05
-4.9581e-06
-1.54379e-05
-3.71865e-06
-1.51819e-05
-2.44598e-06
-1.42084e-05
-1.21062e-06
-1.23169e-05
-5.00584e-08
-9.30565e-06
8.38571e-07
-3.74821e-06
8.03689e-07
4.45622e-07
5.5739e-07
4.20469e-06
1.44291e-05
-4.21635e-07
8.66137e-06
-1.06092e-06
3.32805e-06
-1.65124e-06
2.60732e-06
-2.17161e-06
2.1103e-06
-2.57632e-06
1.51512e-06
-2.81592e-06
6.93795e-07
-2.86582e-06
-3.85124e-07
-2.73997e-06
-1.66322e-06
-2.48142e-06
-3.04583e-06
-2.13478e-06
-4.43042e-06
-1.73019e-06
-5.7495e-06
-1.28763e-06
-6.95858e-06
-8.28697e-07
-8.00577e-06
-3.82765e-07
-8.81923e-06
1.48886e-08
-9.31487e-06
3.59039e-07
-9.40942e-06
6.63492e-07
-8.99576e-06
9.52571e-07
-8.1141e-06
1.26595e-06
-6.89671e-06
1.68119e-06
-5.47676e-06
2.32217e-06
-3.96469e-06
3.28294e-06
-2.48928e-06
4.57351e-06
-1.20995e-06
5.93992e-06
-2.684e-07
7.12086e-06
2.74783e-07
7.9817e-06
5.37805e-07
8.51489e-06
6.54412e-07
8.77363e-06
7.36271e-07
8.82351e-06
8.50242e-07
8.72341e-06
1.02057e-06
8.51862e-06
1.24391e-06
8.24015e-06
1.50107e-06
7.90636e-06
1.7661e-06
7.52618e-06
2.01253e-06
7.10251e-06
2.21721e-06
6.63528e-06
2.36175e-06
6.12347e-06
2.43203e-06
5.56632e-06
2.4167e-06
4.96458e-06
2.30595e-06
4.32391e-06
2.09296e-06
3.66166e-06
1.78649e-06
3.0182e-06
1.45442e-06
2.44242e-06
1.28027e-06
1.93407e-06
1.52914e-06
1.42862e-06
2.33916e-06
8.59438e-07
3.60829e-06
1.75994e-07
5.24101e-06
-1.0384e-06
1.04751e-05
-2.46055e-06
2.11524e-05
-3.47351e-06
2.58019e-05
-3.71988e-06
2.10469e-05
-3.86607e-06
1.36539e-05
-4.19549e-06
1.10321e-05
-4.64797e-06
1.033e-05
-5.17741e-06
1.00039e-05
-5.74206e-06
9.68995e-06
-6.3054e-06
9.26938e-06
-6.83803e-06
8.7114e-06
-7.3205e-06
8.03662e-06
-7.74602e-06
7.29927e-06
-8.12046e-06
6.56867e-06
-8.45951e-06
5.90938e-06
-8.78308e-06
5.36399e-06
-9.10925e-06
4.94414e-06
-9.44978e-06
4.63221e-06
-9.80861e-06
4.39107e-06
-1.01826e-05
4.17662e-06
-1.05637e-05
3.94783e-06
-1.09406e-05
3.67245e-06
-1.13012e-05
3.32858e-06
-1.16336e-05
2.904e-06
-1.19271e-05
2.3943e-06
-1.21726e-05
1.80086e-06
-1.23631e-05
1.12889e-06
-1.24935e-05
3.85815e-07
-1.25606e-05
-4.20337e-07
-1.25635e-05
-1.28147e-06
-1.25032e-05
-2.19215e-06