/*--------------------------------*- C++ -*----------------------------------*\
| =========                 |                                                 |
| \\      /  F ield         | OpenFOAM: The Open Source CFD Toolbox           |
|  \\    /   O peration     | Version:  4.1                                   |
|   \\  /    A nd           | Web:      www.OpenFOAM.org                      |
|    \\/     M anipulation  |                                                 |
\*---------------------------------------------------------------------------*/
FoamFile
{
    version     2.0;
    format      ascii;
    class       volVectorField;
    location    "840";
    object      U;
}
// * * * * * * * * * * * * * * * * * * * * * * * * * * * * * * * * * * * * * //

dimensions      [0 1 -1 0 0 0 0];

internalField   nonuniform List<vector> 
5000
(
(-0.00383136 0.00232318 0)
(-0.00418618 0.000112337 0)
(-0.00400114 -0.000228089 0)
(-0.00385485 7.33217e-05 0)
(-0.00403839 0.000149496 0)
(-0.00426713 9.75334e-05 0)
(-0.00439427 2.36514e-05 0)
(-0.0044096 -3.53415e-05 0)
(-0.00433608 -7.78281e-05 0)
(-0.0041916 -0.000114993 0)
(-0.00397196 -0.000154477 0)
(-0.00367062 -0.000197396 0)
(-0.00328343 -0.000242644 0)
(-0.00280898 -0.000287746 0)
(-0.00224954 -0.000329199 0)
(-0.00162074 -0.000362548 0)
(-0.000975938 -0.000388814 0)
(-0.000356375 -0.000489072 0)
(0.000964798 -0.000920052 0)
(0.00206649 -0.000786752 0)
(0.00320066 -0.000714862 0)
(0.00432223 -0.000679934 0)
(0.00543407 -0.000658373 0)
(0.0065408 -0.000639927 0)
(0.00763816 -0.000620097 0)
(0.00871641 -0.000596711 0)
(0.0097643 -0.000568905 0)
(0.010771 -0.000536702 0)
(0.011727 -0.000500703 0)
(0.0126245 -0.000461823 0)
(0.013458 -0.000421058 0)
(0.0142238 -0.000379308 0)
(0.0149198 -0.000337233 0)
(0.0155448 -0.000295185 0)
(0.0160984 -0.000253194 0)
(0.0165799 -0.000211025 0)
(0.0169879 -0.00016828 0)
(0.0173204 -0.000124535 0)
(0.0175747 -7.94851e-05 0)
(0.0177477 -3.3134e-05 0)
(0.0178363 1.38619e-05 0)
(0.0178396 5.9927e-05 0)
(0.0177596 0.000104299 0)
(0.0175957 0.000147288 0)
(0.0173487 0.000189031 0)
(0.0170199 0.000229439 0)
(0.0166112 0.000268201 0)
(0.0161259 0.000304911 0)
(0.0155679 0.000339128 0)
(0.0149422 0.000370474 0)
(0.0142545 0.000398766 0)
(0.0135101 0.00042429 0)
(0.0127131 0.000448437 0)
(0.0118626 0.000475589 0)
(0.0109453 0.000520482 0)
(0.00990905 0.000639928 0)
(0.00858948 0.0010366 0)
(0.00665398 0.00213436 0)
(0.00196071 0.00285091 0)
(-0.00287236 0.000600073 0)
(-0.00333625 -0.000412968 0)
(-0.00297575 -0.000735092 0)
(-0.00188843 -0.00109796 0)
(-0.000710282 -0.00091365 0)
(4.42494e-05 -0.000587333 0)
(0.000276684 0.00016692 0)
(-0.00268611 0.00257506 0)
(-0.00907694 0.00317855 0)
(-0.0129589 0.00196233 0)
(-0.0152937 0.00116391 0)
(-0.0169287 0.000760104 0)
(-0.0180583 0.00050777 0)
(-0.0187888 0.000314517 0)
(-0.0191783 0.000148448 0)
(-0.0192609 -3.39308e-06 0)
(-0.0190649 -0.000145653 0)
(-0.0186311 -0.000269426 0)
(-0.0180063 -0.000365739 0)
(-0.0172452 -0.000431342 0)
(-0.0164056 -0.000466692 0)
(-0.015543 -0.00047496 0)
(-0.0147049 -0.000461473 0)
(-0.0139277 -0.000432999 0)
(-0.0132342 -0.000396848 0)
(-0.0126336 -0.000359994 0)
(-0.0121235 -0.000328521 0)
(-0.0116915 -0.000307664 0)
(-0.0113176 -0.000302405 0)
(-0.0109737 -0.000318488 0)
(-0.0106196 -0.000363742 0)
(-0.0101959 -0.00044891 0)
(-0.00961985 -0.000585942 0)
(-0.00879622 -0.000781723 0)
(-0.00764019 -0.00103251 0)
(-0.00610255 -0.00133332 0)
(-0.00420416 -0.00171671 0)
(-0.00210614 -0.00224387 0)
(0.0012621 -0.00296843 0)
(0.00325832 -0.00116565 0)
(0.00343722 0.00128972 0)
(-0.00325787 0.00518882 0)
(-0.00333562 0.000472362 0)
(-0.0035545 -0.000497194 0)
(-0.00351415 2.10144e-05 0)
(-0.00346024 0.000264943 0)
(-0.00347913 0.000218884 0)
(-0.00351429 8.25775e-05 0)
(-0.00353356 -3.83475e-05 0)
(-0.00352544 -0.000126824 0)
(-0.00346341 -0.000225773 0)
(-0.00332366 -0.000344488 0)
(-0.00308839 -0.000476108 0)
(-0.00275002 -0.000613672 0)
(-0.00230593 -0.000750543 0)
(-0.00175411 -0.000881009 0)
(-0.00109893 -0.0010011 0)
(-0.000393498 -0.00111312 0)
(0.000618632 -0.00135017 0)
(0.00145266 -0.00167328 0)
(0.00234731 -0.00166212 0)
(0.00336112 -0.00165031 0)
(0.00443728 -0.00165444 0)
(0.00554044 -0.00165836 0)
(0.00665514 -0.00165239 0)
(0.00777002 -0.00163218 0)
(0.00887295 -0.00159598 0)
(0.00995164 -0.00154369 0)
(0.0109947 -0.0014766 0)
(0.0119922 -0.00139701 0)
(0.0129364 -0.00130775 0)
(0.0138217 -0.00121177 0)
(0.0146443 -0.00111166 0)
(0.0154024 -0.00100934 0)
(0.0160953 -0.000905891 0)
(0.0167227 -0.000801501 0)
(0.0172841 -0.000695654 0)
(0.0177788 -0.000587392 0)
(0.0182051 -0.000475653 0)
(0.0185606 -0.000359617 0)
(0.0188427 -0.000239036 0)
(0.0190482 -0.000114629 0)
(0.0191735 1.21967e-05 0)
(0.0192104 0.000139776 0)
(0.0191571 0.000267203 0)
(0.0190127 0.000393708 0)
(0.0187772 0.000518149 0)
(0.0184513 0.000639126 0)
(0.0180367 0.000755141 0)
(0.017536 0.000864826 0)
(0.0169527 0.000967218 0)
(0.0162904 0.00106223 0)
(0.0155514 0.00115157 0)
(0.0147355 0.00124065 0)
(0.013835 0.00134349 0)
(0.0128275 0.00149712 0)
(0.0116618 0.00180813 0)
(0.010246 0.0025608 0)
(0.00854014 0.00416699 0)
(0.00577186 0.00575977 0)
(0.00274886 0.00493508 0)
(-0.000564061 0.000610335 0)
(-0.00150755 -0.000982516 0)
(-0.00127069 -0.00162578 0)
(-0.000986747 -0.00123158 0)
(-0.000952771 -0.000305987 0)
(-0.00216117 0.00271518 0)
(-0.00516922 0.00646846 0)
(-0.00946419 0.00638562 0)
(-0.0125993 0.00450992 0)
(-0.0148354 0.00304246 0)
(-0.0164696 0.00207851 0)
(-0.0175577 0.00137512 0)
(-0.0181916 0.000801183 0)
(-0.0184385 0.000302694 0)
(-0.0183471 -0.000136973 0)
(-0.0179657 -0.000517869 0)
(-0.0173735 -0.000826681 0)
(-0.016613 -0.00105588 0)
(-0.0157333 -0.00120064 0)
(-0.014789 -0.00126093 0)
(-0.0138368 -0.00124383 0)
(-0.0129296 -0.00116402 0)
(-0.0121109 -0.00104209 0)
(-0.0114084 -0.000900733 0)
(-0.0108308 -0.000760176 0)
(-0.010368 -0.000635175 0)
(-0.00999745 -0.000536105 0)
(-0.00969113 -0.000473284 0)
(-0.00942008 -0.00046063 0)
(-0.00915039 -0.000517354 0)
(-0.00883093 -0.000669556 0)
(-0.00838217 -0.000946661 0)
(-0.00770658 -0.00135887 0)
(-0.00672685 -0.00187493 0)
(-0.00543277 -0.00242763 0)
(-0.00386681 -0.00304086 0)
(-0.00214285 -0.0038115 0)
(-0.000302628 -0.0044854 0)
(0.00135831 -0.000163071 0)
(0.00256958 0.00408035 0)
(-0.00255298 0.00793621 0)
(-0.00198646 0.00111065 0)
(-0.00270367 -0.000375045 0)
(-0.00300148 -2.55704e-05 0)
(-0.00310165 0.000232718 0)
(-0.00317649 0.000243251 0)
(-0.00328111 0.000130419 0)
(-0.00338473 -6.11657e-06 0)
(-0.00343276 -0.000146443 0)
(-0.00339027 -0.000325132 0)
(-0.00324755 -0.000540645 0)
(-0.00300403 -0.000776277 0)
(-0.00266118 -0.00101871 0)
(-0.00222082 -0.00125861 0)
(-0.00168314 -0.00149141 0)
(-0.00105328 -0.00171959 0)
(-0.000375813 -0.00195532 0)
(0.000500161 -0.00224901 0)
(0.00129868 -0.00250065 0)
(0.00214977 -0.00261336 0)
(0.00309136 -0.00268346 0)
(0.00409937 -0.00273633 0)
(0.0051476 -0.00276934 0)
(0.00621828 -0.00277677 0)
(0.00729706 -0.0027553 0)
(0.00836989 -0.00270388 0)
(0.00942298 -0.00262348 0)
(0.0104436 -0.00251687 0)
(0.011421 -0.00238834 0)
(0.0123466 -0.00224305 0)
(0.0132145 -0.00208626 0)
(0.0140212 -0.00192261 0)
(0.0147654 -0.00175555 0)
(0.0154467 -0.00158699 0)
(0.0160655 -0.00141731 0)
(0.0166218 -0.00124563 0)
(0.0171148 -0.00107031 0)
(0.0175427 -0.000889575 0)
(0.0179027 -0.000702015 0)
(0.0181916 -0.000507008 0)
(0.0184056 -0.000304833 0)
(0.0185414 -9.61321e-05 0)
(0.018597 0.00011812 0)
(0.0185675 0.000335618 0)
(0.0184522 0.000554079 0)
(0.0182503 0.000771034 0)
(0.0179615 0.000983944 0)
(0.0175862 0.00119029 0)
(0.0171256 0.00138787 0)
(0.0165813 0.00157526 0)
(0.0159554 0.00175262 0)
(0.0152493 0.00192321 0)
(0.014463 0.00209649 0)
(0.0135932 0.00229503 0)
(0.012632 0.00257205 0)
(0.0115682 0.00306033 0)
(0.0103963 0.00407209 0)
(0.00916138 0.00599727 0)
(0.00746036 0.00795638 0)
(0.00548285 0.00761534 0)
(0.00318981 0.00427146 0)
(0.000491528 0.000113098 0)
(-0.000269559 -0.00163766 0)
(-0.000538695 -0.00121773 0)
(-0.000953535 0.000614928 0)
(-0.00312081 0.00541113 0)
(-0.00600476 0.00976137 0)
(-0.00911868 0.00949536 0)
(-0.0115872 0.00703767 0)
(-0.0133919 0.00488653 0)
(-0.014715 0.00333325 0)
(-0.015579 0.00213926 0)
(-0.0160556 0.00115047 0)
(-0.0162022 0.000298665 0)
(-0.0160669 -0.000435848 0)
(-0.0156942 -0.00105616 0)
(-0.0151001 -0.0015647 0)
(-0.0143106 -0.00195379 0)
(-0.013368 -0.00220978 0)
(-0.012324 -0.00232448 0)
(-0.0112347 -0.00230116 0)
(-0.0101576 -0.00215625 0)
(-0.0091485 -0.00191845 0)
(-0.00825974 -0.0016267 0)
(-0.00753515 -0.00132651 0)
(-0.00700309 -0.00106335 0)
(-0.00666741 -0.000873237 0)
(-0.00650031 -0.000774247 0)
(-0.00644788 -0.000768193 0)
(-0.00644893 -0.000861194 0)
(-0.00643898 -0.00108973 0)
(-0.00632168 -0.0015117 0)
(-0.00597903 -0.00215814 0)
(-0.00532482 -0.00297222 0)
(-0.00441419 -0.00376444 0)
(-0.00331929 -0.00452203 0)
(-0.00215482 -0.00536333 0)
(-0.000931757 -0.00589205 0)
(0.000104363 -0.00209879 0)
(0.00208159 0.00555287 0)
(-0.00208072 0.00986637 0)
(-0.00138187 0.00167334 0)
(-0.00222726 0.00013857 0)
(-0.00262201 0.000269382 0)
(-0.00288105 0.000400459 0)
(-0.00308112 0.000394947 0)
(-0.00325193 0.000279528 0)
(-0.00337378 9.70586e-05 0)
(-0.00341639 -0.000137551 0)
(-0.0033647 -0.000417925 0)
(-0.00321721 -0.000733002 0)
(-0.00297724 -0.0010651 0)
(-0.00264922 -0.00140002 0)
(-0.002236 -0.00172902 0)
(-0.00173824 -0.00204933 0)
(-0.00115958 -0.00236495 0)
(-0.000524449 -0.00268453 0)
(0.000208896 -0.00301712 0)
(0.000984174 -0.00330197 0)
(0.00178934 -0.00348934 0)
(0.00267894 -0.00362887 0)
(0.00363517 -0.00373273 0)
(0.00463832 -0.00379965 0)
(0.00567169 -0.00382555 0)
(0.00671985 -0.0038075 0)
(0.0077674 -0.00374475 0)
(0.00879915 -0.00363909 0)
(0.00980107 -0.00349491 0)
(0.0107612 -0.00331879 0)
(0.0116702 -0.00311862 0)
(0.0125222 -0.00290244 0)
(0.013314 -0.00267732 0)
(0.0140447 -0.00244841 0)
(0.0147152 -0.00221849 0)
(0.0153263 -0.00198787 0)
(0.0158782 -0.00175491 0)
(0.0163699 -0.00151684 0)
(0.0167986 -0.00127074 0)
(0.0171604 -0.0010144 0)
(0.0174508 -0.000746782 0)
(0.0176655 -0.000468225 0)
(0.0178006 -0.000180091 0)
(0.0178551 0.000115436 0)
(0.0178251 0.000415526 0)
(0.0177104 0.000717398 0)
(0.0175104 0.00101814 0)
(0.017225 0.00131482 0)
(0.0168542 0.00160454 0)
(0.0163987 0.00188469 0)
(0.0158599 0.00215348 0)
(0.0152394 0.00241088 0)
(0.0145396 0.00266041 0)
(0.0137635 0.00291253 0)
(0.0129154 0.00319175 0)
(0.012002 0.00355352 0)
(0.0110364 0.00413101 0)
(0.010045 0.00523346 0)
(0.00908666 0.00725256 0)
(0.00793905 0.00941426 0)
(0.00651298 0.00941432 0)
(0.00473402 0.00649805 0)
(0.00280884 0.00235057 0)
(0.00129556 -0.000649604 0)
(0.000490848 -0.000742103 0)
(-0.000547969 0.00203121 0)
(-0.00359109 0.00822944 0)
(-0.00613251 0.0124093 0)
(-0.00858033 0.0119805 0)
(-0.0106042 0.00908157 0)
(-0.0121166 0.00639708 0)
(-0.0132471 0.00437761 0)
(-0.0140129 0.00279397 0)
(-0.0144634 0.00147839 0)
(-0.0146325 0.000346939 0)
(-0.0145425 -0.000639502 0)
(-0.0142085 -0.00150176 0)
(-0.0136396 -0.00223591 0)
(-0.0128612 -0.00281756 0)
(-0.0119157 -0.00322101 0)
(-0.0108527 -0.00343191 0)
(-0.00972142 -0.00345244 0)
(-0.00856634 -0.00329991 0)
(-0.00742722 -0.00300285 0)
(-0.0063406 -0.00259774 0)
(-0.00534025 -0.00212578 0)
(-0.00445881 -0.00162858 0)
(-0.00373541 -0.00114864 0)
(-0.00323084 -0.000744831 0)
(-0.00302994 -0.000512244 0)
(-0.00317129 -0.000547818 0)
(-0.00353025 -0.000863887 0)
(-0.0038677 -0.00144166 0)
(-0.00395714 -0.00236134 0)
(-0.00366939 -0.00352089 0)
(-0.00319217 -0.00452921 0)
(-0.00256645 -0.00539622 0)
(-0.00190657 -0.00632431 0)
(-0.000991536 -0.00685976 0)
(-0.000367551 -0.0036507 0)
(0.00178798 0.00646837 0)
(-0.00174082 0.0112311 0)
(-0.0010702 0.00211 0)
(-0.00197816 0.000584418 0)
(-0.00237377 0.000624275 0)
(-0.00272062 0.000671651 0)
(-0.00299914 0.000609157 0)
(-0.00321307 0.000438979 0)
(-0.00334961 0.000182078 0)
(-0.00339624 -0.000142294 0)
(-0.00335113 -0.000515662 0)
(-0.00321883 -0.000920187 0)
(-0.00300522 -0.00133638 0)
(-0.00271446 -0.00175121 0)
(-0.00234777 -0.00215818 0)
(-0.00190447 -0.00255602 0)
(-0.00138554 -0.00294749 0)
(-0.000801242 -0.00333567 0)
(-0.000165079 -0.00371276 0)
(0.000575152 -0.00406496 0)
(0.00134368 -0.00432305 0)
(0.0021915 -0.00453104 0)
(0.00310839 -0.00469172 0)
(0.00407753 -0.0048004 0)
(0.00508271 -0.00485234 0)
(0.00610829 -0.00484434 0)
(0.00713812 -0.00477564 0)
(0.00815591 -0.00464873 0)
(0.00914637 -0.00446967 0)
(0.0100964 -0.00424768 0)
(0.0109962 -0.00399388 0)
(0.0118396 -0.00371967 0)
(0.0126242 -0.00343502 0)
(0.01335 -0.00314705 0)
(0.0140187 -0.00285925 0)
(0.0146318 -0.00257146 0)
(0.0151893 -0.00228059 0)
(0.015689 -0.00198211 0)
(0.0161263 -0.00167151 0)
(0.0164952 -0.00134566 0)
(0.0167896 -0.00100345 0)
(0.0170036 -0.000645972 0)
(0.0171333 -0.000276052 0)
(0.0171775 0.000102691 0)
(0.0171345 0.000487153 0)
(0.0170048 0.000874161 0)
(0.0167891 0.00126046 0)
(0.0164882 0.00164269 0)
(0.016103 0.00201751 0)
(0.0156348 0.00238182 0)
(0.0150851 0.00273325 0)
(0.0144561 0.00307096 0)
(0.013751 0.00339728 0)
(0.0129751 0.00372081 0)
(0.012137 0.00406282 0)
(0.0112505 0.00447295 0)
(0.0103371 0.00507514 0)
(0.00942899 0.00617279 0)
(0.00858333 0.00818139 0)
(0.00767826 0.0104597 0)
(0.00655562 0.0107626 0)
(0.00512875 0.00809351 0)
(0.00376203 0.00390365 0)
(0.00259197 0.000621054 0)
(0.00160283 0.000285062 0)
(-0.000884316 0.00472197 0)
(-0.0039322 0.0109338 0)
(-0.00606069 0.0145997 0)
(-0.00802479 0.0139554 0)
(-0.00972773 0.0107431 0)
(-0.0110547 0.00766728 0)
(-0.0120795 0.00529192 0)
(-0.0128035 0.0033922 0)
(-0.013252 0.00179007 0)
(-0.0134367 0.000392524 0)
(-0.0133604 -0.000846534 0)
(-0.0130299 -0.00195113 0)
(-0.0124642 -0.002909 0)
(-0.0116951 -0.00367856 0)
(-0.010772 -0.00422241 0)
(-0.00974684 -0.00452449 0)
(-0.0086638 -0.00459306 0)
(-0.00755686 -0.00445346 0)
(-0.00645512 -0.00414092 0)
(-0.00538704 -0.00369882 0)
(-0.00437828 -0.00317798 0)
(-0.00344336 -0.00262761 0)
(-0.00257787 -0.00207927 0)
(-0.00176437 -0.00153884 0)
(-0.00100184 -0.000987678 0)
(-0.000376765 -0.000415101 0)
(-0.00032265 -0.00015038 0)
(-0.001198 -0.000838519 0)
(-0.00178883 -0.00209093 0)
(-0.00183462 -0.00368134 0)
(-0.0018183 -0.00487326 0)
(-0.00163263 -0.0058208 0)
(-0.00142527 -0.00685358 0)
(-0.000775705 -0.00759612 0)
(-0.000511921 -0.00493728 0)
(0.00157258 0.00712288 0)
(-0.00147646 0.0123173 0)
(-0.000866564 0.00255586 0)
(-0.00180945 0.00106157 0)
(-0.00220828 0.00103792 0)
(-0.00260691 0.00101268 0)
(-0.00293136 0.000877931 0)
(-0.00317592 0.000629691 0)
(-0.0033311 0.000285202 0)
(-0.00339427 -0.000130711 0)
(-0.003373 -0.00059079 0)
(-0.00327424 -0.00107491 0)
(-0.00310386 -0.00156545 0)
(-0.00286322 -0.00205272 0)
(-0.00255047 -0.00253292 0)
(-0.00216275 -0.00300543 0)
(-0.00169894 -0.00347065 0)
(-0.00116273 -0.00392749 0)
(-0.000567952 -0.00436692 0)
(0.000105099 -0.00477807 0)
(0.000861574 -0.00512395 0)
(0.00167695 -0.00540116 0)
(0.00256228 -0.00562005 0)
(0.00350521 -0.00577462 0)
(0.00448919 -0.00585756 0)
(0.00549842 -0.00586426 0)
(0.00651644 -0.00579343 0)
(0.00752626 -0.00564798 0)
(0.00851154 -0.00543564 0)
(0.0094582 -0.00516854 0)
(0.0103559 -0.00486164 0)
(0.0111985 -0.00453033 0)
(0.0119843 -0.00418801 0)
(0.0127146 -0.00384391 0)
(0.0133919 -0.00350192 0)
(0.0140179 -0.00316054 0)
(0.0145914 -0.00281425 0)
(0.015108 -0.00245584 0)
(0.0155603 -0.00207882 0)
(0.0159398 -0.00167927 0)
(0.0162382 -0.00125658 0)
(0.0164489 -0.000813366 0)
(0.016568 -0.000354643 0)
(0.0165946 0.000113668 0)
(0.0165282 0.000587051 0)
(0.0163707 0.00106174 0)
(0.0161243 0.00153417 0)
(0.0157916 0.00200073 0)
(0.0153755 0.00245801 0)
(0.0148787 0.00290284 0)
(0.0143042 0.00333262 0)
(0.0136551 0.00374575 0)
(0.0129355 0.00414292 0)
(0.0121515 0.00452964 0)
(0.0113128 0.00492201 0)
(0.0104345 0.00536201 0)
(0.00953772 0.00596525 0)
(0.00864971 0.00703637 0)
(0.00781584 0.00902249 0)
(0.0069709 0.011381 0)
(0.00597311 0.011872 0)
(0.00480412 0.00925564 0)
(0.00389157 0.00492243 0)
(0.00317859 0.00172583 0)
(0.00165897 0.0023344 0)
(-0.0018274 0.00804515 0)
(-0.00420572 0.0132659 0)
(-0.0059665 0.0164032 0)
(-0.00751903 0.0155695 0)
(-0.0089439 0.0121595 0)
(-0.0101278 0.00879827 0)
(-0.0110773 0.00614152 0)
(-0.011766 0.00397327 0)
(-0.0121958 0.00210942 0)
(-0.0123632 0.000452076 0)
(-0.0122637 -0.0010453 0)
(-0.0119099 -0.00239846 0)
(-0.011332 -0.00357539 0)
(-0.0105726 -0.00451689 0)
(-0.00968941 -0.0051782 0)
(-0.00873296 -0.00554992 0)
(-0.00773481 -0.00565329 0)
(-0.00671187 -0.00552204 0)
(-0.00567913 -0.00519097 0)
(-0.00465978 -0.00469888 0)
(-0.00368763 -0.00409838 0)
(-0.0028008 -0.00345741 0)
(-0.00202512 -0.00284398 0)
(-0.00135083 -0.0023049 0)
(-0.000716566 -0.00183633 0)
(-3.96141e-05 -0.00134207 0)
(0.000791707 -0.00055642 0)
(0.00120773 0.000218728 0)
(0.000268166 -0.00110748 0)
(-3.41012e-05 -0.00337782 0)
(-0.000431811 -0.00477835 0)
(-0.000626966 -0.0058301 0)
(-0.000813916 -0.00699539 0)
(-0.000436975 -0.00803054 0)
(-0.000536519 -0.00592914 0)
(0.00138868 0.00761961 0)
(-0.00126648 0.0132446 0)
(-0.000738331 0.00302488 0)
(-0.00169458 0.0015546 0)
(-0.00209861 0.00148287 0)
(-0.00253227 0.00139135 0)
(-0.00288694 0.00117868 0)
(-0.00315685 0.000843882 0)
(-0.00333557 0.000409249 0)
(-0.00342664 -9.34713e-05 0)
(-0.00344322 -0.000630535 0)
(-0.00339048 -0.00118488 0)
(-0.0032718 -0.00174346 0)
(-0.00308461 -0.00230064 0)
(-0.00282392 -0.00285458 0)
(-0.00248518 -0.00340399 0)
(-0.0020663 -0.00394644 0)
(-0.00156866 -0.00447731 0)
(-0.000997736 -0.00498799 0)
(-0.00036994 -0.00545971 0)
(0.000365166 -0.0058938 0)
(0.00116173 -0.00624648 0)
(0.00201983 -0.00652505 0)
(0.00293971 -0.00672835 0)
(0.00390581 -0.00684672 0)
(0.00490176 -0.00687287 0)
(0.00591094 -0.00680427 0)
(0.00691594 -0.00664381 0)
(0.00789963 -0.00640077 0)
(0.00884706 -0.00609046 0)
(0.00974734 -0.00573221 0)
(0.0105946 -0.00534611 0)
(0.011388 -0.00494947 0)
(0.0121298 -0.00455362 0)
(0.0128232 -0.00416211 0)
(0.0134691 -0.00377087 0)
(0.0140642 -0.00337065 0)
(0.0146005 -0.00295075 0)
(0.0150674 -0.00250272 0)
(0.0154534 -0.00202258 0)
(0.0157489 -0.00151139 0)
(0.0159473 -0.000974435 0)
(0.0160464 -0.000419811 0)
(0.0160464 0.000144209 0)
(0.0159475 0.000712047 0)
(0.0157533 0.0012789 0)
(0.0154675 0.00184048 0)
(0.0150946 0.00239258 0)
(0.014639 0.00293158 0)
(0.0141056 0.00345435 0)
(0.0134989 0.00395828 0)
(0.0128233 0.0044414 0)
(0.0120835 0.00490309 0)
(0.0112858 0.00534607 0)
(0.0104393 0.00578159 0)
(0.00955752 0.00624511 0)
(0.00865705 0.00684782 0)
(0.00775432 0.0079042 0)
(0.00687371 0.00989554 0)
(0.00597802 0.0123248 0)
(0.00498701 0.0128695 0)
(0.00400829 0.0100453 0)
(0.00351589 0.00551827 0)
(0.00295725 0.00291741 0)
(0.000305437 0.00548957 0)
(-0.00256476 0.0106159 0)
(-0.00446664 0.0151656 0)
(-0.00586263 0.017827 0)
(-0.00704791 0.0168739 0)
(-0.00821619 0.0133812 0)
(-0.0092701 0.00982422 0)
(-0.0101507 0.0069345 0)
(-0.0108001 0.00451749 0)
(-0.0111979 0.00239383 0)
(-0.0113313 0.000472195 0)
(-0.0111955 -0.00128279 0)
(-0.0108152 -0.00287173 0)
(-0.0102329 -0.00424423 0)
(-0.00950595 -0.00532376 0)
(-0.00869887 -0.00606661 0)
(-0.00785349 -0.00648322 0)
(-0.00698083 -0.00661692 0)
(-0.00607554 -0.00651093 0)
(-0.0051339 -0.00619448 0)
(-0.00416519 -0.00569047 0)
(-0.00319699 -0.00503267 0)
(-0.00227856 -0.00427783 0)
(-0.0014774 -0.00350625 0)
(-0.000854145 -0.00282216 0)
(-0.000393569 -0.00230442 0)
(4.08699e-06 -0.0018758 0)
(0.000433319 -0.00133487 0)
(0.00117311 -0.000375346 0)
(0.0014094 -0.000691257 0)
(0.00128762 -0.00271758 0)
(0.000758215 -0.00430987 0)
(0.000302292 -0.00549865 0)
(-0.000181472 -0.00682294 0)
(-6.87071e-05 -0.00815204 0)
(-0.000497894 -0.00661103 0)
(0.00121949 0.00799979 0)
(-0.0010975 0.0140579 0)
(-0.000663317 0.00351039 0)
(-0.00161772 0.00206287 0)
(-0.00203024 0.00195061 0)
(-0.00249148 0.00179636 0)
(-0.0028703 0.00150521 0)
(-0.00316548 0.00108387 0)
(-0.00337382 0.000563539 0)
(-0.00350213 -1.758e-05 0)
(-0.0035641 -0.000624452 0)
(-0.0035631 -0.00124339 0)
(-0.0034969 -0.00186868 0)
(-0.00335953 -0.00249806 0)
(-0.00314388 -0.00313005 0)
(-0.00284478 -0.00376142 0)
(-0.00246027 -0.00438649 0)
(-0.00199163 -0.00499721 0)
(-0.00144282 -0.00558346 0)
(-0.000821312 -0.00613275 0)
(-0.000137144 -0.00662756 0)
(0.000653363 -0.00706763 0)
(0.00148975 -0.00740972 0)
(0.00238711 -0.00766418 0)
(0.00333499 -0.00782126 0)
(0.00431771 -0.00787124 0)
(0.00531815 -0.0078093 0)
(0.00631865 -0.00763769 0)
(0.00730149 -0.00736694 0)
(0.00825093 -0.00701573 0)
(0.0091556 -0.00660832 0)
(0.0100099 -0.00617022 0)
(0.0108136 -0.00572303 0)
(0.0115701 -0.00527994 0)
(0.0122826 -0.004843 0)
(0.0129503 -0.00440387 0)
(0.0135661 -0.0039481 0)
(0.0141177 -0.00346115 0)
(0.0145906 -0.00293331 0)
(0.014971 -0.00236207 0)
(0.0152492 -0.00175181 0)
(0.0154201 -0.00111192 0)
(0.0154847 -0.000454425 0)
(0.0154448 0.000210626 0)
(0.0153028 0.000876835 0)
(0.0150645 0.00153826 0)
(0.0147353 0.00218969 0)
(0.0143211 0.00282639 0)
(0.0138276 0.00344458 0)
(0.0132605 0.00404127 0)
(0.012625 0.00461407 0)
(0.0119261 0.00516101 0)
(0.0111688 0.00568081 0)
(0.0103587 0.00617424 0)
(0.00950351 0.00664888 0)
(0.00861378 0.00713561 0)
(0.00770004 0.00774565 0)
(0.00676454 0.00881342 0)
(0.00580433 0.0108578 0)
(0.00479412 0.0133656 0)
(0.00374484 0.0138121 0)
(0.0029483 0.0104943 0)
(0.00282703 0.00592192 0)
(0.00171452 0.00480353 0)
(-0.00102539 0.00828628 0)
(-0.0031955 0.0126739 0)
(-0.00470048 0.0166366 0)
(-0.00573897 0.0188913 0)
(-0.00658689 0.0178867 0)
(-0.00751087 0.0144181 0)
(-0.00843596 0.0107513 0)
(-0.00924854 0.00767333 0)
(-0.00985814 0.00502489 0)
(-0.0102234 0.00264498 0)
(-0.0103231 0.000459885 0)
(-0.0101543 -0.00154602 0)
(-0.00975754 -0.00335218 0)
(-0.0091928 -0.00488602 0)
(-0.00853256 -0.00605714 0)
(-0.00784295 -0.00683771 0)
(-0.00714749 -0.00727358 0)
(-0.00643223 -0.00743555 0)
(-0.00567213 -0.00737373 0)
(-0.00484953 -0.00710868 0)
(-0.00396102 -0.00664648 0)
(-0.00301936 -0.00599851 0)
(-0.00205952 -0.00519254 0)
(-0.00115032 -0.00427696 0)
(-0.000392081 -0.00335965 0)
(0.000106158 -0.00265658 0)
(0.000418028 -0.00215439 0)
(0.000651233 -0.00169105 0)
(0.00106279 -0.00108315 0)
(0.00166652 -0.00124852 0)
(0.00185972 -0.00254058 0)
(0.00150648 -0.00384783 0)
(0.000993052 -0.0050298 0)
(0.000385676 -0.0064066 0)
(0.000274795 -0.00796936 0)
(-0.000425702 -0.00701226 0)
(0.00105262 0.0082875 0)
(-0.000958992 0.0147851 0)
(-0.00062122 0.00401061 0)
(-0.00156768 0.00258752 0)
(-0.00199383 0.00243855 0)
(-0.0024799 0.00222398 0)
(-0.00288163 0.00185644 0)
(-0.0032043 0.00135289 0)
(-0.00344773 0.000754301 0)
(-0.00361998 0.000103204 0)
(-0.00373001 -0.000568773 0)
(-0.00378026 -0.00125066 0)
(-0.00376197 -0.00194539 0)
(-0.00366708 -0.0026522 0)
(-0.00348779 -0.00336817 0)
(-0.00321947 -0.00408704 0)
(-0.0028611 -0.00479967 0)
(-0.00241478 -0.00549499 0)
(-0.00188481 -0.00616089 0)
(-0.00127707 -0.00678494 0)
(-0.000602618 -0.00735334 0)
(0.000143824 -0.00785579 0)
(0.000972996 -0.00827357 0)
(0.00184731 -0.00858184 0)
(0.0027743 -0.00878027 0)
(0.00374109 -0.00885798 0)
(0.00473058 -0.00880722 0)
(0.00572464 -0.00862868 0)
(0.00670499 -0.00833367 0)
(0.00765516 -0.00794432 0)
(0.00856329 -0.00749041 0)
(0.00942394 -0.00700353 0)
(0.0102378 -0.00650996 0)
(0.0110089 -0.00602409 0)
(0.0117396 -0.00554479 0)
(0.012426 -0.00505735 0)
(0.0130563 -0.00454086 0)
(0.013613 -0.00397721 0)
(0.0140778 -0.00335714 0)
(0.0144361 -0.00268172 0)
(0.0146791 -0.00196067 0)
(0.0148045 -0.00120898 0)
(0.0148181 -0.000443406 0)
(0.0147224 0.000325145 0)
(0.0145254 0.00108969 0)
(0.0142359 0.00184352 0)
(0.0138616 0.00258102 0)
(0.0134098 0.00329754 0)
(0.0128865 0.00398968 0)
(0.0122968 0.00465488 0)
(0.011645 0.00529114 0)
(0.0109351 0.0058967 0)
(0.010171 0.00646998 0)
(0.00935683 0.00701054 0)
(0.0084982 0.00752352 0)
(0.00760223 0.00803732 0)
(0.00667261 0.00866832 0)
(0.00569584 0.00978284 0)
(0.00463793 0.0119408 0)
(0.00348287 0.0145361 0)
(0.00236521 0.0146945 0)
(0.00183119 0.0106223 0)
(0.00185353 0.00647338 0)
(0.000204792 0.00699563 0)
(-0.0020549 0.0104768 0)
(-0.00373633 0.0142851 0)
(-0.00489043 0.017729 0)
(-0.0055921 0.0196248 0)
(-0.00613052 0.0186211 0)
(-0.00681546 0.0152698 0)
(-0.00760672 0.0115781 0)
(-0.00835055 0.0083592 0)
(-0.00892366 0.00549882 0)
(-0.0092632 0.00286749 0)
(-0.00933848 0.000421385 0)
(-0.00914936 -0.00182431 0)
(-0.00875535 -0.00382097 0)
(-0.00823723 -0.00547065 0)
(-0.00768121 -0.00667931 0)
(-0.0071438 -0.00745612 0)
(-0.00661977 -0.00789511 0)
(-0.00607097 -0.00809096 0)
(-0.00546066 -0.00809204 0)
(-0.00476637 -0.007906 0)
(-0.0039799 -0.00752428 0)
(-0.00310468 -0.00694295 0)
(-0.00215949 -0.0061691 0)
(-0.00118955 -0.00521211 0)
(-0.000235521 -0.00408591 0)
(0.000484301 -0.00311408 0)
(0.000923398 -0.00244896 0)
(0.0012191 -0.00194599 0)
(0.00152665 -0.00156843 0)
(0.00195302 -0.00167541 0)
(0.00212791 -0.00245749 0)
(0.00188593 -0.0034601 0)
(0.00141677 -0.00455328 0)
(0.000807794 -0.00591755 0)
(0.000542835 -0.00757055 0)
(-0.000335795 -0.0071645 0)
(0.000888955 0.00851328 0)
(-0.000843381 0.0154476 0)
(-0.000599427 0.00452773 0)
(-0.00153742 0.00313048 0)
(-0.00198233 0.00294675 0)
(-0.00249276 0.00267393 0)
(-0.00291841 0.00223375 0)
(-0.00327153 0.00165445 0)
(-0.00355395 0.000985543 0)
(-0.00377252 0.000270656 0)
(-0.0039297 -0.000464341 0)
(-0.00402665 -0.00121133 0)
(-0.00404894 -0.00198089 0)
(-0.00398816 -0.00277148 0)
(-0.00383712 -0.00357721 0)
(-0.00359259 -0.00438812 0)
(-0.00325493 -0.00519168 0)
(-0.00282736 -0.00597418 0)
(-0.002315 -0.00672179 0)
(-0.00172392 -0.00742138 0)
(-0.00106126 -0.00806066 0)
(-0.000342615 -0.00862403 0)
(0.000461201 -0.00911057 0)
(0.00131723 -0.00947854 0)
(0.00221958 -0.00972107 0)
(0.00316591 -0.00982997 0)
(0.00414045 -0.00979489 0)
(0.00512435 -0.00961382 0)
(0.00609877 -0.00929833 0)
(0.00704645 -0.00887391 0)
(0.00795502 -0.00837641 0)
(0.00881929 -0.00784427 0)
(0.0096407 -0.00730859 0)
(0.0104235 -0.00678396 0)
(0.0111684 -0.00626375 0)
(0.0118669 -0.00572453 0)
(0.0125014 -0.00513821 0)
(0.0130491 -0.00448453 0)
(0.0134898 -0.00375715 0)
(0.0138092 -0.00296319 0)
(0.0140009 -0.00211944 0)
(0.0140659 -0.00124767 0)
(0.0140156 -0.000369934 0)
(0.0138507 0.000502712 0)
(0.013589 0.00136162 0)
(0.013243 0.0022002 0)
(0.0128238 0.00301376 0)
(0.0123401 0.00379943 0)
(0.0117979 0.00455558 0)
(0.0112002 0.00528098 0)
(0.0105486 0.00597434 0)
(0.00984402 0.00663409 0)
(0.00908767 0.00725838 0)
(0.00828139 0.0078458 0)
(0.00742805 0.00839985 0)
(0.00653099 0.00894842 0)
(0.00558657 0.00961901 0)
(0.00456399 0.010824 0)
(0.00339348 0.0131651 0)
(0.00208544 0.0158329 0)
(0.000965381 0.0154473 0)
(0.00084101 0.0105095 0)
(0.000600608 0.00739582 0)
(-0.0011508 0.00901896 0)
(-0.00290632 0.0122085 0)
(-0.00421245 0.0155295 0)
(-0.0050406 0.0184866 0)
(-0.00543786 0.020057 0)
(-0.0056935 0.0190899 0)
(-0.00614399 0.0159332 0)
(-0.00679333 0.0123004 0)
(-0.00746503 0.00899358 0)
(-0.00800433 0.00594658 0)
(-0.0083262 0.00307362 0)
(-0.00838871 0.000372894 0)
(-0.00819589 -0.00209766 0)
(-0.00782828 -0.00425137 0)
(-0.00738928 -0.00596359 0)
(-0.00697215 -0.00715659 0)
(-0.00660751 -0.00790173 0)
(-0.00625523 -0.00834462 0)
(-0.00586038 -0.00859014 0)
(-0.0053844 -0.00867334 0)
(-0.00480761 -0.00858537 0)
(-0.00412335 -0.00830505 0)
(-0.00333329 -0.00781895 0)
(-0.00244962 -0.00712501 0)
(-0.00149787 -0.00621518 0)
(-0.000462497 -0.00503094 0)
(0.000494186 -0.00382436 0)
(0.00115878 -0.00292874 0)
(0.00163626 -0.00227443 0)
(0.00198252 -0.00188558 0)
(0.00224986 -0.0018921 0)
(0.00231955 -0.00235245 0)
(0.00209843 -0.00310211 0)
(0.00166717 -0.00407168 0)
(0.00107949 -0.00538295 0)
(0.000722874 -0.00707922 0)
(-0.00023167 -0.00709736 0)
(0.000730643 0.00869987 0)
(-0.000745558 0.0160613 0)
(-0.000591234 0.0050645 0)
(-0.00152238 0.00369396 0)
(-0.00198997 0.00347641 0)
(-0.0025251 0.00314752 0)
(-0.00297632 0.00263944 0)
(-0.0033622 0.00199157 0)
(-0.00368518 0.00125952 0)
(-0.00394916 0.000484634 0)
(-0.0041498 -0.000314969 0)
(-0.00428671 -0.00113238 0)
(-0.00434144 -0.00198335 0)
(-0.00430693 -0.00286371 0)
(-0.00417764 -0.0037637 0)
(-0.00395209 -0.00466955 0)
(-0.00363219 -0.00556557 0)
(-0.00322231 -0.00643583 0)
(-0.00272821 -0.00726522 0)
(-0.00215631 -0.00803995 0)
(-0.00151325 -0.00874782 0)
(-0.000807509 -0.00937751 0)
(-4.92709e-05 -0.00991443 0)
(0.000790076 -0.010349 0)
(0.00166584 -0.0106394 0)
(0.00258691 -0.0107832 0)
(0.00354077 -0.0107679 0)
(0.00450944 -0.0105887 0)
(0.00547286 -0.0102567 0)
(0.00641325 -0.00980043 0)
(0.00731755 -0.00926244 0)
(0.0081808 -0.00868873 0)
(0.00900503 -0.00811518 0)
(0.00979413 -0.00755499 0)
(0.0105458 -0.00699315 0)
(0.0112459 -0.00639532 0)
(0.0118702 -0.00572659 0)
(0.0123926 -0.0049674 0)
(0.012793 -0.00411751 0)
(0.0130601 -0.00319208 0)
(0.013191 -0.00221577 0)
(0.0131898 -0.00121748 0)
(0.0130722 -0.000224356 0)
(0.0128337 0.000751941 0)
(0.0125054 0.00169828 0)
(0.0121038 0.00260946 0)
(0.0116436 0.00348401 0)
(0.0111358 0.00432323 0)
(0.0105856 0.0051294 0)
(0.00999336 0.00590407 0)
(0.00935648 0.00664725 0)
(0.00867169 0.00735752 0)
(0.00793636 0.00803237 0)
(0.00714903 0.00866923 0)
(0.0063094 0.00927033 0)
(0.00541667 0.00986496 0)
(0.00445922 0.0105988 0)
(0.00338699 0.0119465 0)
(0.0020761 0.0145435 0)
(0.00061741 0.0171831 0)
(-0.000298145 0.0158539 0)
(-8.40437e-05 0.0104445 0)
(-0.000752137 0.00866798 0)
(-0.00228256 0.0106801 0)
(-0.0036413 0.0135611 0)
(-0.00462944 0.0164473 0)
(-0.00516721 0.0189484 0)
(-0.00530037 0.0202194 0)
(-0.00530598 0.0193086 0)
(-0.0055327 0.0164055 0)
(-0.00603328 0.0129117 0)
(-0.00662555 0.00957407 0)
(-0.00712833 0.0063717 0)
(-0.00743566 0.00327202 0)
(-0.00749377 0.000326978 0)
(-0.00731308 -0.00234814 0)
(-0.00699598 -0.00461636 0)
(-0.00666775 -0.00633262 0)
(-0.00641465 -0.00746691 0)
(-0.0062241 -0.00817401 0)
(-0.00602491 -0.00863885 0)
(-0.005758 -0.00895649 0)
(-0.00539144 -0.00913962 0)
(-0.00491231 -0.0091624 0)
(-0.00431793 -0.00899359 0)
(-0.00361164 -0.00861338 0)
(-0.00280411 -0.00801477 0)