/*--------------------------------*- C++ -*----------------------------------*\
| =========                 |                                                 |
| \\      /  F ield         | OpenFOAM: The Open Source CFD Toolbox           |
|  \\    /   O peration     | Version:  4.1                                   |
|   \\  /    A nd           | Web:      www.OpenFOAM.org                      |
|    \\/     M anipulation  |                                                 |
\*---------------------------------------------------------------------------*/
FoamFile
{
    version     2.0;
    format      ascii;
    class       volScalarField;
    location    "1500";
    object      p_rgh;
}
// * * * * * * * * * * * * * * * * * * * * * * * * * * * * * * * * * * * * * //

dimensions      [0 2 -2 0 0 0 0];

internalField   nonuniform List<scalar> 
5000
(
0.0491916
0.0491906
0.0491979
0.0492105
0.0492251
0.0492384
0.049247
0.0492501
0.0492495
0.0492451
0.0492378
0.0492292
0.0492204
0.049212
0.0492042
0.049197
0.0491906
0.0491846
0.0491791
0.0491739
0.0491689
0.0491639
0.0491589
0.0491538
0.0491485
0.0491429
0.0491371
0.0491311
0.0491247
0.0491181
0.0491111
0.0491039
0.0490965
0.0490889
0.0490812
0.0490734
0.0490656
0.0490578
0.0490501
0.0490425
0.0490351
0.049028
0.0490212
0.0490147
0.0490087
0.0490029
0.0489975
0.0489925
0.0489878
0.0489834
0.0489793
0.0489756
0.0489721
0.0489689
0.048966
0.0489633
0.0489608
0.0489586
0.0489566
0.0489547
0.0489531
0.0489517
0.0489504
0.0489494
0.0489485
0.0489477
0.0489471
0.0489467
0.0489465
0.0489466
0.0489469
0.0489476
0.0489484
0.0489493
0.0489497
0.0489482
0.0489447
0.0489395
0.0489342
0.0489311
0.0489317
0.0489349
0.0489377
0.0489403
0.0489533
0.0489748
0.048983
0.0489965
0.0490089
0.0490186
0.0490255
0.049031
0.0490365
0.0490436
0.0490526
0.0490614
0.049066
0.0490613
0.0490479
0.049042
0.0491823
0.0492021
0.0492188
0.0492313
0.0492396
0.0492484
0.0492547
0.0492582
0.0492589
0.0492558
0.0492501
0.0492433
0.0492362
0.0492295
0.0492234
0.049218
0.0492131
0.0492087
0.0492047
0.0492009
0.0491972
0.0491935
0.0491897
0.0491857
0.0491816
0.0491772
0.0491726
0.0491676
0.0491624
0.0491569
0.0491512
0.0491452
0.0491391
0.0491329
0.0491266
0.0491203
0.0491141
0.049108
0.0491021
0.0490964
0.049091
0.0490858
0.0490808
0.049076
0.0490714
0.0490671
0.049063
0.0490592
0.0490557
0.0490525
0.0490496
0.0490469
0.0490445
0.0490423
0.0490404
0.0490387
0.0490373
0.0490361
0.0490351
0.0490343
0.0490338
0.0490334
0.0490331
0.049033
0.0490331
0.0490333
0.0490336
0.0490341
0.049035
0.0490364
0.0490385
0.0490415
0.0490453
0.0490485
0.0490501
0.0490485
0.0490398
0.0490222
0.048998
0.048973
0.0489536
0.0489441
0.0489504
0.0489712
0.0489724
0.0489719
0.0489777
0.0490313
0.0490439
0.0490511
0.0490542
0.0490547
0.0490544
0.0490557
0.0490593
0.0490639
0.0490655
0.0490628
0.0490542
0.0490331
0.0491615
0.0492059
0.0492226
0.0492297
0.0492346
0.0492414
0.0492466
0.0492498
0.0492501
0.049247
0.0492417
0.0492354
0.0492289
0.0492229
0.0492174
0.0492126
0.0492082
0.0492043
0.0492007
0.0491972
0.0491938
0.0491903
0.0491867
0.0491829
0.0491789
0.0491746
0.04917
0.0491651
0.04916
0.0491545
0.0491488
0.0491429
0.0491368
0.0491306
0.0491244
0.0491182
0.049112
0.049106
0.0491001
0.0490946
0.0490893
0.0490844
0.0490799
0.0490759
0.0490722
0.049069
0.0490661
0.0490637
0.0490615
0.0490597
0.0490582
0.049057
0.049056
0.0490553
0.0490548
0.0490546
0.0490545
0.0490546
0.0490549
0.0490553
0.0490559
0.0490567
0.0490576
0.0490587
0.0490599
0.0490613
0.0490628
0.0490645
0.0490664
0.0490686
0.0490711
0.0490739
0.0490771
0.0490801
0.0490824
0.0490824
0.0490777
0.0490652
0.0490433
0.0490152
0.0489894
0.0489745
0.0489762
0.0489915
0.0489999
0.0489926
0.0489796
0.0489909
0.0490208
0.0490567
0.0490568
0.049054
0.0490504
0.0490483
0.0490491
0.0490523
0.0490546
0.0490534
0.0490515
0.0490172
0.0491431
0.0492094
0.049223
0.049226
0.0492289
0.0492339
0.049238
0.0492403
0.0492397
0.0492363
0.0492311
0.0492251
0.0492193
0.049214
0.0492092
0.049205
0.0492013
0.0491979
0.0491947
0.0491916
0.0491885
0.0491852
0.0491818
0.0491782
0.0491742
0.04917
0.0491655
0.0491607
0.0491555
0.0491501
0.0491444
0.0491384
0.0491323
0.049126
0.0491197
0.0491134
0.0491072
0.0491011
0.0490953
0.0490897
0.0490845
0.0490796
0.0490752
0.0490712
0.0490677
0.0490647
0.0490621
0.0490599
0.0490581
0.0490567
0.0490556
0.0490548
0.0490543
0.0490541
0.0490541
0.0490543
0.0490547
0.0490553
0.049056
0.0490569
0.049058
0.0490593
0.0490607
0.0490623
0.0490641
0.049066
0.0490682
0.0490706
0.0490731
0.0490759
0.0490789
0.0490822
0.0490858
0.0490896
0.0490932
0.0490961
0.0490963
0.0490911
0.0490776
0.0490567
0.0490348
0.0490204
0.0490179
0.0490257
0.0490318
0.0490222
0.0489986
0.0489873
0.0489996
0.0490266
0.049052
0.049052
0.049044
0.0490385
0.0490363
0.0490385
0.0490427
0.0490464
0.0490477
0.0490022
0.0491304
0.0492128
0.0492219
0.0492218
0.049223
0.0492265
0.0492294
0.0492305
0.0492288
0.0492248
0.0492195
0.0492139
0.0492087
0.0492041
0.0492001
0.0491967
0.0491937
0.0491909
0.0491882
0.0491855
0.0491827
0.0491797
0.0491765
0.049173
0.0491692
0.0491651
0.0491607
0.0491559
0.0491507
0.0491452
0.0491395
0.0491334
0.0491272
0.0491208
0.0491144
0.0491079
0.0491016
0.0490953
0.0490893
0.0490836
0.0490783
0.0490734
0.0490689
0.0490649
0.0490615
0.0490586
0.0490561
0.0490541
0.0490525
0.0490512
0.0490504
0.0490498
0.0490496
0.0490496
0.0490498
0.0490503
0.0490509
0.0490517
0.0490526
0.0490537
0.049055
0.0490564
0.049058
0.0490598
0.0490617
0.0490639
0.0490663
0.0490689
0.0490718
0.0490749
0.0490784
0.0490822
0.0490863
0.0490909
0.0490958
0.0491006
0.0491044
0.0491052
0.0491006
0.0490898
0.0490762
0.0490656
0.0490616
0.049064
0.0490657
0.0490546
0.0490263
0.0489994
0.0489925
0.0490074
0.049031
0.0490436
0.0490369
0.0490267
0.0490211
0.0490222
0.0490294
0.0490404
0.0490458
0.0489881
0.0491219
0.049215
0.0492199
0.0492178
0.0492173
0.0492196
0.0492214
0.0492211
0.0492182
0.0492134
0.0492079
0.0492026
0.049198
0.0491942
0.0491912
0.0491886
0.0491863
0.0491841
0.049182
0.0491798
0.0491774
0.0491748
0.0491719
0.0491687
0.0491651
0.0491612
0.0491569
0.0491521
0.049147
0.0491415
0.0491357
0.0491296
0.0491232
0.0491166
0.0491099
0.0491031
0.0490965
0.0490899
0.0490836
0.0490776
0.049072
0.0490668
0.0490621
0.049058
0.0490544
0.0490514
0.049049
0.049047
0.0490456
0.0490445
0.0490438
0.0490435
0.0490434
0.0490436
0.049044
0.0490447
0.0490455
0.0490464
0.0490475
0.0490487
0.04905
0.0490515
0.0490532
0.049055
0.049057
0.0490593
0.0490618
0.0490645
0.0490675
0.0490709
0.0490746
0.0490786
0.0490832
0.0490882
0.0490938
0.0490997
0.0491054
0.0491099
0.0491116
0.0491093
0.049104
0.0490985
0.0490957
0.0490956
0.0490944
0.0490832
0.0490544
0.0490185
0.0489957
0.0489957
0.0490117
0.0490267
0.0490263
0.0490135
0.0490042
0.0490032
0.049013
0.0490311
0.0490407
0.0489733
0.0491161
0.0492158
0.0492175
0.0492141
0.0492119
0.0492133
0.049214
0.0492123
0.0492082
0.0492026
0.0491969
0.049192
0.0491881
0.0491853
0.0491832
0.0491816
0.0491801
0.0491787
0.0491773
0.0491757
0.0491738
0.0491717
0.0491693
0.0491665
0.0491632
0.0491596
0.0491555
0.0491509
0.0491459
0.0491405
0.0491346
0.0491283
0.0491218
0.0491149
0.0491079
0.0491007
0.0490936
0.0490866
0.0490797
0.0490732
0.049067
0.0490613
0.0490561
0.0490516
0.0490476
0.0490443
0.0490416
0.0490396
0.0490381
0.0490371
0.0490365
0.0490362
0.0490363
0.0490366
0.0490372
0.049038
0.0490389
0.04904
0.0490412
0.0490425
0.0490439
0.0490454
0.0490471
0.049049
0.049051
0.0490532
0.0490557
0.0490585
0.0490616
0.049065
0.0490688
0.0490731
0.0490778
0.0490831
0.0490889
0.0490951
0.0491017
0.0491079
0.0491129
0.0491158
0.0491164
0.0491157
0.0491151
0.049115
0.0491134
0.0491037
0.0490777
0.0490389
0.049005
0.0489908
0.0489963
0.0490088
0.0490125
0.0490026
0.0489894
0.0489846
0.0489946
0.0490194
0.0490346
0.0489595
0.049112
0.0492156
0.0492147
0.04921
0.0492071
0.0492076
0.0492073
0.0492044
0.0491991
0.0491928
0.049187
0.0491825
0.0491796
0.0491779
0.049177
0.0491764
0.0491759
0.0491754
0.0491748
0.0491739
0.0491727
0.0491711
0.0491692
0.0491669
0.0491641
0.0491608
0.0491571
0.0491528
0.049148
0.0491426
0.0491368
0.0491305
0.0491238
0.0491168
0.0491094
0.0491019
0.0490942
0.0490866
0.049079
0.0490717
0.0490648
0.0490583
0.0490524
0.0490471
0.0490425
0.0490385
0.0490354
0.0490329
0.0490311
0.0490299
0.0490292
0.0490289
0.0490289
0.0490293
0.04903
0.0490308
0.0490318
0.0490329
0.0490342
0.0490355
0.0490369
0.0490385
0.0490402
0.049042
0.049044
0.0490462
0.0490487
0.0490515
0.0490545
0.049058
0.0490618
0.0490661
0.0490709
0.0490761
0.0490819
0.0490882
0.0490949
0.0491016
0.0491079
0.0491132
0.0491171
0.0491197
0.0491214
0.0491226
0.049122
0.049115
0.0490939
0.049057
0.0490173
0.0489918
0.0489866
0.0489938
0.0489991
0.0489937
0.0489805
0.0489718
0.0489789
0.0490087
0.0490314
0.0489484
0.0491091
0.049215
0.049212
0.0492051
0.0492026
0.0492025
0.0492014
0.0491975
0.0491911
0.0491841
0.0491783
0.0491746
0.0491728
0.0491724
0.0491727
0.0491732
0.0491737
0.0491741
0.0491742
0.0491739
0.0491734
0.0491724
0.0491711
0.0491693
0.049167
0.0491642
0.0491609
0.049157
0.0491526
0.0491475
0.0491419
0.0491358
0.0491291
0.049122
0.0491145
0.0491066
0.0490985
0.0490903
0.0490821
0.049074
0.0490662
0.0490588
0.0490519
0.0490456
0.0490401
0.0490352
0.0490312
0.049028
0.0490256
0.0490239
0.0490228
0.0490223
0.0490222
0.0490224
0.049023
0.0490238
0.0490248
0.0490259
0.0490271
0.0490284
0.0490299
0.0490314
0.049033
0.0490348
0.0490367
0.0490389
0.0490413
0.049044
0.049047
0.0490503
0.0490541
0.0490583
0.049063
0.0490682
0.0490738
0.0490799
0.0490863
0.049093
0.0490996
0.0491057
0.049111
0.0491153
0.0491188
0.0491214
0.0491224
0.0491186
0.0491029
0.0490708
0.04903
0.0489971
0.0489826
0.0489836
0.0489885
0.0489869
0.0489774
0.0489679
0.0489702
0.0490003
0.0490325
0.04894
0.0491068
0.0492145
0.0492113
0.0492001
0.049198
0.0491979
0.0491964
0.0491916
0.0491842
0.0491766
0.049171
0.0491682
0.0491677
0.0491686
0.04917
0.0491714
0.0491727
0.0491737
0.0491744
0.0491747
0.0491747
0.0491744
0.0491736
0.0491723
0.0491706
0.0491684
0.0491656
0.0491623
0.0491583
0.0491537
0.0491486
0.0491428
0.0491364
0.0491295
0.0491221
0.0491142
0.0491059
0.0490973
0.0490886
0.0490799
0.0490713
0.049063
0.0490551
0.0490477
0.049041
0.0490351
0.04903
0.0490258
0.0490225
0.0490201
0.0490184
0.0490173
0.0490168
0.0490168
0.0490172
0.0490178
0.0490187
0.0490197
0.0490209
0.0490222
0.0490236
0.049025
0.0490266
0.0490283
0.0490301
0.0490322
0.0490344
0.0490369
0.0490398
0.049043
0.0490466
0.0490506
0.049055
0.0490599
0.0490652
0.049071
0.049077
0.0490834
0.0490897
0.0490959
0.0491016
0.0491068
0.0491113
0.0491151
0.0491176
0.0491166
0.049106
0.0490798
0.0490413
0.0490047
0.048983
0.0489779
0.0489809
0.0489814
0.0489751
0.0489667
0.0489681
0.0489959
0.0490373
0.0489335
0.0491053
0.0492142
0.049211
0.0491962
0.0491937
0.0491939
0.0491921
0.0491865
0.0491783
0.0491701
0.0491648
0.0491631
0.0491639
0.0491658
0.049168
0.04917
0.0491717
0.0491732
0.0491743
0.0491751
0.0491756
0.0491757
0.0491754
0.0491748
0.0491736
0.049172
0.0491699
0.0491672
0.0491639
0.04916
0.0491554
0.0491502
0.0491444
0.0491379
0.0491309
0.0491233
0.0491151
0.0491066
0.0490977
0.0490886
0.0490795
0.0490704
0.0490616
0.0490532
0.0490454
0.0490384
0.0490321
0.0490268
0.0490224
0.049019
0.0490165
0.0490148
0.0490137
0.0490133
0.0490133
0.0490137
0.0490144
0.0490153
0.0490164
0.0490177
0.049019
0.0490205
0.049022
0.0490237
0.0490254
0.0490273
0.0490294
0.0490316
0.0490342
0.049037
0.0490402
0.0490438
0.0490479
0.0490523
0.0490572
0.0490624
0.049068
0.0490738
0.0490797
0.0490856
0.0490913
0.0490967
0.0491017
0.0491062
0.0491099
0.049111
0.0491047
0.0490844
0.04905
0.0490125
0.048986
0.0489755
0.0489756
0.0489766
0.0489727
0.0489657
0.0489667
0.0489949
0.0490448
0.048926
0.0491042
0.0492136
0.0492072
0.049192
0.0491897
0.0491905
0.0491886
0.0491823
0.0491731
0.0491645
0.0491597
0.0491589
0.0491607
0.0491632
0.0491658
0.049168
0.04917
0.0491716
0.049173
0.0491741
0.049175
0.0491756
0.0491759
0.0491758
0.0491753
0.0491744
0.049173
0.049171
0.0491684
0.0491653
0.0491615
0.0491571
0.049152
0.0491462
0.0491398
0.0491327
0.0491251
0.0491168
0.0491081
0.049099
0.0490896
0.0490802
0.0490708
0.0490617
0.049053
0.0490448
0.0490375
0.049031
0.0490255
0.0490211
0.0490176
0.0490151
0.0490133
0.0490123
0.0490119
0.049012
0.0490126
0.0490134
0.0490145
0.0490158
0.0490172
0.0490187
0.0490202
0.0490219
0.0490236
0.0490253
0.0490271
0.0490291
0.0490312
0.0490336
0.0490362
0.0490392
0.0490426
0.0490463
0.0490505
0.049055
0.0490599
0.049065
0.0490703
0.0490758
0.0490811
0.0490864
0.0490916
0.0490965
0.049101
0.0491036
0.0491005
0.0490854
0.0490557
0.0490194
0.0489898
0.0489748
0.0489717
0.0489721
0.0489694
0.0489635
0.0489647
0.0489948
0.0490537
0.0489159
0.0491029
0.0492133
0.0492003
0.0491874
0.0491863
0.0491878
0.0491859
0.0491787
0.0491685
0.0491596
0.0491552
0.0491553
0.0491576
0.0491603
0.0491628
0.049165
0.0491669
0.0491686
0.0491702
0.0491716
0.0491729
0.0491739
0.0491748
0.0491753
0.0491755
0.0491753
0.0491747
0.0491735
0.0491718
0.0491695
0.0491666
0.0491631
0.0491588
0.0491539
0.0491482
0.0491419
0.0491348
0.0491271
0.0491188
0.04911
0.0491007
0.0490912
0.0490816
0.0490721
0.0490628
0.0490539
0.0490456
0.0490382
0.0490317
0.0490262
0.0490217
0.0490183
0.0490158
0.0490142
0.0490134
0.0490132
0.0490135
0.0490143
0.0490154
0.0490168
0.0490183
0.04902
0.0490217
0.0490234
0.0490251
0.0490268
0.0490284
0.04903
0.0490316
0.0490333
0.0490352
0.0490373
0.0490398
0.0490426
0.0490459
0.0490495
0.0490535
0.0490578
0.0490624
0.0490671
0.049072
0.049077
0.0490819
0.0490869
0.0490917
0.0490953
0.0490945
0.0490836
0.0490585
0.0490242
0.0489932
0.0489745
0.0489681
0.048967
0.0489644
0.0489594
0.0489617
0.0489939
0.0490614
0.0489029
0.0491025
0.0492103
0.049194
0.049183
0.0491837
0.0491863
0.049184
0.0491757
0.0491643
0.0491551
0.0491512
0.0491518
0.0491541
0.0491565
0.0491587
0.0491606
0.0491624
0.0491642
0.0491659
0.0491676
0.0491692
0.0491708
0.0491723
0.0491735
0.0491745
0.0491752
0.0491754
0.0491751
0.0491743
0.0491729
0.0491709
0.0491682
0.0491649
0.0491608
0.049156
0.0491505
0.0491441
0.0491371
0.0491293
0.0491209
0.049112
0.0491027
0.0490931
0.0490835
0.0490739
0.0490646
0.0490558
0.0490476
0.0490403
0.0490339
0.0490286
0.0490244
0.0490212
0.049019
0.0490177
0.0490172
0.0490174
0.0490181
0.0490193
0.0490208
0.0490226
0.0490245
0.0490264
0.0490283
0.0490301
0.0490316
0.049033
0.0490342
0.0490353
0.0490363
0.0490373
0.0490385
0.0490398
0.0490416
0.0490437
0.0490462
0.0490491
0.0490525
0.0490561
0.0490601
0.0490643
0.0490687
0.0490733
0.0490781
0.0490829
0.0490869
0.0490875
0.0490796
0.0490585
0.0490267
0.048995
0.0489734
0.0489638
0.0489606
0.0489572
0.0489527
0.0489565
0.0489917
0.0490671
0.0488876
0.0491047
0.0492044
0.0491872
0.0491794
0.0491829
0.0491861
0.0491829
0.0491729
0.0491603
0.0491508
0.0491474
0.049148
0.0491499
0.0491518
0.0491535
0.049155
0.0491566
0.0491583
0.0491602
0.0491623
0.0491644
0.0491667
0.0491689
0.049171
0.0491729
0.0491745
0.0491757
0.0491763
0.0491764
0.0491759
0.0491748
0.049173
0.0491706
0.0491674
0.0491634
0.0491586
0.049153
0.0491466
0.0491393
0.0491314
0.0491229
0.0491139
0.0491046
0.0490951
0.0490856
0.0490762
0.0490671
0.0490586
0.0490507
0.0490437
0.0490378
0.0490329
0.0490291
0.0490265
0.0490248
0.0490241
0.0490241
0.0490249
0.0490262
0.049028
0.04903
0.0490321
0.0490343
0.0490363
0.0490381
0.0490396
0.0490408
0.0490416
0.049042
0.0490422
0.0490422
0.0490423
0.0490425
0.049043
0.0490438
0.0490451
0.0490469
0.0490491
0.0490518
0.0490548
0.0490582
0.0490619
0.0490659
0.0490702
0.0490746
0.0490786
0.0490799
0.049074
0.0490559
0.0490264
0.0489946
0.0489707
0.0489578
0.048952
0.0489473
0.0489429
0.048949
0.0489888
0.0490708
0.0488708
0.0491108
0.0491961
0.0491804
0.0491782
0.0491845
0.0491875
0.0491824
0.0491701
0.049156
0.0491464
0.0491433
0.0491437
0.0491449
0.049146
0.049147
0.0491481
0.0491496
0.0491514
0.0491536
0.0491562
0.0491591
0.0491621
0.0491653
0.0491685
0.0491714
0.049174
0.0491762
0.0491778
0.0491788
0.0491791
0.0491788
0.0491779
0.0491762
0.0491738
0.0491706
0.0491666
0.0491616
0.0491557
0.049149
0.0491415
0.0491333
0.0491247
0.0491156
0.0491064
0.0490971
0.0490878
0.0490788
0.0490702
0.0490622
0.0490549
0.0490486
0.0490434
0.0490392
0.0490363
0.0490344
0.0490336
0.0490337
0.0490345
0.0490361
0.049038
0.0490403
0.0490427
0.049045
0.0490472
0.0490489
0.0490503
0.0490511
0.0490513
0.049051
0.0490503
0.0490493
0.0490482
0.0490472
0.0490463
0.0490459
0.0490459
0.0490464
0.0490475
0.0490491
0.0490512
0.0490536
0.0490565
0.0490597
0.0490633
0.0490671
0.0490706
0.049072
0.0490671
0.049051
0.0490232
0.0489914
0.0489654
0.0489495
0.0489409
0.0489345
0.0489301
0.0489395
0.0489859
0.049073
0.0488533
0.0491215
0.0491862
0.0491764
0.0491813
0.0491892
0.0491904
0.049182
0.0491668
0.0491513
0.0491418
0.0491389
0.0491386
0.0491388
0.0491389
0.0491393
0.0491401
0.0491416
0.0491437
0.0491465
0.0491498
0.0491537
0.0491579
0.0491622
0.0491666
0.0491707
0.0491744
0.0491775
0.04918
0.0491818
0.0491829
0.0491833
0.0491831
0.0491821
0.0491804
0.0491779
0.0491745
0.0491701
0.0491647
0.0491583
0.0491511
0.0491432
0.0491347
0.0491259
0.0491169
0.0491079
0.049099
0.0490902
0.0490818
0.0490739
0.0490667
0.0490604
0.0490551
0.0490509
0.0490479
0.0490461
0.0490454
0.0490456
0.0490467
0.0490485
0.0490507
0.0490532
0.0490557
0.0490582
0.0490602
0.0490618
0.0490628
0.0490631
0.0490627
0.0490616
0.0490599
0.0490578
0.0490555
0.0490531
0.049051
0.0490493
0.049048
0.0490474
0.0490473
0.0490478
0.0490488
0.0490503
0.0490522
0.0490545
0.0490571
0.04906
0.0490627
0.0490636
0.049059
0.0490439
0.0490172
0.0489851
0.0489572
0.0489384
0.0489268
0.0489185
0.0489145
0.0489283
0.0489834
0.049075
0.0488359
0.0491364
0.0491762
0.0491792
0.04919
0.0491968
0.0491937
0.0491806
0.0491621
0.0491457
0.0491367
0.0491337
0.0491324
0.0491314
0.0491306
0.0491305
0.0491313
0.049133
0.0491357
0.0491393
0.0491438
0.0491489
0.0491545
0.0491602
0.0491659
0.0491712
0.049176
0.0491801
0.0491834
0.0491859
0.0491876
0.0491886
0.0491889
0.0491885
0.0491874
0.0491855
0.0491826
0.0491786
0.0491735
0.0491674
0.0491602
0.0491524
0.049144
0.0491353
0.0491265
0.0491178
0.0491092
0.0491009
0.0490928
0.0490853
0.0490784
0.0490724
0.0490674
0.0490635
0.0490608
0.0490593
0.0490589
0.0490594
0.0490608
0.0490629
0.0490653
0.049068
0.0490706
0.0490729
0.0490748
0.049076
0.0490764
0.049076
0.0490747
0.0490726
0.0490699
0.0490666
0.0490631
0.0490595
0.0490561
0.0490532
0.0490508
0.049049
0.0490479
0.0490474
0.0490474
0.0490479
0.0490487
0.0490499
0.0490513
0.049053
0.0490545
0.0490545
0.0490495
0.0490346
0.0490082
0.0489755
0.0489456
0.0489239
0.0489096
0.0488996
0.0488968
0.0489165
0.0489818
0.04908
0.0488195
0.0491546
0.0491762
0.0491935
0.0492046
0.0492057
0.0491957
0.049177
0.0491555
0.049139
0.0491309
0.0491274
0.0491248
0.0491226
0.0491212
0.0491209
0.0491219
0.0491243
0.049128
0.0491328
0.0491387
0.0491454
0.0491525
0.0491597
0.0491668
0.0491733
0.0491791
0.0491841
0.0491881
0.0491911
0.0491932
0.0491946
0.0491953
0.0491954
0.0491948
0.0491933
0.0491909
0.0491872
0.0491823
0.0491761
0.0491688
0.0491608
0.0491523
0.0491436
0.0491349
0.0491264
0.0491182
0.0491103
0.0491028
0.0490959
0.0490896
0.0490842
0.0490797
0.0490764
0.0490743
0.0490733
0.0490733
0.0490744
0.0490762
0.0490785
0.0490811
0.0490838
0.0490863
0.0490883
0.0490897
0.0490903
0.0490899
0.0490886
0.0490863
0.0490831
0.0490792
0.0490748
0.0490701
0.0490653
0.0490609
0.0490569
0.0490535
0.0490508
0.0490488
0.0490473
0.0490464
0.0490458
0.0490454
0.0490453
0.0490453
0.0490455
0.0490456
0.0490443
0.0490383
0.0490229
0.048996
0.0489622
0.0489304
0.0489061
0.0488893
0.0488782
0.0488777
0.0489051
0.0489817
0.0490848
0.0488059
0.0491756
0.0492032
0.0492192
0.0492216
0.0492125
0.049194
0.0491697
0.0491464
0.0491313
0.049124
0.0491195
0.0491156
0.0491125
0.0491107
0.0491108
0.0491126
0.0491162
0.0491212
0.0491275
0.049135
0.0491434
0.0491521
0.049161
0.0491694
0.0491771
0.0491839
0.0491896
0.0491941
0.0491975
0.0491999
0.0492015
0.0492025
0.0492028
0.0492026
0.0492015
0.0491993
0.0491958
0.0491908
0.0491843
0.0491767
0.0491683
0.0491595
0.0491506
0.0491419
0.0491336
0.0491257
0.0491184
0.0491115
0.0491052
0.0490997
0.0490951
0.0490915
0.049089
0.0490877
0.0490874
0.0490881
0.0490897
0.0490919
0.0490945
0.0490972
0.0490997
0.0491018
0.0491033
0.049104
0.0491037
0.0491023
0.0490999
0.0490964
0.0490921
0.049087
0.0490815
0.0490757
0.04907
0.0490646
0.0490598
0.0490557
0.0490522
0.0490495
0.0490472
0.0490453
0.0490436
0.0490418
0.04904
0.0490383
0.0490368
0.0490353
0.0490325
0.0490252
0.0490086
0.0489805
0.0489453
0.0489116
0.048885
0.0488662
0.048855
0.0488584
0.0488954
0.048983
0.0490886
0.0487974
0.0491993
0.0492404
0.0492455
0.0492336
0.0492126
0.0491858
0.0491577
0.0491351
0.0491225
0.0491155
0.0491098
0.0491047
0.0491011
0.0490998
0.0491008
0.049104
0.0491091
0.0491158
0.0491237
0.049133
0.049143
0.0491535
0.0491638
0.0491735
0.0491823
0.04919
0.0491964
0.0492014
0.0492051
0.0492076
0.0492093
0.0492103
0.0492108
0.0492108
0.0492099
0.0492079
0.0492043
0.0491989
0.049192
0.0491838
0.0491748
0.0491655
0.0491562
0.0491474
0.0491392
0.0491317
0.0491249
0.0491187
0.0491133
0.0491087
0.0491051
0.0491025
0.049101
0.0491006
0.0491012
0.0491027
0.0491048
0.0491073
0.04911
0.0491126
0.0491147
0.0491162
0.0491169
0.0491165
0.0491151
0.0491125
0.0491089
0.0491042
0.0490987
0.0490925
0.049086
0.0490794
0.049073
0.049067
0.0490616
0.049057
0.0490531
0.0490498
0.0490468
0.0490438
0.0490406
0.049037
0.0490332
0.0490295
0.049026
0.0490229
0.0490185
0.0490097
0.0489914
0.0489617
0.0489247
0.0488892
0.0488608
0.048841
0.0488311
0.0488404
0.0488886
0.0489862
0.0490919
0.048797
0.0492791
0.0492825
0.0492624
0.0492338
0.0492024
0.0491702
0.0491417
0.0491227
0.0491126
0.0491051
0.0490979
0.0490923
0.0490892
0.049089
0.0490915
0.0490964
0.0491035
0.0491122
0.0491221
0.0491327
0.0491442
0.0491562
0.0491679
0.0491789
0.0491888
0.0491973
0.0492043
0.0492097
0.0492136
0.0492161
0.0492178
0.0492188
0.0492193
0.0492194
0.0492186
0.0492165
0.0492126
0.0492067
0.0491989
0.0491899
0.04918
0.0491701
0.0491605
0.0491515
0.0491434
0.0491363
0.0491301
0.0491247
0.0491201
0.0491166
0.0491141
0.0491127
0.0491124
0.049113
0.0491145
0.0491166
0.0491192
0.0491219
0.0491244
0.0491266
0.049128
0.0491286
0.0491281
0.0491265
0.0491237
0.0491198
0.0491149
0.049109
0.0491024
0.0490954
0.0490881
0.049081
0.0490741
0.0490679
0.0490623
0.0490575
0.0490534
0.0490495
0.0490457
0.0490413
0.0490362
0.0490303
0.049024
0.0490179
0.0490126
0.0490078
0.0490021
0.0489915
0.0489712
0.0489393
0.0489006
0.0488636
0.0488343
0.0488147
0.048808
0.0488254
0.0488857
0.0489914
0.0490947
0.0488064
0.049305
0.0492889
0.0492558
0.0492186
0.0491822
0.0491491
0.0491243
0.0491104
0.0491012
0.0490922
0.0490844
0.0490793
0.0490774
0.0490787
0.0490832
0.0490902
0.0490994
0.0491101
0.0491219
0.0491342
0.0491467
0.0491598
0.0491727
0.0491849
0.0491959
0.0492054
0.0492131
0.0492189
0.0492229
0.0492254
0.0492268
0.0492277
0.0492282
0.0492283
0.0492274
0.049225
0.0492206
0.0492138
0.0492051
0.049195
0.0491843
0.0491736
0.0491637
0.0491546
0.0491468
0.04914
0.0491345
0.04913
0.0491264
0.049124
0.0491227
0.0491225
0.0491233
0.049125
0.0491272
0.0491298
0.0491326
0.0491351
0.0491371
0.0491384
0.0491387
0.049138
0.0491361
0.049133
0.0491288
0.0491235
0.0491174
0.0491105
0.0491032
0.0490955
0.0490879
0.0490805
0.0490737
0.0490675
0.0490621
0.0490575
0.0490532
0.0490488
0.0490437
0.0490374
0.0490295
0.0490205
0.0490112
0.0490027
0.0489957
0.0489899
0.0489829
0.0489706
0.0489478
0.0489136
0.0488733
0.0488356
0.0488065
0.0487888
0.0487873
0.0488149
0.0488876
0.0489988
0.0490981
0.0488244
0.0493031
0.0492764
0.049236
0.0491946
0.0491569
0.0491269
0.0491086
0.0490978
0.0490876
0.0490778
0.0490703
0.0490663
0.0490661
0.0490695
0.0490762
0.0490855
0.0490968
0.0491094
0.0491227
0.0491364
0.0491502
0.0491638
0.0491778
0.0491912
0.0492034
0.0492139
0.0492223
0.0492285
0.0492327
0.0492351
0.0492364
0.0492371
0.0492375
0.0492374
0.0492363
0.0492334
0.0492281
0.0492203
0.0492104
0.0491993
0.0491877
0.0491766
0.0491665
0.0491576
0.0491501
0.049144
0.0491392
0.0491357
0.0491331
0.0491318
0.0491317
0.0491326
0.0491344
0.0491367
0.0491394
0.049142
0.0491444
0.0491463
0.0491473
0.0491473
0.0491461
0.0491437
0.0491402
0.0491356
0.04913
0.0491236
0.0491165
0.049109
0.0491012
0.0490934
0.0490858
0.0490786
0.0490722
0.0490666
0.0490617
0.0490574
0.0490529
0.0490476
0.0490405
0.0490309
0.0490192
0.0490063
0.0489938
0.0489833
0.0489754
0.048969
0.0489611
0.0489466
0.0489213
0.0488848
0.0488436
0.0488064
0.048779
0.0487651
0.0487712
0.0488105
0.0488944
0.0490082
0.0491027
0.0488487
0.049298
0.0492603
0.049212
0.0491677
0.0491316
0.049108
0.049095
0.0490841
0.0490726
0.0490627
0.0490562
0.0490538
0.0490558
0.0490616
0.0490706
0.049082
0.0490951
0.0491092
0.0491239
0.0491387
0.0491535
0.0491681
0.0491826
0.0491972
0.0492107
0.0492224
0.0492317
0.0492385
0.0492429
0.0492453
0.0492464
0.0492468
0.049247
0.0492466
0.0492451
0.0492414
0.049235
0.049226
0.0492151
0.0492031
0.049191
0.0491798
0.0491698
0.0491614
0.0491547
0.0491494
0.0491457
0.0491432
0.0491419
0.0491413
0.0491419
0.0491435
0.0491456
0.0491481
0.0491505
0.0491525
0.0491539
0.0491545
0.049154
0.0491523
0.0491494
0.0491453
0.0491402
0.0491342
0.0491276
0.0491203
0.0491128
0.049105
0.0490972
0.0490896
0.0490825
0.0490761
0.0490706
0.0490659
0.0490618
0.0490578
0.0490528
0.0490455
0.0490347
0.0490203
0.0490033
0.048986
0.0489709
0.0489595
0.0489516
0.0489449
0.0489358
0.0489188
0.0488913
0.0488542
0.0488137
0.0487783
0.0487539
0.0487456
0.0487616
0.0488132
0.0489061
0.0490197
0.0491082
0.0488767
0.0492931
0.0492436
0.0491873
0.0491415
0.0491102
0.0490939
0.0490817
0.0490689
0.0490567
0.0490474
0.0490425
0.0490423
0.0490467
0.0490549
0.0490661
0.0490793
0.0490938
0.0491089
0.0491245
0.0491401
0.0491559
0.0491716
0.0491872
0.0492026
0.0492175
0.0492306
0.049241
0.0492486
0.0492532
0.0492556
0.0492565
0.0492568
0.0492566
0.0492558
0.0492535
0.0492489
0.0492413
0.0492312
0.0492193
0.0492069
0.0491949
0.0491839
0.0491746
0.049167
0.0491612
0.0491569
0.0491541
0.0491526
0.0491522
0.0491523
0.0491529
0.0491542
0.0491559
0.0491575
0.0491589
0.0491598
0.0491598
0.0491587
0.0491565
0.049153
0.0491484
0.0491427
0.0491364
0.0491294
0.0491221
0.0491145
0.0491069
0.0490994
0.0490921
0.0490853
0.0490792
0.0490741
0.0490698
0.0490664
0.0490631
0.0490589
0.049052
0.0490404
0.0490232
0.0490017
0.0489789
0.0489584
0.0489425
0.0489319
0.0489247
0.0489177
0.048907
0.0488887
0.0488601
0.0488233
0.0487849
0.048753
0.0487338
0.0487331
0.04876
0.0488236
0.0489227
0.0490334
0.0491149
0.0489063
0.0492894
0.0492276
0.049164
0.0491198
0.0490966
0.0490814
0.049067
0.0490527
0.0490406
0.0490326
0.0490298
0.0490321
0.0490389
0.0490493
0.0490622
0.0490766
0.049092
0.0491077
0.0491238
0.0491401
0.0491568
0.0491738
0.0491909
0.0492076
0.0492237
0.0492383
0.0492501
0.0492585
0.0492636
0.0492661
0.0492669
0.0492669
0.0492663
0.0492649
0.0492616
0.0492558
0.049247
0.0492359
0.0492237
0.0492113
0.0491996
0.0491893
0.0491807
0.049174
0.0491689
0.0491652
0.0491629
0.0491615
0.0491609
0.049161
0.0491613
0.0491617
0.0491623
0.0491629
0.0491631
0.0491626
0.0491611
0.0491585
0.0491545
0.0491494
0.0491433
0.0491365
0.0491294
0.049122
0.0491146
0.0491072
0.0491
0.0490932
0.049087
0.0490817
0.0490773
0.0490737
0.049071
0.0490687
0.0490656
0.0490593
0.049047
0.049027
0.0490008
0.0489723
0.0489462
0.0489257
0.0489116
0.0489028
0.0488966
0.0488895
0.0488776
0.0488579
0.048829
0.0487938
0.0487591
0.0487324
0.0487203
0.0487292
0.0487679
0.0488416
0.0489438
0.0490494
0.0491233
0.0489354
0.0492869
0.0492127
0.049145
0.049107
0.0490849
0.0490677
0.0490513
0.0490364
0.049025
0.0490188
0.0490183
0.0490231
0.0490321
0.0490442
0.0490583
0.0490734
0.049089
0.0491049
0.0491212
0.0491382
0.0491558
0.0491743
0.0491932
0.0492119
0.0492296
0.0492454
0.0492588
0.0492682
0.0492738
0.0492765
0.0492773
0.049277
0.0492759
0.0492736
0.0492692
0.0492622
0.0492524
0.0492408
0.0492285
0.0492164
0.0492053
0.0491956
0.0491874
0.0491808
0.0491757
0.0491717
0.0491688
0.0491668
0.0491653
0.0491644
0.0491639
0.0491637
0.0491635
0.0491634
0.0491629
0.0491615
0.0491585
0.0491538
0.0491479
0.0491413
0.0491344
0.0491272
0.0491201
0.049113
0.0491062
0.0490997
0.0490937
0.0490884
0.049084
0.0490805
0.049078
0.0490762
0.0490746
0.0490719
0.0490658
0.0490528
0.0490304
0.0490006
0.0489681
0.0489377
0.0489127
0.0488947
0.048883
0.0488755
0.0488694
0.0488615
0.0488485
0.048828
0.0487999
0.0487679
0.0487385
0.048719
0.0487158
0.0487356
0.048786
0.0488672
0.0489691
0.049068
0.0491336
0.0489634
0.0492851
0.0492008
0.049134
0.0490965
0.0490728
0.0490534
0.0490355
0.0490205
0.0490104
0.0490063
0.0490082
0.0490152
0.0490259
0.0490391
0.0490537
0.0490688
0.0490843
0.0491
0.0491165
0.0491339
0.0491527
0.0491728
0.0491939
0.0492149
0.0492349
0.0492526
0.0492669
0.0492774
0.0492839
0.049287
0.0492878
0.0492872
0.0492854
0.0492821
0.0492764
0.0492683
0.049258
0.0492463
0.0492342
0.0492224
0.0492115
0.0492017
0.0491932
0.049186
0.0491799
0.0491749
0.0491708
0.0491676
0.049165
0.0491631
0.049162
0.0491616
0.0491614
0.0491606
0.0491587
0.0491555
0.0491508
0.049145
0.0491386
0.0491318
0.0491249
0.049118
0.0491115
0.0491052
0.0490995
0.0490943
0.04909
0.0490865
0.049084
0.0490824
0.0490815
0.0490804
0.0490778
0.0490713
0.0490578
0.0490354
0.0490051
0.0489708
0.0489372
0.0489079
0.048885
0.0488688
0.0488581
0.0488508
0.0488441
0.0488352
0.0488214
0.0488013
0.0487756
0.0487485
0.0487262
0.0487154
0.0487224
0.0487538
0.0488144
0.0488998
0.0489986
0.0490892
0.0491461
0.0489896
0.0492842
0.049194
0.0491254
0.0490863
0.0490604
0.0490389
0.0490201
0.0490056
0.0489971
0.0489952
0.0489992
0.049008
0.0490199
0.0490336
0.049048
0.0490627
0.0490776
0.0490929
0.0491093
0.0491273
0.0491474
0.0491694
0.0491929
0.0492166
0.0492392
0.0492591
0.0492751
0.0492867
0.0492938
0.0492972
0.049298
0.049297
0.0492945
0.0492902
0.0492836
0.0492748
0.0492642
0.0492525
0.0492405
0.0492287
0.0492176
0.0492074
0.0491982
0.04919
0.0491829
0.0491768
0.0491718
0.0491678
0.0491649