/*--------------------------------*- C++ -*----------------------------------*\
| =========                 |                                                 |
| \\      /  F ield         | OpenFOAM: The Open Source CFD Toolbox           |
|  \\    /   O peration     | Version:  4.1                                   |
|   \\  /    A nd           | Web:      www.OpenFOAM.org                      |
|    \\/     M anipulation  |                                                 |
\*---------------------------------------------------------------------------*/
FoamFile
{
    version     2.0;
    format      ascii;
    class       surfaceScalarField;
    location    "1500";
    object      phi;
}
// * * * * * * * * * * * * * * * * * * * * * * * * * * * * * * * * * * * * * //

dimensions      [0 3 -1 0 0 0 0];

internalField   nonuniform List<scalar> 
3120
(
-7.41104e-06
7.41104e-06
-9.40242e-06
1.99138e-06
-7.293e-06
-2.10942e-06
-2.84786e-06
-4.44513e-06
1.52428e-06
-4.37215e-06
4.71452e-06
-3.19024e-06
6.78815e-06
-2.07363e-06
8.1518e-06
-1.36365e-06
9.00358e-06
-8.51783e-07
9.50261e-06
-4.99028e-07
9.90537e-06
-4.0276e-07
1.05492e-05
-6.43781e-07
1.11294e-05
-5.80272e-07
9.10084e-06
2.02859e-06
1.38017e-06
7.72067e-06
-4.09387e-06
5.47404e-06
-5.28695e-06
1.19307e-06
-6.08513e-06
7.98182e-07
-6.62743e-06
5.42305e-07
-6.79915e-06
1.7172e-07
-6.49447e-06
-3.04682e-07
-5.61083e-06
-8.83646e-07
-4.13257e-06
-1.47826e-06
-2.14867e-06
-1.98389e-06
-4.22244e-09
-2.14445e-06
2.08787e-06
-2.0921e-06
4.06368e-06
-1.97581e-06
5.85088e-06
-1.7872e-06
7.41998e-06
-1.5691e-06
8.77576e-06
-1.35578e-06
9.96042e-06
-1.18466e-06
1.10705e-05
-1.1101e-06
1.22674e-05
-1.19686e-06
1.37342e-05
-1.46683e-06
1.53671e-05
-1.63286e-06
1.64115e-05
-1.04439e-06
1.48824e-05
1.52901e-06
9.18165e-06
5.7008e-06
5.10902e-06
4.07263e-06
5.10902e-06
-5.37792e-06
1.2789e-05
-6.41026e-06
3.02372e-06
-3.68945e-06
-4.83024e-06
3.67696e-07
-8.50228e-06
3.74588e-06
-7.75033e-06
6.27923e-06
-5.72359e-06
8.2195e-06
-4.0139e-06
9.57795e-06
-2.7221e-06
1.048e-05
-1.75381e-06
1.10555e-05
-1.07456e-06
1.14205e-05
-7.67779e-07
1.16787e-05
-9.01948e-07
1.15961e-05
-4.97637e-07
9.21873e-06
4.40591e-06
2.53608e-06
1.44033e-05
-3.01125e-06
1.10214e-05
-4.72636e-06
2.90818e-06
-5.89347e-06
1.96529e-06
-6.66221e-06
1.31104e-06
-6.94472e-06
4.54229e-07
-6.6804e-06
-5.69e-07
-5.82045e-06
-1.7436e-06
-4.3945e-06
-2.90421e-06
-2.4942e-06
-3.88419e-06
-2.97036e-07
-4.34162e-06
1.88748e-06
-4.27661e-06
3.92928e-06
-4.0176e-06
5.79256e-06
-3.65048e-06
7.45376e-06
-3.2303e-06
8.93844e-06
-2.84046e-06
1.03132e-05
-2.55944e-06
1.16618e-05
-2.4587e-06
1.30531e-05
-2.58814e-06
1.45321e-05
-2.94583e-06
1.59444e-05
-3.0452e-06
1.66406e-05
-1.74056e-06
1.521e-05
2.9596e-06
1.09589e-05
9.95196e-06
5.5676e-06
9.46389e-06
1.06766e-05
-3.37822e-06
1.61672e-05
-2.89753e-06
2.54303e-06
4.42246e-07
-8.17001e-06
3.31068e-06
-1.13707e-05
5.79333e-06
-1.0233e-05
7.95471e-06
-7.88497e-06
9.60661e-06
-5.6658e-06
1.07536e-05
-3.86909e-06
1.14755e-05
-2.47574e-06
1.18634e-05
-1.46239e-06
1.19699e-05
-8.74321e-07
1.17584e-05
-6.9042e-07
1.10143e-05
2.46462e-07
8.78005e-06
6.64015e-06
3.82711e-06
1.93563e-05
-1.30229e-06
1.61508e-05
-3.57428e-06
5.18018e-06
-5.10624e-06
3.49725e-06
-6.13466e-06
2.33946e-06
-6.57326e-06
8.92828e-07
-6.38442e-06
-7.57837e-07
-5.60897e-06
-2.51906e-06
-4.30617e-06
-4.207e-06
-2.5678e-06
-5.62256e-06
-5.17375e-07
-6.39204e-06
1.59574e-06
-6.38973e-06
3.59138e-06
-6.01324e-06
5.41632e-06
-5.47543e-06
7.03982e-06
-4.85379e-06
8.48257e-06
-4.28322e-06
9.80621e-06
-3.88307e-06
1.10894e-05
-3.74189e-06
1.23935e-05
-3.89228e-06
1.37686e-05
-4.32085e-06
1.50086e-05
-4.28525e-06
1.53618e-05
-2.09372e-06
1.40172e-05
4.30419e-06
1.03215e-05
1.36476e-05
4.76892e-06
1.50165e-05
1.54455e-05
-1.95391e-06
1.81211e-05
4.35473e-07
1.53642e-07
3.62142e-06
-1.1356e-05
5.79428e-06
-1.35436e-05
7.79443e-06
-1.22331e-05
9.532e-06
-9.62254e-06
1.0868e-05
-7.00176e-06
1.17742e-05
-4.77532e-06
1.22925e-05
-2.99408e-06
1.248e-05
-1.64989e-06
1.2356e-05
-7.50258e-07
1.1834e-05
-1.68416e-07
1.07205e-05
1.35989e-06
8.58616e-06
8.77452e-06
4.79023e-06
2.31522e-05
1.15219e-07
2.08258e-05
-2.70434e-06
7.99974e-06
-4.40274e-06
5.19566e-06
-5.57079e-06
3.50751e-06
-6.0917e-06
1.41374e-06
-5.97685e-06
-8.72688e-07
-5.29819e-06
-3.19772e-06
-4.13263e-06
-5.37256e-06
-2.57186e-06
-7.18334e-06
-7.0238e-07
-8.26152e-06
1.28978e-06
-8.38189e-06
3.21241e-06
-7.93587e-06
4.97783e-06
-7.24084e-06
6.54397e-06
-6.41993e-06
7.92574e-06
-5.66499e-06
9.18196e-06
-5.13929e-06
1.03917e-05
-4.95165e-06
1.16163e-05
-5.11685e-06
1.29242e-05
-5.62878e-06
1.41058e-05
-5.46679e-06
1.42584e-05
-2.24638e-06
1.27431e-05
5.81956e-06
9.04851e-06
1.73422e-05
3.49231e-06
2.05727e-05
1.89379e-05
1.10729e-06
1.70138e-05
4.41278e-06
-3.15185e-06
6.2192e-06
-1.31624e-05
7.94803e-06
-1.52724e-05
9.48798e-06
-1.37731e-05
1.08262e-05
-1.09608e-05
1.18597e-05
-8.0352e-06
1.25372e-05
-5.45282e-06
1.28669e-05
-3.3238e-06
1.28775e-05
-1.66051e-06
1.25683e-05
-4.41048e-07
1.18401e-05
5.5985e-07
1.05484e-05
2.65158e-06
8.51843e-06
1.08044e-05
5.51787e-06
2.61528e-05
1.48409e-06
2.48596e-05
-1.90397e-06
1.13878e-05
-3.70547e-06
6.99716e-06
-4.94776e-06
4.7498e-06
-5.5275e-06
1.99347e-06
-5.48153e-06
-9.1866e-07
-4.90465e-06
-3.7746e-06
-3.88493e-06
-6.39228e-06
-2.50714e-06
-8.56113e-06
-8.42839e-07
-9.92581e-06
9.92948e-07
-1.02177e-05
2.81389e-06
-9.75682e-06
4.49779e-06
-8.92474e-06
5.98796e-06
-7.9101e-06
7.29272e-06
-6.96975e-06
8.47095e-06
-6.31752e-06
9.60757e-06
-6.08827e-06
1.07704e-05
-6.27965e-06
1.20505e-05
-6.90892e-06
1.32429e-05
-6.6592e-06
1.32581e-05
-2.26159e-06
1.15166e-05
7.56107e-06
7.7261e-06
2.11327e-05
2.26528e-06
2.60335e-05
2.12031e-05
2.62487e-06
1.43889e-05
6.33006e-06
-6.85704e-06
8.24459e-06
-1.50769e-05
9.58103e-06
-1.66089e-05
1.07193e-05
-1.49114e-05
1.17196e-05
-1.19611e-05
1.25012e-05
-8.81675e-06
1.2993e-05
-5.94463e-06
1.31733e-05
-3.50415e-06
1.30484e-05
-1.53562e-06
1.2601e-05
6.39626e-09
1.17509e-05
1.40998e-06
1.03983e-05
4.00411e-06
8.49448e-06
1.27083e-05
6.08381e-06
2.85634e-05
2.59552e-06
2.83479e-05
-1.07103e-06
1.50543e-05
-2.99796e-06
8.92409e-06
-4.27506e-06
6.0269e-06
-4.89153e-06
2.60995e-06
-4.90757e-06
-9.0262e-07
-4.43357e-06
-4.2486e-06
-3.56308e-06
-7.26278e-06
-2.37126e-06
-9.75295e-06
-9.20269e-07
-1.13768e-05
7.31744e-07
-1.18697e-05
2.42088e-06
-1.1446e-05
3.99924e-06
-1.05031e-05
5.39298e-06
-9.30383e-06
6.60292e-06
-8.1797e-06
7.69087e-06
-7.40547e-06
8.75349e-06
-7.1509e-06
9.87443e-06
-7.40059e-06
1.11642e-05
-8.19872e-06
1.24085e-05
-7.90349e-06
1.23049e-05
-2.15794e-06
1.03315e-05
9.53447e-06
6.46741e-06
2.49967e-05
1.44975e-06
3.10512e-05
2.26529e-05
4.2223e-06
1.01666e-05
7.91775e-06
-1.05525e-05
9.6542e-06
-1.68134e-05
1.06207e-05
-1.75754e-05
1.1428e-05
-1.57186e-05
1.21782e-05
-1.27113e-05
1.27855e-05
-9.42411e-06
1.31545e-05
-6.31363e-06
1.32373e-05
-3.58688e-06
1.30233e-05
-1.32169e-06
1.24891e-05
5.40653e-07
1.15847e-05
2.31434e-06
1.0241e-05
5.34783e-06
8.4834e-06
1.44659e-05
6.52783e-06
3.0519e-05
3.53006e-06
3.13456e-05
-1.83646e-07
1.8768e-05
-2.29813e-06
1.10386e-05
-3.56078e-06
7.28954e-06
-4.19425e-06
3.24342e-06
-4.26193e-06
-8.34941e-07
-3.88848e-06
-4.62204e-06
-3.16752e-06
-7.98374e-06
-2.16138e-06
-1.07591e-05
-9.19082e-07
-1.26191e-05
5.31262e-07
-1.332e-05
2.06109e-06
-1.29758e-05
3.50975e-06
-1.19518e-05
4.78567e-06
-1.05797e-05
5.88182e-06
-9.27584e-06
6.86614e-06
-8.3898e-06
7.85367e-06
-8.13842e-06
8.95452e-06
-8.50144e-06
1.02851e-05
-9.52929e-06
1.15953e-05
-9.21369e-06
1.1357e-05
-1.91963e-06
9.14497e-06
1.17465e-05
5.23115e-06
2.89106e-05
9.32073e-07
3.53502e-05
2.3585e-05
6.17378e-06
3.99285e-06
9.15136e-06
-1.35301e-05
1.03898e-05
-1.80517e-05
1.10341e-05
-1.82197e-05
1.1628e-05
-1.63126e-05
1.2244e-05
-1.33273e-05
1.27703e-05
-9.9504e-06
1.3086e-05
-6.62928e-06
1.31233e-05
-3.6242e-06
1.28615e-05
-1.0599e-06
1.22848e-05
1.11735e-06
1.13706e-05
3.22855e-06
1.00735e-05
6.64491e-06
8.46968e-06
1.60697e-05
6.86487e-06
3.21238e-05
4.28723e-06
3.39233e-05
7.11902e-07
2.23434e-05
-1.59092e-06
1.33414e-05
-2.81519e-06
8.51381e-06
-3.44282e-06
3.87104e-06
-3.55173e-06
-7.26032e-07
-3.27367e-06
-4.9001e-06
-2.69925e-06
-8.55817e-06
-1.87454e-06
-1.15838e-05
-8.33268e-07
-1.36604e-05
4.1096e-07
-1.45643e-05
1.76099e-06
-1.43258e-05
3.05813e-06
-1.32489e-05
4.19568e-06
-1.17173e-05
5.15927e-06
-1.02394e-05
6.02659e-06
-9.25712e-06
6.9382e-06
-9.05004e-06
8.03833e-06
-9.60157e-06
9.42323e-06
-1.09142e-05
1.0781e-05
-1.05715e-05
1.03715e-05
-1.51011e-06
7.89471e-06
1.42233e-05
3.93982e-06
3.28654e-05
5.10951e-07
3.87791e-05
2.40959e-05
8.59445e-06
-4.6016e-06
9.76548e-06
-1.47011e-05
1.03539e-05
-1.86402e-05
1.08503e-05
-1.87161e-05
1.14074e-05
-1.68697e-05
1.20178e-05
-1.39376e-05
1.2551e-05
-1.04836e-05
1.2873e-05
-6.95136e-06
1.29069e-05
-3.65807e-06
1.26309e-05
-7.83921e-07
1.20429e-05
1.70535e-06
1.11401e-05
4.13134e-06
9.90177e-06
7.88328e-06
8.44308e-06
1.75284e-05
7.10777e-06
3.34591e-05
4.88777e-06
3.61433e-05
1.61726e-06
2.56139e-05
-8.19278e-07
1.57779e-05
-2.0425e-06
9.73703e-06
-2.64631e-06
4.47486e-06
-2.78457e-06
-5.87775e-07
-2.59498e-06
-5.08969e-06
-2.16132e-06
-8.99183e-06
-1.51121e-06
-1.22339e-05
-6.59267e-07
-1.45123e-05
3.8241e-07
-1.56059e-05
1.54151e-06
-1.54849e-05
2.67019e-06
-1.43776e-05
3.65195e-06
-1.26991e-05
4.46655e-06
-1.1054e-05
5.20468e-06
-9.99524e-06
6.03934e-06
-9.8847e-06
7.14708e-06
-1.07093e-05
8.56798e-06
-1.23351e-05
9.92401e-06
-1.19275e-05
9.28944e-06
-8.75541e-07
6.51444e-06
1.69983e-05
2.55286e-06
3.6827e-05
7.767e-08
4.12543e-05
2.41736e-05
7.24097e-06
-1.18426e-05
8.87769e-06
-1.63378e-05
9.60337e-06
-1.93659e-05
1.02474e-05
-1.93601e-05
1.09249e-05
-1.75473e-05
1.16197e-05
-1.46325e-05
1.22151e-05
-1.10789e-05
1.25809e-05
-7.31719e-06
1.26383e-05
-3.71547e-06
1.23702e-05
-5.15777e-07
1.17886e-05
2.28694e-06
1.09072e-05
5.01276e-06
9.72681e-06
9.06363e-06
8.39492e-06
1.88603e-05
7.26732e-06
3.45867e-05
5.36815e-06
3.80424e-05
2.46597e-06
2.85161e-05
-1.95263e-09
1.82459e-05
-1.2525e-06
1.09876e-05
-1.80712e-06
5.02948e-06
-1.96728e-06
-4.27614e-07
-1.86019e-06
-5.19678e-06
-1.55928e-06
-9.29274e-06
-1.07527e-06
-1.27179e-05
-3.99389e-07
-1.51882e-05
4.4771e-07
-1.6453e-05
1.41454e-06
-1.64517e-05
2.36462e-06
-1.53277e-05
3.17847e-06
-1.35129e-05
3.83205e-06
-1.17076e-05
4.4308e-06
-1.0594e-05
5.18467e-06
-1.06386e-05
6.28771e-06
-1.18124e-05
7.68497e-06
-1.37323e-05
8.95202e-06
-1.31946e-05
8.04077e-06
3.57046e-08
4.95006e-06
2.0089e-05
1.11471e-06
4.06624e-05
-3.5061e-07
4.27196e-05
2.3823e-05
5.37427e-06
-1.72168e-05
7.63809e-06
-1.86016e-05
8.69504e-06
-2.04228e-05
9.5202e-06
-2.01852e-05
1.03306e-05
-1.83576e-05
1.11238e-05
-1.54257e-05
1.17974e-05
-1.17525e-05
1.22248e-05
-7.74454e-06
1.23231e-05
-3.81377e-06
1.20786e-05
-2.7131e-07
1.15157e-05
2.84982e-06
1.06637e-05
5.86475e-06
9.53988e-06
1.01875e-05
8.31543e-06
2.00848e-05
7.34911e-06
3.5553e-05
5.73914e-06
3.96524e-05
3.21033e-06
3.10449e-05
9.52001e-07
2.05042e-05
-3.54991e-07
1.22946e-05
-9.11982e-07
5.58647e-06
-1.10343e-06
-2.36165e-07
-1.07493e-06
-5.22528e-06
-9.00441e-07
-9.46723e-06
-5.7207e-07
-1.30463e-05
-6.81879e-08
-1.56921e-05
5.99782e-07
-1.7121e-05
1.3812e-06
-1.72331e-05
2.14981e-06
-1.60963e-05
2.79003e-06
-1.41531e-05
3.27596e-06
-1.21935e-05
3.72602e-06
-1.1044e-05
4.38761e-06
-1.13002e-05
5.44937e-06
-1.28741e-05
6.72889e-06
-1.50119e-05
7.78203e-06
-1.42477e-05
6.59885e-06
1.21889e-06
3.1658e-06
2.3522e-05
-3.47376e-07
4.41756e-05
-6.69381e-07
4.30416e-05
2.31536e-05
4.23308e-06
-2.14499e-05
6.57051e-06
-2.09391e-05
7.81045e-06
-2.16628e-05
8.74984e-06
-2.11246e-05
9.65245e-06
-1.92602e-05
1.05271e-05
-1.63004e-05
1.12789e-05
-1.25043e-05
1.1779e-05
-8.24463e-06
1.19342e-05
-3.96903e-06
1.17305e-05
-6.75852e-08
1.12008e-05
3.37952e-06
1.03899e-05
6.67561e-06
9.32527e-06
1.12521e-05
8.1925e-06
2.12175e-05
7.35296e-06
3.63926e-05
6.00614e-06
4.09992e-05
3.85323e-06
3.31978e-05
1.83863e-06
2.25188e-05
6.01683e-07
1.35315e-05
3.01782e-08
6.15797e-06
-1.78981e-07
-2.70058e-08
-2.38398e-07
-5.16586e-06
-1.87745e-07
-9.51788e-06
-1.56832e-08
-1.32183e-05
3.21879e-07
-1.60296e-05
8.26223e-07
-1.76253e-05
1.43202e-06
-1.78389e-05
2.02236e-06
-1.66866e-05
2.48905e-06
-1.46198e-05
2.80487e-06
-1.25093e-05
3.09418e-06
-1.13334e-05
3.63983e-06
-1.18458e-05
4.60605e-06
-1.38403e-05
5.65864e-06
-1.60645e-05
6.33604e-06
-1.49251e-05
4.895e-06
2.65992e-06
1.25649e-06
2.71605e-05
-1.71387e-06
4.71459e-05
-8.66745e-07
4.21945e-05
2.22869e-05
3.42041e-06
-2.48703e-05
5.61959e-06
-2.31383e-05
6.92594e-06
-2.29691e-05
7.92453e-06
-2.21232e-05
8.87717e-06
-2.02129e-05
9.80684e-06
-1.72301e-05
1.06279e-05
-1.33253e-05
1.12083e-05
-8.82505e-06
1.14373e-05
-4.19801e-06
1.12945e-05
7.52057e-08
1.08163e-05
3.85772e-06
1.00625e-05
7.42945e-06
9.0641e-06
1.22505e-05
8.01204e-06
2.22696e-05
7.27465e-06
3.713e-05
6.17103e-06
4.21028e-05
4.39255e-06
3.49763e-05
2.66249e-06
2.42488e-05
1.54803e-06
1.4646e-05
9.66539e-07
6.73946e-06
6.91473e-07
2.48061e-07
5.72006e-07
-5.04639e-06
5.27883e-07
-9.47376e-06
5.73718e-07
-1.32642e-05
7.64687e-07
-1.62206e-05
1.11139e-06
-1.79721e-05
1.54939e-06
-1.82769e-05
1.96795e-06
-1.71052e-05
2.26476e-06
-1.49166e-05
2.40858e-06
-1.26532e-05
2.51759e-06
-1.14424e-05
2.91209e-06
-1.22403e-05
3.72629e-06
-1.46545e-05
4.45365e-06
-1.67918e-05
4.53291e-06
-1.50043e-05
2.75454e-06
4.43828e-06
-8.01076e-07
3.07162e-05
-2.75036e-06
4.90952e-05
-9.05484e-07
4.03496e-05
2.13814e-05
2.78623e-06
-2.76565e-05
4.75992e-06
-2.5112e-05
6.0404e-06
-2.42496e-05
7.04228e-06
-2.31251e-05
7.99813e-06
-2.11687e-05
8.94671e-06
-1.81786e-05
9.81768e-06
-1.41963e-05
1.048e-05
-9.48735e-06
1.08e-05
-4.51807e-06
1.07379e-05
1.37355e-07
1.03352e-05
4.26039e-06
9.65822e-06
8.10644e-06
8.73659e-06
1.31722e-05
7.7588e-06
2.32474e-05
7.1074e-06
3.77814e-05
6.23309e-06
4.29772e-05
4.82508e-06
3.63843e-05
3.40902e-06
2.56649e-05
2.44723e-06
1.56078e-05
1.89852e-06
7.28817e-06
1.59036e-06
5.56225e-07
1.4052e-06
-4.86124e-06
1.26769e-06
-9.33624e-06
1.19195e-06
-1.31884e-05
1.24179e-06
-1.62705e-05
1.43489e-06
-1.81651e-05
1.71111e-06
-1.85532e-05
1.96458e-06
-1.73587e-05
2.09554e-06
-1.50476e-05
2.06175e-06
-1.26194e-05
1.96202e-06
-1.13426e-05
2.16992e-06
-1.24482e-05
2.78909e-06
-1.52737e-05
3.12544e-06
-1.71282e-05
2.37883e-06
-1.42577e-05
4.50069e-07
6.36704e-06
-2.51653e-06
3.36828e-05
-3.40694e-06
4.99856e-05
-7.58027e-07
3.77007e-05
2.06233e-05
2.26161e-06
-2.99182e-05
3.97125e-06
-2.68216e-05
5.15623e-06
-2.54346e-05
6.10666e-06
-2.40755e-05
7.01676e-06
-2.20788e-05
7.94101e-06
-1.91029e-05
8.83112e-06
-1.50864e-05
9.56752e-06
-1.02238e-05
9.99314e-06
-4.94369e-06
1.00347e-05
9.58056e-08
9.73312e-06
4.56196e-06
9.15569e-06
8.68387e-06
8.32337e-06
1.40045e-05
7.41716e-06
2.41536e-05
6.84294e-06
3.83556e-05
6.18977e-06
4.36303e-05
5.14726e-06
3.74268e-05
4.06203e-06
2.67501e-05
3.27942e-06
1.63904e-05
2.7899e-06
7.77769e-06
2.46727e-06
8.78848e-07
2.22432e-06
-4.61828e-06
2.00372e-06
-9.11565e-06
1.81889e-06
-1.30036e-05
1.7353e-06
-1.61869e-05
1.77764e-06
-1.82075e-05
1.89498e-06
-1.86705e-05
1.98756e-06
-1.74512e-05
1.95448e-06
-1.50145e-05
1.73137e-06
-1.23963e-05
1.39388e-06
-1.10052e-05
1.40368e-06
-1.2458e-05
1.8046e-06
-1.56746e-05
1.70547e-06
-1.7029e-05
1.65075e-07
-1.27173e-05
-1.51247e-06
8.04459e-06
-3.62813e-06
3.57984e-05
-3.6204e-06
4.99779e-05
-4.80657e-07
3.4561e-05
2.01427e-05
1.80887e-06
-3.1727e-05
3.23818e-06
-2.82509e-05
4.27736e-06
-2.64738e-05
5.12742e-06
-2.49256e-05
5.94486e-06
-2.28963e-05
6.7983e-06
-1.99563e-05
7.66664e-06
-1.59547e-05
8.45666e-06
-1.10138e-05
8.99588e-06
-5.48291e-06
9.16041e-06
-6.87274e-08
8.98969e-06
4.73268e-06
8.53651e-06
9.13705e-06
7.80645e-06
1.47345e-05
6.97188e-06
2.49882e-05
6.47268e-06
3.88548e-05
6.03824e-06
4.40648e-05
5.35632e-06
3.81087e-05
4.60903e-06
2.74974e-05
4.02689e-06
1.69725e-05
3.61939e-06
8.18519e-06
3.30139e-06
1.19685e-06
3.0148e-06
-4.33169e-06
2.72241e-06
-8.82327e-06
2.43998e-06
-1.27212e-05
2.23052e-06
-1.59774e-05
2.12425e-06
-1.81012e-05
2.08256e-06
-1.86288e-05
2.01471e-06
-1.73834e-05
1.81633e-06
-1.48161e-05
1.38831e-06
-1.19682e-05
8.06715e-07
-1.04236e-05
6.58034e-07
-1.23093e-05
8.28127e-07
-1.58447e-05
2.5674e-07
-1.64577e-05
-1.36525e-06
-1.10953e-05
-2.7784e-06
9.45774e-06
-4.2131e-06
3.72331e-05
-3.36769e-06
4.91325e-05
-1.5653e-08
3.12089e-05
2.0127e-05
1.40582e-06
-3.31328e-05
2.55051e-06
-2.93956e-05
3.40966e-06
-2.73329e-05
4.11995e-06
-2.56358e-05
4.80447e-06
-2.35808e-05
5.54276e-06
-2.06946e-05
6.34257e-06
-1.67546e-05
7.15124e-06
-1.18224e-05
7.79917e-06
-6.13083e-06
8.10511e-06
-3.74676e-07
8.09312e-06
4.74467e-06
7.78753e-06
9.44264e-06
7.17018e-06
1.53519e-05
6.40887e-06
2.57495e-05
5.9891e-06
3.92745e-05
5.7772e-06
4.42767e-05
5.45215e-06
3.84337e-05
5.04364e-06
2.79059e-05
4.67684e-06
1.73393e-05
4.37061e-06
8.49143e-06
4.07733e-06
1.49013e-06
3.76384e-06
-4.0182e-06
3.41236e-06
-8.47179e-06
3.04368e-06
-1.23525e-05
2.71642e-06
-1.56501e-05
2.464e-06
-1.78488e-05
2.26141e-06
-1.84262e-05
2.03042e-06
-1.71524e-05
1.66286e-06
-1.44486e-05
1.01711e-06
-1.13225e-05
2.50396e-07
-9.65685e-06
2.01859e-08
-1.20791e-05
-3.86153e-08
-1.57859e-05
-7.48122e-07
-1.57482e-05
-2.55961e-06
-9.28386e-06
-3.52813e-06
1.04263e-05
-4.34267e-06
3.80476e-05
-2.70934e-06
4.74992e-05
4.22349e-07
2.80772e-05
2.05494e-05
1.03902e-06
-3.41719e-05
1.90239e-06
-3.0259e-05
2.56073e-06
-2.79913e-05
3.10352e-06
-2.61786e-05
3.62537e-06
-2.41026e-05
4.21203e-06
-2.12813e-05
4.89814e-06
-1.74407e-05
5.67823e-06
-1.26025e-05
6.41795e-06
-6.87055e-06
6.87468e-06
-8.31402e-07
7.04443e-06
4.57492e-06
6.90236e-06
9.58471e-06
6.40172e-06
1.58525e-05
5.71595e-06
2.64353e-05
5.38716e-06
3.96033e-05
5.40848e-06
4.42554e-05
5.43854e-06
3.84037e-05
5.36552e-06
2.7979e-05
5.22271e-06
1.74821e-05
5.03425e-06
8.67989e-06
4.78494e-06
1.73944e-06
4.46134e-06
-3.69459e-06
4.06435e-06
-8.0748e-06
3.62129e-06
-1.19094e-05
3.18542e-06
-1.52143e-05
2.79081e-06
-1.74542e-05
2.42569e-06
-1.80611e-05
2.02752e-06
-1.67542e-05
1.48548e-06
-1.39065e-05
6.21621e-07
-1.04586e-05
-1.95788e-07
-8.83944e-06
-3.81252e-07
-1.18937e-05
-6.7112e-07
-1.54961e-05
-1.56915e-06
-1.48501e-05
-3.2939e-06
-7.55911e-06
-3.88261e-06
1.1015e-05
-4.08881e-06
3.82538e-05
-1.75572e-06
4.51661e-05
8.60036e-07
2.54615e-05
2.14094e-05
7.00321e-07
-3.48722e-05
1.29082e-06
-3.08495e-05
1.73896e-06
-2.84394e-05
2.09854e-06
-2.65382e-05
2.44064e-06
-2.44447e-05
2.8519e-06
-2.16925e-05
3.38921e-06
-1.7978e-05
4.08911e-06
-1.33024e-05
4.89291e-06
-7.67435e-06
5.49696e-06
-1.43546e-06
5.86071e-06
4.21117e-06
5.88174e-06
9.56368e-06
5.49057e-06
1.62437e-05
4.88355e-06
2.70423e-05
4.66611e-06
3.98208e-05
4.93849e-06
4.3983e-05
5.32389e-06
3.80183e-05
5.58005e-06
2.77228e-05
5.66475e-06
1.73974e-05
5.60631e-06
8.73832e-06
5.41764e-06
1.9281e-06
5.1e-06
-3.37695e-06
4.67152e-06
-7.64632e-06
4.16669e-06
-1.14046e-05
3.63299e-06
-1.46806e-05
3.10251e-06
-1.69237e-05
2.5755e-06
-1.75341e-05
2.00676e-06
-1.61855e-05
1.28575e-06
-1.31855e-05
2.46073e-07
-9.41896e-06
-4.32903e-07
-8.16046e-06
-5.14901e-07
-1.18117e-05
-1.03132e-06
-1.49796e-05
-2.08462e-06
-1.37968e-05
-3.65756e-06
-5.98617e-06
-3.95404e-06
1.13115e-05
-3.51122e-06
3.7811e-05
-6.46053e-07
4.23009e-05
1.25867e-06
2.35568e-05
2.26681e-05
3.84297e-07
-3.52565e-05
7.14015e-07
-3.11792e-05
9.51961e-07
-2.86774e-05
1.12331e-06
-2.67096e-05
1.28141e-06
-2.46028e-05
1.5084e-06
-2.19195e-05
1.87829e-06
-1.83479e-05
2.45515e-06
-1.38793e-05
3.2842e-06
-8.50341e-06
4.0235e-06
-2.17476e-06
4.57249e-06
3.66218e-06
4.72931e-06
9.40686e-06
4.42601e-06
1.6547e-05
3.90543e-06
2.75629e-05
3.83168e-06
3.98945e-05
4.37967e-06
4.3435e-05
5.12158e-06
3.72764e-05
5.69768e-06
2.71467e-05
6.00894e-06
1.70862e-05
6.08912e-06
8.65814e-06
5.97264e-06
2.04459e-06
5.6756e-06
-3.07991e-06
5.22919e-06
-7.19992e-06
4.67596e-06
-1.08514e-05
4.05686e-06
-1.40615e-05
3.39973e-06
-1.62666e-05
2.71561e-06
-1.685e-05
1.97595e-06
-1.54458e-05
1.07424e-06
-1.22838e-05
-3.08706e-08
-8.31384e-06
-4.07701e-07
-7.78363e-06
-4.26665e-07
-1.17927e-05
-1.14275e-06
-1.42635e-05
-2.31887e-06
-1.26207e-05
-3.7355e-06
-4.56954e-06
-3.83645e-06
1.14124e-05
-2.6878e-06
3.66624e-05
5.76955e-07
3.90361e-05
1.6299e-06
2.25038e-05
2.4298e-05
7.98058e-08
-3.53363e-05
1.71855e-07
-3.12712e-05
2.01086e-07
-2.87066e-05
1.91365e-07
-2.66998e-05
1.67549e-07
-2.4579e-05
2.14758e-07
-2.19667e-05
4.17736e-07
-1.85508e-05
8.50173e-07
-1.43117e-05
1.63119e-06
-9.28442e-06
2.49614e-06
-3.0397e-06
3.20562e-06
2.95269e-06
3.44004e-06
9.17244e-06
3.19263e-06
1.67944e-05
2.78044e-06
2.79751e-05
2.89925e-06
3.97757e-05
3.75169e-06
4.25825e-05
4.84993e-06
3.61781e-05
5.73308e-06
2.62636e-05
6.26553e-06
1.65537e-05
6.48858e-06
8.4351e-06
6.45281e-06
2.08036e-06
6.1867e-06
-2.8138e-06
5.73459e-06
-6.74781e-06
5.1468e-06
-1.02636e-05
4.45624e-06
-1.33709e-05
3.6846e-06
-1.54949e-05
2.85342e-06
-1.60188e-05
1.95036e-06
-1.45428e-05
8.83838e-07
-1.12173e-05
-1.28884e-07
-7.30112e-06
-1.54059e-07
-7.75846e-06
-2.15137e-07
-1.17316e-05
-1.06614e-06
-1.34125e-05
-2.32785e-06
-1.1359e-05
-3.59813e-06
-3.29927e-06
-3.59375e-06
1.1408e-05
-1.78324e-06
3.48519e-05
1.5379e-06
3.5715e-05
1.95746e-06
2.20843e-05
2.62554e-05
-1.89204e-07
-3.51471e-05
-3.37838e-07
-3.11226e-05
-4.9971e-07
-2.85447e-05
-6.88059e-07
-2.65115e-05
-8.74847e-07
-2.43922e-05
-9.92871e-07
-2.18487e-05
-9.48647e-07
-1.85951e-05
-6.62712e-07
-1.45977e-05
-7.39527e-08
-9.87318e-06
9.33058e-07
-4.04671e-06
1.75115e-06
2.1346e-06
1.98545e-06
8.93814e-06
1.76789e-06
1.7012e-05
1.51817e-06
2.82248e-05
1.89833e-06
3.93955e-05
3.08209e-06
4.13988e-05
4.53138e-06
3.47288e-05
5.7038e-06
2.50911e-05
6.44756e-06
1.581e-05
6.81279e-06
8.06987e-06
6.86235e-06
2.0308e-06
6.63284e-06
-2.58428e-06
6.18589e-06
-6.30085e-06
5.57785e-06
-9.65557e-06
4.83076e-06
-1.26238e-05
3.95907e-06
-1.46232e-05
2.99628e-06
-1.5056e-05
1.95006e-06
-1.34966e-05
7.86241e-07
-1.00535e-05
1.89519e-08
-6.53383e-06
2.25102e-07
-7.96461e-06
5.45513e-08
-1.15611e-05
-8.61022e-07
-1.2497e-05
-2.15788e-06
-1.00621e-05
-3.31251e-06
-2.14463e-06
-3.2577e-06
1.13532e-05
-9.45929e-07
3.25401e-05
2.18182e-06
3.25872e-05
2.1881e-06
2.2078e-05
2.84435e-05
-4.46364e-07
-3.47007e-05
-8.15956e-07
-3.0753e-05
-1.16026e-06
-2.82004e-05
-1.51095e-06
-2.61608e-05
-1.85328e-06
-2.40499e-05
-2.12773e-06
-2.15743e-05
-2.23486e-06
-1.84879e-05
-2.08076e-06
-1.47518e-05
-1.63236e-06
-1.03216e-05
-7.5585e-07
-4.92322e-06
2.22359e-08
1.35652e-06
2.79474e-07
8.6809e-06
1.64654e-07
1.71268e-05
1.77488e-07
2.82119e-05
8.7733e-07
3.86957e-05
2.40552e-06
3.98706e-05
4.19078e-06
3.29436e-05
5.62877e-06
2.36531e-05
6.56956e-06
1.48692e-05
7.0722e-06
7.56723e-06
7.20356e-06
1.89943e-06
7.01312e-06
-2.39384e-06
6.58138e-06
-5.86912e-06
5.96803e-06
-9.04222e-06
5.17947e-06
-1.18353e-05
4.22326e-06
-1.3667e-05
3.14879e-06
-1.39815e-05
1.99366e-06
-1.23414e-05
8.30945e-07
-8.89076e-06
4.14499e-07
-6.11739e-06
7.16182e-07
-8.26629e-06
3.49109e-07
-1.1194e-05
-5.80089e-07
-1.15678e-05
-1.87846e-06
-8.76377e-06
-2.94556e-06
-1.07754e-06
-2.85635e-06
1.1264e-05
-2.73924e-07
2.99577e-05
2.48599e-06
2.98273e-05
2.2892e-06
2.22748e-05
3.07327e-05
-6.91669e-07
-3.4009e-05
-1.26648e-06
-3.01782e-05
-1.78018e-06
-2.76867e-05
-2.27728e-06
-2.56637e-05
-2.76242e-06
-2.35647e-05
-3.18849e-06
-2.11482e-05
-3.45962e-06
-1.82168e-05
-3.48119e-06
-1.47302e-05
-3.20149e-06
-1.06013e-05
-2.57983e-06
-5.54488e-06
-1.96207e-06
7.3875e-07
-1.63306e-06
8.3519e-06
-1.63018e-06
1.71239e-05
-1.29809e-06
2.78799e-05
-9.72971e-08
3.74949e-05
1.75957e-06
3.80137e-05
3.8521e-06
3.0851e-05
5.52639e-06
2.19789e-05
6.64569e-06
1.37499e-05
7.27418e-06
6.93874e-06
7.47756e-06
1.69606e-06
7.32487e-06
-2.24115e-06
6.91958e-06
-5.46382e-06
6.31619e-06
-8.43883e-06
5.49955e-06
-1.10186e-05
4.4734e-06
-1.26409e-05
3.30997e-06
-1.28181e-05
2.09342e-06
-1.11249e-05
1.02813e-06
-7.82547e-06
9.07589e-07
-5.99684e-06
1.12998e-06
-8.48868e-06
6.58757e-07
-1.07228e-05
-2.9312e-07
-1.06159e-05
-1.56672e-06
-7.49017e-06
-2.57272e-06
-7.15305e-08
-2.45123e-06
1.11425e-05
1.7868e-07
2.73277e-05
2.5073e-06
2.74987e-05
2.2684e-06
2.25137e-05
3.30011e-05
-9.26896e-07
-3.30822e-05
-1.69568e-06
-2.94094e-05
-2.36578e-06
-2.70166e-05
-2.99339e-06
-2.50361e-05
-3.60534e-06
-2.29528e-05
-4.17451e-06
-2.0579e-05
-4.61934e-06
-1.7772e-05
-4.85141e-06
-1.44981e-05
-4.81199e-06
-1.06407e-05
-4.48767e-06
-5.8692e-06
-4.05811e-06
3.09196e-07
-3.6832e-06
7.97698e-06
-3.43154e-06
1.68722e-05
-2.71689e-06
2.71652e-05
-1.0972e-06
3.58752e-05
1.15432e-06
3.57622e-05
3.53437e-06
2.8471e-05
5.41254e-06
2.01007e-05
6.68696e-06
1.24755e-05
7.42014e-06
6.20557e-06
7.67816e-06
1.43803e-06
7.56372e-06
-2.12671e-06
7.20017e-06
-5.10027e-06
6.62056e-06
-7.85922e-06
5.78442e-06
-1.01825e-05
4.69964e-06
-1.15561e-05
3.47003e-06
-1.15885e-05
2.24488e-06
-9.89972e-06
1.35905e-06
-6.93965e-06
1.40196e-06
-6.03975e-06
1.44056e-06
-8.52728e-06
9.18519e-07
-1.02007e-05
-5.66235e-08
-9.64075e-06
-1.31419e-06
-6.23261e-06
-2.27886e-06
8.93143e-07
-2.12698e-06
1.09906e-05
3.96471e-07
2.48043e-05
2.33714e-06
2.5558e-05
2.15519e-06
2.26956e-05
3.51563e-05
-1.1562e-06
-3.1926e-05
-2.11166e-06
-2.84539e-05
-2.92773e-06
-2.62005e-05
-3.67066e-06
-2.42932e-05
-4.38986e-06
-2.22336e-05
-5.08473e-06
-1.98841e-05
-5.69709e-06
-1.71596e-05
-6.14812e-06
-1.40471e-05
-6.37092e-06
-1.04179e-05
-6.33345e-06
-5.90667e-06
-6.08504e-06
6.07849e-08
-5.67444e-06
7.56638e-06
-5.14919e-06
1.6347e-05
-4.03522e-06
2.60512e-05
-1.97828e-06
3.38183e-05
6.21591e-07
3.31623e-05
3.2531e-06
2.58395e-05
5.2994e-06
1.80544e-05
6.6985e-06
1.10764e-05
7.50447e-06
5.39959e-06
7.7989e-06
1.14361e-06
7.73182e-06
-2.05964e-06
7.42694e-06
-4.79539e-06
6.87658e-06
-7.30886e-06
6.02025e-06
-9.32615e-06
4.88331e-06
-1.04192e-05
3.6085e-06
-1.03137e-05
2.41655e-06
-8.70777e-06
1.73201e-06
-6.25511e-06
1.82292e-06
-6.13067e-06
1.67536e-06
-8.37972e-06
1.06554e-06
-9.5909e-06
3.80869e-08
-8.6133e-06
-1.24589e-06
-4.94864e-06
-2.13931e-06
1.78657e-06
-1.9428e-06
1.07941e-05
3.9537e-07
2.24661e-05
2.04835e-06
2.39051e-05
1.98063e-06
2.27633e-05
3.7137e-05
-1.38435e-06
-3.05416e-05
-2.52363e-06
-2.73147e-05
-3.47933e-06
-2.52448e-05
-4.32463e-06
-2.34479e-05
-5.1289e-06
-2.14293e-05
-5.92113e-06
-1.90919e-05
-6.67395e-06
-1.64068e-05
-7.32261e-06
-1.33984e-05
-7.78859e-06
-9.95193e-06
-8.00173e-06
-5.69353e-06
-7.90988e-06
-3.10571e-08
-7.47412e-06
7.13062e-06
-6.69205e-06
1.55649e-05
-5.19878e-06
2.4558e-05
-2.74334e-06
3.13628e-05
1.84118e-07
3.02349e-05
3.0207e-06
2.30029e-05
5.19321e-06
1.58819e-05
6.67624e-06
9.59333e-06
7.51915e-06
4.55668e-06
7.84421e-06
8.18556e-07
7.84209e-06
-2.05753e-06
7.6021e-06
-4.5554e-06
7.06831e-06
-6.77507e-06
6.17924e-06
-8.43708e-06
4.99316e-06
-9.23309e-06
3.69391e-06
-9.01443e-06
2.56572e-06
-7.57958e-06
2.04582e-06
-5.73521e-06
2.08949e-06
-6.17433e-06
1.77675e-06
-8.06699e-06
1.02827e-06
-8.84242e-06
-1.25589e-07
-7.45943e-06
-1.42916e-06
-3.64507e-06
-2.20918e-06
2.5666e-06
-1.93063e-06
1.05156e-05
2.07107e-07
2.03284e-05
1.69241e-06
2.24198e-05
1.76858e-06
2.26872e-05
3.89055e-05
-1.61603e-06
-2.89256e-05
-2.94098e-06
-2.59897e-05
-4.035e-06
-2.41508e-05
-4.97413e-06
-2.25087e-05
-5.8418e-06
-2.05617e-05
-6.69481e-06
-1.82389e-05
-7.54138e-06
-1.55602e-05
-8.33949e-06
-1.26003e-05
-9.00193e-06
-9.28949e-06
-9.41737e-06
-5.2781e-06
-9.44627e-06
-2.15846e-09
-8.99497e-06
6.67932e-06
-7.99341e-06
1.45634e-05
-6.16453e-06
2.27291e-05
-3.36333e-06
2.85616e-05
-1.41644e-07
2.70132e-05
2.84231e-06
2.00189e-05
5.0884e-06
1.36358e-05
6.60174e-06
8.07999e-06
7.44975e-06
3.70868e-06
7.81826e-06
4.50045e-07
7.89647e-06
-2.13574e-06
7.70431e-06
-4.36324e-06
7.15324e-06
-6.22401e-06
6.21084e-06
-7.49467e-06
4.98083e-06
-8.00308e-06
3.68277e-06
-7.71636e-06
2.6407e-06
-6.53751e-06
2.22976e-06
-5.32427e-06
2.1523e-06
-6.09687e-06
1.66033e-06
-7.57502e-06
7.16715e-07
-7.89881e-06
-6.09659e-07
-6.13306e-06
-1.90496e-06
-2.34977e-06
-2.5056e-06
3.16723e-06
-2.09386e-06
1.01038e-05
-1.336e-07
1.83681e-05
1.30484e-06
2.09813e-05
1.53234e-06
2.24597e-05
4.04379e-05
-1.85513e-06
-2.70705e-05
-3.37194e-06
-2.44729e-05
-4.60861e-06
-2.29142e-05
-5.63974e-06
-2.14776e-05
-6.55474e-06
-1.96467e-05
-7.43066e-06
-1.7363e-05
-8.31093e-06
-1.468e-05
-9.18734e-06
-1.17239e-05
-9.97803e-06
-8.49881e-06
-1.05352e-05
-4.72088e-06
-1.06541e-05
1.16683e-07
-1.01892e-05
6.21443e-06
-9.01199e-06
1.33862e-05
-6.90448e-06
2.06216e-05
-3.81363e-06
2.54708e-05
-3.49274e-07
2.35488e-05
2.70698e-06
1.69627e-05
4.95807e-06
1.13847e-05
6.44194e-06
6.59612e-06
7.28537e-06
2.86524e-06
7.72484e-06
1.05754e-08
7.87089e-06
-2.28178e-06
7.67189e-06
-4.16424e-06
7.05076e-06
-5.60288e-06
6.03508e-06
-6.47899e-06
4.77718e-06
-6.74518e-06
3.51772e-06
-6.4569e-06
2.58175e-06
-5.60154e-06
2.22147e-06
-4.96399e-06
1.96347e-06
-5.83887e-06
1.24356e-06
-6.85511e-06
2.52286e-08
-6.68047e-06
-1.41296e-06
-4.69487e-06
-2.55163e-06
-1.21109e-06
-2.93714e-06
3.55274e-06
-2.40242e-06
9.56912e-06
-5.80527e-07
1.65462e-05
8.88405e-07
1.95124e-05
1.27259e-06
2.20755e-05
4.17105e-05
-2.10391e-06
-2.49665e-05
-3.82211e-06
-2.27547e-05
-5.21126e-06
-2.1525e-05
-6.34121e-06
-2.03477e-05
-7.29872e-06
-1.86892e-05
-8.16883e-06
-1.64929e-05
-9.02129e-06
-1.38275e-05
-9.88878e-06
-1.08564e-05
-1.07184e-05
-7.66919e-06
-1.13462e-05
-4.09307e-06
-1.15206e-05
2.91125e-07
-1.10406e-05
5.73436e-06
-9.73044e-06
1.2076e-05
-7.40704e-06
1.82982e-05
-4.08293e-06
2.21467e-05
-4.5111e-07
1.9917e-05
2.57698e-06
1.39346e-05
4.74876e-06
9.21292e-06
6.16402e-06
5.18085e-06
7.0278e-06
2.00146e-06
7.53754e-06
-4.99161e-07
7.67738e-06
-2.42162e-06
7.37798e-06
-3.86484e-06
6.63041e-06
-4.85531e-06
5.53844e-06
-5.38702e-06
4.29053e-06
-5.49727e-06
3.12252e-06
-5.2889e-06
2.30914e-06
-4.78816e-06
1.93026e-06
-4.5851e-06
1.43738e-06
-5.346e-06
4.27795e-07
-5.84552e-06
-1.01844e-06
-5.23424e-06
-2.36996e-06
-3.34336e-06
-3.26535e-06
-3.157e-07
-3.47349e-06
3.76088e-06
-2.838e-06