/*--------------------------------*- C++ -*----------------------------------*\
| =========                 |                                                 |
| \\      /  F ield         | OpenFOAM: The Open Source CFD Toolbox           |
|  \\    /   O peration     | Version:  4.1                                   |
|   \\  /    A nd           | Web:      www.OpenFOAM.org                      |
|    \\/     M anipulation  |                                                 |
\*---------------------------------------------------------------------------*/
FoamFile
{
    version     2.0;
    format      ascii;
    class       surfaceScalarField;
    location    "1500";
    object      phi;
}
// * * * * * * * * * * * * * * * * * * * * * * * * * * * * * * * * * * * * * //

dimensions      [0 3 -1 0 0 0 0];

internalField   nonuniform List<scalar> 
9850
(
-4.67522e-06
4.67522e-06
-6.61441e-06
1.93918e-06
-6.98556e-06
3.71152e-07
-6.358e-06
-6.2756e-07
-5.10001e-06
-1.25799e-06
-3.23723e-06
-1.86278e-06
-9.41014e-07
-2.29621e-06
1.24929e-06
-2.1903e-06
3.17162e-06
-1.92233e-06
4.8144e-06
-1.64279e-06
6.21388e-06
-1.39948e-06
7.40607e-06
-1.19219e-06
8.42225e-06
-1.01617e-06
9.29299e-06
-8.70745e-07
1.00475e-05
-7.54544e-07
1.07119e-05
-6.64317e-07
1.13077e-05
-5.95844e-07
1.18525e-05
-5.44844e-07
1.236e-05
-5.07428e-07
1.28402e-05
-4.80241e-07
1.33007e-05
-4.60482e-07
1.37466e-05
-4.45863e-07
1.41811e-05
-4.34536e-07
1.46061e-05
-4.25018e-07
1.50222e-05
-4.16119e-07
1.54291e-05
-4.06883e-07
1.58257e-05
-3.96542e-07
1.62101e-05
-3.84485e-07
1.65804e-05
-3.70241e-07
1.69338e-05
-3.53468e-07
1.72678e-05
-3.33937e-07
1.75793e-05
-3.11538e-07
1.78656e-05
-2.86271e-07
1.81238e-05
-2.58246e-07
1.83515e-05
-2.27681e-07
1.85464e-05
-1.94902e-07
1.87068e-05
-1.60346e-07
1.88314e-05
-1.24584e-07
1.89197e-05
-8.8382e-08
1.89726e-05
-5.28422e-08
1.8992e-05
-1.94225e-08
1.89806e-05
1.14056e-08
1.89403e-05
4.02997e-08
1.88727e-05
6.76412e-08
1.87795e-05
9.31204e-08
1.86629e-05
1.16624e-07
1.85248e-05
1.38078e-07
1.83674e-05
1.5744e-07
1.81927e-05
1.74686e-07
1.80029e-05
1.89818e-07
1.78e-05
2.02874e-07
1.75861e-05
2.13927e-07
1.7363e-05
2.2308e-07
1.71325e-05
2.30467e-07
1.68963e-05
2.36245e-07
1.66557e-05
2.40591e-07
1.6412e-05
2.43702e-07
1.61662e-05
2.45789e-07
1.59191e-05
2.47087e-07
1.56713e-05
2.47855e-07
1.54229e-05
2.4839e-07
1.51738e-05
2.49036e-07
1.49237e-05
2.50188e-07
1.46714e-05
2.52278e-07
1.44157e-05
2.55692e-07
1.41551e-05
2.60589e-07
1.38886e-05
2.66532e-07
1.36167e-05
2.71853e-07
1.33439e-05
2.72799e-07
1.30813e-05
2.62663e-07
1.28497e-05
2.31544e-07
1.26813e-05
1.68426e-07
1.2614e-05
6.73014e-08
1.26698e-05
-5.57914e-08
1.28186e-05
-1.48782e-07
1.29606e-05
-1.42022e-07
1.29088e-05
5.17868e-08
1.23312e-05
5.77596e-07
1.08507e-05
1.48046e-06
8.25159e-06
2.59915e-06
4.85034e-06
3.40124e-06
1.71792e-06
3.13243e-06
-1.67253e-07
1.88517e-06
-1.37862e-06
1.21137e-06
-3.54989e-06
2.17127e-06
-5.31834e-06
1.76845e-06
-6.97161e-06
1.65327e-06
-6.98784e-06
1.6223e-08
-6.71566e-06
-2.72173e-07
-6.41386e-06
-3.01802e-07
-6.17943e-06
-2.34435e-07
-5.9476e-06
-2.31826e-07
-5.59433e-06
-3.53268e-07
-4.93582e-06
-6.58513e-07
-3.73181e-06
-1.20401e-06
-1.73156e-06
-2.00025e-06
1.21592e-06
-2.94748e-06
3.8141e-06
-2.59817e-06
3.73416e-06
7.99327e-08
3.73416e-06
-2.91783e-06
7.59305e-06
-4.28691e-06
3.30826e-06
-4.76629e-06
8.50537e-07
-4.52067e-06
-8.73186e-07
-3.64484e-06
-2.13382e-06
-2.08947e-06
-3.41816e-06
-2.01485e-07
-4.18419e-06
1.67581e-06
-4.06759e-06
3.40174e-06
-3.64826e-06
4.95226e-06
-3.19331e-06
6.31115e-06
-2.75837e-06
7.48849e-06
-2.36953e-06
8.50944e-06
-2.03713e-06
9.40241e-06
-1.76371e-06
1.01943e-05
-1.54643e-06
1.09087e-05
-1.37867e-06
1.1565e-05
-1.25215e-06
1.21786e-05
-1.1585e-06
1.27614e-05
-1.09018e-06
1.33219e-05
-1.0408e-06
1.38665e-05
-1.00505e-06
1.43993e-05
-9.78664e-07
1.4923e-05
-9.58211e-07
1.54389e-05
-9.40942e-07
1.59474e-05
-9.24652e-07
1.64481e-05
-9.07564e-07
1.69398e-05
-8.88247e-07
1.74209e-05
-8.65558e-07
1.78892e-05
-8.38609e-07
1.83425e-05
-8.06744e-07
1.87781e-05
-7.69528e-07
1.91933e-05
-7.26743e-07
1.95854e-05
-6.78386e-07
1.99518e-05
-6.24661e-07
2.02901e-05
-5.65983e-07
2.05982e-05
-5.02965e-07
2.08743e-05
-4.36418e-07
2.1117e-05
-3.67346e-07
2.13256e-05
-2.96946e-07
2.14993e-05
-2.2653e-07
2.1637e-05
-1.57116e-07
2.17376e-05
-8.9238e-08
2.18021e-05
-2.41503e-08
2.1832e-05
3.77341e-08
2.18303e-05
9.48566e-08
2.17997e-05
1.47165e-07
2.17433e-05
1.94468e-07
2.1664e-05
2.36711e-07
2.15648e-05
2.73923e-07
2.14484e-05
3.062e-07
2.13176e-05
3.33722e-07
2.11748e-05
3.56754e-07
2.10222e-05
3.75638e-07
2.08619e-05
3.9079e-07
2.06954e-05
4.02687e-07
2.05242e-05
4.11854e-07
2.0349e-05
4.18862e-07
2.01705e-05
4.24311e-07
1.99887e-05
4.2883e-07
1.98035e-05
4.33067e-07
1.96142e-05
4.37682e-07
1.94199e-05
4.43332e-07
1.92195e-05
4.50625e-07
1.90117e-05
4.60045e-07
1.87957e-05
4.71772e-07
1.85709e-05
4.85377e-07
1.83381e-05
4.99311e-07
1.80997e-05
5.10215e-07
1.78603e-05
5.12195e-07
1.76265e-05
4.96541e-07
1.74052e-05
4.52826e-07
1.72007e-05
3.72923e-07
1.70075e-05
2.60479e-07
1.68105e-05
1.41174e-07
1.65929e-05
6.88096e-08
1.63045e-05
1.46449e-07
1.5834e-05
5.22215e-07
1.50728e-05
1.33886e-06
1.39544e-05
2.59881e-06
1.25393e-05
4.01423e-06
1.0974e-05
4.96661e-06
9.20032e-06
4.90608e-06
7.10041e-06
3.98508e-06
5.39158e-06
2.9202e-06
4.56351e-06
2.99934e-06
2.87022e-06
3.46174e-06
1.09997e-08
4.5125e-06
-2.81585e-06
2.84307e-06
-4.35195e-06
1.26392e-06
-4.51452e-06
-1.39227e-07
-4.62595e-06
-1.23009e-07
-4.71291e-06
-1.44867e-07
-4.63956e-06
-4.26618e-07
-4.29026e-06
-1.00781e-06
-3.48614e-06
-2.00814e-06
-2.11635e-06
-3.37003e-06
-2.60899e-07
-4.80294e-06
1.99313e-06
-4.8522e-06
2.08392e-06
-1.08504e-08
5.81808e-06
-1.85222e-06
9.44527e-06
-2.63657e-06
4.09262e-06
-3.13722e-06
1.35118e-06
-3.22033e-06
-7.90076e-07
-2.51197e-06
-2.84217e-06
-1.11779e-06
-4.81234e-06
4.19563e-07
-5.72155e-06
1.98091e-06
-5.62894e-06
3.49096e-06
-5.15831e-06
4.8632e-06
-4.56555e-06
6.06979e-06
-3.96496e-06
7.11649e-06
-3.41622e-06
8.02604e-06
-2.94668e-06
8.826e-06
-2.56368e-06
9.5424e-06
-2.26282e-06
1.01973e-05
-2.03357e-06
1.08083e-05
-1.86318e-06
1.1389e-05
-1.73913e-06
1.19491e-05
-1.65036e-06
1.2496e-05
-1.58764e-06
1.30344e-05
-1.54343e-06
1.35675e-05
-1.51175e-06
1.4097e-05
-1.4878e-06
1.46238e-05
-1.46774e-06
1.51477e-05
-1.44849e-06
1.56677e-05
-1.42755e-06
1.61823e-05
-1.40287e-06
1.66895e-05
-1.37281e-06
1.7187e-05
-1.33607e-06
1.76719e-05
-1.29167e-06
1.81413e-05
-1.23894e-06
1.85921e-05
-1.17755e-06
1.90212e-05
-1.10745e-06
1.94255e-05
-1.02894e-06
1.98021e-05
-9.42592e-07
2.01484e-05
-8.49314e-07
2.04623e-05
-7.50276e-07
2.07419e-05
-6.46901e-07
2.09857e-05
-5.40811e-07
2.11929e-05
-4.33726e-07
2.13631e-05
-3.27291e-07
2.14968e-05
-2.22916e-07
2.15945e-05
-1.21908e-07
2.16577e-05
-2.54379e-08
2.1688e-05
6.45869e-08
2.16884e-05
1.46729e-07
2.16623e-05
2.20611e-07
2.16128e-05
2.86215e-07
2.1543e-05
3.43628e-07
2.14562e-05
3.93075e-07
2.1355e-05
4.3491e-07
2.12421e-05
4.69633e-07
2.11199e-05
4.97878e-07
2.09903e-05
5.20399e-07
2.08549e-05
5.38054e-07
2.0715e-05
5.51778e-07
2.05713e-05
5.62567e-07
2.04241e-05
5.71453e-07
2.02735e-05
5.79483e-07
2.01188e-05
5.87689e-07
1.99595e-05
5.97057e-07
1.97943e-05
6.08478e-07
1.96223e-05
6.2268e-07
1.94422e-05
6.40118e-07
1.92532e-05
6.60794e-07
1.90546e-05
6.83987e-07
1.8846e-05
7.07885e-07
1.8627e-05
7.29159e-07
1.83966e-05
7.42685e-07
1.81513e-05
7.41789e-07
1.78845e-05
7.19671e-07
1.75846e-05
6.72759e-07
1.72385e-05
6.06566e-07
1.68366e-05
5.43141e-07
1.63757e-05
5.29691e-07
1.5869e-05
6.53158e-07
1.53432e-05
1.04804e-06
1.48246e-05
1.8574e-06
1.43227e-05
3.10077e-06
1.38319e-05
4.50497e-06
1.32853e-05
5.51328e-06
1.25193e-05
5.67205e-06
1.14491e-05
5.05531e-06
1.0172e-05
4.19724e-06
9.23489e-06
3.93647e-06
8.15781e-06
4.53882e-06
6.99001e-06
5.6803e-06
4.18505e-06
5.64803e-06
7.68528e-07
4.68045e-06
-1.71305e-06
2.34235e-06
-2.74207e-06
9.06012e-07
-3.31105e-06
4.24119e-07
-3.66369e-06
-7.3978e-08
-3.69406e-06
-9.77442e-07
-3.33418e-06
-2.36802e-06
-2.51629e-06
-4.18792e-06
-1.37482e-06
-5.94441e-06
1.8345e-07
-6.41047e-06
1.29081e-06
-1.11821e-06
7.10889e-06
-1.26754e-06
1.07128e-05
-1.73624e-06
4.56132e-06
-2.20255e-06
1.81749e-06
-2.32635e-06
-6.66281e-07
-1.58874e-06
-3.57978e-06
-3.67549e-07
-6.03353e-06
8.99404e-07
-6.9885e-06
2.21306e-06
-6.9426e-06
3.48974e-06
-6.43498e-06
4.64669e-06
-5.72251e-06
5.65513e-06
-4.9734e-06
6.52293e-06
-4.28402e-06
7.2751e-06
-3.69885e-06
7.94058e-06
-3.22916e-06
8.54534e-06
-2.86759e-06
9.11011e-06
-2.59834e-06
9.65029e-06
-2.40335e-06
1.01768e-05
-2.26566e-06
1.06972e-05
-2.17076e-06
1.12164e-05
-2.10685e-06
1.17376e-05
-2.06455e-06
1.22623e-05
-2.03649e-06
1.27913e-05
-2.01683e-06
1.33245e-05
-2.0009e-06
1.38609e-05
-1.98491e-06
1.43991e-05
-1.96578e-06
1.49372e-05
-1.94092e-06
1.54726e-05
-1.90822e-06
1.60025e-05
-1.86599e-06
1.65238e-05
-1.81292e-06
1.70329e-05
-1.74808e-06
1.75263e-05
-1.67095e-06
1.80003e-05
-1.58142e-06
1.84511e-05
-1.47979e-06
1.88753e-05
-1.3668e-06
1.92696e-05
-1.24359e-06
1.9631e-05
-1.11168e-06
1.99571e-05
-9.72937e-07
2.02457e-05
-8.29485e-07
2.04956e-05
-6.83614e-07
2.0706e-05
-5.37627e-07
2.08768e-05
-3.93717e-07
2.10088e-05
-2.53932e-07
2.11034e-05
-1.2003e-07
2.1162e-05
5.97469e-09
2.1187e-05
1.21712e-07
2.11819e-05
2.25698e-07
2.11505e-05
3.17673e-07
2.10962e-05
3.9786e-07
2.10227e-05
4.66597e-07
2.09332e-05
5.24435e-07
2.08307e-05
5.72129e-07
2.07179e-05
6.10636e-07
2.05972e-05
6.41093e-07
2.04705e-05
6.64779e-07
2.03392e-05
6.83081e-07
2.02043e-05
6.97462e-07
2.00663e-05
7.09423e-07
1.99254e-05
7.20461e-07
1.9781e-05
7.32026e-07
1.96326e-05
7.45468e-07
1.94791e-05
7.61971e-07
1.93193e-05
7.82469e-07
1.91519e-05
8.07538e-07
1.89755e-05
8.37245e-07
1.87885e-05
8.70965e-07
1.85892e-05
9.07169e-07
1.83751e-05
9.43258e-07
1.81422e-05
9.75578e-07
1.78841e-05
9.99883e-07
1.75912e-05
1.01258e-06
1.72509e-05
1.01309e-06
1.685e-05
1.00745e-06
1.63801e-05
1.01308e-06
1.58446e-05
1.06512e-06
1.52711e-05
1.22667e-06
1.47217e-05
1.59744e-06
1.42859e-05
2.29316e-06
1.4038e-05
3.34867e-06
1.39767e-05
4.56632e-06
1.39803e-05
5.50966e-06
1.38423e-05
5.81004e-06
1.34096e-05
5.48804e-06
1.26899e-05
4.91691e-06
1.19508e-05
4.67558e-06
1.12528e-05
5.23684e-06
1.04086e-05
6.52446e-06
8.6728e-06
7.38384e-06
6.14314e-06
7.21012e-06
2.73884e-06
5.74664e-06
2.22223e-08
3.62263e-06
-1.54512e-06
1.99147e-06
-2.46498e-06
8.45881e-07
-2.968e-06
-4.74425e-07
-3.10187e-06
-2.23415e-06
-2.83077e-06
-4.45902e-06
-2.16098e-06
-6.6142e-06
-1.12361e-06
-7.44785e-06
9.72368e-07
-3.21419e-06
8.08126e-06
-8.9136e-07
1.16042e-05
-1.2216e-06
4.89156e-06
-1.58735e-06
2.18324e-06
-1.63118e-06
-6.22446e-07
-8.1529e-07
-4.39567e-06
1.97721e-07
-7.04654e-06
1.2434e-06
-8.03418e-06
2.34007e-06
-8.03927e-06
3.38202e-06
-7.47693e-06
4.30277e-06
-6.64326e-06
5.08438e-06
-5.75501e-06
5.74313e-06
-4.94276e-06
6.31037e-06
-4.26609e-06
6.81848e-06
-3.73727e-06
7.29396e-06
-3.34307e-06
7.75571e-06
-3.06008e-06
8.216e-06
-2.86365e-06
8.6823e-06
-2.73196e-06
9.15876e-06
-2.64723e-06
9.64749e-06
-2.59557e-06
1.01492e-05
-2.5663e-06
1.06639e-05
-2.55118e-06
1.11908e-05
-2.54375e-06
1.17288e-05
-2.53888e-06
1.22763e-05
-2.53235e-06
1.28311e-05
-2.52064e-06
1.3391e-05
-2.50079e-06
1.39531e-05
-2.47031e-06
1.45142e-05
-2.42714e-06
1.50709e-05
-2.36963e-06
1.56195e-05
-2.2966e-06
1.61558e-05
-2.2073e-06
1.66759e-05
-2.1015e-06
1.71755e-05
-1.97946e-06
1.76507e-05
-1.84196e-06
1.80975e-05
-1.69034e-06
1.85122e-05
-1.5264e-06
1.88917e-05
-1.35243e-06
1.92333e-05
-1.17107e-06
1.95349e-05
-9.85227e-07
1.97952e-05
-7.97927e-07
2.00136e-05
-6.12179e-07
2.01906e-05
-4.30857e-07
2.03271e-05
-2.56582e-07
2.04244e-05
-9.13274e-08
2.04839e-05
6.22485e-08
2.05087e-05
2.00866e-07
2.05028e-05
3.23567e-07
2.04703e-05
4.30366e-07
2.04152e-05
5.21727e-07
2.03412e-05
5.98363e-07
2.02521e-05
6.61269e-07
2.0151e-05
7.11751e-07
2.00407e-05
7.51358e-07
1.99237e-05
7.81832e-07
1.98017e-05
8.05059e-07
1.96761e-05
8.23017e-07
1.95478e-05
8.37725e-07
1.94171e-05
8.51191e-07
1.92838e-05
8.65349e-07
1.91473e-05
8.81994e-07
1.90065e-05
9.02707e-07
1.88602e-05
9.2876e-07
1.87068e-05
9.61018e-07
1.85442e-05
9.9982e-07
1.83703e-05
1.04486e-06
1.81824e-05
1.0951e-06
1.79769e-05
1.14874e-06
1.7749e-05
1.20342e-06
1.74922e-05
1.25668e-06
1.71978e-05
1.30698e-06
1.68556e-05
1.3553e-06
1.64556e-05
1.40745e-06
1.59917e-05
1.47701e-06
1.54676e-05
1.58927e-06
1.49074e-05
1.78687e-06
1.437e-05
2.13476e-06
1.39539e-05
2.70931e-06
1.3763e-05
3.53955e-06
1.38282e-05
4.50109e-06
1.40409e-05
5.29694e-06
1.41925e-05
5.65845e-06
1.41106e-05
5.56997e-06
1.37605e-05
5.26702e-06
1.328e-05
5.15608e-06
1.28104e-05
5.70647e-06
1.22638e-05
7.07101e-06
1.1164e-05
8.4837e-06
9.29598e-06
9.07811e-06
6.65299e-06
8.38963e-06
3.6484e-06
6.62722e-06
1.03924e-06
4.60063e-06
-8.3057e-07
2.71569e-06
-1.93479e-06
6.29798e-07
-2.53037e-06
-1.63857e-06
-2.74129e-06
-4.24809e-06
-2.4888e-06
-6.86669e-06
-1.64067e-06
-8.29597e-06
7.76732e-07
-5.6316e-06
8.85799e-06
-6.26729e-07
1.22309e-05
-8.95385e-07
5.16022e-06
-1.14668e-06
2.43454e-06
-1.02498e-06
-7.44144e-07
-1.81714e-07
-5.23894e-06
6.17359e-07
-7.84562e-06
1.48422e-06
-8.90104e-06
2.37086e-06
-8.92591e-06
3.1792e-06
-8.28527e-06
3.85743e-06
-7.32149e-06
4.40222e-06
-6.29979e-06
4.84296e-06
-5.38351e-06
5.22088e-06
-4.644e-06
5.5732e-06
-4.0896e-06
5.92636e-06
-3.69623e-06
6.29577e-06
-3.42949e-06
6.68869e-06
-3.25658e-06
7.10739e-06
-3.15066e-06
7.55148e-06
-3.09131e-06
8.01938e-06
-3.06347e-06
8.5091e-06
-3.05603e-06
9.01859e-06
-3.06067e-06
9.54579e-06
-3.07095e-06
1.00886e-05
-3.0817e-06
1.06449e-05
-3.08859e-06
1.12121e-05
-3.08792e-06
1.17878e-05
-3.07647e-06
1.2369e-05
-3.05146e-06
1.29523e-05
-3.01052e-06
1.35344e-05
-2.95172e-06
1.41114e-05
-2.87358e-06
1.46793e-05
-2.77514e-06
1.52337e-05
-2.65598e-06
1.57706e-05
-2.51627e-06
1.62854e-05
-2.35678e-06
1.6774e-05
-2.17895e-06
1.72324e-05
-1.98482e-06
1.7657e-05
-1.77699e-06
1.80445e-05
-1.5586e-06
1.83924e-05
-1.33314e-06
1.86988e-05
-1.10433e-06
1.89626e-05
-8.75981e-07
1.91836e-05
-6.51801e-07
1.93622e-05
-4.35266e-07
1.95002e-05
-2.29287e-07
1.95985e-05
-3.60399e-08
1.96584e-05
1.40924e-07
1.96837e-05
2.98337e-07
1.96784e-05
4.3562e-07
1.96469e-05
5.53195e-07
1.95936e-05
6.51726e-07
1.95224e-05
7.32412e-07
1.94373e-05
7.96854e-07
1.93417e-05
8.47018e-07
1.92384e-05
8.8513e-07
1.91298e-05
9.13607e-07
1.90179e-05
9.3499e-07
1.89037e-05
9.51877e-07
1.8788e-05
9.66856e-07
1.8671e-05
9.82433e-07
1.8552e-05
1.00096e-06
1.84302e-05
1.02453e-06
1.8304e-05
1.05491e-06
1.81716e-05
1.09341e-06
1.80307e-05
1.1408e-06
1.78783e-05
1.19722e-06
1.77112e-05
1.26215e-06
1.75255e-05
1.33448e-06
1.73162e-05
1.41271e-06
1.70775e-05
1.49542e-06
1.68024e-05
1.58205e-06
1.64837e-05
1.67402e-06
1.61149e-05
1.77623e-06
1.56931e-05
1.89882e-06
1.52231e-05
2.05928e-06
1.47249e-05
2.28505e-06
1.42448e-05
2.61488e-06
1.38625e-05
3.09162e-06
1.36726e-05
3.72944e-06
1.37201e-05
4.45352e-06
1.39335e-05
5.08354e-06
1.41472e-05
5.44479e-06
1.42088e-05
5.50837e-06
1.40618e-05
5.41399e-06
1.37745e-05
5.44342e-06
1.3475e-05
6.00595e-06
1.31588e-05
7.38722e-06
1.24974e-05
9.14513e-06
1.11988e-05
1.03767e-05
9.19382e-06
1.03946e-05
6.67614e-06
9.1449e-06
4.129e-06
7.14777e-06
1.8226e-06
5.02208e-06
-1.59432e-07
2.61183e-06
-1.41213e-06
-3.85871e-07
-2.07813e-06
-3.5821e-06
-2.226e-06
-6.71882e-06
-1.51283e-06
-9.00914e-06
5.73608e-07
-7.71803e-06
9.4316e-06
-4.46685e-07
1.26776e-05
-6.81967e-07
5.3955e-06
-8.66378e-07
2.61895e-06
-4.37994e-07
-1.17253e-06
2.71879e-07
-5.94881e-06
9.25882e-07
-8.49962e-06
1.63902e-06
-9.61418e-06
2.32571e-06
-9.61261e-06
2.90859e-06
-8.86814e-06
3.35232e-06
-7.76523e-06
3.6705e-06
-6.61798e-06
3.9093e-06
-5.6223e-06
4.12202e-06
-4.85672e-06
4.35008e-06
-4.31766e-06
4.61661e-06
-3.96275e-06
4.92961e-06
-3.74249e-06
5.28809e-06
-3.61505e-06
5.68712e-06
-3.54969e-06
6.12091e-06
-3.5251e-06
6.5842e-06
-3.52676e-06
7.0727e-06
-3.54453e-06
7.58302e-06
-3.57099e-06
8.11242e-06
-3.60035e-06
8.65851e-06
-3.62779e-06
9.21903e-06
-3.64911e-06
9.79165e-06
-3.66054e-06
1.03739e-05
-3.65867e-06
1.09628e-05
-3.64044e-06
1.15555e-05
-3.60319e-06
1.21485e-05
-3.54468e-06
1.2738e-05
-3.46314e-06
1.33202e-05
-3.35735e-06
1.3891e-05
-3.22669e-06
1.44459e-05
-3.07119e-06
1.49807e-05
-2.89159e-06
1.54911e-05
-2.68936e-06
1.5973e-05
-2.46672e-06
1.64226e-05
-2.2266e-06
1.68366e-05
-1.97256e-06
1.72121e-05
-1.70864e-06
1.7547e-05
-1.43924e-06
1.78399e-05
-1.16892e-06
1.80903e-05
-9.02192e-07
1.82984e-05
-6.43379e-07
1.84655e-05
-3.96364e-07
1.85932e-05
-1.63762e-07
1.86827e-05
5.14773e-08
1.87356e-05
2.45361e-07
1.87555e-05
4.15708e-07
1.87467e-05
5.62026e-07
1.87136e-05
6.84876e-07
1.86605e-05
7.85432e-07
1.85919e-05
8.65474e-07
1.85116e-05
9.27305e-07
1.84232e-05
9.73598e-07
1.83295e-05
1.0073e-06
1.82329e-05
1.03154e-06
1.81353e-05
1.04952e-06
1.80377e-05
1.06448e-06
1.79405e-05
1.07959e-06
1.78436e-05
1.09786e-06
1.77461e-05
1.12206e-06
1.76464e-05
1.15458e-06
1.75424e-05
1.19736e-06
1.74315e-05
1.25176e-06
1.73102e-05
1.31848e-06
1.71749e-05
1.39751e-06
1.70211e-05
1.48827e-06
1.6844e-05
1.58974e-06
1.66386e-05
1.7009e-06
1.63993e-05
1.82133e-06
1.61213e-05
1.952e-06
1.58013e-05
2.09629e-06
1.54391e-05
2.261e-06
1.5041e-05
2.45739e-06
1.4624e-05
2.70198e-06
1.42228e-05
3.01607e-06
1.38941e-05
3.42037e-06
1.37062e-05
3.91732e-06
1.36985e-05
4.46126e-06
1.38322e-05
4.94984e-06
1.39969e-05
5.28009e-06
1.40776e-05
5.42761e-06
1.40169e-05
5.47469e-06
1.38438e-05
5.61652e-06
1.36568e-05
6.193e-06
1.34938e-05
7.5502e-06
1.31407e-05
9.49828e-06
1.23036e-05
1.12138e-05
1.08391e-05
1.18591e-05
8.84237e-06
1.11416e-05
6.6256e-06
9.36454e-06
4.55827e-06
7.08942e-06
2.52635e-06
4.64375e-06
5.86941e-07
1.55354e-06
-7.66004e-07
-2.22916e-06
-1.44131e-06
-6.04351e-06
-1.15516e-06
-9.29529e-06
3.74052e-07
-9.24724e-06
9.80565e-06
-3.22241e-07
1.29998e-05
-5.15009e-07
5.58826e-06
-6.63094e-07
2.76703e-06
6.95139e-08
-1.90514e-06
6.02449e-07
-6.48175e-06
1.1643e-06
-9.06148e-06
1.73214e-06
-1.0182e-05
2.23293e-06
-1.01134e-05
2.60798e-06
-9.24319e-06
2.84021e-06
-7.99745e-06
2.96311e-06
-6.74088e-06
3.04224e-06
-5.70143e-06
3.14226e-06
-4.95675e-06
3.30323e-06
-4.47863e-06
3.5376e-06
-4.19713e-06
3.84029e-06
-4.04518e-06
4.19947e-06
-3.97423e-06
4.60307e-06
-3.95329e-06
5.04137e-06
-3.9634e-06
5.50738e-06
-3.99277e-06
5.99637e-06
-4.03352e-06
6.50517e-06
-4.07979e-06
7.03155e-06
-4.12673e-06
7.57369e-06
-4.16993e-06
8.12985e-06
-4.20528e-06
8.69813e-06
-4.22882e-06
9.27634e-06
-4.23688e-06
9.86192e-06
-4.22603e-06
1.0452e-05
-4.19323e-06
1.10432e-05
-4.13589e-06
1.16319e-05
-4.0519e-06
1.22143e-05
-3.93976e-06
1.27862e-05
-3.7986e-06
1.33433e-05
-3.62828e-06
1.38812e-05
-3.42945e-06
1.43955e-05
-3.20363e-06
1.4882e-05
-2.95321e-06
1.53368e-05
-2.68143e-06
1.57565e-05
-2.3923e-06
1.61384e-05
-2.09047e-06
1.64801e-05
-1.78102e-06
1.67805e-05
-1.46928e-06
1.70389e-05
-1.1606e-06
1.72556e-05
-8.60094e-07
1.74317e-05
-5.72491e-07
1.75696e-05
-3.01677e-07
1.76711e-05
-5.00037e-08
1.77373e-05
1.79224e-07
1.77707e-05
3.82294e-07
1.7775e-05
5.57686e-07
1.77544e-05
7.05475e-07
1.77133e-05
8.26524e-07
1.76562e-05
9.22626e-07
1.75872e-05
9.96263e-07
1.75104e-05
1.05046e-06
1.7429e-05
1.08862e-06
1.73462e-05
1.11442e-06
1.7264e-05
1.13168e-06
1.71842e-05
1.14431e-06
1.71076e-05
1.1562e-06
1.70343e-05
1.17112e-06
1.69637e-05
1.19263e-06
1.68943e-05
1.22396e-06
1.68239e-05
1.26784e-06
1.67492e-05
1.3264e-06
1.66667e-05
1.40102e-06
1.65719e-05
1.49227e-06
1.64602e-05
1.59998e-06
1.63266e-05
1.72334e-06
1.61663e-05
1.86127e-06
1.59747e-05
2.01287e-06
1.57486e-05
2.17807e-06
1.54866e-05
2.35828e-06
1.51906e-05
2.55707e-06
1.48674e-05
2.78059e-06
1.45317e-05
3.03765e-06
1.42091e-05
3.33863e-06
1.39379e-05
3.69163e-06
1.3762e-05
4.09321e-06
1.37084e-05
4.51487e-06
1.37577e-05
4.90053e-06
1.38436e-05
5.19421e-06
1.38891e-05
5.38207e-06
1.38477e-05
5.51608e-06
1.37288e-05
5.73549e-06
1.36028e-05
6.31894e-06
1.35266e-05
7.6264e-06
1.33728e-05
9.6521e-06
1.2877e-05
1.17096e-05
1.18521e-05
1.28841e-05
1.03114e-05
1.26822e-05
8.46064e-06
1.12153e-05
6.60028e-06
8.94978e-06
4.93291e-06
6.31112e-06
3.11249e-06
3.37397e-06
1.24871e-06
-3.65383e-07
-1.36653e-07
-4.65815e-06
-6.14116e-07
-8.81783e-06
2.11251e-07
-1.00726e-05
1.00169e-05
-2.21399e-07
1.32212e-05
-3.50872e-07
5.71774e-06
-3.69356e-07
2.78552e-06
4.10389e-07
-2.68488e-06
8.73284e-07
-6.94464e-06
1.35613e-06
-9.54432e-06
1.79237e-06
-1.06182e-05
2.12596e-06
-1.0447e-05
2.31906e-06
-9.4363e-06
2.37592e-06
-8.05431e-06
2.35305e-06
-6.71801e-06
2.33519e-06
-5.68357e-06
2.39093e-06
-5.01249e-06
2.54688e-06
-4.63457e-06
2.7958e-06
-4.44605e-06
3.11712e-06
-4.36649e-06
3.49061e-06
-4.34772e-06
3.90126e-06
-4.36394e-06
4.33938e-06
-4.40152e-06
4.7993e-06
-4.4527e-06
5.27799e-06
-4.5122e-06
5.77384e-06
-4.57564e-06
6.28593e-06
-4.63882e-06
6.81345e-06
-4.69746e-06
7.35537e-06
-4.74719e-06
7.91024e-06
-4.78369e-06
8.47611e-06
-4.80275e-06
9.05055e-06
-4.80047e-06
9.63065e-06
-4.77333e-06
1.02131e-05
-4.71832e-06
1.07942e-05
-4.63298e-06
1.13699e-05
-4.51546e-06
1.19359e-05
-4.36464e-06
1.24878e-05
-4.18015e-06
1.30208e-05
-3.96253e-06
1.35305e-05
-3.71327e-06
1.40122e-05
-3.43491e-06
1.44618e-05
-3.13102e-06
1.48756e-05
-2.80613e-06
1.52507e-05
-2.46556e-06
1.55849e-05
-2.11519e-06
1.58768e-05
-1.76126e-06
1.61262e-05
-1.40999e-06
1.63336e-05
-1.06742e-06
1.65002e-05
-7.39119e-07
1.66284e-05
-4.29939e-07
1.67215e-05
-1.43087e-07
1.67819e-05
1.18896e-07
1.68115e-05
3.52619e-07
1.68137e-05
5.55506e-07
1.67924e-05
7.2682e-07
1.67518e-05
8.67138e-07
1.66963e-05
9.78109e-07
1.66303e-05
1.06226e-06
1.65579e-05
1.12285e-06
1.64829e-05
1.16363e-06
1.64086e-05
1.18874e-06
1.63377e-05
1.20258e-06
1.62723e-05
1.20971e-06
1.62137e-05
1.21476e-06
1.61625e-05
1.22234e-06
1.61182e-05
1.23694e-06
1.60794e-05
1.26274e-06
1.60438e-05
1.30348e-06
1.60079e-05
1.36223e-06
1.59677e-05
1.44123e-06
1.59183e-05
1.54171e-06
1.58544e-05
1.66391e-06
1.57706e-05
1.80708e-06
1.56621e-05
1.96978e-06
1.55247e-05
2.15027e-06
1.53558e-05
2.34699e-06
1.51549e-05
2.55917e-06
1.49247e-05
2.78727e-06
1.4672e-05
3.03329e-06
1.44091e-05
3.30056e-06
1.41549e-05
3.59279e-06
1.3935e-05
3.91161e-06
1.37764e-05
4.25178e-06
1.36956e-05
4.59564e-06
1.36828e-05
4.91331e-06
1.37002e-05
5.17684e-06
1.37001e-05
5.38216e-06
1.36493e-05
5.56691e-06
1.35486e-05
5.83614e-06
1.34475e-05
6.42009e-06
1.3407e-05
7.66688e-06
1.33629e-05
9.6962e-06
1.30958e-05
1.19767e-05
1.23994e-05
1.35804e-05
1.12253e-05
1.38563e-05
9.69714e-06
1.27435e-05
8.03555e-06
1.06114e-05
6.42732e-06
7.91934e-06
4.86573e-06
4.93556e-06
3.07409e-06
1.42626e-06
1.28145e-06
-2.86551e-06
1.13665e-08
-7.54774e-06
8.85648e-08
-1.01498e-05
1.01055e-05
-1.38755e-07
1.336e-05
-2.16056e-07
5.79504e-06
1.67056e-08
2.55275e-06
6.55635e-07
-3.32381e-06
1.12767e-06
-7.41668e-06
1.53617e-06
-9.95282e-06
1.85178e-06
-1.09339e-05
2.03819e-06
-1.06334e-05
2.07984e-06
-9.47795e-06
2.0055e-06
-7.97997e-06
1.89608e-06
-6.60858e-06
1.8487e-06
-5.6362e-06
1.91969e-06
-5.08348e-06
2.10862e-06
-4.82351e-06
2.38663e-06
-4.72405e-06
2.7237e-06
-4.70357e-06
3.09869e-06
-4.72271e-06
3.49924e-06
-4.76449e-06
3.91916e-06
-4.82144e-06
4.35595e-06
-4.88949e-06
4.80913e-06
-4.96538e-06
5.27902e-06
-5.04553e-06
5.76605e-06
-5.12584e-06
6.27026e-06
-5.20167e-06
6.79109e-06
-5.26803e-06
7.32725e-06
-5.31986e-06
7.87676e-06
-5.35226e-06
8.43698e-06
-5.36069e-06
9.00478e-06
-5.34113e-06
9.57661e-06
-5.29015e-06
1.01486e-05
-5.20493e-06
1.07164e-05
-5.08335e-06
1.12758e-05
-4.92398e-06
1.18219e-05
-4.72622e-06
1.23497e-05
-4.49039e-06
1.28544e-05
-4.2179e-06
1.33308e-05
-3.91136e-06
1.37744e-05
-3.57461e-06
1.4181e-05
-3.21272e-06
1.45472e-05
-2.83174e-06
1.48705e-05
-2.43849e-06
1.51494e-05
-2.04022e-06
1.53837e-05
-1.64424e-06
1.55739e-05
-1.25763e-06
1.57217e-05
-8.86928e-07
1.58297e-05
-5.37893e-07
1.59016e-05
-2.15008e-07
1.59414e-05
7.90731e-08
1.59524e-05
3.41666e-07
1.5938e-05
5.69893e-07
1.59024e-05
7.62431e-07
1.58499e-05
9.19584e-07
1.57851e-05
1.0429e-06
1.57124e-05
1.13496e-06
1.56361e-05
1.1992e-06
1.556e-05
1.23968e-06
1.54878e-05
1.26094e-06
1.54225e-05
1.2679e-06
1.53665e-05
1.26575e-06
1.53214e-05
1.25985e-06
1.5288e-05
1.25569e-06
1.52662e-05
1.25874e-06
1.52547e-05
1.27427e-06
1.5251e-05
1.30716e-06
1.52516e-05
1.36159e-06
1.5252e-05
1.44083e-06
1.52468e-05
1.5469e-06
1.52303e-05
1.68049e-06
1.51964e-05
1.8409e-06
1.514e-05
2.02617e-06
1.50568e-05
2.2335e-06
1.49442e-05
2.45963e-06
1.48018e-05
2.7015e-06
1.46325e-05
2.95665e-06
1.44422e-05
3.22359e-06
1.4241e-05
3.50171e-06
1.40432e-05
3.79066e-06
1.38658e-05
4.08893e-06
1.3726e-05
4.39157e-06
1.36336e-05
4.68805e-06
1.35835e-05
4.96345e-06
1.35544e-05
5.20594e-06
1.35178e-05
5.41878e-06
1.34511e-05
5.6336e-06
1.33518e-05
5.93537e-06
1.32538e-05
6.51818e-06
1.32141e-05
7.7065e-06
1.32117e-05
9.69865e-06
1.30767e-05
1.21117e-05
1.26045e-05
1.40525e-05
1.17048e-05
1.4756e-05
1.04384e-05
1.401e-05
8.96404e-06
1.20857e-05
7.4454e-06
9.43799e-06
5.94939e-06
6.43156e-06
4.25935e-06
3.1163e-06
2.41362e-06
-1.01978e-06
7.34167e-07
-5.86829e-06
9.39747e-08
-9.50962e-06
1.01994e-05
-8.13536e-08
1.34413e-05
-1.38936e-07
5.85262e-06
4.14456e-07
1.99936e-06
9.3008e-07
-3.83943e-06
1.39271e-06
-7.87931e-06
1.73348e-06
-1.02936e-05
1.93878e-06
-1.11392e-05
1.99673e-06
-1.06914e-05
1.91723e-06
-9.39845e-06
1.75617e-06
-7.8189e-06
1.61574e-06
-6.46816e-06
1.58975e-06
-5.61021e-06
1.70337e-06
-5.19709e-06
1.92572e-06
-5.04586e-06
2.21587e-06
-5.01419e-06
2.54488e-06
-5.03258e-06
2.89705e-06
-5.07489e-06
3.26561e-06
-5.13305e-06
3.64885e-06
-5.20467e-06
4.04761e-06
-5.28825e-06
4.46379e-06
-5.38156e-06
4.89931e-06
-5.48105e-06
5.35554e-06
-5.58207e-06
5.83296e-06
-5.67909e-06
6.33101e-06
-5.76607e-06
6.84808e-06
-5.83693e-06
7.38168e-06
-5.88586e-06
7.92864e-06
-5.90764e-06
8.48527e-06
-5.89777e-06
9.04763e-06
-5.8525e-06
9.61153e-06
-5.76883e-06
1.01727e-05
-5.64446e-06
1.07264e-05
-5.47778e-06
1.12681e-05
-5.2679e-06
1.17926e-05
-5.01488e-06
1.22946e-05
-4.7199e-06
1.27687e-05
-4.38549e-06
1.32098e-05
-4.01568e-06
1.3613e-05
-3.61596e-06
1.39745e-05
-3.19315e-06
1.4291e-05
-2.75505e-06
1.45608e-05
-2.31002e-06
1.47832e-05
-1.86663e-06
1.49587e-05
-1.43316e-06
1.50891e-05
-1.01731e-06
1.51771e-05
-6.25898e-07
1.52266e-05
-2.64539e-07
1.52424e-05
6.33051e-08
1.52291e-05
3.54958e-07
1.51914e-05
6.07569e-07
1.51343e-05
8.19619e-07
1.50625e-05
9.91298e-07
1.49812e-05
1.12421e-06
1.48951e-05
1.2211e-06
1.48086e-05
1.28568e-06
1.47259e-05
1.32236e-06
1.46508e-05
1.33613e-06
1.45862e-05
1.33244e-06
1.45348e-05
1.31712e-06
1.44984e-05
1.29627e-06
1.44778e-05
1.27628e-06
1.4473e-05
1.26361e-06
1.44826e-05
1.26467e-06
1.45042e-05
1.28552e-06
1.45342e-05
1.33157e-06
1.45679e-05
1.40716e-06
1.45995e-05
1.51524e-06
1.4623e-05
1.657e-06
1.46321e-05
1.83182e-06
1.46211e-05
2.03724e-06
1.45853e-05
2.26929e-06
1.45219e-05
2.52299e-06
1.44304e-05
2.79296e-06
1.43131e-05
3.07403e-06
1.41749e-05
3.36171e-06
1.40242e-05
3.65243e-06
1.38716e-05
3.94325e-06
1.37293e-05
4.23122e-06
1.36085e-05
4.51238e-06
1.35155e-05
4.78109e-06
1.34477e-05
5.03127e-06
1.33929e-05
5.26066e-06
1.33338e-05
5.47789e-06
1.32546e-05
5.71279e-06
1.3151e-05
6.039e-06
1.30447e-05
6.62451e-06
1.29846e-05
7.76662e-06
1.29759e-05
9.70726e-06
1.28963e-05
1.21914e-05
1.25587e-05
1.43902e-05
1.18499e-05
1.54647e-05
1.07858e-05
1.5074e-05
9.47532e-06
1.33962e-05
8.04793e-06
1.08654e-05
6.57795e-06
7.90155e-06
4.99146e-06
4.70278e-06
3.14377e-06
8.27912e-07
1.32174e-06
-4.04626e-06
1.3817e-07
-8.32605e-06
1.03376e-05
-4.25102e-08
1.34838e-05
-4.75195e-08
5.85763e-06
7.09359e-07
1.24248e-06
1.25399e-06
-4.38407e-06
1.69507e-06
-8.32038e-06
1.97037e-06
-1.05689e-05
2.07369e-06
-1.12425e-05
2.01804e-06
-1.06357e-05
1.84238e-06
-9.22278e-06
1.63075e-06
-7.60728e-06
1.49748e-06
-6.33489e-06
1.51244e-06
-5.62517e-06
1.66059e-06
-5.34524e-06
1.89122e-06
-5.27649e-06
2.1644e-06
-5.28737e-06
2.45898e-06
-5.32716e-06
2.76678e-06
-5.38268e-06
3.08672e-06
-5.45299e-06
3.42115e-06
-5.53911e-06
3.77375e-06
-5.64086e-06
4.14829e-06
-5.7561e-06
4.54776e-06
-5.88052e-06
4.97394e-06
-6.00825e-06
5.42714e-06
-6.13229e-06
5.90616e-06
-6.24509e-06
6.40847e-06
-6.33924e-06
6.93053e-06
-6.40792e-06
7.46812e-06
-6.44523e-06
8.01673e-06
-6.44639e-06
8.57185e-06
-6.40761e-06
9.12902e-06
-6.326e-06
9.68391e-06
-6.19936e-06
1.02322e-05
-6.02606e-06
1.07693e-05
-5.80503e-06
1.12904e-05
-5.53599e-06
1.17903e-05
-5.21974e-06
1.22633e-05
-4.85854e-06
1.2704e-05
-4.45638e-06
1.31071e-05
-4.01907e-06
1.3468e-05
-3.55406e-06
1.37831e-05
-3.07014e-06
1.405e-05
-2.57685e-06
1.42674e-05
-2.08406e-06
1.44356e-05
-1.60138e-06
1.45561e-05
-1.13778e-06
1.46315e-05
-7.01286e-07
1.46656e-05
-2.98669e-07
1.46634e-05
6.55058e-08
1.46304e-05
3.87956e-07
1.45724e-05
6.65586e-07
1.44953e-05
8.96744e-07
1.44049e-05
1.08164e-06
1.43071e-05
1.22207e-06
1.4207e-05
1.32114e-06
1.41097e-05
1.38299e-06
1.40195e-05
1.41255e-06
1.39403e-05
1.41539e-06
1.38751e-05
1.39762e-06
1.38264e-05
1.36578e-06
1.37959e-05
1.32682e-06
1.37841e-05
1.28802e-06
1.37909e-05
1.25686e-06
1.38147e-05
1.24082e-06
1.38532e-05
1.2471e-06
1.39025e-05
1.28224e-06
1.3958e-05
1.35163e-06
1.40142e-05
1.45908e-06
1.40648e-05
1.60635e-06
1.41037e-05
1.79293e-06
1.41251e-05
2.01591e-06
1.41241e-05
2.27026e-06
1.40978e-05
2.54933e-06
1.40452e-05
2.84554e-06
1.3968e-05
3.15123e-06
1.38704e-05
3.45932e-06
1.37589e-05
3.76385e-06
1.36421e-05
4.06012e-06
1.35288e-05
4.34452e-06
1.34269e-05
4.61421e-06
1.3341e-05
4.86704e-06
1.32697e-05
5.10257e-06
1.32056e-05
5.32473e-06
1.3137e-05
5.54648e-06
1.30516e-05
5.79819e-06
1.2943e-05
6.14763e-06
1.28232e-05
6.74433e-06
1.27305e-05
7.85935e-06
1.26841e-05
9.75365e-06
1.26022e-05
1.22732e-05
1.23258e-05
1.46667e-05
1.17359e-05
1.60546e-05
1.08189e-05
1.59911e-05
9.64457e-06
1.45705e-05
8.31085e-06
1.21991e-05
6.89045e-06
9.32195e-06
5.38975e-06
6.20348e-06
3.6013e-06
2.61636e-06
1.73104e-06
-2.176e-06
2.03583e-07
-6.79859e-06
1.05412e-05
4.133e-08
1.34425e-05
1.26917e-07
5.77204e-06
1.02509e-06