/*--------------------------------*- C++ -*----------------------------------*\
| =========                 |                                                 |
| \\      /  F ield         | OpenFOAM: The Open Source CFD Toolbox           |
|  \\    /   O peration     | Version:  4.1                                   |
|   \\  /    A nd           | Web:      www.OpenFOAM.org                      |
|    \\/     M anipulation  |                                                 |
\*---------------------------------------------------------------------------*/
FoamFile
{
    version     2.0;
    format      ascii;
    class       volScalarField;
    location    "1500";
    object      T;
}
// * * * * * * * * * * * * * * * * * * * * * * * * * * * * * * * * * * * * * //

dimensions      [0 0 0 1 0 0 0];

internalField   nonuniform List<scalar> 
5000
(
286.506
286.007
285.59
285.219
284.964
284.829
284.764
284.787
284.841
284.893
284.947
285.002
285.058
285.116
285.174
285.231
285.289
285.345
285.4
285.455
285.507
285.559
285.61
285.66
285.71
285.76
285.81
285.861
285.913
285.966
286.022
286.08
286.141
286.205
286.272
286.344
286.42
286.501
286.587
286.677
286.771
286.864
286.956
287.047
287.137
287.227
287.315
287.403
287.491
287.578
287.665
287.752
287.838
287.923
288.009
288.094
288.179
288.263
288.347
288.43
288.514
288.597
288.68
288.763
288.846
288.93
289.014
289.1
289.186
289.274
289.362
289.451
289.535
289.596
289.664
289.763
289.864
289.945
289.982
289.899
289.553
288.92
288.454
288.643
288.132
286.785
286.392
286.15
285.929
285.729
285.546
285.365
285.192
285.039
284.908
284.8
284.704
284.78
285.152
285.583
285.881
284.932
284.351
284.078
284.058
284.072
284.086
284.1
284.108
284.113
284.118
284.12
284.122
284.123
284.123
284.123
284.123
284.122
284.121
284.12
284.119
284.117
284.116
284.115
284.114
284.112
284.111
284.109
284.108
284.106
284.104
284.103
284.101
284.099
284.097
284.095
284.094
284.092
284.09
284.089
284.088
284.092
284.101
284.115
284.132
284.154
284.179
284.207
284.238
284.271
284.305
284.341
284.377
284.414
284.451
284.487
284.523
284.558
284.593
284.628
284.662
284.696
284.731
284.767
284.804
284.843
284.883
284.922
284.956
284.981
284.988
284.973
284.942
284.931
284.965
285.093
285.417
285.992
286.744
287.46
287.858
287.793
287.37
286.875
286.98
286.832
286.519
284.76
284.361
284.263
284.227
284.227
284.245
284.265
284.284
284.296
284.294
284.275
284.33
285.162
285.532
284.528
284.155
284.047
284.062
284.081
284.101
284.117
284.131
284.142
284.151
284.158
284.163
284.166
284.169
284.17
284.171
284.171
284.171
284.171
284.171
284.17
284.169
284.168
284.166
284.164
284.163
284.161
284.158
284.156
284.153
284.15
284.146
284.143
284.139
284.134
284.13
284.125
284.121
284.116
284.11
284.105
284.1
284.095
284.091
284.087
284.084
284.082
284.081
284.08
284.081
284.082
284.085
284.087
284.091
284.095
284.099
284.104
284.11
284.115
284.121
284.128
284.135
284.143
284.152
284.162
284.173
284.184
284.194
284.203
284.208
284.21
284.211
284.22
284.251
284.336
284.52
284.864
285.385
285.984
286.449
286.614
286.481
286.195
286.091
286.173
286.227
285.68
285.004
284.301
284.264
284.281
284.305
284.336
284.358
284.365
284.351
284.325
284.305
285.035
285.281
284.303
284.082
284.047
284.07
284.091
284.112
284.132
284.15
284.167
284.181
284.193
284.201
284.208
284.214
284.217
284.221
284.223
284.225
284.226
284.227
284.227
284.227
284.227
284.227
284.226
284.225
284.223
284.222
284.219
284.217
284.214
284.211
284.207
284.203
284.198
284.193
284.188
284.182
284.176
284.17
284.163
284.156
284.149
284.142
284.136
284.129
284.123
284.117
284.111
284.106
284.101
284.097
284.093
284.089
284.086
284.084
284.081
284.079
284.077
284.076
284.074
284.073
284.073
284.072
284.073
284.073
284.074
284.075
284.075
284.076
284.077
284.079
284.084
284.1
284.138
284.224
284.398
284.691
285.07
285.417
285.608
285.61
285.49
285.412
285.513
285.717
285.657
285.313
284.813
284.409
284.341
284.377
284.407
284.432
284.433
284.406
284.37
284.384
284.987
285.088
284.171
284.051
284.05
284.077
284.099
284.12
284.144
284.167
284.19
284.208
284.224
284.236
284.245
284.253
284.258
284.263
284.266
284.269
284.271
284.273
284.274
284.275
284.275
284.276
284.275
284.275
284.274
284.273
284.271
284.269
284.267
284.265
284.262
284.258
284.254
284.25
284.245
284.24
284.234
284.227
284.22
284.213
284.206
284.198
284.189
284.181
284.173
284.166
284.158
284.151
284.144
284.138
284.132
284.126
284.121
284.116
284.112
284.108
284.104
284.1
284.097
284.093
284.09
284.087
284.084
284.082
284.079
284.076
284.074
284.071
284.069
284.067
284.067
284.07
284.083
284.116
284.192
284.333
284.534
284.742
284.885
284.93
284.901
284.879
284.978
285.216
285.38
285.312
285.024
284.671
284.453
284.442
284.478
284.507
284.504
284.465
284.409
284.395
284.963
284.935
284.098
284.038
284.053
284.084
284.106
284.128
284.154
284.183
284.21
284.233
284.252
284.266
284.277
284.285
284.291
284.295
284.299
284.301
284.303
284.304
284.304
284.305
284.305
284.305
284.304
284.304
284.303
284.302
284.301
284.3
284.299
284.297
284.296
284.294
284.292
284.289
284.286
284.282
284.278
284.273
284.268
284.262
284.255
284.248
284.24
284.231
284.223
284.214
284.206
284.198
284.19
284.182
284.175
284.168
284.162
284.156
284.15
284.145
284.14
284.136
284.131
284.127
284.123
284.119
284.115
284.111
284.107
284.103
284.098
284.094
284.089
284.085
284.081
284.078
284.078
284.086
284.112
284.168
284.257
284.361
284.445
284.488
284.496
284.506
284.595
284.814
285.06
285.167
285.065
284.826
284.602
284.517
284.554
284.584
284.584
284.535
284.452
284.403
284.957
284.811
284.058
284.034
284.058
284.092
284.112
284.135
284.164
284.197
284.229
284.256
284.276
284.291
284.301
284.308
284.312
284.314
284.316
284.316
284.316
284.315
284.314
284.313
284.311
284.31
284.308
284.307
284.306
284.305
284.304
284.304
284.304
284.304
284.304
284.304
284.304
284.304
284.304
284.303
284.302
284.3
284.298
284.294
284.29
284.285
284.279
284.272
284.265
284.257
284.249
284.241
284.233
284.225
284.217
284.21
284.203
284.196
284.19
284.184
284.179
284.174
284.169
284.164
284.159
284.154
284.15
284.145
284.14
284.135
284.129
284.124
284.118
284.111
284.105
284.099
284.093
284.09
284.093
284.109
284.14
284.181
284.221
284.248
284.262
284.28
284.351
284.529
284.782
284.978
285.012
284.892
284.716
284.607
284.609
284.654
284.67
284.618
284.507
284.423
284.964
284.712
284.037
284.034
284.069
284.098
284.117
284.141
284.173
284.21
284.246
284.275
284.296
284.309
284.316
284.319
284.32
284.319
284.317
284.314
284.311
284.307
284.304
284.301
284.297
284.294
284.292
284.289
284.287
284.285
284.284
284.284
284.284
284.284
284.286
284.288
284.29
284.293
284.296
284.299
284.302
284.304
284.306
284.307
284.306
284.305
284.303
284.299
284.295
284.289
284.283
284.276
284.269
284.261
284.254
284.247
284.24
284.234
284.227
284.222
284.216
284.21
284.205
284.2
284.195
284.19
284.185
284.179
284.174
284.168
284.162
284.155
284.148
284.141
284.133
284.124
284.116
284.108
284.102
284.101
284.106
284.117
284.13
284.141
284.149
284.162
284.212
284.346
284.569
284.795
284.915
284.894
284.786
284.687
284.665
284.708
284.744
284.707
284.571
284.446
284.982
284.632
284.026
284.034
284.079
284.104
284.123
284.148
284.182
284.223
284.262
284.292
284.311
284.32
284.322
284.321
284.317
284.312
284.306
284.3
284.294
284.289
284.283
284.278
284.272
284.268
284.263
284.259
284.255
284.252
284.25
284.248
284.248
284.248
284.25
284.252
284.256
284.261
284.266
284.272
284.279
284.285
284.292
284.298
284.302
284.306
284.309
284.31
284.309
284.307
284.304
284.3
284.295
284.289
284.283
284.277
284.271
284.265
284.259
284.254
284.248
284.243
284.238
284.233
284.227
284.222
284.217
284.211
284.205
284.199
284.192
284.185
284.177
284.169
284.16
284.151
284.141
284.132
284.122
284.114
284.109
284.106
284.106
284.106
284.107
284.113
284.144
284.238
284.419
284.64
284.806
284.858
284.815
284.746
284.719
284.747
284.789
284.781
284.642
284.469
285.013
284.569
284.02
284.029
284.086
284.111
284.129
284.154
284.191
284.234
284.275
284.304
284.32
284.324
284.321
284.315
284.307
284.299
284.291
284.283
284.276
284.268
284.261
284.253
284.246
284.239
284.233
284.226
284.221
284.215
284.211
284.208
284.205
284.204
284.205
284.207
284.21
284.215
284.222
284.23
284.239
284.249
284.259
284.27
284.28
284.289
284.297
284.303
284.307
284.31
284.311
284.31
284.308
284.305
284.301
284.297
284.292
284.287
284.282
284.277
284.272
284.267
284.262
284.257
284.252
284.247
284.241
284.236
284.23
284.223
284.216
284.209
284.201
284.193
284.184
284.175
284.165
284.154
284.144
284.134
284.125
284.117
284.111
284.105
284.101
284.101
284.117
284.181
284.321
284.519
284.702
284.803
284.815
284.782
284.763
284.783
284.825
284.826
284.703
284.496
285.052
284.518
284.016
284.028
284.092
284.117
284.134
284.16
284.199
284.245
284.286
284.313
284.324
284.323
284.316
284.307
284.297
284.288
284.279
284.27
284.261
284.252
284.243
284.234
284.225
284.216
284.207
284.199
284.19
284.183
284.176
284.17
284.165
284.161
284.159
284.159
284.161
284.165
284.171
284.179
284.189
284.201
284.214
284.228
284.242
284.256
284.269
284.28
284.29
284.298
284.303
284.307
284.308
284.308
284.307
284.305
284.302
284.298
284.294
284.289
284.285
284.28
284.275
284.27
284.265
284.26
284.255
284.249
284.244
284.238
284.231
284.224
284.217
284.21
284.201
284.192
284.183
284.173
284.163
284.153
284.143
284.134
284.125
284.117
284.11
284.106
284.113
284.154
284.259
284.429
284.612
284.743
284.797
284.799
284.795
284.816
284.856
284.86
284.747
284.52
285.095
284.477
284.014
284.043
284.102
284.125
284.14
284.166
284.206
284.254
284.295
284.319
284.325
284.32
284.311
284.301
284.291
284.281
284.272
284.262
284.252
284.243
284.232
284.222
284.211
284.201
284.189
284.178
284.167
284.157
284.147
284.138
284.129
284.123
284.118
284.115
284.114
284.116
284.12
284.127
284.137
284.148
284.162
284.178
284.195
284.212
284.229
284.245
284.259
284.272
284.282
284.29
284.295
284.299
284.3
284.3
284.299
284.297
284.293
284.289
284.285
284.28
284.275
284.27
284.265
284.259
284.254
284.249
284.244
284.239
284.234
284.228
284.222
284.216
284.209
284.202
284.194
284.186
284.177
284.167
284.158
284.149
284.14
284.131
284.123
284.116
284.118
284.145
284.223
284.365
284.538
284.684
284.769
284.801
284.816
284.842
284.881
284.89
284.78
284.538
285.137
284.446
284.013
284.066
284.115
284.132
284.146
284.172
284.214
284.263
284.303
284.323
284.325
284.318
284.309
284.299
284.29
284.28
284.271
284.261
284.251
284.241
284.23
284.218
284.205
284.192
284.179
284.165
284.151
284.137
284.124
284.112
284.1
284.09
284.082
284.076
284.072
284.071
284.072
284.077
284.085
284.096
284.109
284.125
284.143
284.162
284.181
284.201
284.219
284.236
284.25
284.262
284.271
284.278
284.283
284.285
284.285
284.284
284.281
284.278
284.273
284.268
284.262
284.257
284.251
284.246
284.24
284.236
284.231
284.227
284.223
284.22
284.216
284.212
284.207
284.202
284.197
284.19
284.183
284.175
284.167
284.159
284.151
284.142
284.134
284.127
284.126
284.144
284.203
284.322
284.48
284.632
284.738
284.796
284.828
284.863
284.903
284.913
284.803
284.551
285.175
284.42
284.026
284.084
284.128
284.14
284.151
284.178
284.222
284.271
284.309
284.326
284.326
284.318
284.31
284.302
284.293
284.285
284.276
284.267
284.256
284.245
284.232
284.219
284.204
284.189
284.173
284.156
284.139
284.122
284.106
284.09
284.076
284.062
284.051
284.041
284.034
284.03
284.029
284.031
284.037
284.046
284.058
284.073
284.09
284.11
284.13
284.152
284.173
284.192
284.21
284.225
284.238
284.248
284.255
284.259
284.261
284.261
284.259
284.256
284.251
284.245
284.239
284.233
284.226
284.22
284.215
284.21
284.207
284.204
284.202
284.201
284.199
284.198
284.196
284.194
284.191
284.187
284.182
284.177
284.17
284.164
284.157
284.149
284.142
284.136
284.134
284.146
284.193
284.292
284.437
284.589
284.709
284.786
284.836
284.88
284.922
284.929
284.818
284.56
285.205
284.399
284.056
284.11
284.142
284.147
284.157
284.185
284.231
284.28
284.316
284.329
284.328
284.322
284.315
284.309
284.302
284.294
284.286
284.276
284.265
284.253
284.239
284.223
284.206
284.188
284.169
284.149
284.129
284.11
284.09
284.071
284.053
284.037
284.022
284.01
284
283.993
283.99
283.99
283.993
284
284.01
284.024
284.04
284.059
284.08
284.102
284.124
284.146
284.166
284.183
284.199
284.211
284.22
284.226
284.229
284.23
284.228
284.225
284.22
284.213
284.206
284.199
284.193
284.186
284.181
284.177
284.174
284.173
284.173
284.173
284.175
284.176
284.178
284.178
284.178
284.177
284.175
284.172
284.167
284.162
284.157
284.151
284.146
284.141
284.139
284.15
284.188
284.274
284.406
284.556
284.685
284.777
284.841
284.894
284.939
284.941
284.825
284.562
285.226
284.381
284.102
284.145
284.157
284.153
284.162
284.193
284.241
284.29
284.322
284.333
284.332
284.328
284.324
284.319
284.314
284.307
284.299
284.289
284.277
284.262
284.246
284.228
284.208
284.187
284.165
284.142
284.119
284.096
284.074
284.053
284.032
284.013
283.996
283.981
283.969
283.96
283.954
283.952
283.953
283.959
283.967
283.98
283.995
284.013
284.033
284.054
284.076
284.099
284.12
284.139
284.155
284.169
284.18
284.187
284.191
284.192
284.19
284.187
284.181
284.174
284.167
284.16
284.152
284.146
284.141
284.138
284.136
284.136
284.138
284.141
284.145
284.15
284.154
284.158
284.161
284.162
284.163
284.162
284.16
284.157
284.153
284.149
284.145
284.142
284.143
284.153
284.187
284.263
284.386
284.532
284.667
284.77
284.846
284.907
284.953
284.948
284.821
284.559
285.237
284.365
284.161
284.18
284.169
284.157
284.168
284.203
284.254
284.302
284.33
284.339
284.339
284.338
284.336
284.334
284.329
284.323
284.314
284.302
284.288
284.271
284.252
284.231
284.208
284.183
284.158
284.133
284.107
284.082
284.057
284.033
284.011
283.99
283.97
283.953
283.939
283.928
283.921
283.917
283.917
283.921
283.929
283.94
283.954
283.971
283.99
284.01
284.032
284.054
284.075
284.094
284.111
284.125
284.136
284.144
284.148
284.149
284.148
284.143
284.138
284.131
284.123
284.115
284.108
284.103
284.098
284.096
284.096
284.098
284.102
284.108
284.115
284.122
284.129
284.136
284.141
284.145
284.148
284.149
284.149
284.148
284.146
284.144
284.142
284.141
284.144
284.155
284.188
284.259
284.374
284.517
284.656
284.768
284.853
284.921
284.966
284.951
284.808
284.548
285.238
284.35
284.227
284.204
284.171
284.158
284.175
284.216
284.27
284.315
284.339
284.347
284.349
284.351
284.351
284.35
284.346
284.339
284.329
284.315
284.298
284.278
284.256
284.231
284.204
284.177
284.148
284.12
284.092
284.065
284.038
284.013
283.989
283.966
283.945
283.926
283.91
283.898
283.89
283.885
283.885
283.888
283.896
283.906
283.919
283.935
283.952
283.971
283.992
284.013
284.033
284.051
284.068
284.082
284.092
284.1
284.103
284.104
284.102
284.097
284.091
284.084
284.077
284.069
284.063
284.058
284.056
284.055
284.057
284.061
284.068
284.076
284.085
284.095
284.105
284.114
284.122
284.128
284.132
284.135
284.136
284.137
284.137
284.137
284.137
284.139
284.145
284.158
284.191
284.26
284.372
284.513
284.653
284.771
284.863
284.935
284.978
284.949
284.787
284.524
285.23
284.336
284.266
284.202
284.163
284.157
284.184
284.234
284.289
284.33
284.35
284.358
284.363
284.367
284.369
284.368
284.363
284.355
284.342
284.325
284.305
284.282
284.255
284.227
284.197
284.166
284.135
284.104
284.074
284.046
284.018
283.991
283.966
283.942
283.92
283.9
283.883
283.87
283.861
283.856
283.856
283.86
283.867
283.877
283.89
283.904
283.921
283.939
283.957
283.977
283.995
284.013
284.028
284.04
284.05
284.056
284.059
284.059
284.056
284.051
284.045
284.038
284.031
284.025
284.02
284.017
284.016
284.017
284.022
284.029
284.038
284.048
284.06
284.072
284.084
284.095
284.104
284.112
284.117
284.121
284.124
284.126
284.127
284.13
284.133
284.138
284.146
284.163
284.198
284.266
284.377
284.517
284.659
284.781
284.877
284.95
284.987
284.941
284.759
284.499
285.212
284.32
284.234
284.171
284.147
284.16
284.2
284.257
284.311
284.346
284.362
284.371
284.379
284.385
284.388
284.386
284.379
284.368
284.352
284.332
284.308
284.281
284.25
284.218
284.185
284.152
284.118
284.086
284.054
284.024
283.995
283.968
283.942
283.918
283.895
283.874
283.857
283.844
283.835
283.831
283.831
283.836
283.843
283.854
283.866
283.88
283.896
283.912
283.929
283.946
283.963
283.978
283.992
284.003
284.01
284.015
284.016
284.015
284.012
284.007
284.001
283.994
283.988
283.983
283.98
283.98
283.981
283.986
283.993
284.002
284.014
284.027
284.041
284.055
284.068
284.08
284.09
284.099
284.105
284.109
284.113
284.116
284.12
284.124
284.131
284.139
284.151
284.171
284.209
284.28
284.391
284.531
284.674
284.797
284.895
284.966
284.992
284.926
284.727
284.475
285.181
284.299
284.18
284.135
284.138
284.172
284.226
284.286
284.335
284.362
284.377
284.388
284.398
284.405
284.407
284.403
284.393
284.378
284.358
284.335
284.307
284.276
284.242
284.207
284.171
284.134
284.099
284.065
284.032
284.001
283.972
283.944
283.918
283.894
283.871
283.85
283.833
283.82
283.812
283.809
283.811
283.816
283.825
283.836
283.848
283.862
283.876
283.891
283.907
283.922
283.936
283.949
283.96
283.969
283.974
283.977
283.977
283.975
283.971
283.966
283.96
283.955
283.951
283.948
283.948
283.95
283.954
283.961
283.971
283.983
283.997
284.012
284.028
284.043
284.057
284.07
284.08
284.089
284.095
284.1
284.104
284.109
284.115
284.123
284.133
284.145
284.16
284.184
284.226
284.3
284.414
284.554
284.696
284.819
284.916
284.981
284.993
284.905
284.692
284.453
285.135
284.125
284.098
284.109
284.145
284.199
284.261
284.32
284.359
284.379
284.394
284.408
284.419
284.425
284.424
284.416
284.403
284.384
284.36
284.332
284.302
284.267
284.23
284.192
284.154
284.115
284.078
284.042
284.008
283.977
283.947
283.92
283.894
283.87
283.847
283.827
283.81
283.798
283.792
283.791
283.795
283.802
283.812
283.824
283.836
283.85
283.863
283.876
283.889
283.902
283.914
283.925
283.933
283.939
283.942
283.943
283.942
283.939
283.934
283.93
283.925
283.922
283.92
283.92
283.923
283.928
283.936
283.946
283.958
283.973
283.989
284.005
284.022
284.038
284.052
284.064
284.074
284.082
284.087
284.093
284.098
284.105
284.115
284.127
284.141
284.157
284.176
284.203
284.25
284.329
284.446
284.587
284.727
284.846
284.938
284.993
284.986
284.875
284.655
284.433
285.073
284.054
284.075
284.119
284.176
284.24
284.303
284.352
284.38
284.397
284.415
284.43
284.44
284.443
284.438
284.427
284.409
284.386
284.358
284.327
284.293
284.257
284.217
284.177
284.136
284.095
284.056
284.018
283.984
283.952
283.922
283.896
283.87
283.847
283.825
283.805
283.79
283.78
283.776
283.777
283.783
283.792
283.804
283.816
283.829
283.841
283.854
283.865
283.876
283.887
283.896
283.903
283.909
283.912
283.913
283.912
283.91
283.906
283.903
283.899
283.897
283.896
283.897
283.901
283.907
283.915
283.926
283.939
283.954
283.97
283.988
284.005
284.022
284.037
284.051
284.062
284.07
284.077
284.082
284.088
284.096
284.108
284.122
284.139
284.158
284.177
284.199
284.23
284.282
284.367
284.488
284.628
284.763
284.876
284.959
285
284.972
284.84
284.618
284.416
284.998
284.044
284.088
284.151
284.219
284.286
284.343
284.378
284.399
284.418
284.437
284.451
284.458
284.458
284.449
284.433
284.411
284.384
284.353
284.319
284.282
284.244
284.204
284.161
284.118
284.075
284.034
283.995
283.959
283.927
283.898
283.872
283.847
283.825
283.804
283.786
283.772
283.764
283.763
283.767
283.775
283.786
283.799
283.811
283.824
283.835
283.846
283.856
283.864
283.872
283.878
283.883
283.886
283.887
283.886
283.884
283.882
283.879
283.877
283.876
283.877
283.879
283.884
283.891
283.9
283.912
283.926
283.941
283.958
283.975
283.993
284.01
284.026
284.04
284.052
284.062
284.068
284.074
284.08
284.088
284.1
284.118
284.139
284.162
284.185
284.206
284.231
284.266
284.324
284.415
284.538
284.675
284.803
284.907
284.977
285
284.948
284.798
284.58
284.398
284.918
284.043
284.109
284.189
284.265
284.33
284.374
284.399
284.419
284.441
284.459
284.471
284.475
284.469
284.456
284.436
284.41
284.38
284.347
284.311
284.272
284.232
284.191
284.147
284.102
284.057
284.013
283.972
283.936
283.903
283.874
283.849
283.825
283.804
283.784
283.768
283.757
283.752
283.753
283.76
283.77
283.782
283.795
283.807
283.818
283.828
283.837
283.844
283.85
283.855
283.859
283.862
283.863
283.863
283.862
283.86
283.859
283.858
283.859
283.861
283.865
283.871
283.88
283.89
283.903
283.917
283.933
283.949
283.967
283.985
284.002
284.018
284.033
284.045
284.055
284.062
284.067
284.072
284.08
284.093
284.114
284.14
284.169
284.197
284.222
284.245
284.272
284.312
284.377
284.473
284.595
284.724
284.842
284.933
284.988
284.989
284.914
284.752
284.544
284.381
284.837
284.047
284.134
284.229
284.309
284.366
284.395
284.417
284.441
284.463
284.48
284.488
284.488
284.478
284.46
284.436
284.408
284.375
284.34
284.303
284.264
284.223
284.179
284.134
284.087
284.04
283.994
283.951
283.913
283.88
283.851
283.827
283.805
283.784
283.767
283.753
283.744
283.742
283.746
283.755
283.766
283.778
283.79
283.802
283.811
283.819
283.825
283.83
283.834
283.837
283.839
283.841
283.842
283.842
283.842
283.843
283.844
283.846
283.849
283.855
283.862
283.872
283.884
283.898
283.912
283.928
283.945
283.962
283.98
283.997
284.013
284.028
284.04
284.049
284.056
284.06
284.064
284.072
284.086
284.11
284.143
284.179
284.215
284.245
284.269
284.293
284.324
284.37
284.44
284.537
284.653
284.773
284.877
284.953
284.988
284.966
284.87
284.702
284.508
284.365
284.761
284.053
284.159
284.268
284.345
284.386
284.413
284.438
284.463
284.485
284.498
284.503
284.497
284.483
284.462
284.435
284.405
284.371
284.336
284.298
284.258
284.216
284.171
284.123
284.074
284.025
283.976
283.931
283.892
283.858
283.83
283.806
283.786
283.767
283.752
283.741
283.735
283.736
283.742
283.751
283.762
283.774
283.785
283.794
283.802
283.808
283.813
283.817
283.82
283.822
283.824
283.826
283.828
283.83
283.832
283.834
283.838
283.842
283.849
283.858
283.869
283.881
283.896
283.911
283.927
283.944
283.961
283.978
283.994
284.01
284.024
284.035
284.044
284.051
284.055
284.058
284.065
284.08
284.109
284.148
284.193
284.236
284.272
284.3
284.324
284.35
284.384
284.434
284.507
284.601
284.709
284.816
284.904
284.961
284.975
284.931
284.818
284.65
284.472
284.348
284.693
284.061
284.186
284.3
284.365
284.402
284.431
284.459
284.485
284.504
284.514
284.513
284.504
284.486
284.462
284.433
284.402
284.369
284.334
284.296
284.256
284.212
284.165
284.115
284.063
284.011
283.961
283.914
283.873
283.839
283.811
283.788
283.769
283.752
283.739
283.731
283.728
283.731
283.738
283.748
283.759
283.769
283.779
283.788
283.795
283.801
283.805
283.81
283.813
283.817
283.82
283.823
283.826
283.829
283.831
283.835
283.839
283.847
283.857
283.869
283.883
283.898
283.913
283.929
283.945
283.961
283.977
283.993
284.007
284.02
284.031
284.039
284.045
284.049
284.053
284.06
284.078
284.11
284.155
284.206
284.254
284.296
284.33
284.357
284.382
284.41
284.448
284.502
284.574
284.663
284.759
284.849
284.919
284.956
284.948
284.883
284.759
284.596
284.436
284.332
284.633
284.07
284.208
284.319
284.38
284.419
284.451
284.48
284.504
284.52
284.526
284.521
284.508
284.487
284.461
284.433
284.402
284.369
284.335
284.298
284.257
284.212
284.163
284.11
284.055
284
283.947
283.898
283.856
283.822
283.794
283.772
283.754
283.739
283.729
283.723
283.723
283.727
283.735
283.745
283.755
283.765
283.774
283.783
283.791
283.798
283.804
283.81
283.815
283.82
283.824
283.828
283.831
283.833
283.837
283.843
283.85
283.861
283.873
283.886
283.901
283.916
283.931
283.946
283.961
283.976
283.99
284.004
284.015
284.025
284.033
284.038
284.043
284.048
284.058
284.078
284.111
284.157
284.209
284.262
284.31
284.351
284.384
284.412
284.439
284.471
284.512
284.566
284.635
284.715
284.797
284.87
284.919
284.934
284.905
284.822
284.694
284.541
284.4
284.314
284.582
284.079
284.224
284.333
284.395
284.436
284.469
284.499
284.521
284.533
284.535
284.527
284.51
284.488
284.462
284.433
284.404
284.373
284.339
284.303
284.262
284.216
284.164
284.108
284.049
283.991
283.935
283.884
283.841
283.807
283.779
283.758
283.742
283.729
283.721
283.718
283.719
283.724
283.731
283.741
283.751
283.761
283.771
283.781
283.79
283.798
283.806
283.813
283.819
283.824
283.828
283.832
283.835
283.84
283.846
283.854
283.864
283.875
283.888
283.902
283.916
283.931
283.946
283.96
283.974
283.987
283.999
284.009
284.018
284.025
284.031
284.036
284.043
284.054
284.074
284.106
284.149
284.201
284.256
284.309
284.356
284.397
284.431
284.461
284.492
284.526
284.568
284.621
284.684
284.753
284.819
284.872
284.9
284.894
284.844
284.75
284.623
284.484
284.362
284.295
284.538
284.087
284.235
284.346
284.409
284.452
284.487
284.515
284.535
284.544
284.541
284.53
284.511
284.488
284.463
284.436
284.408
284.378
284.346
284.311
284.27
284.222
284.169
284.109
284.047
283.984
283.926
283.873
283.829
283.794
283.767
283.747
283.732
283.721
283.715
283.713
283.715
283.72
283.728
283.737
283.747
283.757
283.768
283.778
283.787
283.796
283.805
283.812
283.818
283.823
283.828
283.834
283.839
283.846
283.854
283.864
283.875
283.888
283.901
283.915
283.928
283.942
283.956
283.968
283.98
283.991
284.001
284.009
284.016
284.022
284.028
284.035
284.046
284.065
284.093
284.132
284.18
284.234
284.289
284.341
284.389
284.431
284.467
284.5
284.534
284.57
284.612
284.66
284.715
284.77
284.82
284.852
284.86
284.833
284.766
284.668
284.548
284.424
284.324
284.275
284.5
284.092
284.243
284.356
284.422
284.466
284.502
284.529
284.546
284.551
284.545
284.532
284.512
284.489
284.464
284.439
284.413
284.385
284.356
284.321
284.281
284.232
284.176
284.113
284.047
283.981
283.919
283.864
283.819
283.784
283.757
283.738
283.724
283.715
283.71
283.709
283.711
283.716
283.724
283.732
283.742
283.752
283.762
283.772
283.782
283.791
283.799
283.807
283.813
283.82
283.827
283.834
283.841
283.85
283.86
283.871
283.883
283.896
283.909
283.922
283.935
283.948
283.96
283.971
283.982
283.991
283.999
284.005
284.011
284.017
284.024
284.035
284.051
284.075
284.108
284.15
284.198
284.251
284.305
284.357
284.405
284.448
284.487
284.523
284.559
284.595
284.635
284.678
284.722
284.763
284.794
284.808
284.795
284.749
284.674
284.577
284.468
284.363
284.284
284.255
284.467
284.095
284.249
284.365
284.433
284.48
284.515
284.541
284.554
284.556
284.548
284.532
284.511
284.489
284.465
284.441
284.418
284.393
284.365
284.333
284.293
284.244
284.186
284.12
284.05
283.98
283.915
283.858
283.812
283.776
283.75
283.731
283.718
283.71
283.706
283.705
283.708
283.712
283.719
283.727
283.736
283.745
283.755
283.764
283.773
283.782
283.791
283.799
283.807
283.814
283.823
283.831
283.841
283.851
283.862
283.874
283.886
283.899
283.911
283.924
283.936
283.948
283.958
283.968
283.977
283.985
283.991
283.997
284.003
284.01
284.019
284.033
284.052
284.078
284.112
284.153
284.2
284.251
284.303
284.354
284.402
284.446
284.487
284.524
284.56
284.596
284.632
284.667
284.7
284.727
284.741
284.736
284.705
284.647
284.57
284.48
284.385
284.301
284.245
284.234
284.438
284.097
284.253
284.373
284.443
284.491
284.526
284.549
284.56
284.558
284.547
284.53
284.509
284.487
284.464
284.442
284.42
284.397
284.373
284.344
284.306
284.258
284.199
284.129
284.055
283.981
283.914
283.855
283.808
283.772
283.746
283.727
283.715
283.707
283.703
283.703
283.705
283.709
283.714
283.721
283.729
283.737
283.746
283.755
283.764
283.772
283.781
283.789
283.798
283.807
283.817
283.826
283.837
283.848
283.86
283.872
283.884
283.896
283.908
283.92
283.931
283.942
283.951
283.96
283.968
283.974
283.98
283.986
283.993
284
284.011
284.026
284.046
284.072
284.105
284.143
284.186
284.233
284.282
284.33
284.377
284.42
284.461
284.499
284.534
284.567
284.598
284.625
284.647
284.659
284.657
284.636
284.592
284.53
284.457
284.378
284.301
284.239
284.205
284.213
284.413
284.097
284.255
284.378
284.451
284.5
284.534
284.554
284.562
284.558
284.545
284.526
284.504
284.481
284.458
284.436
284.416
284.397
284.377
284.352
284.319
284.273
284.213
284.141
284.063
283.986
283.915
283.854
283.806
283.77
283.743
283.725
283.713
283.706
283.702
283.701
283.703
283.706
283.71
283.716
283.723
283.73
283.738
283.746
283.754
283.762
283.771
283.78
283.789
283.799
283.809
283.819
283.83
283.842
283.854
283.865
283.877
283.889
283.9
283.911
283.921
283.931
283.939
283.947
283.954
283.96
283.966
283.972
283.979
283.987
283.999
284.013
284.033
284.057
284.086
284.119
284.157
284.199
284.242
284.286
284.329
284.371
284.41
284.445
284.477
284.506
284.531
284.55
284.561
284.562
284.547
284.514
284.463
284.404
284.341
284.276
284.219
284.18
284.168
284.194
284.392
284.096
284.254
284.382
284.457
284.506
284.538
284.556
284.561
284.554
284.539
284.518
284.493
284.468
284.445
284.423
284.405
284.389
284.374
284.356
284.329
284.288
284.228
284.154
284.073
283.993
283.919
283.857
283.807
283.77
283.744
283.726
283.714
283.707
283.703
283.701
283.702
283.704
283.708
283.713
283.718
283.724
283.731
283.738
283.746
283.754
283.762
283.771
283.78
283.79
283.8
283.811
283.822
283.833
283.844
283.856
283.867
283.878
283.888
283.898
283.907
283.916
283.923
283.93
283.936
283.942
283.948
283.954
283.961
283.97
283.98
283.994
284.011
284.032
284.056
284.084
284.116
284.151
284.188
284.226
284.263
284.3
284.334
284.365
284.393
284.417
284.435
284.446
284.449
284.441
284.417
284.377
284.329
284.279
284.228
284.18
284.143
284.127
284.136
284.178
284.374
284.093
284.251
284.383
284.46
284.509
284.539
284.555
284.556
284.546
284.528
284.504
284.476
284.448
284.422
284.399
284.382
284.37
284.361
284.352
284.335
284.3
284.244
284.17
284.086
284.002
283.926
283.861
283.811
283.773
283.747
283.729
283.717
283.71
283.706
283.704
283.704
283.706
283.708
283.712
283.716
283.721
283.727
283.733
283.74
283.747
283.755
283.764
283.773
283.782
283.792
283.802
283.812
283.822
283.833
283.843
283.853
283.863
283.873
283.882
283.89
283.897
283.904
283.911
283.916
283.922
283.928
283.934
283.94
283.948
283.958
283.97
283.984
284
284.02
284.042
284.067
284.095
284.124
284.154
284.184
284.214
284.242
284.267
284.289
284.306
284.318
284.323
284.32
284.306
284.28
284.241
284.201
284.162
284.125
284.095
284.079
284.083
284.111
284.165