/*--------------------------------*- C++ -*----------------------------------*\
| =========                 |                                                 |
| \\      /  F ield         | OpenFOAM: The Open Source CFD Toolbox           |
|  \\    /   O peration     | Version:  4.1                                   |
|   \\  /    A nd           | Web:      www.OpenFOAM.org                      |
|    \\/     M anipulation  |                                                 |
\*---------------------------------------------------------------------------*/
FoamFile
{
    version     2.0;
    format      ascii;
    class       volScalarField;
    location    "1500";
    object      T;
}
// * * * * * * * * * * * * * * * * * * * * * * * * * * * * * * * * * * * * * //

dimensions      [0 0 0 1 0 0 0];

internalField   nonuniform List<scalar> 
1600
(
287.173
286.716
286.354
286.129
286.075
286.246
286.436
286.639
286.854
287.067
287.236
287.35
287.593
287.95
288.433
288.519
288.203
287.924
287.663
287.41
287.147
286.95
286.825
286.776
286.824
286.92
287.034
287.181
287.359
287.561
287.763
287.918
287.962
287.873
287.764
287.893
288.219
288.465
287.856
288.031
286.586
285.793
285.516
285.389
285.265
285.209
285.172
285.147
285.131
285.12
285.112
285.112
285.216
286.001
287.299
286.754
285.723
285.39
285.186
285.069
285.048
285.039
285.03
285.021
285.016
285.015
285.017
285.021
285.026
285.033
285.04
285.046
285.051
285.054
285.063
285.132
285.767
286.816
286.871
287.314
286.395
285.699
285.624
285.405
285.277
285.192
285.136
285.097
285.07
285.049
285.033
285.026
285.081
285.592
286.779
286.21
285.262
285.115
285.062
285.046
285.039
285.03
285.017
285.004
284.992
284.987
284.987
284.988
284.991
284.994
284.997
284.999
285.002
285.006
285.017
285.063
285.411
286.256
286.559
287.015
286.325
285.764
285.636
285.413
285.255
285.154
285.09
285.047
285.017
284.995
284.979
284.972
285.015
285.414
286.447
286.011
285.145
285.081
285.068
285.063
285.055
285.041
285.022
285.002
284.984
284.975
284.974
284.976
284.98
284.984
284.989
284.993
284.997
285.001
285.012
285.058
285.316
286.016
286.422
286.782
286.325
285.999
285.641
285.366
285.195
285.093
285.03
284.99
284.962
284.943
284.93
284.924
284.966
285.304
286.204
285.905
285.149
285.087
285.087
285.084
285.073
285.054
285.029
285.001
284.977
284.963
284.96
284.963
284.969
284.976
284.982
284.988
284.993
284.997
285.01
285.061
285.286
285.905
286.36
286.55
286.327
285.923
285.528
285.263
285.108
285.02
284.968
284.935
284.913
284.898
284.889
284.887
284.928
285.227
286.014
285.833
285.19
285.101
285.108
285.106
285.093
285.069
285.037
285.002
284.97
284.95
284.946
284.95
284.958
284.967
284.976
284.983
284.989
284.994
285.008
285.067
285.285
285.859
286.338
286.359
286.332
285.772
285.367
285.138
285.018
284.954
284.916
284.893
284.876
284.865
284.859
284.86
284.901
285.168
285.86
285.775
285.237
285.117
285.129
285.129
285.114
285.086
285.047
285.004
284.965
284.939
284.931
284.935
284.946
284.958
284.97
284.979
284.986
284.99
285.005
285.079
285.301
285.852
286.341
286.23
286.341
285.545
285.179
285.018
284.945
284.907
284.884
284.867
284.854
284.845
284.84
284.842
284.881
285.122
285.733
285.723
285.279
285.135
285.15
285.151
285.136
285.104
285.059
285.008
284.961
284.928
284.915
284.919
284.933
284.949
284.964
284.975
284.982
284.984
285.005
285.1
285.335
285.875
286.361
286.145
285.639
285.177
284.996
284.932
284.905
284.887
284.871
284.857
284.845
284.835
284.829
284.831
284.867
285.086
285.628
285.674
285.312
285.157
285.169
285.173
285.157
285.123
285.073
285.014
284.959
284.919
284.901
284.903
284.918
284.938
284.956
284.968
284.974
284.974
285.008
285.138
285.388
285.924
286.391
286.078
284.895
284.901
284.905
284.904
284.898
284.887
284.872
284.857
284.842
284.831
284.823
284.823
284.857
285.055
285.539
285.629
285.338
285.179
285.184
285.191
285.177
285.142
285.087
285.022
284.959
284.912
284.888
284.886
284.902
284.925
284.946
284.958
284.962
284.961
285.017
285.204
285.464
285.997
286.421
286.012
284.902
284.911
284.916
284.915
284.907
284.896
284.88
284.862
284.845
284.829
284.819
284.818
284.849
285.03
285.465
285.586
285.356
285.201
285.195
285.205
285.194
285.159
285.102
285.031
284.961
284.907
284.876
284.87
284.885
284.91
284.932
284.944
284.944
284.943
285.032
285.304
285.564
286.095
286.434
285.944
284.909
284.922
284.928
284.926
284.92
284.908
284.893
284.873
284.851
284.831
284.818
284.814
284.843
285.009
285.403
285.546
285.368
285.223
285.204
285.214
285.208
285.175
285.116
285.04
284.964
284.904
284.867
284.856
284.868
284.894
284.916
284.925
284.922
284.923
285.054
285.443
285.69
286.208
286.418
285.873
284.915
284.933
284.94
284.94
284.935
284.926
284.911
284.889
284.863
284.838
284.82
284.813
284.839
284.992
285.35
285.509
285.376
285.244
285.215
285.221
285.218
285.188
285.129
285.051
284.969
284.902
284.859
284.843
284.852
284.876
284.898
284.903
284.895
284.902
285.082
285.619
285.853
286.31
286.371
285.802
284.921
284.945
284.954
284.956
284.953
284.947
284.934
284.913
284.883
284.851
284.827
284.815
284.837
284.978
285.307
285.476
285.38
285.263
285.228
285.231
285.228
285.199
285.141
285.06
284.974
284.902
284.854
284.833
284.837
284.858
284.879
284.879
284.864
284.881
285.113
285.798
286.022
286.387
286.289
285.733
284.926
284.957
284.968
284.973
284.974
284.972
284.964
284.944
284.91
284.871
284.839
284.821
284.838
284.968
285.272
285.447
285.382
285.281
285.244
285.242
285.238
285.209
285.15
285.068
284.978
284.901
284.85
284.825
284.825
284.843
284.861
284.855
284.833
284.862
285.147
285.894
286.165
286.441
286.175
285.667
284.931
284.968
284.984
284.992
284.997
285
284.998
284.981
284.946
284.898
284.857
284.831
284.842
284.962
285.244
285.421
285.382
285.297
285.26
285.256
285.249
285.218
285.158
285.074
284.981
284.901
284.847
284.82
284.816
284.83
284.846
284.831
284.802
284.845
285.162
285.892
286.273
286.47
286.032
285.607
284.936
284.98
284.999
285.011
285.02
285.029
285.033
285.021
284.987
284.932
284.88
284.845
284.849
284.961
285.223
285.4
285.381
285.311
285.277
285.269
285.259
285.225
285.164
285.078
284.983
284.901
284.844
284.816
284.81
284.821
284.833
284.807
284.775
284.828
285.128
285.831
286.34
286.472
285.877
285.55
284.94
284.992
285.015
285.031
285.044
285.057
285.067
285.062
285.03
284.971
284.907
284.862
284.859
284.963
285.21
285.383
285.379
285.323
285.292
285.283
285.268
285.231
285.167
285.08
284.984
284.899
284.842
284.813
284.807
284.816
284.823
284.783
284.754
284.803
285.069
285.724
286.36
286.437
285.729
285.494
284.945
285.003
285.031
285.05
285.066
285.083
285.098
285.097
285.07
285.009
284.935
284.88
284.872
284.97
285.203
285.371
285.377
285.333
285.307
285.294
285.275
285.234
285.168
285.08
284.983
284.898
284.839
284.811
284.805
284.813
284.812
284.763
284.739
284.775
284.998
285.583
286.324
286.346
285.602
285.44
284.95
285.014
285.046
285.068
285.086
285.106
285.123
285.125
285.101
285.043
284.959
284.897
284.886
284.982
285.203
285.363
285.377
285.342
285.319
285.303
285.279
285.235
285.167
285.078
284.981
284.895
284.836
284.81
284.805
284.811
284.802
284.75
284.73
284.752
284.925
285.422
286.228
286.185
285.493
285.388
284.954
285.025
285.061
285.085
285.104
285.124
285.142
285.143
285.118
285.065
284.975
284.911
284.901
284.998
285.21
285.36
285.376
285.349
285.328
285.31
285.281
285.232
285.163
285.073
284.976
284.891
284.833
284.808
284.806
284.81
284.791
284.743
284.725
284.736
284.86
285.26
286.072
285.971
285.384
285.34
284.959
285.034
285.075
285.101
285.12
285.139
285.154
285.154
285.125
285.069
284.969
284.919
284.919
285.021
285.224
285.362
285.377
285.355
285.335
285.313
285.279
285.227
285.156
285.066
284.971
284.887
284.83
284.806
284.806
284.809
284.779
284.74
284.721
284.724
284.808
285.112
285.865
285.733
285.275
285.295
284.963
285.044
285.087
285.115
285.133
285.15
285.164
285.162
285.129
285.064
284.974
284.931
284.943
285.05
285.244
285.366
285.379
285.359
285.338
285.312
285.273
285.218
285.146
285.057
284.963
284.882
284.826
284.804
284.806
284.806
284.768
284.738
284.718
284.717
284.773
284.993
285.63
285.503
285.173
285.256
284.967
285.052
285.099
285.128
285.145
285.159
285.172
285.171
285.141
285.079
285.002
284.962
284.982
285.087
285.264
285.373
285.38
285.361
285.338
285.307
285.263
285.206
285.133
285.045
284.954
284.875
284.822
284.801
284.805
284.802
284.763
284.735
284.715
284.712
284.751
284.905
285.397
285.303
285.085
285.223
284.97
285.06
285.11
285.14
285.155
285.167
285.178
285.181
285.16
285.11
285.047
285.011
285.034
285.13
285.286
285.378
285.38
285.36
285.333
285.297
285.249
285.19
285.118
285.032
284.944
284.869
284.817
284.798
284.802
284.793
284.76
284.731
284.712
284.709
284.738
284.848
285.196
285.145
285.014
285.196
284.973
285.067
285.12
285.151
285.166
285.174
285.184
285.192
285.182
285.147
285.1
285.07
285.091
285.176
285.307
285.382
285.377
285.355
285.323
285.282
285.231
285.173
285.1
285.016
284.932
284.861
284.811
284.793
284.797
284.784
284.753
284.725
284.71
284.709
284.732
284.812
285.043
285.03
284.961
285.176
284.975
285.073
285.13
285.162
285.176
285.181
285.189
285.2
285.201
285.184
285.153
285.131
285.149
285.219
285.326
285.384
285.371
285.344
285.307
285.262
285.211
285.152
285.079
284.998
284.919
284.852
284.805
284.787
284.789
284.773
284.744
284.719
284.709
284.712
284.732
284.793
284.939
284.951
284.922
285.161
284.976
285.079
285.139
285.174
285.187
285.189
285.193
285.204
285.216
285.214
285.199
285.186
285.202
285.258
285.341
285.381
285.36
285.327
285.285
285.238
285.188
285.128
285.055
284.977
284.904
284.843
284.799
284.78
284.778
284.76
284.734
284.715
284.711
284.72
284.739
284.784
284.875
284.901
284.896
285.152
284.976
285.083
285.148
285.185
285.199
285.198
285.196
285.205
285.222
285.234
285.235
285.231
285.246
285.289
285.35
285.372
285.34
285.301
285.257
285.211
285.162
285.098
285.025
284.953
284.889
284.834
284.792
284.771
284.764
284.745
284.725
284.713
284.719
284.734
284.75
284.782
284.84
284.87
284.878
285.146
284.975
285.086
285.155
285.197
285.213
285.21
285.201
285.203
285.219
285.241
285.255
285.26
285.276
285.309
285.35
285.354
285.312
285.269
285.225
285.181
285.125
285.057
284.99
284.929
284.875
284.826
284.785
284.762
284.75
284.734
284.72
284.718
284.732
284.748
284.762
284.784
284.822
284.85
284.865
285.144
284.973
285.088
285.162
285.21
285.229
285.225
285.21
285.202
285.21
285.233
285.256
285.272
285.289
285.314
285.337
285.325
285.274
285.231
285.188
285.138
285.072
285.008
284.957
284.912
284.867
284.821
284.78
284.755
284.742
284.73
284.723
284.731
284.747
284.762
284.774
284.789
284.815
284.838
284.857
285.146
284.969
285.088
285.167
285.222
285.248
285.246
285.226
285.205
285.201
285.216
285.241
285.263
285.282
285.3
285.31
285.284
285.228
285.183
285.132
285.068
285.009
284.972
284.945
284.913
284.869
284.82
284.78
284.757
284.744
284.736
284.736
284.747
284.761
284.774
284.783
284.795
284.812
284.831
284.852
285.152
284.963
285.084
285.169
285.233
285.268
285.272
285.251
285.22
285.197
285.195
285.213
285.235
285.254
285.266
285.263
285.228
285.172
285.114
285.053
285.004
284.994
284.991
284.972
284.93
284.874
284.824
284.791
284.772
284.76
284.754
284.755
284.762
284.772
284.783
284.791
284.8
284.813
284.829
284.86
285.159
284.953
285.076
285.166
285.24
285.289
285.304
285.289
285.252
285.211
285.183
285.178
285.193
285.207
285.211
285.199
285.16
285.113
285.072
285.06
285.079
285.078
285.047
284.994
284.936
284.885
284.846
284.818
284.799
284.787
284.781
284.779
284.781
284.786
284.793
284.8
284.808
284.819
284.837
284.885
285.167
284.939
285.06
285.155
285.239
285.305
285.339
285.338
285.31
285.264
285.215
285.181
285.172
285.174
285.173
285.164
285.15
285.147
285.157
285.166
285.152
285.111
285.059
285.004
284.952
284.909
284.879
284.858
284.843
284.834
284.827
284.821
284.816
284.814
284.816
284.82
284.827
284.84
284.865
284.929
285.176
284.917
285.035
285.129
285.224
285.308
285.365
285.389
285.383
285.354
285.312
285.27
285.237
285.226
285.223
285.227
285.235
285.241
285.235
285.21
285.171
285.124
285.075
285.03
284.992
284.964
284.946
284.935
284.926
284.918
284.909
284.899
284.889
284.881
284.875
284.874
284.879
284.893
284.921
284.988
285.186
284.886
284.992
285.082
285.182
285.284
285.367
285.42
285.442
285.439
285.421
285.393
285.362
285.34
285.329
285.325
285.319
285.304
285.279
285.247
285.213
285.178
285.145
285.116
285.093
285.078
285.068
285.06
285.052
285.043
285.031
285.017
285.003
284.989
284.978
284.972
284.972
284.981
285.005
285.058
285.198
284.837
284.925
284.999
285.098
285.214
285.322
285.404
285.454
285.478
285.483
285.474
285.456
285.434
285.417
285.402
285.387
285.369
285.349
285.328
285.306
285.285
285.265
285.248
285.235
285.223
285.213
285.203
285.193
285.181
285.168
285.153
285.138
285.121
285.107
285.097
285.091
285.093
285.104
285.132
285.211
284.752
284.808
284.855
284.939
285.062
285.191
285.301
285.382
285.437
285.471
285.488
285.49
285.481
285.467
285.453
285.439
285.424
285.409
285.394
285.379
285.367
285.357
285.348
285.339
285.33
285.32
285.311
285.302
285.293
285.283
285.272
285.261
285.248
285.234
285.221
285.21
285.203
285.2
285.205
285.23
284.382
284.484
284.548
284.622
284.73
284.856
284.974
285.068
285.136
285.185
285.219
285.242
285.259
285.267
285.266
285.258
285.248
285.238
285.231
285.225
285.219
285.216
285.213
285.212
285.211
285.212
285.214
285.215
285.218
285.22
285.222
285.224
285.226
285.227
285.228
285.228
285.229
285.229
285.23
285.235
)
;

boundaryField
{
    floor
    {
        type            fixedValue;
        value           uniform 340;
    }
    ceiling
    {
        type            fixedValue;
        value           uniform 280;
    }
    fixedWalls
    {
        type            zeroGradient;
    }
    frontAndBack
    {
        type            empty;
    }
}


// ************************************************************************* //
