/*--------------------------------*- C++ -*----------------------------------*\
| =========                 |                                                 |
| \\      /  F ield         | OpenFOAM: The Open Source CFD Toolbox           |
|  \\    /   O peration     | Version:  4.1                                   |
|   \\  /    A nd           | Web:      www.OpenFOAM.org                      |
|    \\/     M anipulation  |                                                 |
\*---------------------------------------------------------------------------*/
FoamFile
{
    version     2.0;
    format      ascii;
    class       volVectorField;
    location    "1500";
    object      U;
}
// * * * * * * * * * * * * * * * * * * * * * * * * * * * * * * * * * * * * * //

dimensions      [0 1 -1 0 0 0 0];

internalField   nonuniform List<vector> 
1600
(
(-0.00761185 0.00173023 0)
(-0.00902423 0.000232486 0)
(-0.00845504 -0.000636283 0)
(-0.00508854 -0.00126733 0)
(-0.000530418 -0.00131847 0)
(0.00327348 -0.000869947 0)
(0.00573302 -0.000535204 0)
(0.00752034 -0.000330307 0)
(0.00866457 -0.000194156 0)
(0.00932638 -0.000107213 0)
(0.00974049 -8.83566e-05 0)
(0.0102368 -0.000155328 0)
(0.0109066 -0.000150822 0)
(0.011117 0.000474637 0)
(0.00683969 0.00197215 0)
(-0.0039121 0.00112806 0)
(-0.00480638 0.000217945 0)
(-0.00580318 0.000138029 0)
(-0.006474 9.10301e-05 0)
(-0.0068165 1.81382e-05 0)
(-0.00672053 -8.31246e-05 0)
(-0.0060919 -0.000213165 0)
(-0.00489964 -0.000350351 0)
(-0.00321488 -0.000463879 0)
(-0.00106567 -0.000487266 0)
(0.00111283 -0.000464861 0)
(0.00307396 -0.000429601 0)
(0.00496495 -0.000379481 0)
(0.00665761 -0.000324074 0)
(0.00812656 -0.000270191 0)
(0.00939347 -0.000225447 0)
(0.010525 -0.000203772 0)
(0.0116525 -0.000226248 0)
(0.012963 -0.000304661 0)
(0.0145121 -0.0003688 0)
(0.0159574 -0.000254002 0)
(0.0164061 0.000327715 0)
(0.0135359 0.00141817 0)
(0.00581684 0.000624894 0)
(0.00378318 0.000873106 0)
(-0.00622059 0.00391552 0)
(-0.00638449 0.000995752 0)
(-0.00502939 -0.00133285 0)
(-0.00153665 -0.00274326 0)
(0.00233954 -0.00251273 0)
(0.00496988 -0.0018306 0)
(0.00724925 -0.00123285 0)
(0.00895437 -0.00081649 0)
(0.0101076 -0.000516819 0)
(0.0108388 -0.000312494 0)
(0.0112942 -0.000239095 0)
(0.0115957 -0.000331365 0)
(0.0117718 -0.000270381 0)
(0.0113624 0.00121863 0)
(0.00740787 0.00435938 0)
(-0.00234434 0.0031744 0)
(-0.00408617 0.000797849 0)
(-0.00546565 0.000537137 0)
(-0.00642658 0.000361249 0)
(-0.00693111 0.000120208 0)
(-0.00689654 -0.000181997 0)
(-0.00629918 -0.000538511 0)
(-0.00514183 -0.00089719 0)
(-0.00350734 -0.0012005 0)
(-0.00143352 -0.00132144 0)
(0.000882572 -0.00128828 0)
(0.00291168 -0.00120756 0)
(0.00487432 -0.00109379 0)
(0.00664864 -0.000965005 0)
(0.00822501 -0.000843814 0)
(0.00964897 -0.000752664 0)
(0.0109977 -0.000717011 0)
(0.0123515 -0.000761376 0)
(0.013769 -0.000890068 0)
(0.015199 -0.000951841 0)
(0.0164055 -0.000591663 0)
(0.0166383 0.000824116 0)
(0.0141755 0.00304487 0)
(0.0077842 0.00278464 0)
(0.00358218 0.00319913 0)
(-0.00483442 0.00572519 0)
(-0.003662 0.0010248 0)
(-0.000870326 -0.00272785 0)
(0.00210603 -0.00411075 0)
(0.00457718 -0.00367593 0)
(0.00686707 -0.00278673 0)
(0.00879904 -0.00198078 0)
(0.0102371 -0.00135272 0)
(0.0111885 -0.000875157 0)
(0.0117414 -0.000534489 0)
(0.0119863 -0.000355766 0)
(0.0119431 -0.000350544 0)
(0.0114793 -9.27221e-05 0)
(0.0106935 0.0021612 0)
(0.0074446 0.00668713 0)
(-0.000134619 0.00536973 0)
(-0.00274744 0.00159756 0)
(-0.00452345 0.00107302 0)
(-0.00578944 0.000711482 0)
(-0.00648536 0.000252367 0)
(-0.00656218 -0.000284624 0)
(-0.00604663 -0.000875154 0)
(-0.00499305 -0.00144919 0)
(-0.00348957 -0.00193173 0)
(-0.00160805 -0.00217579 0)
(0.000616771 -0.00215355 0)
(0.00260159 -0.00202059 0)
(0.00452052 -0.00183688 0)
(0.00625565 -0.00162744 0)
(0.00779203 -0.00143505 0)
(0.00917045 -0.00129913 0)
(0.0104629 -0.00125188 0)
(0.0117419 -0.00130983 0)
(0.0130611 -0.00146794 0)
(0.0143463 -0.00148099 0)
(0.0152454 -0.000792095 0)
(0.0152973 0.00141058 0)
(0.0132448 0.00467309 0)
(0.00749524 0.00494461 0)
(0.00225956 0.00528445 0)
(-0.00374165 0.00687632 0)
(-0.00158677 0.0010507 0)
(0.00302054 -0.00414815 0)
(0.00480347 -0.00503457 0)
(0.00680511 -0.00455039 0)
(0.00866504 -0.00355451 0)
(0.0102247 -0.00257529 0)
(0.0113749 -0.00176043 0)
(0.0121023 -0.00111812 0)
(0.0124578 -0.000641995 0)
(0.0124938 -0.000341837 0)
(0.012193 -0.000191052 0)
(0.0113759 0.000302414 0)
(0.010254 0.00307424 0)
(0.00747239 0.00853813 0)
(0.00177336 0.00744107 0)
(-0.00170626 0.00255194 0)
(-0.00375325 0.00172149 0)
(-0.00516993 0.00115335 0)
(-0.00596454 0.000447744 0)
(-0.00611399 -0.000344949 0)
(-0.00568488 -0.00116567 0)
(-0.00474927 -0.00194221 0)
(-0.0033945 -0.00259064 0)
(-0.00171364 -0.0029611 0)
(0.000346919 -0.00297782 0)
(0.00226173 -0.00280693 0)
(0.00411323 -0.00255709 0)
(0.00578982 -0.00226717 0)
(0.00726743 -0.00200146 0)
(0.00858231 -0.00181594 0)
(0.00980541 -0.00174987 0)
(0.0110066 -0.00181263 0)
(0.0122502 -0.00199877 0)
(0.0134585 -0.00195569 0)
(0.0142419 -0.000883039 0)
(0.0140281 0.00200462 0)
(0.0119772 0.0061847 0)
(0.00650619 0.00711178 0)
(0.000462439 0.00692388 0)
(-0.00305169 0.00733149 0)
(0.00426168 -0.00081822 0)
(0.00569834 -0.00475794 0)
(0.00717135 -0.00576984 0)
(0.00872507 -0.00524339 0)
(0.0101615 -0.00416192 0)
(0.0113673 -0.00304529 0)
(0.0122472 -0.00207494 0)
(0.0127658 -0.0012864 0)
(0.0129419 -0.00068081 0)
(0.0128011 -0.000254563 0)
(0.012311 6.28381e-05 0)
(0.011298 0.000788616 0)
(0.00997621 0.00392031 0)
(0.00754216 0.00992579 0)
(0.00324271 0.00919197 0)
(-0.000657851 0.00381809 0)
(-0.00306326 0.00242285 0)
(-0.00451643 0.00163537 0)
(-0.00536804 0.00066655 0)
(-0.00557754 -0.000378038 0)
(-0.00523498 -0.00141671 0)
(-0.00442488 -0.00237847 0)
(-0.00323019 -0.00317722 0)
(-0.00174784 -0.0036673 0)
(0.000101284 -0.00374555 0)
(0.00191383 -0.003558 0)
(0.00367361 -0.00324914 0)
(0.00527219 -0.00288051 0)
(0.00667394 -0.0025407 0)
(0.00791145 -0.00230429 0)
(0.00905965 -0.00221955 0)
(0.0101886 -0.0022887 0)
(0.0113914 -0.0025131 0)
(0.0125652 -0.00242579 0)
(0.0133261 -0.000915963 0)
(0.0128853 0.00265396 0)
(0.0106551 0.00767732 0)
(0.00536906 0.0092944 0)
(-0.000967573 0.00803126 0)
(-0.00213117 0.00661278 0)
(0.00599395 -0.00204306 0)
(0.00774363 -0.00563673 0)
(0.00899634 -0.00639982 0)
(0.0101561 -0.00577545 0)
(0.0112224 -0.00462155 0)
(0.0121314 -0.00340053 0)
(0.0127907 -0.00230241 0)
(0.0131426 -0.00138319 0)
(0.0131787 -0.000653482 0)
(0.0129057 -9.98564e-05 0)
(0.0122816 0.000384024 0)
(0.011176 0.00132312 0)
(0.00976887 0.00471069 0)
(0.00763641 0.0109963 0)
(0.00435042 0.0106827 0)
(0.00043227 0.0052586 0)
(-0.00239192 0.00317083 0)
(-0.00382435 0.00213983 0)
(-0.00470738 0.000905216 0)
(-0.00496328 -0.000384397 0)
(-0.00470462 -0.00162642 0)
(-0.00402356 -0.00275553 0)
(-0.0029951 -0.00368969 0)
(-0.00170835 -0.00428879 0)
(-9.11762e-05 -0.00444398 0)
(0.00158351 -0.00426185 0)
(0.00322605 -0.00390348 0)
(0.00472495 -0.00345915 0)
(0.00603177 -0.0030454 0)
(0.00717614 -0.00275883 0)
(0.00824267 -0.00265962 0)
(0.00930319 -0.0027437 0)
(0.0105079 -0.00302389 0)
(0.0116704 -0.00291066 0)
(0.0124555 -0.000899085 0)
(0.0118207 0.00339038 0)
(0.00934739 0.00920381 0)
(0.00421424 0.0114075 0)
(-0.0014653 0.00879191 0)
(-0.000696644 0.00515962 0)
(0.00746254 -0.00361138 0)
(0.00927479 -0.0064401 0)
(0.0102109 -0.00687038 0)
(0.0110184 -0.0061549 0)
(0.0117998 -0.00495879 0)
(0.0124993 -0.00366683 0)
(0.0130105 -0.00246549 0)
(0.0132534 -0.00142888 0)
(0.0131983 -0.00058042 0)
(0.0128381 0.000100938 0)
(0.0121382 0.000737352 0)
(0.0110077 0.00186652 0)
(0.00959184 0.00544467 0)
(0.00773454 0.0118552 0)
(0.00518552 0.0119725 0)
(0.00150775 0.00676659 0)
(-0.00171959 0.00396282 0)
(-0.0031076 0.0026489 0)
(-0.00399282 0.00115464 0)
(-0.00428024 -0.00036762 0)
(-0.00409965 -0.00179512 0)
(-0.00354748 -0.0030726 0)
(-0.00268729 -0.00412765 0)
(-0.0015929 -0.00482538 0)
(-0.000207347 -0.00506393 0)
(0.00129806 -0.00490668 0)
(0.00279884 -0.00451027 0)
(0.00417544 -0.00399457 0)
(0.00536697 -0.00350811 0)
(0.00640107 -0.00317439 0)
(0.00737854 -0.00306968 0)
(0.0083743 -0.00318631 0)
(0.0096291 -0.00354607 0)
(0.0107792 -0.0034229 0)
(0.0116044 -0.000837385 0)
(0.0107746 0.00422078 0)
(0.00803277 0.010761 0)
(0.00304479 0.0133153 0)
(-0.00129723 0.00929533 0)
(0.00176396 0.00351362 0)
(0.00865634 -0.00466389 0)
(0.0102 -0.00698473 0)
(0.0107699 -0.00717482 0)
(0.0113095 -0.00641611 0)
(0.0119262 -0.00521486 0)
(0.0125238 -0.00388012 0)
(0.0129694 -0.00259253 0)
(0.0131635 -0.00144576 0)
(0.0130639 -0.000480081 0)
(0.0126544 0.000328057 0)
(0.0119239 0.00110502 0)
(0.0108089 0.00239848 0)
(0.00942853 0.00611837 0)
(0.0078193 0.0125585 0)
(0.00580698 0.0130852 0)
(0.00248546 0.00824744 0)
(-0.000977716 0.00482097 0)
(-0.00238614 0.00314836 0)
(-0.00323435 0.00140785 0)
(-0.00353626 -0.000332138 0)
(-0.00342642 -0.0019244 0)
(-0.00299976 -0.00333027 0)
(-0.00230589 -0.00449205 0)
(-0.00139853 -0.00527973 0)
(-0.000233051 -0.00560129 0)
(0.00108223 -0.00548274 0)
(0.00242035 -0.00506014 0)
(0.00365319 -0.00447818 0)
(0.00470938 -0.00392105 0)
(0.00561594 -0.00354542 0)
(0.00649695 -0.00344927 0)
(0.00743206 -0.00362539 0)
(0.00877969 -0.00409028 0)
(0.0098814 -0.00396299 0)
(0.0107424 -0.000719851 0)
(0.00968335 0.0051505 0)
(0.00664674 0.0123373 0)
(0.00182689 0.014899 0)
(-0.000885219 0.00958489 0)
(0.00623933 3.55458e-05 0)
(0.00923148 -0.00540625 0)
(0.0102923 -0.00729211 0)
(0.0106524 -0.00737528 0)
(0.0111046 -0.00662673 0)
(0.0117031 -0.00544535 0)
(0.0123049 -0.00408146 0)
(0.0127582 -0.00271278 0)
(0.0129535 -0.001455 0)
(0.0128457 -0.000369046 0)
(0.0124198 0.000563052 0)
(0.0116832 0.00147073 0)
(0.0105987 0.00290764 0)
(0.00927139 0.00673112 0)
(0.00787808 0.0131408 0)
(0.00626396 0.0140433 0)
(0.00330981 0.00961562 0)
(-9.66156e-05 0.00578567 0)
(-0.00165887 0.0036338 0)
(-0.0024389 0.00165478 0)
(-0.00274132 -0.000283179 0)
(-0.00269259 -0.00201701 0)
(-0.00238533 -0.00353053 0)
(-0.00185223 -0.00478525 0)
(-0.00112473 -0.00565631 0)
(-0.000163406 -0.00605623 0)
(0.00095398 -0.00598374 0)
(0.00211469 -0.00554524 0)
(0.00318593 -0.00490217 0)
(0.00408933 -0.00427691 0)
(0.0048528 -0.00386663 0)
(0.0056301 -0.00379816 0)
(0.00650854 -0.00406748 0)
(0.00796668 -0.00465717 0)
(0.00894718 -0.00451882 0)
(0.00981839 -0.000517012 0)
(0.00848069 0.0061943 0)
(0.00512142 0.0139247 0)
(0.000560342 0.0161052 0)
(-0.000464091 0.00968515 0)
(0.00532822 -0.00397267 0)
(0.00804554 -0.00636214 0)
(0.00941377 -0.00760066 0)
(0.00999443 -0.00759943 0)
(0.0105777 -0.00686809 0)
(0.0112707 -0.0057018 0)
(0.0119444 -0.00430363 0)
(0.0124508 -0.00284778 0)
(0.0126797 -0.00147148 0)
(0.0125878 -0.000259077 0)
(0.0121658 0.000797576 0)
(0.0114362 0.00182824 0)
(0.0103856 0.00339175 0)
(0.00911355 0.00728801 0)
(0.00790101 0.0136284 0)
(0.0065902 0.0148646 0)
(0.00399894 0.0108526 0)
(0.000862942 0.00681904 0)
(-0.000898118 0.00407899 0)
(-0.00161738 0.00187278 0)
(-0.00190321 -0.000225888 0)
(-0.00190725 -0.00207632 0)
(-0.00171143 -0.00367626 0)
(-0.0013309 -0.00501052 0)
(-0.000774019 -0.00596 0)
(-2.02113e-06 -0.00643208 0)
(0.000921328 -0.00640746 0)
(0.00189761 -0.00596018 0)
(0.00279528 -0.00526059 0)
(0.00353332 -0.00456986 0)
(0.00414177 -0.00413349 0)
(0.00480739 -0.00411563 0)
(0.00562912 -0.00451222 0)
(0.00717243 -0.00523086 0)
(0.0079303 -0.00506246 0)
(0.00875147 -0.000225834 0)
(0.00710212 0.00736194 0)
(0.00341643 0.0154997 0)
(-0.000689614 0.0169022 0)
(-8.03031e-05 0.00961319 0)
(0.00350935 -0.00597694 0)
(0.00662825 -0.00703434 0)
(0.00831862 -0.00793982 0)
(0.00918062 -0.00789201 0)
(0.00992883 -0.00716857 0)
(0.0107311 -0.00600175 0)
(0.0114912 -0.00455846 0)
(0.012069 -0.00300663 0)
(0.0123506 -0.00150259 0)
(0.0122928 -0.00015661 0)
(0.0118879 0.00102665 0)
(0.0111753 0.00217523 0)
(0.0101621 0.00385244 0)
(0.00894431 0.00779738 0)
(0.0078788 0.0140428 0)
(0.00680516 0.015564 0)
(0.00456457 0.0119421 0)
(0.0017667 0.00776897 0)
(2.26226e-05 0.0046603 0)
(-0.000741129 0.00208182 0)
(-0.00102721 -0.000164616 0)
(-0.00108007 -0.00210373 0)
(-0.000987559 -0.00377023 0)
(-0.000749721 -0.0051716 0)
(-0.000352929 -0.00619531 0)
(0.000240669 -0.00673372 0)
(0.000981455 -0.00675542 0)
(0.00177386 -0.00630259 0)
(0.00249299 -0.00555006 0)
(0.00305928 -0.00479638 0)
(0.00350497 -0.00434243 0)
(0.00404705 -0.00439895 0)
(0.00480167 -0.00494894 0)
(0.00635982 -0.00577729 0)
(0.00677948 -0.00554759 0)
(0.00748001 0.000163101 0)
(0.00550703 0.00865513 0)
(0.00150028 0.0170102 0)
(-0.0017438 0.0172497 0)
(0.000248473 0.00941159 0)
(0.00252823 -0.00784502 0)
(0.00556238 -0.00795599 0)
(0.00731058 -0.008423 0)
(0.00834296 -0.00825745 0)
(0.00920724 -0.00751819 0)
(0.0100936 -0.00633971 0)
(0.0109321 -0.00484589 0)
(0.0115883 -0.00319308 0)
(0.0119387 -0.00155368 0)
(0.011934 -6.70775e-05 0)
(0.0115615 0.00124529 0)
(0.0108788 0.00250825 0)
(0.00991073 0.00429011 0)
(0.00874884 0.008267 0)
(0.00780139 0.0144004 0)
(0.00691851 0.0161533 0)
(0.00501511 0.0128803 0)
(0.0025897 0.00862603 0)
(0.000976273 0.0051795 0)
(0.000225157 0.00235337 0)
(-0.000107525 -6.58152e-05 0)
(-0.000219749 -0.00209567 0)
(-0.000225068 -0.00381472 0)
(-0.000119333 -0.00527274 0)
(0.000125342 -0.00636344 0)
(0.000551593 -0.00696602 0)
(0.00112226 -0.00703126 0)
(0.00173663 -0.00657289 0)
(0.00227868 -0.00576989 0)
(0.00267241 -0.00495524 0)
(0.00294999 -0.00448992 0)
(0.00334735 -0.0046413 0)
(0.00400964 -0.00535736 0)
(0.00548616 -0.00625077 0)
(0.00546591 -0.00590967 0)
(0.00590077 0.000648297 0)
(0.00367209 0.0100176 0)
(-0.000523294 0.0183706 0)
(-0.00245506 0.0171447 0)
(0.000521153 0.00909938 0)
(0.00190062 -0.0093431 0)
(0.00468504 -0.00885583 0)
(0.00636038 -0.00893985 0)
(0.00747587 -0.00865193 0)
(0.00840365 -0.00789474 0)
(0.00934069 -0.00670513 0)
(0.0102393 -0.00516361 0)
(0.010974 -0.00341085 0)
(0.011408 -0.0016314 0)
(0.011478 4.33071e-06 0)
(0.0111571 0.00144702 0)
(0.0105213 0.00282179 0)
(0.00961085 0.00470293 0)
(0.00850969 0.00870252 0)
(0.00765759 0.0147131 0)
(0.00693321 0.0166419 0)
(0.00535521 0.0136676 0)
(0.0033195 0.00937883 0)
(0.00189832 0.00564493 0)
(0.00119292 0.00258008 0)
(0.000833343 3.67334e-05 0)
(0.000659241 -0.00205142 0)
(0.000561024 -0.00380937 0)
(0.000544685 -0.00530969 0)
(0.000645893 -0.00646469 0)
(0.000917411 -0.00713497 0)
(0.00132529 -0.00723876 0)
(0.0017693 -0.0067734 0)
(0.00213991 -0.00592138 0)
(0.00236335 -0.00504639 0)
(0.00246549 -0.00457044 0)
(0.00268302 -0.00483077 0)
(0.00321789 -0.00571339 0)
(0.00451726 -0.00660668 0)
(0.00398659 -0.00606741 0)
(0.00387519 0.00128283 0)
(0.00154447 0.0116098 0)
(-0.00234098 0.0193618 0)
(-0.00278585 0.0166027 0)
(0.000756611 0.00873326 0)
(0.001451 -0.0105668 0)
(0.00393245 -0.00968729 0)
(0.00545711 -0.00946234 0)
(0.00658212 -0.00905861 0)
(0.00751643 -0.00828248 0)
(0.00846245 -0.00708616 0)
(0.00939151 -0.00550628 0)
(0.0101946 -0.00366204 0)
(0.0107243 -0.00174278 0)
(0.0108911 4.79299e-05 0)
(0.0106453 0.0016234 0)
(0.0100779 0.0031088 0)
(0.00924123 0.00508737 0)
(0.00820826 0.00910742 0)
(0.00743524 0.014989 0)
(0.00684804 0.0170364 0)
(0.00558616 0.0143056 0)
(0.00394894 0.0100125 0)
(0.00276053 0.0060655 0)
(0.00212543 0.00281113 0)
(0.00175732 0.000159669 0)
(0.00153043 -0.00198705 0)
(0.00135113 -0.00377 0)
(0.00122645 -0.0053011 0)
(0.00119709 -0.00651133 0)
(0.00131986 -0.00724201 0)
(0.00156901 -0.00738083 0)
(0.00184913 -0.00690704 0)
(0.00205495 -0.00600638 0)
(0.00211017 -0.00506883 0)
(0.00202259 -0.00457435 0)
(0.00201462 -0.00495205 0)
(0.00239442 -0.0059968 0)
(0.00343875 -0.00681391 0)
(0.00237462 -0.00593593 0)
(0.00148671 0.00224801 0)
(-0.000509754 0.013082 0)
(-0.00371955 0.019914 0)
(-0.0027274 0.0156847 0)
(0.000961715 0.0083876 0)
(0.00110453 -0.0115658 0)
(0.00326823 -0.0104219 0)
(0.00459272 -0.00995869 0)
(0.00566594 -0.00945441 0)
(0.0065501 -0.00866124 0)
(0.00745862 -0.00746618 0)
(0.00837812 -0.00586344 0)
(0.00922711 -0.00394527 0)
(0.0098569 -0.00189419 0)
(0.0101456 5.36675e-05 0)
(0.0100007 0.00176464 0)
(0.0095258 0.00336079 0)
(0.00878177 0.00543873 0)
(0.00782597 0.00948346 0)
(0.00712174 0.015233 0)
(0.00665928 0.0173414 0)
(0.00570713 0.0147962 0)
(0.00447052 0.010516 0)
(0.00354117 0.00642113 0)
(0.00300229 0.00302561 0)
(0.00265165 0.000291474 0)
(0.0023809 -0.0018981 0)
(0.00213148 -0.0036962 0)
(0.0019108 -0.00524714 0)
(0.0017619 -0.00650321 0)
(0.00174099 -0.00728839 0)
(0.00183304 -0.00745922 0)
(0.00195231 -0.00697602 0)
(0.0019979 -0.00602605 0)
(0.00188455 -0.00501895 0)
(0.00158392 -0.00448802 0)
(0.00131437 -0.00499184 0)
(0.00154244 -0.00619766 0)
(0.0022652 -0.00685592 0)
(0.000717917 -0.00541475 0)
(-0.00074538 0.00313623 0)
(-0.0020981 0.0140298 0)
(-0.00456201 0.0200734 0)
(-0.00228994 0.0144996 0)
(0.0011295 0.00812805 0)
(0.000822887 -0.0123729 0)
(0.00266828 -0.011048 0)
(0.00376208 -0.0104055 0)
(0.00473411 -0.00981842 0)
(0.00551692 -0.00901125 0)
(0.00634155 -0.00782658 0)
(0.00720474 -0.00622016 0)
(0.00806389 -0.00425475 0)
(0.00878588 -0.00208996 0)
(0.0092158 1.09422e-05 0)
(0.0092013 0.00185898 0)
(0.00884601 0.00356807 0)
(0.00821458 0.00575178 0)
(0.00734508 0.00983107 0)
(0.00670461 0.0154472 0)
(0.00636246 0.0175591 0)
(0.00571715 0.0151416 0)
(0.00487812 0.0108843 0)
(0.00422346 0.00669788 0)
(0.0038058 0.00320944 0)
(0.00349405 0.000424392 0)
(0.00319707 -0.0017889 0)
(0.00288935 -0.00359146 0)
(0.00258424 -0.00515195 0)
(0.00232586 -0.00644329 0)
(0.0021662 -0.00727496 0)
(0.00210107 -0.00747428 0)
(0.00205847 -0.00698114 0)
(0.00194471 -0.00598024 0)
(0.00166004 -0.00489019 0)
(0.00111787 -0.00430035 0)
(0.000602537 -0.00495143 0)
(0.000725341 -0.00631575 0)
(0.00104957 -0.00672121 0)
(-0.000741317 -0.00467293 0)
(-0.00235499 0.0036222 0)
(-0.00314029 0.01468 0)
(-0.00486267 0.0198942 0)
(-0.00152078 0.0131535 0)
(0.00124241 0.00803156 0)
(0.000584443 -0.013011 0)
(0.00211663 -0.0115609 0)
(0.00296336 -0.0107859 0)
(0.00379645 -0.0101328 0)
(0.00443658 -0.00931457 0)
(0.00513608 -0.00814838 0)
(0.00589541 -0.00655792 0)
(0.00671857 -0.00457889 0)
(0.00750596 -0.00233018 0)
(0.00808871 -8.87693e-05 0)
(0.00823613 0.00189498 0)
(0.00802632 0.00372089 0)
(0.00752532 0.00602156 0)
(0.00674945 0.0101498 0)
(0.00617236 0.0156312 0)
(0.00595402 0.0176893 0)
(0.00561709 0.0153435 0)
(0.00516958 0.0111162 0)
(0.00479733 0.00688959 0)
(0.0045214 0.00335524 0)
(0.00426808 0.00054985 0)
(0.00396528 -0.00166604 0)
(0.00361312 -0.00346065 0)
(0.00323548 -0.00502008 0)
(0.00287767 -0.00633462 0)
(0.0025849 -0.0072025 0)
(0.00236219 -0.00742537 0)
(0.00215387 -0.00692175 0)
(0.00187825 -0.00586777 0)
(0.00141831 -0.00467499 0)
(0.000611893 -0.00401858 0)
(-2.40635e-05 -0.00486463 0)
(4.94117e-05 -0.00634568 0)
(-9.83389e-05 -0.00643952 0)
(-0.00178579 -0.00400799 0)
(-0.00337195 0.00405387 0)
(-0.0037124 0.0151189 0)
(-0.00464443 0.0194 0)
(-0.000551112 0.0118132 0)
(0.00133653 0.00811166 0)
(0.000376206 -0.0134964 0)
(0.00160311 -0.0119603 0)
(0.00219758 -0.0110893 0)
(0.00286506 -0.0103842 0)
(0.00333417 -0.00955704 0)
(0.00387667 -0.00841488 0)
(0.0044912 -0.00685725 0)
(0.00522975 -0.00490007 0)
(0.00603499 -0.00260978 0)
(0.0067724 -0.000245735 0)
(0.00710806 0.00186375 0)
(0.00706376 0.00381131 0)
(0.00670397 0.00624483 0)
(0.00602494 0.0104388 0)
(0.00551551 0.015782 0)
(0.00543299 0.0177291 0)
(0.00541113 0.0154032 0)
(0.00534755 0.0112127 0)
(0.00525948 0.00699243 0)
(0.00514058 0.00345573 0)
(0.00496377 0.000659621 0)
(0.004675 -0.00153652 0)
(0.00429311 -0.00330913 0)
(0.00385555 -0.00485613 0)
(0.00340906 -0.00618061 0)
(0.00299033 -0.00707219 0)
(0.0026109 -0.00731156 0)
(0.00223248 -0.00679626 0)
(0.00179128 -0.00568674 0)
(0.00114985 -0.00437016 0)
(8.46596e-05 -0.0036898 0)
(-0.000411515 -0.00478765 0)
(-0.000411277 -0.00626759 0)
(-0.000965948 -0.0061075 0)
(-0.0024825 -0.00331274 0)
(-0.00393477 0.00434866 0)
(-0.00392623 0.0153209 0)
(-0.0039305 0.0186134 0)
(0.000449586 0.0106329 0)
(0.00144045 0.00836636 0)
(0.000189988 -0.0138416 0)
(0.00112157 -0.0122488 0)
(0.00146744 -0.0113097 0)
(0.00195272 -0.0105644 0)
(0.0022366 -0.00972984 0)
(0.00260224 -0.00861452 0)
(0.00304466 -0.0071019 0)
(0.0036579 -0.00519635 0)
(0.00441859 -0.00291784 0)
(0.00529902 -0.000461858 0)
(0.00583892 0.0017571 0)
(0.00596625 0.00383508 0)
(0.00574433 0.00642164 0)
(0.00515935 0.0106969 0)
(0.0047278 0.0158934 0)
(0.00480293 0.0176731 0)
(0.00510798 0.0153211 0)
(0.00541975 0.0111759 0)
(0.00561292 0.00700418 0)
(0.00566146 0.00350551 0)
(0.00557541 0.000748632 0)
(0.00531878 -0.00140656 0)
(0.00492196 -0.00314242 0)
(0.00443774 -0.00466501 0)
(0.00391453 -0.00598524 0)
(0.00337901 -0.00688601 0)
(0.00284618 -0.00713244 0)
(0.00229569 -0.00660275 0)
(0.00168645 -0.00543411 0)
(0.000851236 -0.0039857 0)
(-0.000369975 -0.00338348 0)
(-0.000467326 -0.00473181 0)
(-0.000627727 -0.00610481 0)
(-0.00149966 -0.00572005 0)
(-0.00287759 -0.00267164 0)
(-0.00415546 0.00450492 0)
(-0.00388827 0.0152731 0)
(-0.00277096 0.0175637 0)
(0.00131291 0.00973638 0)
(0.00157422 0.00878993 0)
(2.01997e-05 -0.0140561 0)
(0.000668276 -0.0124314 0)
(0.000775932 -0.0114453 0)
(0.00107092 -0.0106701 0)
(0.00116858 -0.00982941 0)
(0.00135003 -0.0087422 0)
(0.00161078 -0.00728254 0)
(0.00207413 -0.00544787 0)
(0.00273122 -0.00323683 0)
(0.00372121 -0.000724655 0)
(0.00446841 0.00157495 0)
(0.0047486 0.0037963 0)
(0.00464017 0.00655721 0)
(0.00414164 0.0109222 0)
(0.00380809 0.0159552 0)
(0.00407401 0.0175128 0)
(0.00472187 0.0150966 0)
(0.00539876 0.0110087 0)
(0.00586605 0.00692441 0)
(0.00608807 0.00350083 0)
(0.00610287 0.000810748 0)
(0.00589262 -0.00128246 0)
(0.00549466 -0.0029661 0)
(0.00497745 -0.00445193 0)
(0.00439076 -0.00575316 0)
(0.00374977 -0.0066471 0)
(0.00307021 -0.00688898 0)
(0.00235104 -0.00633989 0)
(0.00157388 -0.00510641 0)
(0.00052736 -0.00354769 0)
(-0.000593707 -0.00316482 0)
(-0.000251658 -0.00471664 0)
(-0.000643486 -0.00585463 0)
(-0.00172299 -0.00527877 0)
(-0.0030315 -0.00208976 0)
(-0.00412191 0.00456465 0)
(-0.00367434 0.0149539 0)
(-0.00133219 0.01629 0)
(0.0019614 0.00917839 0)
(0.0017422 0.00936919 0)
(-0.000137558 -0.0141474 0)
(0.00024068 -0.0125139 0)
(0.000125105 -0.0114968 0)
(0.000228031 -0.0107011 0)
(0.000148784 -0.0098555 0)
(0.000149641 -0.00879701 0)
(0.000235831 -0.00739691 0)
(0.000542047 -0.00564736 0)
(0.00106331 -0.00355246 0)
(0.00205884 -0.00101298 0)
(0.00303305 0.00132784 0)
(0.00341781 0.00371019 0)
(0.00337756 0.00666235 0)
(0.00296134 0.0111101 0)
(0.00276329 0.0159519 0)
(0.00326565 0.0172372 0)
(0.004273 0.0147293 0)
(0.00530137 0.0107156 0)
(0.00603144 0.00675449 0)
(0.00642829 0.00343933 0)
(0.00655104 0.000839936 0)
(0.00639659 -0.00116972 0)
(0.00600834 -0.00278545 0)
(0.00547175 -0.00422234 0)
(0.00483603 -0.0054897 0)
(0.00410274 -0.00635976 0)
(0.00328685 -0.00658414 0)
(0.00241025 -0.00600874 0)
(0.00147035 -0.00470651 0)
(0.000229537 -0.00310575 0)
(-0.000473105 -0.00307539 0)
(8.54864e-05 -0.00471868 0)
(-0.000516024 -0.00553768 0)
(-0.00170364 -0.0047923 0)
(-0.00299401 -0.00156423 0)
(-0.00391164 0.0045667 0)
(-0.00332441 0.0143562 0)
(6.79888e-05 0.014935 0)
(0.00241554 0.00889391 0)
(0.00191057 0.0100892 0)
(-0.000287187 -0.0141219 0)
(-0.000163788 -0.0125001 0)
(-0.000484733 -0.0114678 0)
(-0.000571195 -0.0106574 0)
(-0.000811869 -0.00980817 0)
(-0.0009805 -0.00877667 0)
(-0.00105247 -0.00744368 0)
(-0.000900685 -0.00580088 0)
(-0.000518046 -0.00386761 0)
(0.000293684 -0.00140668 0)
(0.00154704 0.00104269 0)
(0.00194896 0.00360243 0)
(0.00192686 0.00674716 0)
(0.00161071 0.0112522 0)
(0.00161377 0.0158612 0)
(0.00240912 0.0168344 0)
(0.00378713 0.0142199 0)
(0.00514743 0.0103026 0)
(0.00612443 0.00649752 0)
(0.00669276 0.00332038 0)
(0.00692641 0.000836187 0)
(0.00683179 -0.00107055 0)
(0.00646103 -0.00260476 0)
(0.00591882 -0.00398181 0)
(0.00524944 -0.00520068 0)
(0.00443815 -0.00602947 0)
(0.00349979 -0.00622316 0)
(0.00248517 -0.0056149 0)
(0.00139876 -0.00425259 0)
(8.9475e-05 -0.00273844 0)
(-2.94826e-05 -0.00310952 0)
(0.000419969 -0.004683 0)
(-0.000282023 -0.00518322 0)
(-0.00151798 -0.00428376 0)
(-0.00280667 -0.00108761 0)
(-0.00359288 0.00454151 0)
(-0.00285233 0.0135141 0)
(0.00115517 0.0136242 0)
(0.00266888 0.0088131 0)
(0.00203606 0.010924 0)
(-0.000432069 -0.0139924 0)
(-0.000543706 -0.0123942 0)
(-0.00105805 -0.0113646 0)
(-0.00132 -0.0105475 0)
(-0.00170981 -0.00970039 0)
(-0.00203562 -0.00869599 0)
(-0.00225961 -0.00742748 0)
(-0.00225728 -0.00588061 0)
(-0.00199602 -0.00404921 0)
(-0.00141691 -0.00187065 0)
(-0.000238036 0.000587387 0)
(0.000256592 0.00348233 0)
(0.000253988 0.00681659 0)
(9.57548e-05 0.0113263 0)
(0.000399481 0.0156769 0)
(0.00154896 0.0162955 0)
(0.00329364 0.0135718 0)
(0.0049581 0.00977787 0)
(0.00616167 0.00615843 0)
(0.00689398 0.00314513 0)
(0.00723579 0.000799538 0)
(0.007198 -0.000986629 0)
(0.00685039 -0.00242808 0)
(0.00631745 -0.00373617 0)
(0.00563014 -0.00489223 0)
(0.00475495 -0.00566238 0)
(0.00371044 -0.00581345 0)
(0.00258305 -0.00517018 0)
(0.00138406 -0.00377803 0)
(0.00019788 -0.0024932 0)
(0.000611483 -0.00325802 0)
(0.000722302 -0.00455337 0)
(1.81226e-05 -0.00481484 0)
(-0.00123934 -0.00376919 0)
(-0.00251859 -0.000654328 0)
(-0.00322596 0.00450508 0)
(-0.00229099 0.0125104 0)
(0.00180457 0.0124366 0)
(0.00272561 0.00885738 0)
(0.00209517 0.0118277 0)
(-0.000573353 -0.0137633 0)
(-0.000901805 -0.0122037 0)
(-0.00159852 -0.0111913 0)
(-0.00201946 -0.0103761 0)
(-0.00254429 -0.00953318 0)
(-0.00301518 -0.0085551 0)
(-0.00339395 -0.00735297 0)
(-0.0035626 -0.00591021 0)
(-0.00347509 -0.00419881 0)
(-0.00309899 -0.00210871 0)
(-0.00228026 0.00040685 0)
(-0.00171969 0.00340703 0)
(-0.00161776 0.00687839 0)
(-0.00151009 0.0112663 0)
(-0.000844023 0.0152945 0)
(0.000729702 0.0156178 0)
(0.00282078 0.0127939 0)
(0.00475341 0.00915219 0)
(0.00615954 0.00574385 0)
(0.00704356 0.00291678 0)
(0.0074832 0.000730719 0)
(0.00749245 -0.000918631 0)
(0.0071739 -0.00225974 0)
(0.00666725 -0.00349165 0)
(0.00597643 -0.00457024 0)
(0.00504922 -0.0052647 0)
(0.0039154 -0.00536386 0)
(0.00270329 -0.00469236 0)
(0.00145057 -0.00332643 0)
(0.000556061 -0.00238569 0)
(0.0011704 -0.00337919 0)
(0.00103079 -0.00438326 0)
(0.000314383 -0.00444141 0)
(-0.000942059 -0.00326002 0)
(-0.00219776 -0.000243917 0)
(-0.0028675 0.0044597 0)
(-0.00174155 0.0114453 0)
(0.0020508 0.0114195 0)
(0.00261979 0.00895181 0)
(0.00208784 0.0127476 0)
(-0.000712559 -0.0134385 0)
(-0.00124373 -0.0119338 0)
(-0.00211257 -0.0109532 0)
(-0.00267717 -0.0101495 0)
(-0.00332064 -0.00931189 0)
(-0.0039214 -0.00835454 0)
(-0.00445368 -0.00720923 0)
(-0.00481439 -0.00585964 0)
(-0.00495424 -0.00426231 0)
(-0.00484494 -0.00228538 0)
(-0.00437323 0.0002242 0)
(-0.00383286 0.00329969 0)
(-0.00356312 0.00684706 0)
(-0.00312164 0.0110611 0)
(-0.00203907 0.0147279 0)
(-4.20712e-05 0.0147954 0)
(0.0023902 0.011896 0)
(0.00454979 0.00843806 0)
(0.0061323 0.00526212 0)
(0.00714892 0.00264157 0)
(0.00766386 0.000635773 0)
(0.00770712 -0.000865999 0)
(0.00743046 -0.00210526 0)
(0.00696903 -0.00325452 0)
(0.0062841 -0.00423936 0)
(0.00531186 -0.00484169 0)
(0.00410397 -0.00488367 0)
(0.00283441 -0.00420204 0)
(0.0016093 -0.00293808 0)
(0.00110062 -0.00239885 0)
(0.00157229 -0.00341916 0)
(0.00130493 -0.00419178 0)
(0.000541815 -0.00405802 0)
(-0.000708961 -0.00276165 0)
(-0.00194273 0.000140983 0)
(-0.00257065 0.00440538 0)
(-0.00133118 0.0104021 0)
(0.00201119 0.0105737 0)
(0.00239876 0.00904254 0)
(0.00202776 0.0136391 0)
(-0.000851714 -0.0130212 0)
(-0.00157624 -0.0115882 0)
(-0.00260953 -0.010655 0)
(-0.00330517 -0.00987411 0)
(-0.00404981 -0.0090437 0)
(-0.00475961 -0.00809939 0)
(-0.0054318 -0.00699547 0)
(-0.00598611 -0.00572065 0)
(-0.00637103 -0.00422194 0)
(-0.00654004 -0.00235161 0)
(-0.00636702 8.49534e-05 0)
(-0.00589636 0.00314995 0)
(-0.005443 0.00669727 0)
(-0.00464801 0.0106982 0)
(-0.00313701 0.013989 0)
(-0.00074191 0.0138258 0)
(0.00202404 0.0108895 0)
(0.00436091 0.00764912 0)
(0.00609026 0.00472368 0)
(0.00720987 0.00232976 0)
(0.00776692 0.000522478 0)
(0.00783907 -0.000829954 0)
(0.00762696 -0.00197118 0)
(0.00722402 -0.00302892 0)
(0.00654279 -0.00390124 0)
(0.00552522 -0.00439684 0)
(0.00425598 -0.00438151 0)
(0.00295411 -0.00371777 0)
(0.00183266 -0.0026258 0)
(0.00164299 -0.00244386 0)
(0.00187718 -0.0033903 0)
(0.00148809 -0.00396981 0)
(0.000638105 -0.00366227 0)
(-0.000640928 -0.00226552 0)
(-0.0018577 0.00050175 0)
(-0.00238214 0.00433948 0)
(-0.00112548 0.00942721 0)
(0.00178387 0.00986598 0)
(0.00210605 0.0090976 0)
(0.0019319 0.0144711 0)
(-0.000993097 -0.0125127 0)
(-0.00190665 -0.0111689 0)
(-0.00310053 -0.0103002 0)
(-0.00391866 -0.00955558 0)
(-0.00474767 -0.00873719 0)
(-0.00553998 -0.00779905 0)
(-0.00632246 -0.00671871 0)
(-0.00704558 -0.00549661 0)
(-0.00765703 -0.00407959 0)
(-0.00807881 -0.00231254 0)
(-0.00814872 1.14611e-05 0)
(-0.00776194 0.00298019 0)
(-0.00714384 0.00643445 0)
(-0.00601318 0.0101758 0)
(-0.00409775 0.0130841 0)
(-0.00134213 0.0127181 0)
(0.00173845 0.00979039 0)
(0.00419652 0.00680059 0)
(0.00603583 0.00414234 0)
(0.00721611 0.00199551 0)
(0.00778688 0.00039736 0)
(0.00790174 -0.00081462 0)
(0.00777587 -0.00186204 0)
(0.00742453 -0.00281336 0)
(0.00672785 -0.00355306 0)
(0.00565788 -0.00393185 0)
(0.00433968 -0.0038655 0)
(0.00303227 -0.00325317 0)
(0.00206958 -0.00238806 0)
(0.00203103 -0.00247477 0)
(0.00205418 -0.00329915 0)
(0.00151112 -0.0037015 0)
(0.000520765 -0.00323849 0)
(-0.000833835 -0.00176441 0)
(-0.00202088 0.000832674 0)
(-0.00234607 0.00425414 0)
(-0.00113614 0.00853648 0)
(0.00143746 0.00925024 0)
(0.00177521 0.00909956 0)
(0.0018143 0.015224 0)
(-0.00113892 -0.0119123 0)
(-0.00224209 -0.0106759 0)
(-0.00359708 -0.00989024 0)
(-0.00453458 -0.00919839 0)
(-0.00543473 -0.00840152 0)
(-0.00628065 -0.00746711 0)
(-0.00712991 -0.0063943 0)
(-0.00797159 -0.00520193 0)
(-0.00876134 -0.00384899 0)
(-0.0093888 -0.00218454 0)
(-0.00964427 -1.04621e-06 0)
(-0.009335 0.00279951 0)
(-0.00858498 0.00607225 0)
(-0.00716063 0.00950633 0)