# vtk DataFile Version 2.0
floor
ASCII
DATASET POLYDATA
POINTS 42 float
0 0 0 0.05 0 0 0.05 0 0.1 0 0
0.1 0.1 0 0 0.1 0 0.1 0.15 0 0
0.15 0 0.1 0.2 0 0 0.2 0 0.1 0.25
0 0 0.25 0 0.1 0.3 0 0 0.3 0
0.1 0.35 0 0 0.35 0 0.1 0.4 0 0
0.4 0 0.1 0.45 0 0 0.45 0 0.1 0.5
0 0 0.5 0 0.1 0.55 0 0 0.55 0
0.1 0.6 0 0 0.6 0 0.1 0.65 0 0
0.65 0 0.1 0.7 0 0 0.7 0 0.1 0.75
0 0 0.75 0 0.1 0.8 0 0 0.8 0
0.1 0.85 0 0 0.85 0 0.1 0.9 0 0
0.9 0 0.1 0.95 0 0 0.95 0 0.1 1
0 0 1 0 0.1 
POLYGONS 20 100
4 0 1 2 3 4 1 4 5 2 4
4 6 7 5 4 6 8 9 7 4
8 10 11 9 4 10 12 13 11 4
12 14 15 13 4 14 16 17 15 4
16 18 19 17 4 18 20 21 19 4
20 22 23 21 4 22 24 25 23 4
24 26 27 25 4 26 28 29 27 4
28 30 31 29 4 30 32 33 31 4
32 34 35 33 4 34 36 37 35 4
36 38 39 37 4 38 40 41 39 
CELL_DATA 20
FIELD attributes 6
patchID 1 20 float
0 0 0 0 0 0 0 0 0 0 0
0 0 0 0 0 0 0 0 0 
alphat 1 20 float
0 0 0 0 0 0 0 0 0 0 0
0 0 0 0 0 0 0 0 0 
p 1 20 float
0.246297 0.246297 0.246297 0.246297 0.246297 0.246297 0.246297 0.246297 0.246297 0.246297 0.246297
0.246297 0.246297 0.246297 0.246297 0.246297 0.246297 0.246297 0.246297 0.246297 
T 1 20 float
320 320 320 320 320 320 320 320 320 320 320
320 320 320 320 320 320 320 320 320 
p_rgh 1 20 float
0.246297 0.246297 0.246297 0.246297 0.246297 0.246297 0.246297 0.246297 0.246297 0.246297 0.246297
0.246297 0.246297 0.246297 0.246297 0.246297 0.246297 0.246297 0.246297 0.246297 
U 3 20 float
0 0 0 0 0 0 0 0 0 0 0
0 0 0 0 0 0 0 0 0 0
0 0 0 0 0 0 0 0 0 0
0 0 0 0 0 0 0 0 0 0
0 0 0 0 0 0 0 0 0 0
0 0 0 0 0 0 0 0 0 
POINT_DATA  42
FIELD attributes 5
alphat 1 42 float
0 0 0 0 0 0 0 0 0 0 0
0 0 0 0 0 0 0 0 0 0
0 0 0 0 0 0 0 0 0 0
0 0 0 0 0 0 0 0 0 0
0 
p 1 42 float
0.246297 0.246297 0.246297 0.246297 0.246297 0.246297 0.246297 0.246297 0.246297 0.246297 0.246297
0.246297 0.246297 0.246297 0.246297 0.246297 0.246297 0.246297 0.246297 0.246297 0.246297
0.246297 0.246297 0.246297 0.246297 0.246297 0.246297 0.246297 0.246297 0.246297 0.246297
0.246297 0.246297 0.246297 0.246297 0.246297 0.246297 0.246297 0.246297 0.246297 0.246297
0.246297 
T 1 42 float
320 320 320 320 320 320 320 320 320 320 320
320 320 320 320 320 320 320 320 320 320
320 320 320 320 320 320 320 320 320 320
320 320 320 320 320 320 320 320 320 320
320 
p_rgh 1 42 float
0.246297 0.246297 0.246297 0.246297 0.246297 0.246297 0.246297 0.246297 0.246297 0.246297 0.246297
0.246297 0.246297 0.246297 0.246297 0.246297 0.246297 0.246297 0.246297 0.246297 0.246297
0.246297 0.246297 0.246297 0.246297 0.246297 0.246297 0.246297 0.246297 0.246297 0.246297
0.246297 0.246297 0.246297 0.246297 0.246297 0.246297 0.246297 0.246297 0.246297 0.246297
0.246297 
U 3 42 float
0 0 0 0 0 0 0 0 0 0 0
0 0 0 0 0 0 0 0 0 0
0 0 0 0 0 0 0 0 0 0
0 0 0 0 0 0 0 0 0 0
0 0 0 0 0 0 0 0 0 0
0 0 0 0 0 0 0 0 0 0
0 0 0 0 0 0 0 0 0 0
0 0 0 0 0 0 0 0 0 0
0 0 0 0 0 0 0 0 0 0
0 0 0 0 0 0 0 0 0 0
0 0 0 0 0 0 0 0 0 0
0 0 0 0 0 0 0 0 0 0
0 0 0 0 0 
