/*--------------------------------*- C++ -*----------------------------------*\
| =========                 |                                                 |
| \\      /  F ield         | OpenFOAM: The Open Source CFD Toolbox           |
|  \\    /   O peration     | Version:  4.1                                   |
|   \\  /    A nd           | Web:      www.OpenFOAM.org                      |
|    \\/     M anipulation  |                                                 |
\*---------------------------------------------------------------------------*/
FoamFile
{
    version     2.0;
    format      ascii;
    class       volScalarField;
    location    "1460";
    object      mag(U);
}
// * * * * * * * * * * * * * * * * * * * * * * * * * * * * * * * * * * * * * //

dimensions      [0 1 -1 0 0 0 0];

internalField   nonuniform List<scalar> 
5000
(
0.00331214
0.0029967
0.00262493
0.00208035
0.00298417
0.00424308
0.00540011
0.00639741
0.00728182
0.00809425
0.00885648
0.00957928
0.0102684
0.0109269
0.0115557
0.0121548
0.0127236
0.0132613
0.0137671
0.0142404
0.0146812
0.0150895
0.0154653
0.0158091
0.016121
0.0164007
0.0166478
0.0168611
0.0170395
0.0171825
0.0172917
0.0173718
0.0174327
0.0174896
0.0175631
0.0176767
0.0178547
0.0181184
0.0184837
0.0189595
0.0195453
0.0202296
0.0209863
0.0217716
0.0225227
0.0231595
0.0235913
0.02372
0.0234244
0.0225791
0.0210881
0.0189279
0.0162109
0.013233
0.0104331
0.0082258
0.00681589
0.00617551
0.00612894
0.00641029
0.00688606
0.00745854
0.00805555
0.00863051
0.00915381
0.00960798
0.00998455
0.0102821
0.0105046
0.0106603
0.0107593
0.0108127
0.0108303
0.0108145
0.0107653
0.0106831
0.0105686
0.0104226
0.0102463
0.0100412
0.00980861
0.00954982
0.0092656
0.00895611
0.0086208
0.00825829
0.00786643
0.00744246
0.00698361
0.00648838
0.00595945
0.00540931
0.00487566
0.00445745
0.00440922
0.00481767
0.00542947
0.00575059
0.00507602
0.00128039
0.00444856
0.00167823
0.00353425
0.0031551
0.00335565
0.00416338
0.0051156
0.00603687
0.00690805
0.00773998
0.00854078
0.00931393
0.0100607
0.010781
0.0114741
0.012139
0.0127744
0.0133792
0.0139527
0.0144944
0.0150041
0.0154821
0.0159287
0.0163447
0.0167312
0.0170895
0.0174217
0.0177303
0.0180183
0.0182896
0.018548
0.0187975
0.0190418
0.0192842
0.0195281
0.0197778
0.020039
0.02032
0.0206312
0.0209838
0.0213874
0.0218469
0.0223579
0.0229016
0.0234396
0.0239083
0.0242205
0.0242438
0.0238954
0.0231421
0.0219967
0.02053
0.0188564
0.0171116
0.0154316
0.0139365
0.0127369
0.0119062
0.0114811
0.0114322
0.0116308
0.0119782
0.0124047
0.0128586
0.0133063
0.0137265
0.0141069
0.0144406
0.0147244
0.0149569
0.015137
0.0152637
0.0153355
0.0153573
0.0153312
0.0152595
0.0151451
0.0149905
0.0147982
0.0145707
0.0143106
0.01402
0.0137008
0.0133545
0.0129824
0.0125857
0.0121655
0.0117237
0.0112634
0.0107909
0.0103179
0.00986436
0.00946389
0.00915759
0.00887983
0.00860584
0.00833927
0.00785819
0.00733961
0.00677621
0.00569301
0.00135913
0.00481318
0.00446504
0.00424164
0.00449432
0.00504689
0.00572541
0.00645273
0.00719969
0.00795215
0.00870075
0.00943862
0.0101605
0.0108622
0.0115403
0.0121922
0.0128159
0.0134101
0.0139737
0.0145065
0.0150083
0.0154795
0.0159207
0.0163328
0.0167171
0.0170753
0.0174098
0.0177232
0.0180185
0.0182989
0.0185673
0.0188262
0.0190773
0.0193218
0.0195605
0.0197953
0.020029
0.0202662
0.020513
0.0207758
0.0210599
0.0213661
0.0216871
0.0220038
0.0222837
0.022479
0.0225343
0.0224052
0.022072
0.021554
0.0208915
0.0201159
0.0192481
0.0183266
0.017424
0.0166211
0.0159688
0.015491
0.0152393
0.015189
0.0152818
0.0154648
0.0156935
0.0159365
0.0161728
0.0163884
0.0165743
0.0167248
0.0168357
0.0169044
0.0169295
0.0169124
0.0168515
0.0167494
0.0166092
0.0164334
0.0162248
0.0159856
0.0157184
0.0154252
0.0151083
0.01477
0.0144123
0.0140375
0.0136479
0.0132462
0.0128358
0.0124208
0.0120063
0.0115978
0.0111979
0.0107982
0.0103689
0.00986737
0.0092266
0.00835328
0.00749376
0.00821865
0.0102729
0.00656776
0.00152116
0.00581789
0.00544352
0.00497887
0.00485871
0.00506936
0.00550248
0.00606987
0.00671611
0.00740674
0.00811906
0.00883752
0.00955131
0.0102527
0.0109361
0.0115976
0.0122343
0.0128445
0.013427
0.0139812
0.014507
0.0150045
0.0154742
0.0159169
0.0163336
0.0167256
0.0170946
0.0174424
0.0177708
0.0180816
0.0183762
0.0186553
0.0189186
0.0191652
0.0193935
0.0196017
0.0197887
0.0199542
0.0200995
0.0202276
0.0203429
0.0204503
0.0205529
0.0206502
0.0207366
0.0208028
0.0208411
0.0208464
0.0208242
0.0207816
0.0207029
0.0205455
0.0202716
0.019885
0.0194331
0.0189775
0.0185707
0.0182313
0.0179846
0.0178407
0.017783
0.0177855
0.0178243
0.0178809
0.0179418
0.017997
0.018039
0.0180619
0.0180606
0.0180311
0.0179702
0.0178739
0.0177403
0.0175705
0.0173666
0.0171304
0.016864
0.0165697
0.0162498
0.0159066
0.0155427
0.0151606
0.0147632
0.0143533
0.0139338
0.0135076
0.0130777
0.0126464
0.0122144
0.011779
0.0113299
0.0108444
0.0102841
0.0096044
0.00875907
0.00773346
0.00716206
0.00949651
0.0138599
0.00717239
0.00218567
0.00656234
0.00615543
0.00553483
0.0052076
0.00520768
0.00546549
0.00590193
0.00645405
0.00707706
0.00774003
0.00842168
0.00910738
0.009787
0.0104536
0.0111025
0.0117304
0.0123355
0.0129166
0.0134731
0.0140051
0.0145128
0.0149967
0.0154574
0.0158957
0.0163125
0.0167086
0.0170851
0.0174425
0.0177814
0.0181014
0.0184018
0.0186806
0.0189351
0.0191616
0.0193558
0.0195133
0.01963
0.0197028
0.0197303
0.0197141
0.0196594
0.0195757
0.0194769
0.0193815
0.0193135
0.0193077
0.0193942
0.0195915
0.0198828
0.0202035
0.0204653
0.0206024
0.0206009
0.0204912
0.0203212
0.0201332
0.0199511
0.0197733
0.0196124
0.019471
0.0193461
0.0192357
0.0191374
0.0190484
0.0189652
0.0188836
0.0187989
0.0187059
0.0185984
0.0184701
0.0183156
0.0181338
0.0179241
0.017686
0.0174196
0.0171254
0.0168043
0.0164578
0.0160874
0.0156955
0.0152844
0.014857
0.014416
0.0139645
0.0135051
0.0130398
0.0125693
0.0120916
0.0116001
0.0110815
0.0105132
0.00986485
0.00910737
0.00822928
0.00731359
0.00733192
0.0110435
0.0170577
0.00762783
0.00291004
0.00718563
0.006662
0.00594555
0.00555162
0.00548328
0.00566619
0.00602668
0.00650664
0.00706328
0.00766595
0.00829293
0.00892894
0.00956328
0.0101886
0.0108
0.0113941
0.0119691
0.0125239
0.0130582
0.013572
0.0140656
0.0145396
0.0149945
0.0154311
0.0158497
0.0162509
0.0166349
0.0170016
0.0173504
0.0176802
0.0179892
0.0182746
0.0185328
0.0187594
0.0189491
0.019096
0.0191937
0.0192358
0.0192165
0.0191321
0.0189832
0.0187779
0.0185355
0.0182901
0.0180926
0.018018
0.0181322
0.0184612
0.0189657
0.0195453
0.0200853
0.0205067
0.0207853
0.0209376
0.0209948
0.0209832
0.0209158
0.0207903
0.0206149
0.0204045
0.0201758
0.019944
0.0197197
0.0195096
0.0193156
0.0191367
0.0189691
0.0188065
0.0186407
0.018466
0.0182792
0.0180765
0.0178548
0.0176111
0.0173433
0.0170499
0.0167303
0.0163845
0.0160133
0.0156182
0.015201
0.0147643
0.0143104
0.013842
0.0133612
0.0128695
0.0123665
0.0118497
0.0113125
0.0107434
0.0101264
0.00944389
0.00868756
0.00788425
0.00721345
0.00788251
0.0126125
0.0197988
0.00799083
0.00341626
0.00770968
0.007025
0.00628348
0.00593887
0.00591002
0.00609651
0.00642756
0.0068564
0.00735038
0.00788569
0.00844471
0.00901446
0.00958545
0.0101509
0.0107062
0.0112483
0.0117752
0.0122859
0.0127802
0.0132579
0.0137194
0.0141651
0.0145954
0.0150107
0.0154112
0.015797
0.016168
0.0165234
0.0168625
0.0171835
0.0174843
0.017762
0.0180131
0.0182333
0.0184176
0.0185605
0.0186556
0.0186959
0.0186738
0.0185824
0.0184171
0.0181796
0.0178839
0.0175638
0.0172804
0.0171327
0.0172138
0.0175722
0.0181661
0.0188792
0.0195831
0.0201891
0.0206596
0.0209926
0.0211995
0.0212908
0.0212728
0.0211497
0.0209339
0.0206534
0.0203389
0.0200156
0.0197017
0.0194082
0.01914
0.018897
0.0186751
0.0184663
0.0182669
0.0180729
0.0178785
0.0176778
0.0174652
0.0172359
0.0169859
0.0167119
0.016412
0.0160852
0.0157312
0.0153509
0.0149455
0.014517
0.0140675
0.0135992
0.013114
0.0126129
0.0120957
0.0115605
0.0110026
0.0104152
0.00979051
0.00912449
0.00842953
0.00776806
0.00739553
0.00863916
0.0141195
0.0221817
0.0082871
0.00377649
0.0081025
0.00730684
0.00662012
0.00640335
0.00646709
0.00669199
0.00701536
0.00740436
0.00783864
0.00830334
0.00878695
0.00928041
0.00977672
0.0102706
0.0107584
0.0112374
0.011706
0.0121633
0.0126086
0.013042
0.0134634
0.013873
0.0142707
0.0146567
0.0150307
0.0153924
0.0157412
0.016076
0.0163957
0.0166982
0.0169814
0.0172424
0.017478
0.0176843
0.0178573
0.0179924
0.0180846
0.0181285
0.0181185
0.0180489
0.0179151
0.0177163
0.01746
0.0171699
0.016895
0.016722
0.0167554
0.0170663
0.0176351
0.0183585
0.0191095
0.0197897
0.0203438
0.020749
0.0209996
0.0210993
0.0210592
0.020898
0.0206402
0.0203139
0.0199536
0.0195878
0.0192349
0.0189058
0.018605
0.0183315
0.0180801
0.0178516
0.0176428
0.0174473
0.0172585
0.0170697
0.0168745
0.0166667
0.0164412
0.0161939
0.0159215
0.0156221
0.0152948
0.0149396
0.0145573
0.0141494
0.0137177
0.013264
0.0127902
0.0122976
0.0117866
0.0112567
0.0107064
0.0101339
0.00953972
0.00893216
0.00834093
0.00785537
0.0077781
0.00948617
0.0155481
0.0242997
0.00853324
0.00401837
0.0083733
0.00756787
0.00700415
0.00694736
0.00711067
0.00737628
0.00769497
0.00804703
0.00842279
0.00881554
0.00921979
0.00963093
0.0100452
0.0104595
0.0108716
0.01128
0.0116835
0.0120814
0.0124732
0.0128586
0.0132372
0.0136087
0.0139729
0.014329
0.0146765
0.0150145
0.0153417
0.0156568
0.0159579
0.0162431
0.0165097
0.0167549
0.0169757
0.0171686
0.01733
0.0174562
0.0175435
0.0175884
0.0175874
0.0175381
0.0174392
0.0172927
0.0171062
0.0168975
0.0167015
0.0165796
0.0166142
0.0168728
0.0173575
0.017996
0.0186807
0.0193147
0.0198326
0.0201999
0.0204058
0.0204569
0.020373
0.0201813
0.019912
0.0195928
0.0192458
0.0188912
0.0185451
0.0182158
0.0179073
0.0176226
0.0173657
0.0171341
0.0169234
0.0167288
0.0165447
0.0163648
0.016183
0.0159931
0.0157894
0.015567
0.015322
0.0150516
0.0147541
0.0144288
0.014076
0.0136966
0.0132923
0.0128649
0.0124163
0.0119483
0.0114625
0.0109602
0.010443
0.00991437
0.00938169
0.00886301
0.00840012
0.00809819
0.00828345
0.0103573
0.0168941
0.0262066
0.0087428
0.00416841
0.008551
0.00785489
0.00745404
0.00754883
0.00779446
0.00808894
0.00839785
0.00871186
0.00902917
0.0093493
0.00967184
0.00999642
0.0103228
0.0106507
0.01098
0.0113107
0.0116426
0.0119755
0.0123089
0.0126426
0.0129758
0.013308
0.0136381
0.0139651
0.0142878
0.0146047
0.014914
0.0152138
0.0155019
0.0157758
0.0160327
0.0162696
0.0164834
0.0166707
0.0168283
0.0169529
0.0170416
0.017092
0.0171021
0.0170715
0.0170015
0.0168967
0.0167667
0.0166287
0.0165106
0.016455
0.0165158
0.0167384
0.0171287
0.0176399
0.0181925
0.0187064
0.0191225
0.0194085
0.0195556
0.0195724
0.0194782
0.0192968
0.019052
0.0187649
0.0184532
0.0181314
0.0178093
0.0174962
0.0171988
0.016921
0.0166642
0.016428
0.0162106
0.0160095
0.0158208
0.0156399
0.0154616
0.0152803
0.0150903
0.0148864
0.0146642
0.0144201
0.0141516
0.0138574
0.0135371
0.0131914
0.0128215
0.0124294
0.0120172
0.0115875
0.011143
0.0106869
0.010224
0.00976154
0.00931236
0.0089008
0.00857496
0.00844642
0.00885176
0.0112149
0.0181562
0.0279359
0.00892715
0.00423687
0.00868262
0.00819059
0.00796255
0.00817764
0.00848171
0.0087907
0.00908332
0.00935765
0.00961689
0.00986462
0.0101043
0.0103393
0.0105731
0.0108087
0.0110486
0.0112947
0.0115483
0.0118099
0.0120795
0.0123566
0.0126405
0.0129299
0.0132237
0.0135201
0.0138174
0.0141135
0.0144064
0.0146935
0.0149723
0.0152399
0.0154932
0.0157292
0.0159445
0.0161358
0.0163
0.0164341
0.0165355
0.0166024
0.0166339
0.0166302
0.0165938
0.01653
0.0164483
0.0163638
0.0162993
0.0162853
0.0163567
0.0165408
0.0168405
0.0172252
0.0176412
0.0180308
0.0183489
0.0185693
0.0186839
0.0186974
0.0186223
0.0184742
0.0182694
0.0180228
0.0177481
0.0174572
0.0171598
0.0168638
0.016575
0.0162977
0.0160344
0.0157866
0.0155546
0.0153378
0.0151345
0.0149419
0.0147562
0.0145729
0.014387
0.0141933
0.0139872
0.0137646
0.0135223
0.0132583
0.0129718
0.0126628
0.0123324
0.0119825
0.0116157
0.0112351
0.0108446
0.0104492
0.0100558
0.00967459
0.00932157
0.00902411
0.0088319
0.00885698
0.00944131
0.0120375
0.0193354
0.0295118
0.00909585
0.00423706
0.00880756
0.00856998
0.0085072
0.00880708
0.00914724
0.00945859
0.00973021
0.00996476
0.0101677
0.0103446
0.0105015
0.0106453
0.0107831
0.0109218
0.0110669
0.0112229
0.0113926
0.0115774
0.0117779
0.0119936
0.0122234
0.0124659
0.0127193
0.0129813
0.0132499
0.0135226
0.0137968
0.0140698
0.0143387
0.0146005
0.0148519
0.0150898
0.0153108
0.0155116
0.0156891
0.0158406
0.0159638
0.0160571
0.0161199
0.016153
0.0161591
0.016143
0.0161129
0.0160806
0.016062
0.0160788
0.0161538
0.0163037
0.01653
0.0168137
0.0171208
0.0174123
0.017656
0.0178306
0.0179269
0.0179448
0.0178902
0.0177724
0.0176021
0.0173901
0.017147
0.0168824
0.0166045
0.0163205
0.0160359
0.0157552
0.0154819
0.0152187
0.0149676
0.0147297
0.0145052
0.0142933
0.014092
0.0138982
0.013708
0.0135169
0.0133203
0.0131141
0.0128947
0.0126593
0.0124066
0.0121362
0.0118488
0.0115463
0.0112314
0.0109079
0.0105805
0.0102554
0.00994091
0.00964868
0.00939604
0.00921074
0.00914097
0.00929661
0.0100248
0.0128135
0.0204345
0.0309536
0.00925154
0.00420016
0.00894706
0.00897741
0.00906178
0.00941612
0.0097743
0.0100799
0.0103291
0.0105263
0.0106765
0.0107853
0.0108606
0.0109127
0.0109528
0.0109918
0.011039
0.0111016
0.0111841
0.011289
0.0114172
0.0115681
0.0117404
0.0119321
0.012141
0.0123644
0.0125997
0.0128442
0.013095
0.0133492
0.0136039
0.0138559
0.0141021
0.0143392
0.0145641
0.0147736
0.0149646
0.0151347
0.0152817
0.0154042
0.0155018
0.0155754
0.0156273
0.0156618
0.0156853
0.0157071
0.0157367
0.0157882
0.0158762
0.0160107
0.0161924
0.0164099
0.0166423
0.0168643
0.0170531
0.0171921
0.017272
0.0172899
0.0172479
0.0171511
0.0170063
0.0168213
0.0166039
0.0163614
0.0161008
0.015828
0.015548
0.0152653
0.0149837
0.0147068
0.0144376
0.0141787
0.0139318
0.0136981
0.0134774
0.0132685
0.0130688
0.0128752
0.0126837
0.0124902
0.0122909
0.0120829
0.0118639
0.0116332
0.0113912
0.0111394
0.0108808
0.0106193
0.0103603
0.0101103
0.00987839
0.00967647
0.00952162
0.0094403
0.00947779
0.00974135
0.010585
0.0135373
0.0214566
0.0322766
0.00938756
0.00416549
0.00909718
0.00939784
0.00960091
0.00998689
0.0103509
0.0106477
0.0108772
0.0110421
0.0111445
0.0111887
0.0111842
0.011145
0.011087
0.011026
0.0109751
0.0109443
0.0109398
0.010965
0.0110207
0.0111063
0.0112199
0.0113591
0.0115208
0.0117021
0.0118999
0.0121112
0.012333
0.0125623
0.0127963
0.0130319
0.0132662
0.013496
0.0137183
0.0139302
0.014129
0.0143122
0.0144779
0.0146249
0.0147528
0.0148623
0.0149554
0.0150355
0.0151074
0.0151782
0.0152551
0.0153441
0.0154542
0.0155912
0.0157546
0.0159372
0.0161257
0.016304
0.0164562
0.01657
0.0166374
0.0166549
0.0166222
0.0165422
0.016419
0.0162578
0.0160642
0.0158438
0.0156018
0.0153429
0.0150716
0.0147919
0.0145078
0.014223
0.0139413
0.0136662
0.013401
0.0131481
0.0129094
0.0126854
0.0124756
0.0122781
0.01209
0.0119078
0.0117279
0.0115467
0.0113618
0.0111718
0.0109765
0.0107774
0.010577
0.0103795
0.0101901
0.0100156
0.00986494
0.00974933
0.00968471
0.00969549
0.00982374
0.0101748
0.0111116
0.0142062
0.0224051
0.0334929
0.00949352
0.00416569
0.00923514
0.00979987
0.010098
0.0105024
0.0108673
0.0111581
0.0113747
0.0115147
0.011575
0.0115582
0.0114757
0.0113464
0.0111918
0.0110329
0.010887
0.0107667
0.0106794
0.0106288
0.0106156
0.0106387
0.0106954
0.0107826
0.0108967
0.0110341
0.0111915
0.0113657
0.0115536
0.0117522
0.0119589
0.0121707
0.012385
0.0125989
0.0128098
0.013015
0.013212
0.0133986
0.0135731
0.0137345
0.0138823
0.0140171
0.0141405
0.0142551
0.0143645
0.0144724
0.0145886
0.0147108
0.0148451
0.0149939
0.0151558
0.0153255
0.0154939
0.0156503
0.0157838
0.0158855
0.0159491
0.0159711
0.0159506
0.0158888
0.015788
0.0156517
0.0154837
0.015288
0.0150682
0.0148283
0.0145718
0.0143023
0.0140235
0.0137393
0.0134536
0.0131707
0.0128947
0.0126295
0.0123786
0.0121443
0.0119279
0.0117292
0.0115466
0.0113773
0.0112179
0.0110648
0.010915
0.0107664
0.0106184
0.010472
0.0103295
0.0101948
0.010073
0.00997044
0.00989543
0.00985826
0.00987322
0.0099625
0.0101653
0.0105862
0.0115988
0.01482
0.023283
0.0346127
0.00951777
0.00417075
0.00932788
0.0101425
0.0105256
0.0109465
0.0113158
0.0116094
0.0118232
0.0119468
0.0119708
0.0118961
0.0117375
0.0115201
0.0112722
0.0110205
0.0107864
0.0105841
0.010422
0.0103033
0.0102282
0.0101946
0.010199
0.0102373
0.0103053
0.0103992
0.0105151
0.0106499
0.0108003
0.0109637
0.0111374
0.0113189
0.0115056
0.0116953
0.0118855
0.0120739
0.0122584
0.0124369
0.0126082
0.0127713
0.0129259
0.0130723
0.013212
0.0133468
0.0134795
0.0136127
0.0137513
0.0138998
0.0140543
0.0142163
0.0143841
0.014553
0.0147165
0.0148667
0.014996
0.0150977
0.0151669
0.0152005
0.0151973
0.0151574
0.0150823
0.0149738
0.0148345
0.0146672
0.0144744
0.0142591
0.0140242
0.0137726
0.0135078
0.0132335
0.0129537
0.0126731
0.0123964
0.0121287
0.0118747
0.0116384
0.0114227
0.0112291
0.0110573
0.0109053
0.0107698
0.0106472
0.010534
0.0104275
0.0103264
0.0102313
0.0101441
0.0100684
0.0100088
0.00997146
0.00996368
0.00999464
0.010077
0.010231
0.0104935
0.0109692
0.0120443
0.0153797
0.0240935
0.0356447
0.0093614
0.00417315
0.00937251
0.0103978
0.010861
0.0113061
0.0116911
0.0120012
0.0122247
0.0123407
0.0123333
0.0122032
0.0119705
0.0116682
0.0113327
0.0109965
0.0106841
0.010411
0.0101851
0.0100088
0.00988104
0.00979852
0.00975676
0.00975091
0.00977623
0.00982838
0.0099035
0.0099982
0.0101095
0.0102347
0.0103714
0.0105174
0.0106705
0.0108288
0.01099
0.0111524
0.011314
0.0114735
0.0116296
0.0117816
0.0119295
0.0120737
0.0122152
0.0123558
0.0124972
0.0126418
0.0127903
0.0129523
0.0131193
0.0132907
0.0134651
0.0136381
0.0138042
0.0139573
0.0140914
0.0142013
0.0142829
0.0143335
0.0143517
0.014337
0.01429
0.0142119
0.0141041
0.0139685
0.0138069
0.0136214
0.0134143
0.0131881
0.0129457
0.0126907
0.0124271
0.0121597
0.0118937
0.0116348
0.0113889
0.0111613
0.0109564
0.0107769
0.0106237
0.0104955
0.0103891
0.0103006
0.0102258
0.0101615
0.010106
0.0100591
0.0100225
0.00999967
0.00999491
0.0100138
0.0100631
0.0101508
0.0102882
0.0104936
0.0108025
0.0113208
0.0124479
0.0158873
0.0248402
0.0365964
0.00904716
0.00431961
0.00938661
0.0105506
0.011091
0.011574
0.0119921
0.0123352
0.0125811
0.0126974
0.0126625
0.012479
0.0121748
0.0117929
0.011378
0.0109683
0.0105904
0.0102598
0.00998297
0.00976074
0.00959046
0.00946752
0.00938646
0.00934178
0.00932831
0.00934151
0.00937743
0.00943267
0.00950434
0.0095899
0.00968716
0.00979417
0.00990909
0.0100302
0.0101558
0.0102844
0.0104145
0.010545
0.0106753
0.0108051
0.0109343
0.0110638
0.0111946
0.0113279
0.0114655
0.0116087
0.0117587
0.0119147
0.0120881
0.0122645
0.0124427
0.0126198
0.0127906
0.0129498
0.0130925
0.0132141
0.013311
0.0133807
0.0134216
0.013433
0.0134149
0.0133678
0.0132927
0.0131907
0.013063
0.0129113
0.0127371
0.0125426
0.0123303
0.0121034
0.0118658
0.0116223
0.0113784
0.0111404
0.0109148
0.010708
0.0105254
0.0103708
0.0102457
0.0101491
0.0100778
0.0100273
0.00999273
0.00997033
0.00995776
0.00995471
0.0099628
0.00998524
0.0100264
0.0100918
0.0101874
0.0103205
0.0105011
0.010746
0.0110898
0.0116407
0.0128117
0.016346
0.0255265
0.0374747
0.00861205
0.00453619
0.00936424
0.0105966
0.0112134
0.0117509
0.0122217
0.0126148
0.0128944
0.0130171
0.0129575
0.0127229
0.0123512
0.0118969
0.0114135
0.0109435
0.0105146
0.0101406
0.00982593
0.00956912
0.00936578
0.00921009
0.00909589
0.00901722
0.0089687
0.00894571
0.00894431
0.00896116
0.00899345
0.00903879
0.00909517
0.00916083
0.0092342
0.00931382
0.00939834
0.00948661
0.00957774
0.00967117
0.00976673
0.00986464
0.00996552
0.0100703
0.0101802
0.0102964
0.0104204
0.0105532
0.0106955
0.0108469
0.011008
0.0111843
0.0113628
0.0115412
0.0117155
0.0118804
0.0120314
0.0121644
0.0122758
0.0123633
0.0124253
0.0124608
0.0124697
0.0124522
0.0124088
0.0123403
0.0122477
0.0121319
0.0119943
0.0118365
0.0116606
0.0114695
0.0112669
0.0110575
0.0108469
0.0106415
0.0104486
0.010275
0.0101268
0.0100083
0.00992133
0.00986455
0.00983432
0.00982542
0.00983238
0.00985075
0.00987791
0.00991354
0.00995943
0.0100191
0.0100971
0.010199
0.0103306
0.0104986
0.0107119
0.0109862
0.0113552
0.0119306
0.0131391
0.0167597
0.0261561
0.0382859
0.00809158
0.00479611
0.00929851
0.0105416
0.0112353
0.0118442
0.0123869
0.0128445
0.0131666
0.0132999
0.0132178
0.0129349
0.0125015
0.0119843
0.011445
0.0109295
0.0104643
0.0100607
0.00971991
0.00943817
0.00920942
0.00902702
0.00888441
0.00877545
0.00869472
0.00863766
0.00860043
0.0085798
0.00857306
0.00857792
0.00859247
0.00861506
0.00864425
0.00867874
0.00871747
0.0087597
0.00880515
0.00885399
0.00890685
0.00896479
0.00902913
0.00910134
0.00918292
0.00927524
0.00937941
0.00949618
0.00962579
0.00976778
0.00992022
0.0100855
0.0102621
0.0104396
0.0106149
0.0107834
0.0109404
0.0110818
0.0112044
0.0113059
0.0113846
0.0114399
0.0114716
0.0114798
0.0114652
0.0114284
0.01137
0.0112908
0.0111917
0.0110742
0.0109398
0.0107911
0.0106314
0.0104652
0.0102981
0.0101367
0.00998812
0.00985967
0.00975757
0.00968604
0.00964644
0.00963694
0.00965302
0.0096886
0.00973753
0.00979494
0.00985818
0.00992716
0.0100042
0.0100933
0.0101997
0.0103292
0.0104878
0.0106816
0.0109189
0.0112139
0.0116005
0.0121941
0.013435
0.0171327
0.0267326
0.0390359
0.00751663
0.00506554
0.00917781
0.0103952
0.0111696
0.0118657
0.0124971
0.0130302
0.0134001
0.0135463
0.0134439
0.0131164
0.0126288
0.0120601
0.0114791
0.0109328
0.0104454
0.0100241
0.00966684
0.00936743
0.00911874
0.00891382
0.00874601
0.00860916
0.00849798
0.00840813
0.00833594
0.00827833
0.00823268
0.00819677
0.00816869
0.00814677
0.00812947
0.00811552
0.00810401
0.00809462
0.00808775
0.00808453
0.00808678
0.00809682
0.00811711
0.00815006
0.00819767
0.00826148
0.00834244
0.00844086
0.00855639
0.00868793
0.0088336
0.00898997
0.00916027
0.0093376
0.00951317
0.00968342
0.0098437
0.00999002
0.0101193
0.0102294
0.0103191
0.0103882
0.0104368
0.0104655
0.0104752
0.0104666
0.0104404
0.0103971
0.0103375
0.0102626
0.0101736
0.0100727
0.00996271
0.00984787
0.00973349
0.00962598
0.00953244
0.00945985
0.00941408
0.00939877
0.00941438
0.00945806
0.00952425
0.00960599
0.00969658
0.009791
0.00988678
0.00998434
0.0100867
0.0101988
0.0103266
0.0104766
0.0106549
0.0108676
0.0111218
0.0114311
0.0118291
0.0124362
0.0137053
0.0174703
0.02726
0.0397298
0.00691729
0.00531271
0.00899012
0.0101692
0.011032
0.0118296
0.0125616
0.0131767
0.0135973
0.0137582
0.0136371
0.0132703
0.0127378
0.0121303
0.0115219
0.0109588
0.0104614
0.0100321
0.00966545
0.00935344
0.00908859
0.00886399
0.00867303
0.00850972
0.00836904
0.00824706
0.00814033
0.00804591
0.0079613
0.00788427
0.00781286
0.00774518
0.00767943
0.00761406
0.00754813
0.00748162
0.00741562
0.00735246
0.00729558
0.00724915
0.00721747
0.00720441
0.0072129
0.00724482
0.00730089
0.00738084
0.00748344
0.00760662
0.0077475
0.00790247
0.00806645
0.00824267
0.00842039
0.0085918
0.00875339
0.00890117
0.00903237
0.00914537
0.00923972
0.00931592
0.00937509
0.00941864
0.00944788
0.00946391
0.00946752
0.0094593
0.00943971
0.0094093
0.00936899
0.00932036
0.00926591
0.00920934
0.00915555
0.00911055
0.0090809
0.00907294
0.00909167
0.00913958
0.00921591
0.00931655
0.00943487
0.00956322
0.00969457
0.00982398
0.00994942
0.010072
0.0101956
0.0103261
0.0104705
0.0106359
0.0108289
0.0110554
0.0113218
0.0116407
0.0120459
0.0126632
0.0139567
0.017778
0.0277419
0.0403727
0.00632491
0.00550934
0.00872729
0.00987756
0.0108414
0.0117505
0.0125887
0.0132874
0.0137592
0.0139366
0.0138003
0.0134008
0.0128338
0.0122002
0.011578
0.0110108
0.0105133
0.0100834
0.00971273
0.00939188
0.00911374
0.00887167
0.00865915
0.00847045
0.00830105
0.00814755
0.00800665
0.00787558
0.00775197
0.00763362
0.00751845
0.00740426
0.00728872
0.0071698
0.00704618
0.00691786
0.00678648
0.00665566
0.00653083
0.00641868
0.00632621
0.00625954
0.00622317
0.00621959
0.00624935
0.00631127
0.00640282
0.00652038
0.00665951
0.00681514
0.0069818
0.00715276
0.00733196
0.00750469
0.00766518
0.00781103
0.00793974
0.0080505
0.00814392
0.00822177
0.00828648
0.00834055
0.0083861
0.00842466
0.00845715
0.00848406
0.00850557
0.00852186
0.00853335
0.00854113
0.00854716
0.0085546
0.00856775
0.00859193
0.00863286
0.00869579
0.0087844
0.00889974
0.00903958
0.0091986
0.00936929
0.00954357
0.00971441
0.00987719
0.0100305
0.0101761
0.0103189
0.0104656
0.0106241
0.0108023
0.0110073
0.0112449
0.0115209
0.0118466
0.0122565
0.0128818
0.0141967
0.018062
0.028182
0.0409693
0.00577187
0.00563119
0.00838801
0.00954089
0.0106053
0.0116359
0.0125873
0.0133711
0.0138918
0.0140826
0.0139353
0.0135125
0.0129231
0.0122762
0.0116524
0.0110914
0.0106015
0.0101763
0.00980553
0.00947876
0.00919032
0.00893315
0.00870099
0.00848856
0.00829168
0.00810767
0.00793331
0.00776609
0.00760384
0.00744443
0.00728573
0.00712522
0.00695995
0.0067871
0.00660471
0.00641235
0.00621189
0.00600794
0.005808
0.00562172
0.00545949
0.00533067
0.00524215
0.00519762
0.00519755
0.00523962
0.00531938
0.00543092
0.00556754
0.00572229
0.00588831
0.00605908
0.00622715
0.00639885
0.00655599
0.00669641
0.00681948
0.006925
0.00701494
0.00709255
0.00716173
0.00722609
0.00728843
0.0073506
0.00741358
0.0074777
0.00754284
0.00760875
0.0076754
0.00774334
0.00781397
0.00788981
0.00797443
0.00807219
0.00818766
0.0083247
0.0084854
0.00866922
0.00887253
0.00908902
0.00931066
0.00952931
0.00973827
0.00993343
0.010114
0.0102825
0.0104446
0.0106076
0.0107803
0.0109713
0.0111881
0.0114364
0.0117214
0.0120534
0.012467
0.0130993
0.0144327
0.0183288
0.0285841
0.0415241
0.00528942
0.00565792
0.00798193
0.00916377
0.0103392
0.0114975
0.0125616
0.0134295
0.0139988
0.0142039
0.0140471
0.0136067
0.0130059
0.0123612
0.0117494
0.0112036
0.0107273
0.0103113
0.00994419
0.00961384
0.00931793
0.00904828
0.00879902
0.00856512
0.00834282
0.0081302
0.0079239
0.00772181
0.00752212
0.00732285
0.00712196
0.0069169
0.00670411
0.00647999
0.00624168
0.00598802
0.00572051
0.00544418
0.0051679
0.00490387
0.00466581
0.0044667
0.00431662
0.00422136
0.00418185
0.00419465
0.00425308
0.00434844
0.00447144
0.00461327
0.00476619
0.00492369
0.00507994
0.00523102
0.00538254
0.00551595
0.00563315
0.00573536
0.0058252
0.00590723
0.00598645
0.00606717
0.00615243
0.00624406
0.0063429
0.00644906
0.00656216
0.00668159
0.00680693
0.00693825
0.00707643
0.00722328
0.00738151
0.00755439
0.00774513
0.00795603
0.00818755
0.00843766
0.00870164
0.00897256
0.00924233
0.00950315
0.00974888
0.00997609
0.0101846
0.0103775
0.0105609
0.0107428
0.0109322
0.0111384
0.0113691
0.0116299
0.0119255
0.0122649
0.0126831
0.0133227
0.0146725
0.0185854
0.0289517
0.0420413
0.00490306
0.00557228
0.00752361
0.00875274
0.0100546
0.0113393
0.012514
0.0134644
0.0140822
0.0143037
0.0141425
0.013693
0.0130908
0.0124566
0.0118641
0.0113403
0.0108835
0.010482
0.0101236
0.00979837
0.00949946
0.00922125
0.00895882
0.00870639
0.00846128
0.00822266
0.00798678
0.00775204
0.00751716
0.00728023
0.00704009
0.00679447
0.0065394
0.00627085
0.00598521
0.00568048
0.00535743
0.00502062
0.00467897
0.00434538
0.00403494
0.00376275
0.00354148
0.00337947
0.00327942
0.003238
0.00324762
0.00329799
0.00337837
0.00347924
0.00359314
0.00371467
0.00384018
0.00396501
0.00409821
0.00422495
0.00434163
0.00444931
0.00455034
0.0046497
0.00475287
0.00486378
0.00498466
0.00511671
0.00526043
0.00541582
0.00558239
0.00575945
0.00594635
0.00614288
0.00634945
0.0065672
0.00679793
0.00704377
0.00730659
0.00758719
0.0078846
0.00819562
0.00851488
0.00883533
0.00914923
0.00944945
0.00973063
0.00999007
0.0102281
0.0104483
0.0106567
0.0108617
0.0110725
0.0112984
0.0115472
0.0118246
0.0121342
0.0124842
0.0129095
0.013558
0.014923
0.018839
0.0292889
0.0425254
0.00462739
0.0053683
0.00700796
0.00832866
0.00975423
0.0111621
0.0124447
0.0134762
0.0141433
0.0143843
0.0142242
0.0137733
0.0131788
0.0125643
0.0119989
0.0115033
0.0110715
0.0106894
0.0103442
0.0100266
0.00973021
0.00944953
0.00917973
0.00891645
0.00865596
0.00839584
0.0081345
0.00787094
0.00760467
0.00733334
0.00705863
0.00677876
0.00648982
0.00618805
0.00586969
0.00553227
0.00517595
0.00480427
0.0044248
0.00404862
0.00368864
0.00335787
0.00306759
0.00282593
0.00263685
0.00249991
0.00241026
0.00236097
0.00234449
0.00235415
0.00238496
0.00243389
0.00249973
0.00258186
0.00267913
0.0028051
0.00293375
0.00306657
0.00320116
0.00334041
0.00348897
0.00364917
0.00382167
0.00400674
0.00420474
0.00441586
0.00463993
0.00487641
0.00512477
0.00538473
0.00565643
0.00594046
0.00623774
0.00654946
0.00687639
0.00721815
0.00757268
0.00793607
0.00830278
0.00866612
0.00901904
0.0093553
0.00967044
0.00996246
0.0102321
0.0104831
0.0107214
0.0109552
0.0111934
0.0114452
0.0117183
0.0120178
0.0123469
0.0127125
0.0131493
0.0138098
0.0151901
0.019097
0.0295998
0.0429808
0.00446252
0.0050282
0.00645217
0.00788965
0.00943639
0.0109639
0.0123516
0.013464
0.0141822
0.0144468
0.0142939
0.0138492
0.0132706
0.0126833
0.0121517
0.0116904
0.0112891
0.0109319
0.0106061
0.0103027
0.0100153
0.00973857
0.00946774
0.00919852
0.00892756
0.00865264
0.00837238
0.00808641
0.00779514
0.00749915
0.00719871
0.00689344
0.00658182
0.00626113
0.00592836
0.00558138
0.0052201
0.00484718
0.00446814
0.00409071
0.00372335
0.00337391
0.00304853
0.00275065
0.00247855
0.0022342
0.00201639
0.00181951
0.0016416
0.00148247
0.00134459
0.00123392
0.00116059
0.00113775
0.00117238
0.00128817
0.00145595
0.00166725
0.00188414
0.00209873
0.00231616
0.00253957
0.00277115
0.00301235
0.0032645
0.0035287
0.00380537
0.00409438
0.00439552
0.00470875
0.00503428
0.00537231
0.00572286
0.00608665
0.00646378
0.00685311
0.00725191
0.00765583
0.00805974
0.0084576
0.00884321
0.00921134
0.00955842
0.00988305
0.0101863
0.0104717
0.010745
0.0110137
0.0112863
0.0115714
0.011876
0.012205
0.0125605
0.0129483
0.0134027
0.01408
0.015478
0.0193659
0.0298886
0.0434118
0.00440524
0.00452557
0.00587825
0.00743075
0.00909644
0.0107402
0.0122311
0.013425
0.0141975
0.0144909
0.0143518
0.0139206
0.0133653
0.0128121
0.0123203
0.011899
0.011534
0.0112081
0.0109084
0.0106261
0.010355
0.0100899
0.00982591
0.00955887
0.00928548
0.00900361
0.00871238
0.00841218
0.00810447
0.0077912
0.00747454
0.00715585
0.00683519
0.0065114
0.00618267
0.00584747
0.00550546
0.00515811
0.00480864
0.00446149
0.00412135
0.00379229
0.00347712
0.00317702
0.00289115
0.00261759