/*--------------------------------*- C++ -*----------------------------------*\
| =========                 |                                                 |
| \\      /  F ield         | OpenFOAM: The Open Source CFD Toolbox           |
|  \\    /   O peration     | Version:  4.1                                   |
|   \\  /    A nd           | Web:      www.OpenFOAM.org                      |
|    \\/     M anipulation  |                                                 |
\*---------------------------------------------------------------------------*/
FoamFile
{
    version     2.0;
    format      ascii;
    class       volScalarField;
    location    "80";
    object      p;
}
// * * * * * * * * * * * * * * * * * * * * * * * * * * * * * * * * * * * * * //

dimensions      [0 2 -2 0 0 0 0];

internalField   nonuniform List<scalar> 
5000
(
0
9.14252e-06
1.79049e-05
1.49695e-05
2.04971e-06
-1.81488e-05
-3.95117e-05
-5.62011e-05
-6.57567e-05
-6.9406e-05
-6.84921e-05
-6.39646e-05
-5.69149e-05
-4.82611e-05
-4.8793e-05
-5.49517e-05
-5.71476e-05
-4.93104e-05
-3.19857e-05
-1.43775e-05
-1.28164e-05
-2.95831e-05
-5.00167e-05
-5.96979e-05
-5.66283e-05
-6.01272e-05
-6.01185e-05
-6.00914e-05
-6.21021e-05
-5.51849e-05
-4.37066e-05
-3.5651e-05
-4.98981e-05
-4.09447e-05
-2.8947e-05
-4.39108e-05
-5.18961e-05
-5.25379e-05
-4.7174e-05
-4.28778e-05
-4.29423e-05
-5.44696e-05
-5.455e-05
-5.74115e-05
-6.04088e-05
-6.37552e-05
-6.3926e-05
-6.4997e-05
-6.68936e-05
-6.75609e-05
-6.47701e-05
-5.92231e-05
-5.26996e-05
-4.57675e-05
-4.12945e-05
-4.62285e-05
-4.54401e-05
-3.74126e-05
-2.4826e-05
-1.80866e-05
-2.49597e-05
-2.99179e-05
-2.84145e-05
-1.98662e-05
-1.24499e-05
-1.93664e-05
-2.55211e-05
-2.46083e-05
-1.66439e-05
-3.96278e-06
2.80487e-06
-1.29894e-05
-3.22343e-05
-4.03707e-05
-3.57276e-05
-2.89922e-05
-2.69922e-05
-2.77483e-05
-2.82052e-05
-2.38539e-05
-1.83912e-05
-9.73478e-06
2.82667e-06
-8.33609e-06
-2.83418e-05
-4.08426e-05
-4.67389e-05
-4.84986e-05
-4.31038e-05
-3.96713e-05
-4.34488e-05
-5.42418e-05
-6.60646e-05
-7.45168e-05
-7.82823e-05
-7.87558e-05
-7.71947e-05
-7.4197e-05
-7.0694e-05
-6.61501e-05
-0.0985093
-0.0985038
-0.0985012
-0.0985062
-0.098519
-0.0985374
-0.0985562
-0.0985696
-0.0985755
-0.098575
-0.0985701
-0.0985614
-0.0985514
-0.098544
-0.098546
-0.0985591
-0.0985679
-0.0985666
-0.0985579
-0.0985455
-0.0985424
-0.0985552
-0.0985682
-0.0985672
-0.0985549
-0.0985592
-0.098557
-0.0985578
-0.0985652
-0.0985626
-0.0985514
-0.0985434
-0.0985518
-0.098549
-0.0985466
-0.0985534
-0.0985555
-0.0985458
-0.0985412
-0.0985411
-0.0985441
-0.0985496
-0.0985459
-0.0985478
-0.0985478
-0.0985505
-0.0985517
-0.0985533
-0.0985562
-0.0985607
-0.0985632
-0.0985602
-0.0985546
-0.098547
-0.0985387
-0.0985491
-0.0985547
-0.0985524
-0.0985452
-0.0985383
-0.0985368
-0.09854
-0.0985336
-0.0985312
-0.0985294
-0.0985275
-0.098531
-0.0985344
-0.0985325
-0.0985241
-0.0985279
-0.0985435
-0.0985545
-0.0985553
-0.0985446
-0.0985247
-0.0985355
-0.098539
-0.0985367
-0.0985279
-0.0985248
-0.0985213
-0.0985195
-0.0985274
-0.09854
-0.0985441
-0.0985486
-0.0985523
-0.0985508
-0.0985492
-0.0985525
-0.0985598
-0.0985666
-0.09857
-0.0985702
-0.0985694
-0.0985677
-0.0985641
-0.0985589
-0.0985512
-0.197027
-0.197024
-0.197023
-0.19703
-0.197044
-0.197062
-0.19708
-0.197091
-0.197094
-0.197091
-0.197083
-0.19707
-0.19706
-0.197054
-0.197052
-0.197063
-0.197067
-0.197071
-0.197069
-0.197065
-0.197065
-0.197075
-0.197084
-0.197079
-0.197069
-0.197073
-0.197072
-0.197068
-0.197074
-0.197076
-0.197062
-0.197054
-0.197057
-0.197055
-0.197057
-0.19706
-0.197059
-0.197047
-0.197042
-0.197046
-0.197051
-0.197053
-0.197048
-0.197049
-0.197046
-0.197051
-0.197054
-0.197055
-0.197057
-0.197062
-0.197069
-0.197068
-0.197063
-0.197056
-0.197047
-0.197057
-0.197068
-0.197069
-0.197064
-0.197056
-0.197049
-0.197047
-0.197045
-0.197045
-0.197044
-0.197039
-0.197044
-0.197047
-0.197048
-0.197044
-0.197054
-0.19707
-0.197077
-0.197072
-0.197061
-0.197042
-0.197052
-0.197059
-0.197058
-0.197045
-0.197042
-0.197037
-0.19704
-0.197047
-0.197052
-0.197053
-0.197053
-0.197052
-0.197055
-0.197059
-0.197064
-0.19707
-0.197073
-0.197075
-0.197075
-0.197074
-0.197073
-0.19707
-0.197065
-0.197055
-0.29554
-0.295541
-0.29554
-0.29555
-0.295565
-0.295583
-0.295601
-0.295611
-0.295611
-0.295605
-0.295593
-0.295578
-0.295569
-0.295562
-0.295553
-0.295557
-0.295555
-0.295561
-0.295567
-0.295572
-0.295578
-0.295588
-0.295591
-0.295583
-0.295583
-0.295594
-0.295584
-0.295573
-0.295572
-0.295577
-0.295567
-0.29556
-0.295559
-0.295558
-0.295559
-0.295559
-0.295557
-0.295548
-0.295544
-0.295549
-0.295556
-0.295554
-0.295551
-0.295554
-0.295549
-0.295552
-0.295558
-0.29556
-0.295561
-0.295564
-0.295569
-0.29557
-0.295566
-0.295561
-0.295557
-0.295562
-0.295576
-0.295581
-0.295578
-0.295569
-0.295557
-0.29555
-0.295555
-0.295562
-0.295558
-0.295552
-0.295555
-0.295556
-0.295557
-0.295558
-0.295572
-0.295585
-0.295587
-0.295579
-0.29557
-0.295566
-0.295575
-0.295586
-0.29558
-0.295566
-0.295565
-0.295557
-0.295559
-0.295564
-0.295565
-0.295563
-0.295556
-0.29555
-0.295558
-0.295567
-0.295574
-0.295579
-0.295579
-0.295582
-0.295584
-0.295584
-0.295584
-0.295581
-0.295577
-0.295569
-0.394045
-0.394051
-0.394052
-0.394064
-0.394079
-0.394098
-0.394115
-0.394122
-0.39412
-0.394112
-0.394097
-0.394083
-0.394074
-0.394062
-0.394047
-0.394044
-0.394049
-0.394055
-0.394065
-0.394078
-0.394088
-0.394094
-0.394089
-0.394078
-0.394088
-0.394098
-0.394083
-0.394067
-0.394061
-0.394065
-0.394065
-0.394064
-0.39406
-0.394059
-0.394058
-0.394056
-0.394057
-0.394053
-0.394052
-0.394053
-0.394053
-0.394044
-0.394047
-0.39405
-0.394048
-0.394048
-0.394059
-0.394063
-0.394065
-0.394067
-0.39407
-0.39407
-0.394067
-0.394065
-0.394063
-0.394062
-0.394074
-0.394081
-0.394081
-0.394074
-0.394062
-0.39405
-0.394061
-0.394077
-0.39407
-0.394064
-0.394061
-0.394062
-0.394064
-0.394067
-0.394079
-0.394086
-0.394084
-0.394076
-0.394068
-0.394082
-0.394094
-0.394103
-0.394093
-0.394081
-0.394083
-0.394078
-0.394076
-0.39408
-0.39408
-0.394072
-0.39406
-0.394054
-0.394064
-0.394074
-0.394081
-0.394084
-0.394085
-0.39409
-0.394093
-0.394094
-0.394094
-0.394092
-0.39409
-0.394083
-0.492546
-0.492553
-0.492558
-0.492571
-0.492588
-0.492606
-0.49262
-0.492624
-0.492621
-0.492612
-0.492598
-0.492586
-0.492575
-0.49256
-0.492542
-0.492534
-0.49255
-0.492558
-0.492572
-0.492589
-0.492598
-0.492595
-0.492586
-0.492575
-0.492586
-0.492586
-0.492571
-0.492558
-0.492556
-0.49256
-0.492562
-0.492568
-0.492563
-0.492563
-0.49256
-0.492556
-0.492561
-0.492565
-0.492566
-0.492561
-0.492547
-0.49253
-0.492537
-0.492541
-0.492543
-0.492544
-0.492554
-0.492561
-0.492566
-0.492571
-0.492573
-0.492572
-0.49257
-0.492567
-0.492565
-0.492562
-0.492569
-0.492576
-0.492577
-0.492574
-0.492565
-0.492553
-0.492562
-0.49258
-0.492578
-0.492572
-0.492564
-0.492567
-0.49257
-0.492573
-0.492579
-0.492581
-0.492581
-0.492575
-0.492568
-0.49259
-0.492604
-0.492607
-0.492598
-0.492585
-0.492585
-0.49259
-0.492589
-0.492593
-0.492591
-0.492577
-0.492562
-0.492562
-0.492569
-0.492576
-0.492581
-0.492582
-0.492588
-0.492593
-0.492597
-0.4926
-0.492601
-0.4926
-0.492598
-0.492591
-0.591045
-0.591052
-0.591061
-0.591075
-0.591092
-0.591108
-0.591119
-0.591121
-0.591118
-0.59111
-0.5911
-0.59109
-0.591079
-0.591065
-0.591048
-0.591043
-0.591057
-0.591069
-0.591086
-0.591101
-0.591106
-0.591096
-0.591085
-0.591079
-0.591082
-0.591077
-0.591063
-0.591053
-0.59106
-0.591062
-0.591063
-0.591071
-0.591068
-0.591067
-0.591065
-0.591062
-0.591068
-0.591078
-0.591085
-0.591075
-0.591055
-0.591036
-0.59104
-0.591043
-0.591045
-0.591046
-0.591054
-0.591061
-0.591067
-0.59107
-0.591072
-0.591072
-0.591071
-0.59107
-0.591069
-0.591065
-0.591069
-0.591074
-0.591076
-0.591074
-0.591069
-0.591061
-0.591066
-0.591079
-0.591081
-0.591077
-0.591067
-0.591074
-0.591079
-0.591081
-0.591081
-0.591079
-0.591083
-0.591081
-0.591078
-0.591096
-0.591107
-0.591107
-0.591099
-0.591086
-0.591076
-0.591092
-0.591094
-0.591095
-0.591091
-0.591077
-0.591062
-0.591068
-0.591073
-0.591077
-0.59108
-0.591082
-0.591087
-0.591092
-0.591096
-0.591101
-0.591103
-0.591102
-0.591099
-0.591089
-0.689545
-0.689552
-0.689563
-0.689577
-0.689593
-0.689608
-0.689617
-0.689619
-0.689616
-0.689611
-0.689605
-0.689597
-0.689589
-0.689578
-0.689567
-0.689564
-0.689572
-0.689583
-0.689599
-0.689608
-0.689607
-0.689598
-0.689588
-0.689583
-0.689579
-0.689573
-0.689565
-0.689554
-0.689565
-0.689565
-0.689567
-0.689573
-0.689572
-0.689571
-0.68957
-0.689571
-0.689574
-0.689584
-0.689595
-0.689588
-0.68957
-0.689556
-0.689554
-0.689555
-0.689554
-0.689557
-0.689563
-0.689569
-0.689572
-0.689572
-0.689573
-0.689574
-0.689575
-0.689575
-0.689575
-0.689574
-0.689575
-0.689578
-0.689578
-0.689577
-0.689576
-0.689573
-0.689574
-0.689582
-0.689583
-0.689582
-0.689576
-0.689583
-0.689591
-0.68959
-0.689588
-0.689584
-0.68959
-0.689591
-0.689592
-0.689601
-0.689606
-0.689606
-0.689603
-0.689594
-0.689582
-0.689594
-0.689594
-0.689593
-0.689587
-0.689577
-0.689568
-0.689574
-0.689577
-0.68958
-0.689581
-0.689582
-0.689584
-0.689587
-0.689592
-0.689597
-0.689598
-0.689595
-0.689589
-0.689577
-0.788049
-0.788056
-0.788067
-0.788081
-0.788097
-0.78811
-0.788118
-0.788118
-0.788116
-0.788113
-0.788111
-0.788106
-0.788101
-0.788095
-0.788088
-0.788086
-0.788089
-0.788097
-0.788106
-0.788108
-0.788105
-0.788099
-0.788093
-0.788088
-0.78808
-0.788073
-0.788073
-0.788064
-0.788068
-0.788067
-0.788072
-0.788074
-0.788074
-0.788073
-0.788075
-0.788079
-0.788074
-0.788085
-0.788092
-0.788091
-0.78808
-0.788069
-0.788067
-0.788067
-0.788066
-0.788072
-0.788078
-0.788082
-0.78808
-0.788078
-0.788077
-0.788079
-0.788082
-0.788083
-0.788083
-0.788084
-0.788084
-0.788085
-0.788084
-0.788084
-0.788087
-0.788088
-0.788088
-0.788091
-0.788088
-0.788091
-0.78809
-0.788096
-0.788104
-0.788101
-0.788098
-0.788094
-0.788101
-0.788102
-0.788103
-0.788107
-0.788107
-0.788108
-0.788113
-0.788112
-0.788102
-0.788099
-0.788093
-0.788093
-0.788091
-0.788086
-0.788082
-0.788084
-0.788085
-0.788086
-0.788085
-0.788083
-0.788082
-0.788084
-0.788086
-0.788088
-0.788087
-0.78808
-0.788068
-0.788054
-0.886556
-0.886563
-0.886574
-0.886588
-0.886602
-0.886615
-0.886621
-0.886622
-0.886619
-0.886617
-0.886617
-0.886615
-0.886615
-0.886614
-0.88661
-0.886608
-0.886608
-0.88661
-0.886611
-0.886607
-0.886603
-0.886602
-0.8866
-0.886596
-0.886585
-0.886573
-0.886574
-0.886577
-0.886574
-0.886574
-0.886576
-0.886577
-0.886576
-0.886575
-0.886579
-0.886583
-0.886575
-0.886588
-0.886587
-0.886589
-0.886585
-0.886579
-0.886578
-0.886576
-0.88658
-0.88659
-0.886596
-0.886596
-0.886588
-0.886584
-0.886585
-0.886588
-0.886591
-0.886593
-0.886593
-0.886594
-0.886595
-0.886594
-0.886591
-0.886593
-0.886601
-0.886605
-0.886606
-0.886604
-0.886598
-0.886606
-0.886609
-0.886612
-0.886617
-0.886615
-0.88661
-0.886607
-0.886614
-0.886614
-0.886614
-0.886614
-0.886611
-0.886612
-0.886623
-0.88663
-0.886622
-0.886608
-0.886595
-0.886598
-0.886602
-0.886601
-0.886598
-0.886596
-0.886595
-0.886595
-0.886593
-0.886589
-0.886586
-0.886585
-0.886587
-0.886588
-0.886584
-0.886572
-0.886551
-0.886537
-0.985068
-0.985075
-0.985087
-0.9851
-0.985113
-0.985123
-0.985129
-0.98513
-0.985126
-0.985123
-0.985124
-0.985125
-0.985128
-0.985132
-0.985133
-0.985131
-0.985128
-0.985123
-0.985117
-0.985108
-0.985102
-0.985106
-0.985113
-0.985113
-0.985101
-0.985084
-0.985076
-0.985087
-0.985085
-0.985084
-0.985084
-0.985084
-0.985083
-0.985082
-0.985085
-0.985087
-0.985086
-0.985093
-0.985085
-0.985088
-0.98509
-0.985088
-0.985089
-0.985086
-0.985094
-0.985105
-0.985111
-0.985106
-0.985095
-0.985093
-0.985096
-0.985101
-0.985103
-0.985104
-0.985105
-0.985108
-0.985108
-0.985106
-0.985099
-0.985107
-0.985119
-0.985126
-0.985126
-0.98512
-0.985114
-0.985124
-0.985131
-0.985131
-0.985132
-0.985129
-0.985124
-0.985122
-0.985127
-0.985126
-0.985125
-0.985122
-0.985118
-0.985117
-0.985131
-0.985141
-0.985137
-0.985118
-0.985102
-0.985109
-0.985115
-0.985117
-0.985115
-0.985109
-0.985106
-0.985106
-0.985104
-0.9851
-0.985095
-0.985093
-0.985097
-0.9851
-0.985099
-0.985088
-0.985069
-0.985054
-1.08359
-1.08359
-1.0836
-1.08362
-1.08363
-1.08364
-1.08364
-1.08364
-1.08364
-1.08363
-1.08363
-1.08364
-1.08364
-1.08365
-1.08365
-1.08365
-1.08365
-1.08364
-1.08363
-1.08361
-1.08361
-1.08361
-1.08363
-1.08364
-1.08363
-1.08361
-1.0836
-1.0836
-1.0836
-1.0836
-1.0836
-1.08359
-1.08359
-1.0836
-1.0836
-1.0836
-1.08359
-1.08358
-1.08359
-1.08359
-1.0836
-1.0836
-1.0836
-1.0836
-1.08361
-1.08362
-1.08362
-1.08361
-1.08361
-1.08361
-1.08361
-1.08362
-1.08362
-1.08362
-1.08362
-1.08362
-1.08363
-1.08362
-1.08361
-1.08363
-1.08364
-1.08365
-1.08365
-1.08364
-1.08363
-1.08364
-1.08365
-1.08365
-1.08365
-1.08364
-1.08364
-1.08364
-1.08364
-1.08364
-1.08364
-1.08363
-1.08363
-1.08362
-1.08364
-1.08364
-1.08365
-1.08363
-1.08362
-1.08362
-1.08363
-1.08364
-1.08363
-1.08363
-1.08362
-1.08362
-1.08362
-1.08361
-1.08361
-1.08361
-1.08361
-1.08362
-1.08362
-1.08361
-1.0836
-1.08359
-1.18211
-1.18212
-1.18213
-1.18214
-1.18215
-1.18216
-1.18216
-1.18216
-1.18215
-1.18214
-1.18214
-1.18215
-1.18215
-1.18216
-1.18217
-1.18218
-1.18217
-1.18216
-1.18214
-1.18213
-1.18212
-1.18212
-1.18214
-1.18215
-1.18215
-1.18213
-1.18212
-1.18212
-1.18212
-1.18211
-1.18211
-1.18211
-1.18211
-1.18211
-1.18211
-1.18211
-1.1821
-1.18208
-1.18209
-1.1821
-1.18211
-1.18212
-1.18211
-1.18212
-1.18212
-1.18212
-1.18212
-1.18212
-1.18212
-1.18213
-1.18213
-1.18213
-1.18213
-1.18213
-1.18214
-1.18214
-1.18215
-1.18214
-1.18213
-1.18215
-1.18216
-1.18217
-1.18216
-1.18215
-1.18215
-1.18216
-1.18217
-1.18216
-1.18216
-1.18216
-1.18215
-1.18215
-1.18215
-1.18215
-1.18215
-1.18215
-1.18214
-1.18213
-1.18215
-1.18214
-1.18215
-1.18214
-1.18213
-1.18213
-1.18214
-1.18215
-1.18215
-1.18214
-1.18213
-1.18213
-1.18213
-1.18213
-1.18213
-1.18212
-1.18212
-1.18213
-1.18213
-1.18213
-1.18212
-1.18212
-1.28064
-1.28065
-1.28066
-1.28067
-1.28068
-1.28068
-1.28068
-1.28068
-1.28067
-1.28066
-1.28065
-1.28065
-1.28066
-1.28067
-1.28068
-1.28069
-1.28068
-1.28067
-1.28065
-1.28064
-1.28063
-1.28063
-1.28064
-1.28065
-1.28065
-1.28064
-1.28063
-1.28063
-1.28063
-1.28062
-1.28062
-1.28062
-1.28062
-1.28063
-1.28063
-1.28062
-1.28061
-1.2806
-1.28061
-1.28062
-1.28063
-1.28063
-1.28063
-1.28063
-1.28063
-1.28063
-1.28063
-1.28063
-1.28064
-1.28064
-1.28065
-1.28065
-1.28064
-1.28065
-1.28066
-1.28067
-1.28067
-1.28067
-1.28066
-1.28066
-1.28068
-1.28068
-1.28067
-1.28066
-1.28067
-1.28068
-1.28068
-1.28067
-1.28067
-1.28067
-1.28066
-1.28066
-1.28066
-1.28066
-1.28066
-1.28066
-1.28065
-1.28065
-1.28066
-1.28065
-1.28065
-1.28065
-1.28064
-1.28064
-1.28066
-1.28067
-1.28067
-1.28066
-1.28065
-1.28064
-1.28065
-1.28064
-1.28064
-1.28064
-1.28064
-1.28064
-1.28065
-1.28065
-1.28064
-1.28063
-1.37918
-1.37918
-1.37919
-1.3792
-1.37921
-1.37921
-1.37921
-1.3792
-1.37919
-1.37918
-1.37917
-1.37916
-1.37916
-1.37918
-1.37919
-1.37919
-1.37919
-1.37918
-1.37916
-1.37915
-1.37914
-1.37914
-1.37913
-1.37914
-1.37915
-1.37914
-1.37914
-1.37914
-1.37914
-1.37914
-1.37914
-1.37914
-1.37914
-1.37915
-1.37914
-1.37914
-1.37913
-1.37913
-1.37913
-1.37914
-1.37914
-1.37914
-1.37915
-1.37915
-1.37914
-1.37914
-1.37913
-1.37914
-1.37915
-1.37916
-1.37917
-1.37916
-1.37915
-1.37917
-1.37918
-1.37919
-1.37919
-1.37918
-1.37918
-1.37918
-1.37919
-1.37919
-1.37918
-1.37916
-1.37918
-1.37919
-1.37919
-1.37918
-1.37917
-1.37918
-1.37917
-1.37917
-1.37916
-1.37917
-1.37917
-1.37917
-1.37916
-1.37916
-1.37916
-1.37916
-1.37916
-1.37916
-1.37916
-1.37916
-1.37917
-1.37918
-1.37918
-1.37917
-1.37916
-1.37915
-1.37916
-1.37916
-1.37915
-1.37915
-1.37916
-1.37915
-1.37916
-1.37915
-1.37915
-1.37915
-1.47771
-1.47772
-1.47773
-1.47774
-1.47775
-1.47775
-1.47774
-1.47773
-1.47771
-1.4777
-1.47768
-1.47768
-1.47767
-1.47768
-1.47768
-1.47769
-1.47768
-1.47768
-1.47766
-1.47766
-1.47765
-1.47764
-1.47764
-1.47764
-1.47764
-1.47765
-1.47765
-1.47765
-1.47765
-1.47765
-1.47765
-1.47765
-1.47765
-1.47766
-1.47765
-1.47765
-1.47765
-1.47765
-1.47765
-1.47765
-1.47766
-1.47766
-1.47766
-1.47766
-1.47766
-1.47766
-1.47766
-1.47766
-1.47767
-1.47768
-1.47768
-1.47768
-1.47767
-1.47769
-1.4777
-1.4777
-1.47769
-1.47769
-1.47769
-1.47769
-1.47769
-1.47769
-1.47768
-1.47767
-1.47769
-1.47769
-1.47769
-1.47769
-1.47768
-1.47769
-1.47768
-1.47768
-1.47767
-1.47768
-1.47768
-1.47768
-1.47767
-1.47766
-1.47766
-1.47766
-1.47766
-1.47766
-1.47767
-1.47767
-1.47767
-1.47768
-1.47768
-1.47768
-1.47767
-1.47766
-1.47767
-1.47767
-1.47767
-1.47767
-1.47767
-1.47766
-1.47767
-1.47766
-1.47767
-1.47766
-1.57625
-1.57625
-1.57626
-1.57627
-1.57628
-1.57628
-1.57627
-1.57626
-1.57624
-1.57622
-1.5762
-1.57619
-1.57618
-1.57618
-1.57618
-1.57618
-1.57618
-1.57618
-1.57617
-1.57617
-1.57616
-1.57616
-1.57615
-1.57615
-1.57615
-1.57616
-1.57616
-1.57617
-1.57617
-1.57617
-1.57617
-1.57617
-1.57616
-1.57616
-1.57616
-1.57616
-1.57616
-1.57616
-1.57616
-1.57617
-1.57617
-1.57617
-1.57617
-1.57617
-1.57617
-1.57617
-1.57617
-1.57618
-1.57619
-1.57619
-1.57619
-1.57619
-1.57619
-1.5762
-1.57621
-1.57621
-1.5762
-1.57619
-1.5762
-1.5762
-1.5762
-1.5762
-1.57619
-1.57619
-1.57619
-1.5762
-1.5762
-1.5762
-1.57619
-1.57619
-1.57619
-1.57619
-1.57618
-1.57619
-1.57619
-1.57619
-1.57618
-1.57616
-1.57615
-1.57616
-1.57617
-1.57617
-1.57618
-1.57618
-1.57619
-1.57619
-1.57619
-1.57619
-1.57618
-1.57618
-1.57618
-1.57618
-1.57618
-1.57618
-1.57618
-1.57617
-1.57618
-1.57618
-1.57618
-1.57617
-1.67477
-1.67478
-1.67479
-1.6748
-1.6748
-1.67481
-1.6748
-1.67479
-1.67477
-1.67474
-1.67472
-1.67471
-1.67469
-1.67468
-1.67468
-1.67468
-1.67468
-1.67468
-1.67468
-1.67468
-1.67467
-1.67467
-1.67467
-1.67466
-1.67467
-1.67467
-1.67468
-1.67468
-1.67468
-1.67469
-1.67469
-1.67469
-1.67468
-1.67467
-1.67467
-1.67468
-1.67468
-1.67468
-1.67468
-1.67468
-1.67468
-1.67468
-1.67468
-1.67468
-1.67468
-1.67469
-1.67469
-1.67469
-1.6747
-1.6747
-1.6747
-1.6747
-1.6747
-1.67471
-1.67471
-1.67471
-1.6747
-1.67469
-1.6747
-1.67471
-1.67471
-1.67471
-1.67471
-1.67471
-1.67471
-1.67471
-1.6747
-1.67471
-1.6747
-1.6747
-1.6747
-1.6747
-1.6747
-1.6747
-1.6747
-1.6747
-1.67469
-1.67467
-1.67465
-1.67467
-1.67468
-1.67468
-1.67469
-1.67469
-1.6747
-1.67469
-1.67469
-1.6747
-1.6747
-1.67469
-1.67469
-1.67469
-1.6747
-1.67469
-1.67469
-1.67469
-1.67469
-1.67469
-1.67469
-1.67468
-1.77329
-1.7733
-1.7733
-1.77331
-1.77332
-1.77332
-1.77332
-1.7733
-1.77329
-1.77326
-1.77324
-1.77322
-1.77321
-1.7732
-1.77319
-1.77319
-1.77319
-1.77319
-1.77319
-1.77319
-1.77319
-1.77319
-1.77319
-1.77318
-1.77319
-1.77319
-1.7732
-1.7732
-1.7732
-1.77321
-1.77321
-1.7732
-1.7732
-1.77319
-1.77319
-1.77319
-1.77319
-1.77319
-1.77319
-1.7732
-1.7732
-1.77319
-1.77319
-1.77319
-1.7732
-1.7732
-1.7732
-1.7732
-1.77321
-1.77321
-1.77321
-1.77321
-1.77321
-1.77321
-1.77321
-1.77321
-1.77321
-1.7732
-1.77321
-1.77322
-1.77322
-1.77322
-1.77322
-1.77322
-1.77322
-1.77321
-1.77321
-1.77321
-1.77321
-1.7732
-1.7732
-1.7732
-1.77321
-1.77321
-1.77321
-1.77321
-1.7732
-1.77319
-1.77318
-1.77318
-1.77319
-1.77319
-1.7732
-1.77321
-1.77321
-1.7732
-1.7732
-1.77321
-1.77321
-1.77321
-1.77321
-1.77321
-1.77321
-1.77321
-1.7732
-1.7732
-1.77319
-1.7732
-1.7732
-1.7732
-1.8718
-1.87181
-1.87181
-1.87182
-1.87182
-1.87183
-1.87182
-1.87182
-1.8718
-1.87178
-1.87176
-1.87174
-1.87173
-1.87172
-1.87171
-1.8717
-1.87171
-1.87171
-1.87171
-1.87171
-1.87171
-1.87171
-1.87171
-1.8717
-1.87171
-1.87171
-1.87171
-1.87171
-1.87171
-1.87172
-1.87172
-1.87172
-1.87171
-1.87171
-1.87171
-1.87171
-1.87171
-1.87171
-1.87171
-1.87171
-1.87171
-1.87171
-1.87171
-1.87171
-1.87171
-1.87171
-1.87172
-1.87172
-1.87172
-1.87172
-1.87172
-1.87172
-1.87172
-1.87172
-1.87172
-1.87172
-1.87173
-1.87172
-1.87172
-1.87173
-1.87173
-1.87173
-1.87174
-1.87174
-1.87173
-1.87172
-1.87171
-1.8717
-1.87171
-1.87171
-1.87171
-1.87171
-1.87172
-1.87172
-1.87171
-1.87171
-1.87171
-1.8717
-1.8717
-1.8717
-1.8717
-1.87171
-1.87171
-1.87172
-1.87172
-1.87171
-1.87171
-1.87172
-1.87173
-1.87173
-1.87173
-1.87173
-1.87173
-1.87173
-1.87172
-1.87171
-1.8717
-1.87171
-1.87171
-1.87171
-1.9703
-1.97031
-1.97032
-1.97032
-1.97033
-1.97033
-1.97033
-1.97032
-1.97031
-1.97029
-1.97027
-1.97026
-1.97025
-1.97024
-1.97023
-1.97022
-1.97023
-1.97023
-1.97023
-1.97023
-1.97023
-1.97022
-1.97022
-1.97022
-1.97022
-1.97022
-1.97023
-1.97023
-1.97023
-1.97023
-1.97023
-1.97023
-1.97023
-1.97023
-1.97023
-1.97023
-1.97023
-1.97023
-1.97023
-1.97023
-1.97023
-1.97023
-1.97022
-1.97023
-1.97023
-1.97023
-1.97023
-1.97023
-1.97023
-1.97023
-1.97023
-1.97023
-1.97023
-1.97023
-1.97023
-1.97023
-1.97024
-1.97024
-1.97023
-1.97024
-1.97024
-1.97024
-1.97025
-1.97025
-1.97024
-1.97022
-1.97021
-1.9702
-1.97021
-1.97021
-1.97022
-1.97022
-1.97022
-1.97021
-1.97022
-1.97022
-1.97022
-1.97022
-1.97022
-1.97022
-1.97022
-1.97022
-1.97022
-1.97022
-1.97022
-1.97022
-1.97023
-1.97023
-1.97024
-1.97025
-1.97025
-1.97024
-1.97024
-1.97024
-1.97024
-1.97023
-1.97022
-1.97023
-1.97023
-1.97023
-2.0688
-2.06881
-2.06882
-2.06882
-2.06883
-2.06883
-2.06882
-2.06882
-2.06881
-2.0688
-2.06879
-2.06877
-2.06876
-2.06875
-2.06875
-2.06875
-2.06874
-2.06874
-2.06874
-2.06874
-2.06874
-2.06874
-2.06874
-2.06874
-2.06874
-2.06874
-2.06874
-2.06874
-2.06874
-2.06874
-2.06874
-2.06874
-2.06874
-2.06874
-2.06874
-2.06874
-2.06874
-2.06875
-2.06875
-2.06875
-2.06875
-2.06874
-2.06874
-2.06875
-2.06875
-2.06875
-2.06875
-2.06875
-2.06875
-2.06874
-2.06874
-2.06874
-2.06874
-2.06874
-2.06874
-2.06874
-2.06874
-2.06874
-2.06874
-2.06875
-2.06875
-2.06875
-2.06876
-2.06876
-2.06875
-2.06873
-2.06872
-2.06871
-2.06872
-2.06872
-2.06873
-2.06873
-2.06872
-2.06871
-2.06872
-2.06873
-2.06873
-2.06873
-2.06873
-2.06873
-2.06873
-2.06874
-2.06874
-2.06873
-2.06873
-2.06873
-2.06874
-2.06875
-2.06876
-2.06877
-2.06877
-2.06876
-2.06876
-2.06875
-2.06875
-2.06875
-2.06874
-2.06874
-2.06874
-2.06874
-2.1673
-2.1673
-2.16732
-2.16732
-2.16733
-2.16733
-2.16732
-2.16732
-2.16732
-2.16731
-2.1673
-2.16729
-2.16728
-2.16727
-2.16727
-2.16727
-2.16726
-2.16726
-2.16726
-2.16726
-2.16726
-2.16726
-2.16726
-2.16726
-2.16726
-2.16726
-2.16726
-2.16726
-2.16725
-2.16725
-2.16725
-2.16726
-2.16726
-2.16726
-2.16726
-2.16726
-2.16726
-2.16726
-2.16726
-2.16726
-2.16726
-2.16726
-2.16726
-2.16726
-2.16726
-2.16726
-2.16726
-2.16726
-2.16726
-2.16726
-2.16726
-2.16725
-2.16726
-2.16726
-2.16725
-2.16725
-2.16725
-2.16725
-2.16725
-2.16726
-2.16726
-2.16726
-2.16726
-2.16726
-2.16726
-2.16725
-2.16724
-2.16723
-2.16724
-2.16724
-2.16724
-2.16724
-2.16723
-2.16722
-2.16723
-2.16724
-2.16724
-2.16725
-2.16725
-2.16725
-2.16725
-2.16725
-2.16725
-2.16725
-2.16725
-2.16725
-2.16726
-2.16727
-2.16727
-2.16728
-2.16728
-2.16727
-2.16727
-2.16727
-2.16727
-2.16726
-2.16726
-2.16726
-2.16726
-2.16726
-2.26579
-2.2658
-2.26582
-2.26582
-2.26583
-2.26583
-2.26582
-2.26582
-2.26582
-2.26582
-2.26581
-2.2658
-2.26579
-2.26579
-2.26579
-2.26578
-2.26578
-2.26578
-2.26578
-2.26578
-2.26578
-2.26578
-2.26578
-2.26578
-2.26578
-2.26578
-2.26577
-2.26577
-2.26577
-2.26576
-2.26577
-2.26577
-2.26578
-2.26578
-2.26578
-2.26578
-2.26578
-2.26578
-2.26578
-2.26578
-2.26578
-2.26578
-2.26578
-2.26578
-2.26578
-2.26578
-2.26578
-2.26578
-2.26578
-2.26578
-2.26578
-2.26577
-2.26577
-2.26577
-2.26577
-2.26576
-2.26576
-2.26577
-2.26577
-2.26577
-2.26576
-2.26576
-2.26576
-2.26576
-2.26576
-2.26576
-2.26576
-2.26575
-2.26576
-2.26576
-2.26576
-2.26576
-2.26575
-2.26574
-2.26575
-2.26576
-2.26576
-2.26576
-2.26577
-2.26577
-2.26577
-2.26577
-2.26577
-2.26577
-2.26577
-2.26577
-2.26577
-2.26578
-2.26579
-2.26579
-2.26579
-2.26578
-2.26578
-2.26578
-2.26578
-2.26578
-2.26578
-2.26578
-2.26578
-2.26578
-2.3643
-2.36431
-2.36432
-2.36433
-2.36433
-2.36433
-2.36433
-2.36433
-2.36433
-2.36432
-2.36432
-2.36431
-2.36431
-2.36431
-2.3643
-2.3643
-2.3643
-2.3643
-2.3643
-2.3643
-2.3643
-2.3643
-2.3643
-2.3643
-2.3643
-2.36429
-2.36429
-2.36429
-2.36429
-2.36429
-2.36429
-2.36429
-2.36429
-2.3643
-2.3643
-2.3643
-2.3643
-2.3643
-2.3643
-2.3643
-2.3643
-2.3643
-2.3643
-2.3643
-2.3643
-2.3643
-2.3643
-2.3643
-2.3643
-2.3643
-2.36429
-2.36429
-2.36429
-2.36429
-2.36429
-2.36428
-2.36428
-2.36428
-2.36428
-2.36428
-2.36428
-2.36427
-2.36426
-2.36427
-2.36428
-2.36428
-2.36428
-2.36427
-2.36428
-2.36428
-2.36428
-2.36427
-2.36427
-2.36427
-2.36427
-2.36428
-2.36428
-2.36428
-2.36428
-2.36428
-2.36429
-2.36429
-2.36429
-2.36429
-2.36429
-2.36429
-2.36429
-2.36429
-2.3643
-2.3643
-2.3643
-2.36429
-2.3643
-2.3643
-2.3643
-2.3643
-2.3643
-2.3643
-2.3643
-2.3643
-2.46282
-2.46283
-2.46284
-2.46284
-2.46284
-2.46283
-2.46283
-2.46283
-2.46283
-2.46283
-2.46283
-2.46283
-2.46282
-2.46282
-2.46282
-2.46282
-2.46282
-2.46282
-2.46282
-2.46282
-2.46282
-2.46282
-2.46281
-2.46281
-2.46281
-2.46281
-2.46281
-2.46281
-2.46281
-2.46281
-2.46281
-2.46281
-2.46281
-2.46281
-2.46282
-2.46282
-2.46282
-2.46282
-2.46282
-2.46282
-2.46282
-2.46282
-2.46282
-2.46282
-2.46282
-2.46282
-2.46282
-2.46282
-2.46281
-2.46281
-2.46281
-2.46281
-2.46281
-2.46281
-2.4628
-2.4628
-2.4628
-2.4628
-2.4628
-2.4628
-2.46279
-2.46279
-2.46278
-2.46279
-2.46279
-2.46279
-2.46279
-2.46279
-2.46279
-2.4628
-2.46279
-2.46279
-2.46279
-2.46279
-2.46279
-2.4628
-2.4628
-2.4628
-2.4628
-2.4628
-2.4628
-2.46281
-2.46281
-2.46281
-2.46281
-2.46281
-2.46281
-2.46281
-2.46281
-2.46281
-2.46281
-2.46281
-2.46281
-2.46281
-2.46281
-2.46281
-2.46281
-2.46281
-2.46281
-2.46281
-2.56134
-2.56135
-2.56135
-2.56135
-2.56134
-2.56134
-2.56134
-2.56134
-2.56134
-2.56134
-2.56134
-2.56134
-2.56134
-2.56134
-2.56134
-2.56134
-2.56134
-2.56134
-2.56133
-2.56133
-2.56133
-2.56133
-2.56133
-2.56133
-2.56133
-2.56133
-2.56133
-2.56133
-2.56133
-2.56133
-2.56133
-2.56133
-2.56133
-2.56133
-2.56133
-2.56133
-2.56134
-2.56134
-2.56134
-2.56134
-2.56134
-2.56134
-2.56134
-2.56134
-2.56134
-2.56134
-2.56133
-2.56133
-2.56133
-2.56133
-2.56133
-2.56133
-2.56133
-2.56133
-2.56132
-2.56132
-2.56132
-2.56132
-2.56132
-2.56131
-2.56131
-2.56131
-2.5613
-2.56131
-2.56131
-2.56131
-2.56131
-2.56131
-2.56131
-2.56131
-2.56131
-2.56131
-2.56131
-2.56131
-2.56132
-2.56132
-2.56132
-2.56132
-2.56132
-2.56132
-2.56132
-2.56132
-2.56132
-2.56132
-2.56132
-2.56133
-2.56133
-2.56132
-2.56132
-2.56132
-2.56132
-2.56132
-2.56132
-2.56133
-2.56133
-2.56133
-2.56133
-2.56133
-2.56133
-2.56133
-2.65986
-2.65987
-2.65986
-2.65986
-2.65985
-2.65985
-2.65985
-2.65985
-2.65985
-2.65985
-2.65985
-2.65985
-2.65985
-2.65985
-2.65985
-2.65985
-2.65985
-2.65985
-2.65985
-2.65985
-2.65985
-2.65985
-2.65985
-2.65985
-2.65985
-2.65985
-2.65985
-2.65985
-2.65985
-2.65985
-2.65985
-2.65985
-2.65985
-2.65985
-2.65985
-2.65985
-2.65985
-2.65985
-2.65985
-2.65985
-2.65985
-2.65985
-2.65985
-2.65985
-2.65985
-2.65985
-2.65985
-2.65985
-2.65985
-2.65985
-2.65985
-2.65985
-2.65985
-2.65984
-2.65984
-2.65984
-2.65984
-2.65984
-2.65984
-2.65983
-2.65983
-2.65983
-2.65983
-2.65983
-2.65983
-2.65983
-2.65983
-2.65983
-2.65983
-2.65983
-2.65983
-2.65983
-2.65983
-2.65984
-2.65984
-2.65984
-2.65984
-2.65984
-2.65984
-2.65984
-2.65984
-2.65984
-2.65984
-2.65984
-2.65984
-2.65984
-2.65984
-2.65984
-2.65984
-2.65984
-2.65983
-2.65984
-2.65984
-2.65984
-2.65985
-2.65985
-2.65985
-2.65985
-2.65985
-2.65985
-2.75837
-2.75837
-2.75837
-2.75837
-2.75836
-2.75836
-2.75836
-2.75836
-2.75837
-2.75837
-2.75837
-2.75837
-2.75837
-2.75837
-2.75837
-2.75837
-2.75837
-2.75837
-2.75837
-2.75837
-2.75837
-2.75837
-2.75837
-2.75837
-2.75837
-2.75837
-2.75837
-2.75837
-2.75837
-2.75837
-2.75837
-2.75837
-2.75837
-2.75837
-2.75837
-2.75837
-2.75837
-2.75837
-2.75837
-2.75837
-2.75837
-2.75837
-2.75837
-2.75837
-2.75837
-2.75837
-2.75837
-2.75837
-2.75837
-2.75837
-2.75837
-2.75837
-2.75837
-2.75836
-2.75836
-2.75836
-2.75836
-2.75836
-2.75836
-2.75835
-2.75835
-2.75835
-2.75835
-2.75835
-2.75835
-2.75835
-2.75835
-2.75835
-2.75835
-2.75835
-2.75835
-2.75836
-2.75836
-2.75836
-2.75836
-2.75836
-2.75836
-2.75836
-2.75836
-2.75836
-2.75836
-2.75836
-2.75836
-2.75836
-2.75836
-2.75836
-2.75836
-2.75836
-2.75836
-2.75836
-2.75835
-2.75836
-2.75836
-2.75836
-2.75836
-2.75837
-2.75837
-2.75837
-2.75837
-2.75837
-2.85688
-2.85688
-2.85688
-2.85687
-2.85687
-2.85687
-2.85687
-2.85688
-2.85688
-2.85688
-2.85688
-2.85689
-2.85689
-2.85689
-2.85689
-2.85689
-2.85689
-2.85689
-2.85689
-2.85689
-2.85689
-2.85689
-2.85689
-2.85689
-2.85689
-2.85689
-2.85689
-2.85689
-2.85689
-2.85689
-2.85689
-2.85689
-2.85689
-2.85689
-2.85689
-2.85689
-2.85689
-2.85689
-2.85689
-2.85689
-2.85689
-2.85689
-2.85689
-2.85689
-2.85689
-2.85689
-2.85689
-2.85689
-2.85689
-2.85689
-2.85689
-2.85689
-2.85688
-2.85688
-2.85688
-2.85688
-2.85688
-2.85688
-2.85688
-2.85688
-2.85687
-2.85687
-2.85687
-2.85687
-2.85687
-2.85687
-2.85687
-2.85687
-2.85687
-2.85687
-2.85688
-2.85688
-2.85688
-2.85688
-2.85688
-2.85688
-2.85688
-2.85688
-2.85688
-2.85688
-2.85688
-2.85688
-2.85688
-2.85688
-2.85688
-2.85688
-2.85688
-2.85688
-2.85688
-2.85688
-2.85688
-2.85688
-2.85688
-2.85688
-2.85688
-2.85688
-2.85688
-2.85689
-2.85689
-2.85689
-2.95539
-2.95539
-2.95539
-2.95539
-2.95539
-2.95539
-2.95539
-2.95539
-2.9554
-2.9554
-2.9554
-2.9554
-2.9554
-2.9554
-2.95541
-2.95541
-2.95541
-2.95541
-2.95541
-2.95541
-2.95541
-2.95541
-2.95541
-2.95541
-2.95541
-2.95541
-2.95541
-2.95541
-2.95541
-2.95541
-2.95541
-2.95541
-2.95541
-2.95541
-2.95541
-2.95541
-2.95541
-2.95541
-2.95541
-2.95541
-2.95541
-2.95541
-2.95541
-2.95541
-2.95541
-2.95541
-2.95541
-2.95541
-2.95541
-2.95541
-2.95541
-2.95541
-2.9554
-2.9554
-2.9554
-2.9554
-2.9554
-2.9554
-2.9554
-2.9554
-2.95539
-2.95539
-2.95539
-2.95539
-2.95539
-2.95539
-2.95539
-2.95539
-2.95539
-2.9554
-2.9554
-2.9554
-2.9554
-2.9554
-2.9554
-2.9554
-2.9554
-2.9554
-2.9554
-2.9554
-2.9554
-2.9554
-2.9554
-2.9554
-2.9554
-2.9554
-2.9554
-2.9554
-2.9554
-2.9554
-2.9554
-2.9554
-2.9554
-2.9554
-2.9554
-2.9554
-2.9554
-2.9554
-2.9554
-2.9554
-3.0539
-3.0539
-3.0539
-3.0539
-3.0539
-3.0539
-3.05391
-3.05391