/*--------------------------------*- C++ -*----------------------------------*\
| =========                 |                                                 |
| \\      /  F ield         | OpenFOAM: The Open Source CFD Toolbox           |
|  \\    /   O peration     | Version:  4.1                                   |
|   \\  /    A nd           | Web:      www.OpenFOAM.org                      |
|    \\/     M anipulation  |                                                 |
\*---------------------------------------------------------------------------*/
FoamFile
{
    version     2.0;
    format      ascii;
    class       volScalarField;
    location    "80";
    object      T;
}
// * * * * * * * * * * * * * * * * * * * * * * * * * * * * * * * * * * * * * //

dimensions      [0 0 0 1 0 0 0];

internalField   nonuniform List<scalar> 
5000
(
281.706
281.097
280.703
280.73
280.783
280.854
280.95
281.075
281.229
281.386
281.562
281.795
282.025
282.14
281.996
281.506
281.167
280.935
280.764
280.612
280.638
280.791
281.034
281.348
281.628
281.95
282.378
282.095
281.653
281.373
281.183
281.195
281.878
281.436
280.87
281.219
281.652
282.147
282.104
281.486
281.315
281.994
282.117
281.868
282.1
282.339
282.209
282.145
282.061
281.847
281.611
281.414
281.333
281.365
281.49
281.494
281.199
280.968
280.813
280.701
280.935
281.302
281.686
281.358
280.715
281.392
281.751
281.411
281.054
280.765
280.571
280.713
280.913
281.148
281.509
281.969
281.005
281.126
281.369
281.693
281.692
281.184
280.721
280.864
281.392
281.854
281.716
281.368
281.048
281.021
281.084
281.261
281.547
281.833
282.05
282.132
282.113
282.115
282.176
282.35
281.264
280.24
280.168
280.185
280.217
280.256
280.289
280.306
280.336
280.458
280.73
281.15
281.393
281.373
281.704
281.272
280.756
280.558
280.537
280.398
280.353
280.423
280.541
281.068
280.686
280.678
281.661
281.816
281.019
280.686
280.645
280.637
281.512
280.787
280.527
280.675
280.881
281.811
281.354
280.678
280.673
281.507
281.123
280.884
281.111
281.398
280.871
280.976
281.176
281.091
280.749
280.566
280.604
280.664
280.759
281.049
280.555
280.416
280.452
280.443
280.449
280.826
281.282
280.576
280.336
280.4
281.361
280.917
280.365
280.347
280.305
280.352
280.353
280.628
281.261
280.675
280.451
280.462
280.678
281.352
281.271
280.53
280.317
280.354
280.862
281.443
281.292
280.782
280.619
280.547
280.519
280.556
280.715
280.97
281.107
281.068
280.934
280.821
280.976
281.629
281.153
280.203
280.163
280.191
280.245
280.316
280.385
280.417
280.432
280.483
280.703
281.042
281.125
281.144
281.625
281.361
280.976
280.834
280.695
280.463
280.388
280.547
280.717
281.189
280.644
280.563
281.383
281.783
281.14
280.876
280.658
280.643
281.386
280.8
280.54
280.76
281.054
281.548
281.029
280.648
280.697
281.369
280.926
280.872
280.973
281.145
280.751
280.802
280.918
280.974
280.828
280.639
280.668
280.68
280.66
281.032
280.547
280.471
280.532
280.492
280.484
280.766
281.065
280.408
280.365
280.43
281.19
280.827
280.383
280.344
280.322
280.437
280.441
280.723
281.275
280.415
280.405
280.487
280.663
281.307
281.078
280.412
280.311
280.362
280.74
281.207
281.163
280.866
280.656
280.573
280.542
280.575
280.685
280.787
280.826
280.805
280.761
280.723
280.801
281.381
281.131
280.19
280.158
280.201
280.275
280.38
280.502
280.563
280.567
280.59
280.845
281.017
281.061
281.203
281.583
281.453
281.014
280.975
280.718
280.48
280.41
280.69
280.949
281.262
280.731
280.649
281.427
281.785
281.281
281.21
280.661
280.649
281.307
280.813
280.548
280.832
281.094
281.306
280.796
280.622
280.75
281.34
280.931
280.931
280.984
281.164
280.778
280.765
280.827
280.893
280.99
280.876
280.797
280.753
280.674
281.051
280.739
280.548
280.627
280.54
280.469
280.702
280.98
280.367
280.392
280.434
281.066
280.816
280.41
280.34
280.338
280.545
280.68
280.9
281.196
280.4
280.434
280.596
280.874
281.281
280.957
280.296
280.309
280.381
280.455
280.96
281.036
280.703
280.581
280.567
280.57
280.616
280.682
280.712
280.728
280.731
280.734
280.728
280.783
281.291
281.108
280.195
280.157
280.211
280.299
280.435
280.614
280.774
280.692
280.771
280.95
281.015
281.118
281.277
281.489
281.406
280.587
280.662
280.516
280.406
280.419
280.778
281.032
281.133
280.811
281.192
281.504
281.698
281.252
281.159
280.659
280.666
281.236
280.814
280.525
280.82
281.066
281.105
280.663
280.581
280.718
281.347
281.087
281.153
281.059
281.168
281
280.934
280.892
280.782
280.768
280.739
280.744
280.759
280.711
281.014
280.879
280.811
280.766
280.619
280.459
280.657
280.949
280.464
280.423
280.43
280.958
280.813
280.431
280.335
280.357
280.669
280.771
280.905
280.98
280.406
280.497
280.845
281.052
281.268
280.935
280.258
280.313
280.414
280.425
280.82
280.95
280.541
280.539
280.608
280.653
280.755
280.742
280.802
280.82
280.842
280.827
280.797
280.819
281.275
281.05
280.183
280.159
280.219
280.315
280.466
280.673
280.825
280.814
280.887
280.989
281.019
281.112
281.196
281.214
280.986
280.337
280.371
280.315
280.347
280.466
280.836
280.978
280.863
280.95
281.269
281.46
281.446
280.768
280.953
280.576
280.7
281.189
280.82
280.474
280.738
281.031
280.985
280.595
280.505
280.543
281.074
281.085
281.144
281.073
281.114
281.071
281.027
280.989
280.963
280.874
280.779
280.741
280.75
280.71
280.915
280.892
280.858
280.826
280.679
280.484
280.596
280.883
280.661
280.476
280.428
280.855
280.807
280.448
280.331
280.352
280.671
280.767
280.784
280.632
280.417
280.605
280.98
281.17
281.27
281.024
280.226
280.328
280.477
280.517
280.797
280.927
280.47
280.579
280.707
280.808
280.845
280.816
280.975
280.997
280.96
280.941
280.906
280.889
281.309
280.953
280.154
280.161
280.218
280.307
280.449
280.651
280.845
280.897
280.942
280.983
280.973
280.997
280.959
280.777
280.384
280.234
280.212
280.253
280.392
280.619
280.839
280.9
280.783
280.972
281.212
281.302
281.113
280.58
280.9
280.514
280.772
281.162
280.847
280.413
280.622
281.018
280.978
280.628
280.461
280.293
280.272
280.4
280.596
280.656
280.761
280.808
280.845
280.876
280.891
280.858
280.777
280.723
280.725
280.691
280.698
280.746
280.771
280.773
280.653
280.48
280.515
280.793
280.72
280.527
280.432
280.754
280.799
280.468
280.323
280.308
280.62
280.744
280.682
280.473
280.443
280.676
281.041
281.222
281.203
280.829
280.202
280.363
280.588
280.762
280.814
280.856
280.484
280.626
280.674
280.709
280.778
280.892
280.994
281.038
281.076
281.08
281.051
281.037
281.362
280.82
280.135
280.162
280.208
280.278
280.39
280.562
280.78
280.923
280.967
280.964
280.902
280.858
280.739
280.489
280.24
280.192
280.2
280.293
280.515
280.738
280.833
280.834
280.756
280.897
281.088
281.1
280.761
280.528
280.869
280.481
280.768
281.146
280.893
280.359
280.522
281.014
281.021
280.849
280.535
280.298
280.263
280.324
280.45
280.451
280.446
280.502
280.589
280.692
280.767
280.762
280.695
280.655
280.665
280.64
280.575
280.601
280.661
280.703
280.578
280.433
280.451
280.704
280.73
280.532
280.433
280.669
280.788
280.516
280.32
280.257
280.544
280.735
280.644
280.484
280.454
280.694
281.054
281.207
281.032
280.393
280.171
280.404
280.624
280.683
280.663
280.567
280.473
280.534
280.535
280.578
280.688
280.828
280.929
281.026
281.141
281.205
281.216
281.228
281.421
280.664
280.138
280.164
280.199
280.249
280.327
280.452
280.639
280.853
280.958
280.95
280.838
280.752
280.599
280.351
280.207
280.195
280.214
280.328
280.562
280.766
280.815
280.76
280.673
280.772
280.938
280.952
280.447
280.442
280.805
280.452
280.705
281.114
280.901
280.314
280.443
280.987
281.039
280.953
280.557
280.303
280.261
280.328
280.462
280.35
280.356
280.388
280.483
280.622
280.708
280.671
280.586
280.563
280.585
280.56
280.505
280.511
280.588
280.648
280.474
280.361
280.395
280.633
280.729
280.494
280.418
280.612
280.777
280.591
280.326
280.214
280.48
280.742
280.643
280.497
280.441
280.669
281.038
281.174
280.91
280.352
280.17
280.401
280.583
280.552
280.461
280.372
280.407
280.434
280.408
280.424
280.499
280.588
280.652
280.752
280.915
281.092
281.227
281.322
281.446
280.527
280.149
280.17
280.195
280.228
280.282
280.367
280.502
280.705
280.879
280.923
280.784
280.689
280.528
280.304
280.218
280.21
280.207
280.301
280.524
280.76
280.8
280.687
280.561
280.602
280.748
280.955
280.292
280.336
280.735
280.399
280.592
281.027
280.791
280.273
280.36
280.718
281.028
280.87
280.463
280.259
280.25
280.347
280.459
280.258
280.331
280.394
280.521
280.666
280.641
280.516
280.447
280.46
280.5
280.468
280.426
280.441
280.546
280.571
280.347
280.288
280.354
280.595
280.74
280.427
280.396
280.588
280.774
280.667
280.34
280.18
280.437
280.758
280.662
280.506
280.406
280.606
281.005
281.155
280.869
280.353
280.155
280.352
280.573
280.482
280.375
280.322
280.336
280.359
280.314
280.298
280.339
280.414
280.439
280.355
280.346
280.433
280.565
280.718
280.902
280.433
280.161
280.177
280.191
280.211
280.245
280.304
280.399
280.549
280.735
280.846
280.737
280.66
280.506
280.313
280.257
280.232
280.183
280.228
280.416
280.69
280.814
280.648
280.42
280.336
280.326
280.476
280.213
280.245
280.673
280.338
280.454
280.881
280.62
280.235
280.261
280.455
281.068
280.622
280.304
280.188
280.243
280.375
280.231
280.171
280.368
280.515
280.652
280.594
280.415
280.339
280.33
280.394
280.431
280.386
280.36
280.398
280.533
280.4
280.228
280.247
280.353
280.6
280.768
280.354
280.383
280.601
280.785
280.751
280.356
280.153
280.407
280.782
280.693
280.517
280.358
280.511
280.944
281.148
280.9
280.371
280.136
280.274
280.603
280.469
280.347
280.288
280.28
280.322
280.278
280.233
280.236
280.28
280.383
280.409
280.308
280.256
280.201
280.146
280.061
280.377
280.174
280.188
280.191
280.197
280.212
280.247
280.312
280.418
280.579
280.722
280.7
280.657
280.522
280.362
280.325
280.28
280.168
280.148
280.276
280.521
280.831
280.734
280.508
280.366
280.21
280.101
280.143
280.199
280.638
280.285
280.335
280.727
280.516
280.211
280.173
280.352
281.054
280.39
280.153
280.131
280.262
280.355
280.171
280.152
280.432
280.67
280.716
280.331
280.258
280.249
280.286
280.401
280.383
280.33
280.325
280.387
280.546
280.276
280.167
280.255
280.4
280.648
280.807
280.295
280.386
280.654
280.81
280.837
280.369
280.131
280.377
280.812
280.736
280.54
280.311
280.394
280.81
281.135
280.901
280.391
280.128
280.194
280.667
280.507
280.373
280.289
280.238
280.277
280.303
280.228
280.21
280.218
280.271
280.471
280.393
280.374
280.33
280.195
280.054
280.346
280.192
280.208
280.204
280.193
280.189
280.198
280.234
280.309
280.43
280.591
280.666
280.669
280.568
280.439
280.444
280.376
280.183
280.089
280.157
280.34
280.696
280.843
280.718
280.645
280.275
280.114
280.16
280.279
280.609
280.249
280.268
280.581
280.505
280.232
280.088
280.092
280.416
280.08
280.037
280.115
280.354
280.334
280.152
280.139
280.359
280.725
280.384
280.224
280.193
280.224
280.318
280.485
280.339
280.296
280.327
280.419
280.589
280.213
280.143
280.303
280.494
280.728
280.824
280.258
280.405
280.729
280.844
280.907
280.371
280.113
280.343
280.843
280.787
280.584
280.283
280.293
280.613
281.107
280.79
280.358
280.125
280.153
280.69
280.592
280.456
280.343
280.228
280.224
280.364
280.25
280.213
280.202
280.236
280.395
280.442
280.476
280.497
280.211
280.047
280.333
280.216
280.244
280.24
280.214
280.188
280.169
280.171
280.211
280.299
280.44
280.604
280.676
280.622
280.521
280.586
280.525
280.23
280.061
280.075
280.19
280.41
280.91
280.851
280.697
280.312
280.125
280.171
280.369
280.568
280.225
280.239
280.454
280.54
280.322
280.093
280.017
280.002
280.003
280.026
280.137
280.438
280.344
280.146
280.078
280.223
280.774
280.23
280.139
280.171
280.258
280.436
280.57
280.269
280.279
280.383
280.5
280.659
280.182
280.138
280.383
280.637
280.784
280.794
280.245
280.426
280.779
280.881
280.94
280.361
280.097
280.304
280.862
280.839
280.636
280.278
280.234
280.492
281.083
280.638
280.311
280.112
280.124
280.678
280.661
280.585
280.468
280.254
280.189
280.426
280.312
280.23
280.196
280.209
280.3
280.498
280.539
280.633
280.194
280.041
280.33
280.244
280.293
280.305
280.275
280.224
280.177
280.14
280.138
280.185
280.287
280.455
280.637
280.666
280.602
280.661
280.711
280.295
280.056
280.03
280.097
280.279
280.797
280.876
280.586
280.242
280.102
280.178
280.411
280.52
280.207
280.215
280.369
280.602
280.331
280.105
280.019
280.002
280.002
280.028
280.14
280.475
280.417
280.174
280.027
280.016
280.085
280.045
280.084
280.201
280.397
280.452
280.202
280.155
280.303
280.51
280.614
280.728
280.17
280.144
280.501
280.734
280.807
280.693
280.246
280.423
280.789
280.915
280.923
280.34
280.084
280.26
280.847
280.882
280.693
280.286
280.195
280.439
281.068
280.598
280.267
280.091
280.102
280.638
280.702
280.667
280.555
280.307
280.189
280.408
280.392
280.266
280.196
280.188
280.297
280.529
280.579
280.574
280.16
280.034
280.334
280.271
280.351
280.399
280.387
280.313
280.232
280.153
280.103
280.105
280.162
280.279
280.485
280.678
280.662
280.719
280.722
280.35
280.061
280.008
280.029
280.104
280.318
280.842
280.375
280.123
280.067
280.19
280.443
280.484
280.193
280.173
280.305
280.65
280.276
280.085
280.017
280.002
280.002
280.026
280.119
280.429
280.482
280.238
280.033
280.002
280.004
280.027
280.116
280.312
280.496
280.429
280.093
280.161
280.442
280.658
280.704
280.773
280.157
280.16
280.535
280.789
280.805
280.554
280.238
280.401
280.771
280.942
280.849
280.308
280.072
280.216
280.777
280.907
280.75
280.308
280.154
280.357
281.042
280.514
280.197
280.059
280.085
280.563
280.712
280.71
280.558
280.318
280.194
280.339
280.406
280.355
280.203
280.16
280.246
280.463
280.615
280.313
280.117
280.024
280.342
280.289
280.397
280.494
280.538
280.481
280.339
280.214
280.113
280.066
280.076
280.142
280.277
280.543
280.695
280.751
280.604
280.27
280.065
280.003
280.004
280.024
280.102
280.548
280.119
280.028
280.051
280.207
280.467
280.485
280.206
280.119
280.19
280.586
280.164
280.04
280.007
280.001
280.002
280.018
280.086
280.243
280.538
280.224
280.043
280.002
280.006
280.039
280.161
280.403
280.545
280.427
280.071
280.204
280.528
280.723
280.742
280.742
280.125
280.168
280.52
280.818
280.796
280.452
280.218
280.357
280.726
280.968
280.727
280.266
280.059
280.178
280.66
280.924
280.788
280.354
280.116
280.21
280.9
280.321
280.095
280.025
280.073
280.451
280.7
280.715
280.514
280.281
280.177
280.273
280.392
280.411
280.225
280.134
280.174
280.353
280.658
280.261
280.087
280.016
280.353
280.3
280.421
280.552
280.657
280.664
280.501
280.325
280.165
280.068
280.034
280.048
280.111
280.257
280.584
280.717
280.39
280.142
280.032
280.002
280
280.001
280.005
280.053
280.004
280.008
280.054
280.199
280.474
280.522
280.276
280.102
280.047
280.198
280.032
280.005
280.001
280
280.001
280.008
280.044
280.157
280.537
280.156
280.027
280.002
280.009
280.05
280.17
280.38
280.563
280.455
280.061
280.21
280.507
280.735
280.714
280.539
280.077
280.169
280.491
280.827
280.798
280.415
280.189
280.286
280.647
281.003
280.595
280.211
280.044
280.146
280.541
280.951
280.782
280.397
280.11
280.041
280.328
280.067
280.012
280.006
280.066
280.318
280.702
280.681
280.417
280.212
280.146
280.235
280.38
280.449
280.336
280.125
280.108
280.259
280.666
280.209
280.053
280.008
280.368
280.312
280.429
280.566
280.696
280.779
280.744
280.475
280.252
280.102
280.032
280.011
280.019
280.057
280.184
280.523
280.144
280.035
280.006
280
280
280
280
280
280.001
280.008
280.05
280.171
280.438
280.563
280.359
280.142
280.032
280.005
280.002
280
280
280
280
280.002
280.013
280.07
280.337
280.055
280.006
280.001
280.008
280.042
280.137
280.315
280.532
280.504
280.048
280.181
280.445
280.713
280.676
280.243
280.043
280.161
280.455
280.817
280.821
280.423
280.16
280.19
280.509
281.013
280.475
280.147
280.027
280.12
280.452
280.992
280.735
280.364
280.121
280.023
280.003
280.001
280
280.004
280.06
280.243
280.75
280.58
280.286
280.132
280.116
280.229
280.387
280.482
280.399
280.141
280.053
280.113
280.466
280.095
280.017
280.002
280.385
280.334
280.434
280.561
280.686
280.785
280.816
280.661
280.363
280.155
280.05
280.012
280.002
280.003
280.013
280.094
280.008
280.001
280
280
280
280
280
280
280.001
280.006
280.035
280.128
280.349
280.598
280.371
280.152
280.04
280.007
280.001
280
280
280
280
280
280
280.004
280.035
280.002
280
280
280.004
280.023
280.082
280.212
280.424
280.518
280.033
280.14
280.363
280.656
280.699
280.159
280.032
280.146
280.412
280.781
280.865
280.461
280.149
280.093
280.303
280.914
280.309
280.076
280.013
280.088
280.377
281.002
280.634
280.284
280.092
280.019
280.003
280
280
280.003
280.043
280.217
280.748
280.396
280.15
280.066
280.105
280.255
280.415
280.518
280.421
280.186
280.044
280.009
280.033
280.003
280
280
280.408
280.369
280.446
280.552
280.664
280.761
280.805
280.731
280.487
280.217
280.076
280.02
280.004
280.001
280
280
280
280
280
280
280
280
280
280
280
280.002
280.017
280.076
280.245
280.604
280.312
280.113
280.029
280.005
280.001
280
280
280
280
280
280
280
280
280
280
280
280.001
280.007
280.03
280.093
280.233
280.386
280.021
280.094
280.265
280.549
280.737
280.122
280.024
280.122
280.357
280.717
280.92
280.5
280.162
280.037
280.109
280.597
280.13
280.022
280.004
280.048
280.259
280.919
280.463
280.171
280.047
280.009
280.001
280
280
280.001
280.018
280.122
280.58
280.17
280.046
280.034
280.119
280.305
280.459
280.549
280.401
280.189
280.058
280.011
280.001
280
280
280
280.437
280.413
280.467
280.55
280.645
280.735
280.782
280.714
280.515
280.275
280.106
280.03
280.007
280.001
280
280
280
280
280
280
280
280
280
280
280
280.001
280.005
280.031
280.139
280.513
280.192
280.053
280.011
280.002
280
280
280
280
280
280
280
280
280
280
280
280
280
280.001
280.004
280.017
280.056
280.141
280.01
280.048
280.157
280.391
280.677
280.079
280.016
280.091
280.283
280.625
280.953
280.489
280.17
280.028
280.014
280.201
280.027
280.003
280.001
280.014
280.119
280.667
280.248
280.068
280.014
280.002
280
280
280
280
280.003
280.029
280.24
280.034
280.008
280.032
280.143
280.353
280.51
280.56
280.356
280.162
280.055
280.013
280.002
280
280
280
280.462
280.453
280.49
280.554
280.635
280.718
280.758
280.682
280.494
280.279
280.123
280.041
280.01
280.002
280
280
280
280
280
280
280
280
280
280
280
280
280.001
280.006
280.045
280.294
280.068
280.013
280.002
280
280
280
280
280
280
280
280
280
280
280
280
280
280
280
280
280.001
280.004
280.013
280.003
280.016
280.065
280.207
280.467
280.017
280.009
280.055
280.194
280.498
280.928
280.409
280.128
280.024
280.002
280.025
280.002
280
280
280.002
280.028
280.31
280.081
280.015
280.002
280
280
280
280
280
280
280.001
280.025
280.002
280.004
280.037
280.158
280.373
280.558
280.529
280.293
280.125
280.041
280.009
280.001
280
280
280
280.438
280.453
280.493
280.555
280.632
280.709
280.731
280.635
280.447
280.254
280.117
280.043
280.012
280.003
280
280
280
280
280
280
280
280
280
280
280
280
280
280
280.005
280.082
280.01
280.001
280
280
280
280
280
280
280
280
280
280
280
280
280
280
280
280
280
280
280
280
280
280.003
280.016
280.067
280.193
280.001
280.004
280.024
280.105
280.331
280.788
280.272
280.068
280.011
280.001
280.001
280
280
280
280
280.002
280.075
280.014
280.002
280
280
280
280
280
280
280
280
280
280
280.005
280.036
280.143
280.353
280.588
280.447
280.218
280.082
280.024
280.005
280.001
280
280
280
280.312
280.399
280.476
280.555
280.638
280.704
280.694
280.568
280.38
280.211
280.098
280.037
280.011
280.003
280.001
280
280
280
280
280
280
280
280
280
280
280
280
280
280
280.007
280
280
280
280
280
280
280
280
280
280
280
280
280
280
280
280
280
280
280
280
280
280
280
280
280.002
280.012
280.039
280
280.001
280.007
280.04
280.163
280.515
280.128
280.024
280.003
280
280
280
280
280
280
280
280.008
280.001
280
280
280
280
280
280
280
280
280
280
280
280.003
280.023
280.1
280.288
280.579
280.329
280.136
280.043
280.011
280.002
280
280
280
280
280.175
280.362
280.477
280.572
280.652
280.689
280.632
280.48
280.301
280.161
280.072
280.027
280.008
280.002
280
280
280
280
280
280
280
280
280
280
280
280
280
280
280
280
280
280
280
280
280
280
280
280
280
280
280
280
280
280
280
280
280
280
280
280
280
280
280
280
280
280.001
280.004
280
280
280.002
280.01
280.053
280.223
280.038
280.005
280.001
280
280
280
280
280
280
280
280
280
280
280
280
280
280
280
280
280
280
280
280
280.001
280.009
280.048
280.182
280.49
280.203
280.065
280.016
280.003
280
280
280
280
280
280.14
280.388
280.51
280.6
280.655
280.644
280.54
280.376
280.219
280.11
280.047
280.017
280.005
280.001
280
280
280
280
280
280
280
280
280
280
280
280
280
280
280
280
280
280
280
280
280
280
280
280
280
280
280
280
280
280
280
280
280
280
280
280
280
280
280
280
280
280
280
280
280
280
280.002
280.011
280.058
280.007
280.001
280
280
280
280
280
280
280
280
280
280
280
280
280
280
280
280
280
280
280
280
280
280
280.002
280.014
280.078
280.309
280.09
280.021
280.004
280.001
280
280
280
280
280
280.132
280.411
280.544
280.609
280.62
280.556
280.423
280.268
280.143
280.066
280.026
280.009
280.002
280.001
280
280
280
280
280
280
280
280
280
280
280
280
280
280
280
280
280
280
280
280
280
280
280
280
280
280
280
280
280
280
280
280
280
280
280
280
280
280
280
280
280
280
280
280
280
280
280
280.002
280.009
280.001
280
280
280
280
280
280
280
280
280
280
280
280
280
280
280
280
280
280
280
280
280
280
280
280
280.002
280.019
280.121
280.025
280.004
280
280
280
280
280
280
280
280.11
280.381
280.54
280.572
280.534
280.432
280.295
280.168
280.081
280.034
280.012
280.004
280.001
280
280
280
280
280
280
280
280
280
280
280
280
280
280
280
280
280
280
280
280
280
280
280
280
280
280
280
280
280
280
280
280
280
280
280
280
280
280
280
280
280
280
280
280
280
280
280
280
280
280.001
280
280
280
280
280
280
280
280
280
280
280
280
280
280
280
280
280
280
280
280
280
280
280
280
280
280
280.003
280.025
280.004
280
280
280
280
280
280
280
280
280.069
280.302
280.48
280.476
280.403
280.291
280.177
280.09
280.038
280.014
280.004
280.001
280
280
280
280
280
280
280
280
280
280
280
280
280
280
280
280
280
280
280
280
280
280
280
280
280
280
280
280
280
280
280
280
280
280
280
280
280
280
280
280
280
280
280
280
280
280
280
280
280
280
280
280
280
280
280
280
280
280
280
280
280
280
280
280
280
280
280
280
280
280
280
280
280
280
280
280
280
280
280.003
280
280
280
280
280
280
280
280
280
280.034
280.2
280.368
280.336
280.256
280.165
280.089
280.04
280.015
280.005
280.001
280
280
280
280
280
280
280
280
280
280
280
280
280
280
280
280
280
280
280
280
280
280
280
280
280
280
280
280
280
280
280
280
280
280
280
280
280
280
280
280
280
280
280
280
280
280
280
280
280
280
280
280
280
280
280
280
280
280
280
280
280
280
280
280
280
280
280
280
280
280
280
280
280
280
280
280
280
280
280
280
280
280
280
280
280
280
280
280
280
280.013
280.109
280.23
280.193
280.133
280.076
280.036
280.015
280.005
280.001
280
280
280
280
280
280
280
280
280
280
280
280
280
280
280
280
280
280
280
280
280
280
280
280
280
280
280
280
280
280
280
280
280
280
280
280
280
280
280
280
280
280
280
280
280
280
280
280
280
280
280
280
280
280
280
280
280
280
280
280
280
280
280
280
280
280
280
280
280
280
280
280
280
280
280
280
280
280
280
280
280
280
280
280
280
280
280
280
280
280
280.004
280.05
280.112
280.087
280.054
280.028
280.012
280.004
280.001
280
280
280
280
280
280
280
280
280
280
280
280
280
280
280
280
280
280
280
280
280
280
280
280
280
280
280
280
280
280
280
280
280
280
280
280
280
280
280
280
280
280
280
280
280
280
280
280
280
280
280
280
280
280
280
280
280
280
280
280
280
280
280
280
280
280
280
280
280
280
280
280
280
280
280
280
280
280
280
280
280
280
280
280
280
280
280
280
280
280
280
280.001
280.019
280.041
280.031
280.018
280.008
280.003
280.001
280
280
280
280
280
280
280
280
280
280
280
280
280
280
280
280
280
280
280
280
280
280
280
280
280
280
280
280
280
280
280
280
280
280
280
280
280
280
280
280
280
280
280
280
280
280
280
280
280
280
280
280
280
280
280
280
280
280
280
280
280
280
280
280
280
280
280
280
280
280
280
280
280
280
280
280
280
280
280
280
280
280
280
280
280
280
280
280
280
280
280
280
280
280.006
280.012
280.008
280.005
280.002
280.001
280
280
280
280
280
280
280
280
280
280
280
280
280
280
280
280
280
280
280
280
280
280
280
280
280
280
280
280
280
280
280
280
280
280
280
280
280
280
280
280
280
280
280
280
280
280
280
280
280
280
280
280
280
280
280
280
280
280
280
280
280
280
280
280
280
280
280
280
280
280
280
280
280
280
280
280
280
280
280
280
280
280
280
280
280
280
280
280
280
280
280
280
280
280
280.001
280.003
280.002
280.001
280
280
280
280
280
280
280
280
280
280
280
280
280
280
280
280
280
280
280
280
280
280
280
280
280
280
280
280
280
280
280
280
280
280
280
280
280
280
280
280
280
280
280
280
280
280
280
280
280
280
280
280
280
280
280
280
280
280
280
280
280
280
280
280
280
280
280
280
280
280
280
280
280
280
280
280
280
280
280
280
280
280
280
280
280
280
280
280
280
280
280
280
280
280
280
280
280
280
280
280
280
280
280
280
280
280
280
280
280
280
280
280
280
280
280
280
280
280
280
280
280
280
280
280
280
280
280
280
280
280
280
280
280
280
280
280
280
280
280
280
280
280
280
280
280
280
280
280
280
280
280
280
280
280
280
280
280
280
280
280
280
280
280
280
280
280
280
280
280
280
280
280
280
280
280
280
280
280
280
280
280
280
280
280
280
280
280
280
280
280
280
280
280
280
280
280
280
280
280
280
280
280
280
280
280
280
280
280
280
280
280
280
280
280
280
280
280
280
280
280
280
280
280
280
280
280
280
280
280
280
280
280
280
280
280
280
280
280
280
280
280
280
280
280
280
280
280
280
280
280
280
280
280
280
280
280
280
280
280
280
280
280
280
280
280
280
280
280
280
280
280
280
280
280
280
280
280
280
280
280
280
280
280
280
280
280
280
280
280
280
280
280
280
280
280
280
280
280
280
280
280
280
280
280
280
280
280
280
280
280
280
280
280
280
280
280
280
280
280
280
280
280
280
280
280
280
280
280
280
280
280
280
280
280
280
280
280
280
280
280
280
280
280
280
280
280
280
280
280
280
280
280
280
280
280
280
280
280
280
280
280
280
280
280
280
280
280
280
280
280
280
280
280
280
280
280
280
280
280
280
280
280
280
280
280
280
280
280
280
280
280
280
280
280
280
280
280
280
280
280
280
280
280
280
280
280
280
280
280
280
280
280
280
280
280
280
280
280
280
280
280
280
280
280
280
280
280
280
280
280
280
280
280
280
280
280
280
280
280
280
280
280
280
280
280
280
280
280
280
280
280
280
280
280
280
280
280
280
280
280
280
280
280
280
280
280
280
280
280
280
280
280
280
280
280
280
280
280
280
280
280
280
280
280
280
280
280
280
280
280
280
280
280
280
280
280
280
280
280
280
280
280
280
280
280
280
280
280
280
280
280
280
280
280
280
280
280
280
280
280
280
280
280
280
280
280
280
280
280
280
280
280
280
280
280
280
280
280
280
280
280
280
280
280
280
280
280
280
280
280
280
280
280
280
280
280
280
280
280
280
280
280
280
280
280
280
280
280
280
280
280
280
280
280
280
280
280
280
280
280
280
280
280
280
280
280
280
280
280
280
280
280
280
280
280
280
280
280
280
280
280
280
280
280
280
280
280
280
280
280
280
280
280
280
280
280
280
280
280
280
280
280
280
280
280
280
280
280
280
280
280
280
280
280
280
280
280
280
280
280
280
280
280
280
280
280
280
280
280
280
280
280
280
280
280
280
280
280
280
280
280
280
280
280
280
280
280
280
280
280
280
280
280
280
280
280
280
280
280
280
280
280
280
280
280
280
280
280
280
280
280
280
280
280
280
280
280
280
280
280
280
280
280
280
280
280
280
280
280
280
280
280
280
280
280
280
280
280
280
280
280
280
280
280
280
280
280
280
280
280
280
280
280
280
280
280
280
280
280
280
280
280
280
280
280
280
280
280
280
280
280
280
280
280
280
280
280
280
280
280
280
280
280
280
280
280
280
280
280
280
280
280
280
280
280
280
280
280
280
280
280
280
280
280
280
280
280
280
280
280
280
280
280
280
280
280
280
280
280
280
280
280
280
280
280
280
280
280
280
280
280
280
280
280
280
280
280
280
280
280
280
280
280
280
280
280
280
280
280
280
280
280
280
280
280
280
280
280
280
280
280
280
280
280
280
280
280
280
280
280
280
280
280
280
280
280
280
280
280
280
280
280
280
280
280
280
280
280
280
280
280
280
280
280
280
280
280
280
280
280
280
280
280
280
280
280
280
280
280
280
280
280
280
280
280
280
280
280
280
280
280
280
280
280
280
280
280
280
280
280
280
280
280
280
280
280
280
280
280
280
280
280
280
280
280
280
280
280
280
280
280
280
280
280
280
280
280
280
280
280
280
280
280
280
280
280
280
280
280
280
280
280
280
280
280
280
280
280
280
280
280
280
280
280
280
280
280
280
280
280
280
280
280
280
280
280
280
280
280
280
280
280
280
280
280
280
280
280
280
280
280
280
280
280
280
280
280
280
280
280
280
280
280
280
280
280
280
280
280
280
280
280
280
280
280
280
280
280
280
280
280
280
280
280
280
280
280
280
280
280
280
280
280
280
280
280
280
280
280
280
280
280
280
280
280
280
280
280
280
280
280
280
280
280
280
280
280
280
280
280
280
280
280
280
280
280
280
280
280
280
280
280
280
280
280
280
280
280
280
280
280
280
280
280
280
280
280
280
280
280
280
280
280
280
280
280
280
280
280
280
280
280
280
280
280
280
280
280
280
280
280
280
280
280
280
280
280
280
280
280
280
280
280
280
280
280
280
280
280
280
280
280
280
280
280
280
280
280
280
280
280
280
280
280
280
280
280
280
280
280
280
280
280
280
280
280
280
280
280
280
280
280
280
280
280
280
280
280
280
280
280
280
280
280
280
280
280
280
280
280
280
280
280
280
280
280
280
280
280
280
280
280
280
280
280
280
280
280
280
280
280
280
280
280
280
280
280
280
280
280
280
280
280
280
280
280
280
280
280
280
280
280
280
280
280
280
280
280
280
280
280
280
280
280
280
280
280
280
280
280
280
280
280
280
280
280
280
280
280
280
280
280
280
280
280
280
280
280
280
280
280
280
280
280
280
280
280
280
280
280
280
280
280
280
280
280
280
280
280
280
280
280
280
280
280
280
280
280
280
280
280
280
280
280
280
280
280
280
280
280
280
280
280
280
280
280
280
280
280
280
280
280
280
280
280
280
280
280
280
280
280
280
280
280
280
280
280
280
280
280
280
280
280
280
280
280
280
280
280
280
280
280
280
280
280
280
280
280
280
280
280
280
280
280
280
280
280
280
280
280
280
280
280
280
280
280
280
280
280
280
280
280
280
280
280
280
280
280
280
280
280
280
280
280
280
280
280
280
280
280
280
280
280
280
280
280
280
280
280
280
280
280
280
280
280
280
280
280
280
280
280
280
280
280
280
280
280
280
280
280
280
280
280
280
280
280
280