/*--------------------------------*- C++ -*----------------------------------*\
| =========                 |                                                 |
| \\      /  F ield         | OpenFOAM: The Open Source CFD Toolbox           |
|  \\    /   O peration     | Version:  4.1                                   |
|   \\  /    A nd           | Web:      www.OpenFOAM.org                      |
|    \\/     M anipulation  |                                                 |
\*---------------------------------------------------------------------------*/
FoamFile
{
    version     2.0;
    format      ascii;
    class       volScalarField;
    location    "1940";
    object      p;
}
// * * * * * * * * * * * * * * * * * * * * * * * * * * * * * * * * * * * * * //

dimensions      [0 2 -2 0 0 0 0];

internalField   nonuniform List<scalar> 
5000
(
0
-2.54319e-05
-4.29904e-05
-4.80326e-05
-3.58634e-05
-7.99196e-06
2.61076e-05
5.47994e-05
7.48641e-05
8.43029e-05
7.91067e-05
5.92436e-05
2.9685e-05
-4.56764e-06
-3.9671e-05
-7.26431e-05
-0.000101224
-0.000123919
-0.000140007
-0.000149486
-0.00015288
-0.000151
-0.00014488
-0.000135662
-0.000124557
-0.000112766
-0.000101404
-9.1449e-05
-8.37621e-05
-8.08075e-05
-8.93675e-05
-0.000102765
-0.000116625
-0.000125055
-0.00013009
-0.000132547
-0.000132728
-0.000130758
-0.000126787
-0.000121173
-0.000114464
-0.000107166
-9.95784e-05
-9.18386e-05
-8.43275e-05
-7.85534e-05
-7.73188e-05
-8.34961e-05
-9.93316e-05
-0.000105529
-0.000102679
-9.15119e-05
-8.23828e-05
-8.62665e-05
-9.4458e-05
-9.82253e-05
-0.000100419
-9.62498e-05
-8.31287e-05
-7.05086e-05
-6.06479e-05
-5.52709e-05
-5.54484e-05
-6.21057e-05
-7.36408e-05
-8.36907e-05
-8.36866e-05
-7.76804e-05
-9.14237e-05
-0.000119435
-0.000127543
-0.00012705
-0.000125071
-0.000124117
-0.000123833
-0.000124192
-0.000126031
-0.000129628
-0.000132412
-0.000133518
-0.000134677
-0.000136943
-0.000138688
-0.000139403
-0.000139021
-0.000136791
-0.000131698
-0.000122967
-0.00011012
-9.35541e-05
-7.42989e-05
-5.37278e-05
-3.34094e-05
-1.5363e-05
-2.5297e-06
2.00242e-06
-6.75655e-07
-8.94148e-06
-1.76163e-05
-1.90256e-05
-0.0984109
-0.0984383
-0.0984574
-0.0984654
-0.0984557
-0.0984312
-0.0984004
-0.0983726
-0.0983524
-0.0983436
-0.0983492
-0.0983675
-0.0983948
-0.0984266
-0.0984592
-0.0984898
-0.0985161
-0.0985367
-0.0985507
-0.0985582
-0.0985596
-0.0985557
-0.0985474
-0.0985358
-0.098522
-0.0985071
-0.098492
-0.0984773
-0.098463
-0.0984517
-0.0984544
-0.0984699
-0.0984839
-0.0984942
-0.0985017
-0.0985064
-0.0985086
-0.0985082
-0.0985053
-0.0985005
-0.0984943
-0.0984876
-0.0984809
-0.0984747
-0.0984693
-0.0984647
-0.0984611
-0.098461
-0.0984646
-0.0984701
-0.0984776
-0.098474
-0.0984653
-0.0984598
-0.098461
-0.0984684
-0.0984776
-0.0984781
-0.0984716
-0.0984638
-0.0984575
-0.098454
-0.0984544
-0.0984595
-0.0984676
-0.0984738
-0.0984698
-0.098457
-0.0984804
-0.0985138
-0.0985238
-0.0985235
-0.0985225
-0.0985225
-0.0985232
-0.0985244
-0.0985263
-0.0985285
-0.0985287
-0.0985253
-0.0985237
-0.0985272
-0.0985319
-0.0985358
-0.0985384
-0.0985389
-0.0985364
-0.0985296
-0.0985184
-0.0985031
-0.0984849
-0.0984654
-0.0984464
-0.0984297
-0.0984176
-0.0984124
-0.0984132
-0.0984184
-0.0984229
-0.0984197
-0.196841
-0.196863
-0.196879
-0.196888
-0.196879
-0.196857
-0.196829
-0.196804
-0.196787
-0.19678
-0.196786
-0.196803
-0.196829
-0.196858
-0.196889
-0.196917
-0.196942
-0.19696
-0.196973
-0.196979
-0.196979
-0.196973
-0.196964
-0.19695
-0.196935
-0.196918
-0.1969
-0.196884
-0.196868
-0.196857
-0.196861
-0.196877
-0.19689
-0.196901
-0.196909
-0.196914
-0.196917
-0.196916
-0.196913
-0.196908
-0.196901
-0.196894
-0.196887
-0.196881
-0.196875
-0.196869
-0.196863
-0.196857
-0.196846
-0.196846
-0.196854
-0.196859
-0.196856
-0.196848
-0.196844
-0.196849
-0.196858
-0.196864
-0.196864
-0.196862
-0.196859
-0.196857
-0.196857
-0.196861
-0.196867
-0.196872
-0.196871
-0.196868
-0.196893
-0.19693
-0.196938
-0.196936
-0.196934
-0.196934
-0.196934
-0.196935
-0.196936
-0.196936
-0.196933
-0.196928
-0.196929
-0.196935
-0.196943
-0.196949
-0.196954
-0.196957
-0.196956
-0.196951
-0.196941
-0.196926
-0.196907
-0.196888
-0.196869
-0.196853
-0.196841
-0.196834
-0.196834
-0.196836
-0.19684
-0.196836
-0.295267
-0.295283
-0.295296
-0.295303
-0.295298
-0.295278
-0.295256
-0.295235
-0.295222
-0.295219
-0.295227
-0.295244
-0.295269
-0.295297
-0.295325
-0.295351
-0.295373
-0.29539
-0.2954
-0.295404
-0.295403
-0.295396
-0.295385
-0.29537
-0.295354
-0.295336
-0.295318
-0.295301
-0.295286
-0.295277
-0.29528
-0.295293
-0.295304
-0.295313
-0.29532
-0.295325
-0.295326
-0.295325
-0.295321
-0.295316
-0.295309
-0.295302
-0.295294
-0.295287
-0.29528
-0.295273
-0.295266
-0.295257
-0.295244
-0.295242
-0.29525
-0.295255
-0.295255
-0.29525
-0.295245
-0.295247
-0.295254
-0.29526
-0.295262
-0.295261
-0.295259
-0.295258
-0.295258
-0.29526
-0.295264
-0.295267
-0.295269
-0.295275
-0.295303
-0.295339
-0.29535
-0.295347
-0.295345
-0.295344
-0.295345
-0.295345
-0.295344
-0.295343
-0.295338
-0.295333
-0.295335
-0.295346
-0.295356
-0.295365
-0.295372
-0.295377
-0.295379
-0.295375
-0.295366
-0.295351
-0.295332
-0.295313
-0.295293
-0.295277
-0.295264
-0.295256
-0.295253
-0.295253
-0.295257
-0.295254
-0.393678
-0.393691
-0.393703
-0.393709
-0.393706
-0.393692
-0.393676
-0.393663
-0.393656
-0.393658
-0.393669
-0.393687
-0.393712
-0.393738
-0.393765
-0.393788
-0.393808
-0.393822
-0.39383
-0.393832
-0.393829
-0.393821
-0.393809
-0.393793
-0.393776
-0.393758
-0.393741
-0.393724
-0.39371
-0.3937
-0.3937
-0.393709
-0.393718
-0.393726
-0.393732
-0.393735
-0.393736
-0.393735
-0.39373
-0.393724
-0.393717
-0.393709
-0.393701
-0.393693
-0.393686
-0.393679
-0.393671
-0.393663
-0.393655
-0.393653
-0.393656
-0.393659
-0.393659
-0.393656
-0.393654
-0.393655
-0.393659
-0.393662
-0.393663
-0.393662
-0.39366
-0.393658
-0.393656
-0.393656
-0.393657
-0.393659
-0.393663
-0.393672
-0.3937
-0.393736
-0.393754
-0.393755
-0.393752
-0.393753
-0.393754
-0.393755
-0.393754
-0.39375
-0.393745
-0.393738
-0.39374
-0.393754
-0.393768
-0.393779
-0.393789
-0.393797
-0.393801
-0.3938
-0.393792
-0.393777
-0.393758
-0.393737
-0.393717
-0.393699
-0.393685
-0.393675
-0.393671
-0.393669
-0.393672
-0.393669
-0.492076
-0.492088
-0.492098
-0.492107
-0.492106
-0.492099
-0.492091
-0.492086
-0.492087
-0.492094
-0.492109
-0.49213
-0.492154
-0.49218
-0.492204
-0.492226
-0.492243
-0.492255
-0.492261
-0.492261
-0.492256
-0.492247
-0.492234
-0.492218
-0.4922
-0.492182
-0.492165
-0.492149
-0.492133
-0.492121
-0.492119
-0.492125
-0.492132
-0.492138
-0.492143
-0.492146
-0.492146
-0.492144
-0.492139
-0.492132
-0.492125
-0.492117
-0.492109
-0.492101
-0.492093
-0.492086
-0.492079
-0.492072
-0.492067
-0.492064
-0.492065
-0.492066
-0.492066
-0.492064
-0.492063
-0.492064
-0.492065
-0.492067
-0.492066
-0.492065
-0.492062
-0.492059
-0.492055
-0.492053
-0.492051
-0.492051
-0.492055
-0.492067
-0.492094
-0.492129
-0.492152
-0.492159
-0.492159
-0.492161
-0.492164
-0.492165
-0.492164
-0.49216
-0.492153
-0.492145
-0.492144
-0.492158
-0.492175
-0.49219
-0.492202
-0.492213
-0.492221
-0.492222
-0.492216
-0.492203
-0.492183
-0.49216
-0.492139
-0.49212
-0.492104
-0.492093
-0.492085
-0.492082
-0.492083
-0.49208
-0.590462
-0.590474
-0.590484
-0.590494
-0.590499
-0.5905
-0.590501
-0.590505
-0.590514
-0.590528
-0.590547
-0.59057
-0.590595
-0.590619
-0.590642
-0.590661
-0.590676
-0.590686
-0.59069
-0.590689
-0.590683
-0.590673
-0.590659
-0.590642
-0.590624
-0.590606
-0.590589
-0.590572
-0.590554
-0.590539
-0.590536
-0.59054
-0.590545
-0.59055
-0.590554
-0.590556
-0.590556
-0.590552
-0.590547
-0.59054
-0.590533
-0.590525
-0.590517
-0.590509
-0.590502
-0.590495
-0.590489
-0.590483
-0.590479
-0.590476
-0.590476
-0.590476
-0.590475
-0.590474
-0.590473
-0.590473
-0.590473
-0.590473
-0.590472
-0.590469
-0.590465
-0.590461
-0.590456
-0.590451
-0.590447
-0.590446
-0.590451
-0.590465
-0.590491
-0.590524
-0.590549
-0.590562
-0.590567
-0.59057
-0.590573
-0.590576
-0.590575
-0.590571
-0.590564
-0.590555
-0.59055
-0.590556
-0.590575
-0.590595
-0.59061
-0.590623
-0.590634
-0.590639
-0.590635
-0.590623
-0.590603
-0.590579
-0.590557
-0.590536
-0.590519
-0.590506
-0.590497
-0.590492
-0.59049
-0.590489
-0.68884
-0.68885
-0.688863
-0.688876
-0.688888
-0.688898
-0.688908
-0.688921
-0.688938
-0.688958
-0.688982
-0.689006
-0.689031
-0.689054
-0.689075
-0.689093
-0.689106
-0.689114
-0.689117
-0.689115
-0.689108
-0.689097
-0.689082
-0.689065
-0.689047
-0.689029
-0.689011
-0.688992
-0.688972
-0.688955
-0.68895
-0.688953
-0.688957
-0.688961
-0.688964
-0.688965
-0.688964
-0.68896
-0.688955
-0.688948
-0.688941
-0.688933
-0.688926
-0.688919
-0.688912
-0.688906
-0.688901
-0.688896
-0.688892
-0.68889
-0.688889
-0.688888
-0.688887
-0.688886
-0.688885
-0.688884
-0.688883
-0.688881
-0.688879
-0.688876
-0.688871
-0.688866
-0.68886
-0.688854
-0.688848
-0.688845
-0.688851
-0.688866
-0.688892
-0.688923
-0.688949
-0.688965
-0.688973
-0.688978
-0.688982
-0.688985
-0.688984
-0.688981
-0.688976
-0.688967
-0.68896
-0.688951
-0.688974
-0.688994
-0.68901
-0.689024
-0.689036
-0.689041
-0.689041
-0.689032
-0.689014
-0.688991
-0.688968
-0.688947
-0.68893
-0.688915
-0.688905
-0.688898
-0.688895
-0.688894
-0.787214
-0.787223
-0.787241
-0.78726
-0.787278
-0.787296
-0.787314
-0.787335
-0.787359
-0.787385
-0.787411
-0.787437
-0.787461
-0.787483
-0.787503
-0.787519
-0.787532
-0.787539
-0.787541
-0.787538
-0.78753
-0.787518
-0.787503
-0.787485
-0.787467
-0.787449
-0.78743
-0.787409
-0.787385
-0.787367
-0.787362
-0.787363
-0.787366
-0.78737
-0.787372
-0.787373
-0.787371
-0.787367
-0.787362
-0.787356
-0.787349
-0.787342
-0.787335
-0.787329
-0.787324
-0.787318
-0.787314
-0.78731
-0.787307
-0.787305
-0.787303
-0.787302
-0.787301
-0.7873
-0.787298
-0.787296
-0.787294
-0.787292
-0.787289
-0.787285
-0.78728
-0.787274
-0.787267
-0.78726
-0.787253
-0.78725
-0.787255
-0.78727
-0.787294
-0.787322
-0.787347
-0.787365
-0.787376
-0.787383
-0.787388
-0.78739
-0.787391
-0.787388
-0.787382
-0.787376
-0.787368
-0.787361
-0.787377
-0.787388
-0.787402
-0.787416
-0.787426
-0.787432
-0.787433
-0.787427
-0.787413
-0.787393
-0.787372
-0.787352
-0.787335
-0.78732
-0.787309
-0.7873
-0.787297
-0.787296
-0.885587
-0.8856
-0.885623
-0.885648
-0.885672
-0.885696
-0.885722
-0.885749
-0.885778
-0.885808
-0.885835
-0.885861
-0.885884
-0.885905
-0.885924
-0.88594
-0.885952
-0.885959
-0.88596
-0.885957
-0.885949
-0.885936
-0.88592
-0.885903
-0.885885
-0.885865
-0.885844
-0.88582
-0.885793
-0.885777
-0.885772
-0.885772
-0.885775
-0.885777
-0.885779
-0.885779
-0.885777
-0.885773
-0.885769
-0.885763
-0.885758
-0.885752
-0.885746
-0.885741
-0.885737
-0.885733
-0.885729
-0.885726
-0.885724
-0.885722
-0.88572
-0.885719
-0.885717
-0.885715
-0.885713
-0.885711
-0.885709
-0.885705
-0.885701
-0.885697
-0.885691
-0.885685
-0.885678
-0.885671
-0.885665
-0.885661
-0.885664
-0.885677
-0.885697
-0.885722
-0.885745
-0.885763
-0.885776
-0.885784
-0.885789
-0.885791
-0.885791
-0.885789
-0.885785
-0.885779
-0.885773
-0.88577
-0.885769
-0.885774
-0.885788
-0.8858
-0.885809
-0.885815
-0.885815
-0.885811
-0.885801
-0.885786
-0.885769
-0.885751
-0.885735
-0.885721
-0.88571
-0.885701
-0.885697
-0.885696
-0.983977
-0.98399
-0.984017
-0.984046
-0.984073
-0.984101
-0.984131
-0.984162
-0.984195
-0.984226
-0.984254
-0.984278
-0.9843
-0.984321
-0.98434
-0.984356
-0.984368
-0.984374
-0.984376
-0.984372
-0.984363
-0.98435
-0.984334
-0.984317
-0.984298
-0.984278
-0.984253
-0.984225
-0.984199
-0.984184
-0.984179
-0.984179
-0.984181
-0.984183
-0.984184
-0.984184
-0.984182
-0.98418
-0.984176
-0.984171
-0.984167
-0.984163
-0.984159
-0.984155
-0.984152
-0.984149
-0.984146
-0.984144
-0.984142
-0.98414
-0.984139
-0.984137
-0.984135
-0.984133
-0.984131
-0.984128
-0.984125
-0.984121
-0.984116
-0.984111
-0.984105
-0.984099
-0.984092
-0.984086
-0.98408
-0.984076
-0.984078
-0.984087
-0.984103
-0.984123
-0.984143
-0.98416
-0.984172
-0.984181
-0.984186
-0.984189
-0.984189
-0.984187
-0.984183
-0.984178
-0.984171
-0.984165
-0.984155
-0.984161
-0.984172
-0.984183
-0.984191
-0.984195
-0.984195
-0.984192
-0.984185
-0.984174
-0.98416
-0.984145
-0.984131
-0.984118
-0.984107
-0.984098
-0.984095
-0.984094
-1.08239
-1.0824
-1.08243
-1.08245
-1.08248
-1.08251
-1.08254
-1.08257
-1.08261
-1.08264
-1.08267
-1.08269
-1.08271
-1.08273
-1.08275
-1.08277
-1.08278
-1.08279
-1.08279
-1.08278
-1.08277
-1.08276
-1.08274
-1.08273
-1.08271
-1.08268
-1.08266
-1.08263
-1.0826
-1.08259
-1.08258
-1.08258
-1.08259
-1.08259
-1.08259
-1.08259
-1.08259
-1.08259
-1.08258
-1.08258
-1.08258
-1.08257
-1.08257
-1.08257
-1.08257
-1.08257
-1.08256
-1.08256
-1.08256
-1.08256
-1.08256
-1.08256
-1.08256
-1.08255
-1.08255
-1.08255
-1.08254
-1.08254
-1.08253
-1.08253
-1.08252
-1.08252
-1.08251
-1.0825
-1.0825
-1.08249
-1.08249
-1.0825
-1.08251
-1.08253
-1.08254
-1.08256
-1.08257
-1.08258
-1.08258
-1.08258
-1.08258
-1.08258
-1.08258
-1.08257
-1.08257
-1.08256
-1.08255
-1.08255
-1.08256
-1.08257
-1.08257
-1.08258
-1.08258
-1.08257
-1.08257
-1.08256
-1.08255
-1.08254
-1.08252
-1.08251
-1.0825
-1.08249
-1.08249
-1.08249
-1.18082
-1.18083
-1.18085
-1.18087
-1.18089
-1.18092
-1.18095
-1.18099
-1.18102
-1.18105
-1.18107
-1.18109
-1.18111
-1.18114
-1.18116
-1.18117
-1.18119
-1.18119
-1.18119
-1.18119
-1.18118
-1.18116
-1.18115
-1.18113
-1.18111
-1.18108
-1.18105
-1.18102
-1.181
-1.18099
-1.18099
-1.18099
-1.18099
-1.18099
-1.18099
-1.18099
-1.18099
-1.18099
-1.18099
-1.18099
-1.18099
-1.18099
-1.18099
-1.18099
-1.18099
-1.18099
-1.18098
-1.18098
-1.18098
-1.18098
-1.18098
-1.18098
-1.18098
-1.18098
-1.18097
-1.18097
-1.18096
-1.18096
-1.18095
-1.18095
-1.18094
-1.18094
-1.18093
-1.18092
-1.18092
-1.18091
-1.18091
-1.18092
-1.18092
-1.18093
-1.18094
-1.18096
-1.18096
-1.18097
-1.18098
-1.18098
-1.18098
-1.18098
-1.18097
-1.18097
-1.18096
-1.18096
-1.18095
-1.18095
-1.18096
-1.18096
-1.18096
-1.18096
-1.18096
-1.18096
-1.18095
-1.18095
-1.18094
-1.18093
-1.18092
-1.18091
-1.1809
-1.18089
-1.18089
-1.18088
-1.27925
-1.27925
-1.27927
-1.27929
-1.27931
-1.27934
-1.27936
-1.2794
-1.27943
-1.27946
-1.27948
-1.27949
-1.27951
-1.27953
-1.27956
-1.27957
-1.27959
-1.27959
-1.27959
-1.27959
-1.27958
-1.27956
-1.27955
-1.27953
-1.2795
-1.27948
-1.27945
-1.27942
-1.2794
-1.2794
-1.27939
-1.27939
-1.27939
-1.2794
-1.2794
-1.2794
-1.2794
-1.2794
-1.2794
-1.2794
-1.2794
-1.2794
-1.2794
-1.2794
-1.2794
-1.27941
-1.27941
-1.27941
-1.27941
-1.27941
-1.2794
-1.2794
-1.2794
-1.2794
-1.27939
-1.27939
-1.27939
-1.27938
-1.27938
-1.27937
-1.27936
-1.27936
-1.27935
-1.27934
-1.27934
-1.27934
-1.27933
-1.27933
-1.27934
-1.27934
-1.27935
-1.27936
-1.27936
-1.27937
-1.27937
-1.27937
-1.27937
-1.27937
-1.27937
-1.27937
-1.27936
-1.27936
-1.27935
-1.27935
-1.27935
-1.27935
-1.27935
-1.27935
-1.27935
-1.27935
-1.27934
-1.27934
-1.27933
-1.27932
-1.27931
-1.2793
-1.27929
-1.27929
-1.27928
-1.27928
-1.37767
-1.37768
-1.37769
-1.37771
-1.37773
-1.37775
-1.37777
-1.3778
-1.37783
-1.37786
-1.37787
-1.37789
-1.37791
-1.37793
-1.37795
-1.37797
-1.37798
-1.37798
-1.37798
-1.37798
-1.37797
-1.37796
-1.37794
-1.37792
-1.37789
-1.37787
-1.37784
-1.37782
-1.37781
-1.3778
-1.3778
-1.3778
-1.3778
-1.3778
-1.3778
-1.37781
-1.37781
-1.37781
-1.37781
-1.37781
-1.37782
-1.37782
-1.37782
-1.37782
-1.37782
-1.37783
-1.37783
-1.37783
-1.37783
-1.37783
-1.37783
-1.37783
-1.37782
-1.37782
-1.37782
-1.37781
-1.37781
-1.3778
-1.3778
-1.37779
-1.37779
-1.37778
-1.37777
-1.37777
-1.37776
-1.37776
-1.37775
-1.37775
-1.37775
-1.37775
-1.37776
-1.37776
-1.37777
-1.37777
-1.37777
-1.37777
-1.37777
-1.37777
-1.37777
-1.37776
-1.37776
-1.37776
-1.37775
-1.37775
-1.37775
-1.37775
-1.37775
-1.37775
-1.37774
-1.37774
-1.37773
-1.37773
-1.37772
-1.37771
-1.3777
-1.37769
-1.37769
-1.37768
-1.37768
-1.37767
-1.47609
-1.4761
-1.47611
-1.47612
-1.47614
-1.47616
-1.47618
-1.47621
-1.47623
-1.47625
-1.47627
-1.47628
-1.4763
-1.47632
-1.47634
-1.47635
-1.47636
-1.47637
-1.47637
-1.47636
-1.47635
-1.47634
-1.47632
-1.4763
-1.47628
-1.47626
-1.47624
-1.47622
-1.47621
-1.47621
-1.4762
-1.4762
-1.47621
-1.47621
-1.47621
-1.47621
-1.47622
-1.47622
-1.47622
-1.47623
-1.47623
-1.47624
-1.47624
-1.47624
-1.47624
-1.47625
-1.47625
-1.47625
-1.47625
-1.47625
-1.47625
-1.47625
-1.47625
-1.47625
-1.47624
-1.47624
-1.47623
-1.47623
-1.47622
-1.47622
-1.47621
-1.4762
-1.4762
-1.47619
-1.47618
-1.47618
-1.47617
-1.47617
-1.47617
-1.47617
-1.47617
-1.47617
-1.47617
-1.47617
-1.47617
-1.47617
-1.47617
-1.47617
-1.47616
-1.47616
-1.47616
-1.47616
-1.47615
-1.47615
-1.47615
-1.47615
-1.47614
-1.47614
-1.47614
-1.47613
-1.47613
-1.47612
-1.47611
-1.47611
-1.4761
-1.47609
-1.47608
-1.47608
-1.47607
-1.47607
-1.57451
-1.57452
-1.57452
-1.57454
-1.57455
-1.57457
-1.57459
-1.57461
-1.57463
-1.57464
-1.57466
-1.57467
-1.57468
-1.5747
-1.57472
-1.57473
-1.57474
-1.57474
-1.57474
-1.57474
-1.57473
-1.57472
-1.5747
-1.57468
-1.57467
-1.57465
-1.57463
-1.57462
-1.57462
-1.57461
-1.57461
-1.57461
-1.57461
-1.57462
-1.57462
-1.57462
-1.57463
-1.57463
-1.57464
-1.57464
-1.57465
-1.57465
-1.57466
-1.57466
-1.57466
-1.57467
-1.57467
-1.57467
-1.57467
-1.57467
-1.57467
-1.57467
-1.57467
-1.57467
-1.57467
-1.57466
-1.57466
-1.57465
-1.57465
-1.57464
-1.57463
-1.57462
-1.57462
-1.57461
-1.57461
-1.5746
-1.57459
-1.57459
-1.57459
-1.57458
-1.57458
-1.57458
-1.57458
-1.57458
-1.57457
-1.57457
-1.57457
-1.57457
-1.57456
-1.57456
-1.57456
-1.57455
-1.57455
-1.57455
-1.57455
-1.57454
-1.57454
-1.57454
-1.57453
-1.57453
-1.57452
-1.57452
-1.57451
-1.5745
-1.5745
-1.57449
-1.57448
-1.57448
-1.57447
-1.57447
-1.67293
-1.67293
-1.67294
-1.67295
-1.67296
-1.67297
-1.67299
-1.67301
-1.67302
-1.67303
-1.67304
-1.67305
-1.67307
-1.67308
-1.67309
-1.6731
-1.67311
-1.67312
-1.67311
-1.67311
-1.6731
-1.67309
-1.67308
-1.67306
-1.67305
-1.67304
-1.67303
-1.67303
-1.67302
-1.67302
-1.67302
-1.67302
-1.67302
-1.67302
-1.67303
-1.67303
-1.67304
-1.67304
-1.67305
-1.67306
-1.67306
-1.67307
-1.67307
-1.67308
-1.67308
-1.67309
-1.67309
-1.67309
-1.67309
-1.6731
-1.6731
-1.6731
-1.6731
-1.67309
-1.67309
-1.67309
-1.67308
-1.67308
-1.67307
-1.67306
-1.67306
-1.67305
-1.67304
-1.67303
-1.67303
-1.67302
-1.67301
-1.67301
-1.673
-1.673
-1.673
-1.67299
-1.67299
-1.67298
-1.67298
-1.67298
-1.67297
-1.67297
-1.67297
-1.67296
-1.67296
-1.67296
-1.67295
-1.67295
-1.67295
-1.67294
-1.67294
-1.67294
-1.67293
-1.67293
-1.67292
-1.67292
-1.67291
-1.6729
-1.67289
-1.67289
-1.67288
-1.67288
-1.67287
-1.67287
-1.77134
-1.77134
-1.77135
-1.77136
-1.77137
-1.77138
-1.77139
-1.7714
-1.77142
-1.77142
-1.77143
-1.77144
-1.77145
-1.77146
-1.77147
-1.77147
-1.77148
-1.77148
-1.77148
-1.77148
-1.77147
-1.77146
-1.77145
-1.77145
-1.77144
-1.77144
-1.77143
-1.77143
-1.77143
-1.77142
-1.77142
-1.77142
-1.77143
-1.77143
-1.77144
-1.77144
-1.77145
-1.77146
-1.77146
-1.77147
-1.77148
-1.77148
-1.77149
-1.77149
-1.7715
-1.7715
-1.77151
-1.77151
-1.77151
-1.77152
-1.77152
-1.77152
-1.77152
-1.77152
-1.77151
-1.77151
-1.7715
-1.7715
-1.77149
-1.77149
-1.77148
-1.77147
-1.77146
-1.77145
-1.77145
-1.77144
-1.77143
-1.77143
-1.77142
-1.77142
-1.77141
-1.7714
-1.7714
-1.77139
-1.77139
-1.77138
-1.77138
-1.77137
-1.77137
-1.77137
-1.77136
-1.77136
-1.77135
-1.77135
-1.77135
-1.77134
-1.77134
-1.77134
-1.77133
-1.77133
-1.77132
-1.77132
-1.77131
-1.7713
-1.7713
-1.77129
-1.77128
-1.77128
-1.77128
-1.77127
-1.86975
-1.86976
-1.86976
-1.86977
-1.86977
-1.86978
-1.86979
-1.8698
-1.86981
-1.86981
-1.86982
-1.86982
-1.86983
-1.86984
-1.86984
-1.86985
-1.86985
-1.86985
-1.86985
-1.86985
-1.86984
-1.86984
-1.86983
-1.86983
-1.86983
-1.86983
-1.86983
-1.86983
-1.86983
-1.86983
-1.86983
-1.86983
-1.86984
-1.86984
-1.86985
-1.86985
-1.86986
-1.86987
-1.86988
-1.86988
-1.86989
-1.8699
-1.8699
-1.86991
-1.86991
-1.86992
-1.86992
-1.86993
-1.86993
-1.86993
-1.86994
-1.86994
-1.86994
-1.86994
-1.86993
-1.86993
-1.86993
-1.86992
-1.86991
-1.86991
-1.8699
-1.86989
-1.86988
-1.86988
-1.86987
-1.86986
-1.86985
-1.86985
-1.86984
-1.86983
-1.86983
-1.86982
-1.86981
-1.86981
-1.8698
-1.86979
-1.86979
-1.86978
-1.86978
-1.86977
-1.86977
-1.86976
-1.86976
-1.86975
-1.86975
-1.86975
-1.86974
-1.86974
-1.86973
-1.86973
-1.86972
-1.86972
-1.86971
-1.8697
-1.8697
-1.86969
-1.86969
-1.86968
-1.86968
-1.86968
-1.96816
-1.96816
-1.96817
-1.96817
-1.96818
-1.96818
-1.96819
-1.9682
-1.9682
-1.9682
-1.96821
-1.96821
-1.96821
-1.96822
-1.96822
-1.96822
-1.96822
-1.96822
-1.96822
-1.96822
-1.96821
-1.96821
-1.96821
-1.96822
-1.96822
-1.96823
-1.96823
-1.96823
-1.96823
-1.96823
-1.96823
-1.96824
-1.96824
-1.96825
-1.96826
-1.96827
-1.96827
-1.96828
-1.96829
-1.9683
-1.9683
-1.96831
-1.96832
-1.96832
-1.96833
-1.96833
-1.96834
-1.96834
-1.96835
-1.96835
-1.96835
-1.96835
-1.96836
-1.96836
-1.96835
-1.96835
-1.96835
-1.96834
-1.96834
-1.96833
-1.96832
-1.96831
-1.9683
-1.9683
-1.96829
-1.96828
-1.96827
-1.96826
-1.96826
-1.96825
-1.96824
-1.96823
-1.96823
-1.96822
-1.96821
-1.9682
-1.9682
-1.96819
-1.96819
-1.96818
-1.96817
-1.96817
-1.96816
-1.96816
-1.96816
-1.96815
-1.96815
-1.96814
-1.96814
-1.96813
-1.96813
-1.96812
-1.96811
-1.96811
-1.9681
-1.9681
-1.96809
-1.96809
-1.96809
-1.96808
-2.06657
-2.06657
-2.06657
-2.06658
-2.06658
-2.06658
-2.06659
-2.06659
-2.0666
-2.0666
-2.0666
-2.0666
-2.0666
-2.0666
-2.0666
-2.0666
-2.0666
-2.0666
-2.0666
-2.06659
-2.06659
-2.06659
-2.0666
-2.0666
-2.06661
-2.06662
-2.06662
-2.06663
-2.06663
-2.06663
-2.06664
-2.06664
-2.06665
-2.06666
-2.06667
-2.06668
-2.06669
-2.06669
-2.0667
-2.06671
-2.06672
-2.06672
-2.06673
-2.06674
-2.06674
-2.06675
-2.06675
-2.06676
-2.06676
-2.06676
-2.06677
-2.06677
-2.06677
-2.06677
-2.06677
-2.06677
-2.06677
-2.06676
-2.06676
-2.06675
-2.06674
-2.06673
-2.06672
-2.06672
-2.06671
-2.0667
-2.06669
-2.06668
-2.06667
-2.06667
-2.06666
-2.06665
-2.06664
-2.06663
-2.06663
-2.06662
-2.06661
-2.0666
-2.0666
-2.06659
-2.06658
-2.06658
-2.06657
-2.06657
-2.06656
-2.06656
-2.06655
-2.06655
-2.06654
-2.06654
-2.06653
-2.06653
-2.06652
-2.06652
-2.06651
-2.06651
-2.0665
-2.0665
-2.06649
-2.06649
-2.16498
-2.16498
-2.16498
-2.16498
-2.16498
-2.16499
-2.16499
-2.16499
-2.16499
-2.16499
-2.16499
-2.16499
-2.16499
-2.16499
-2.16498
-2.16498
-2.16498
-2.16498
-2.16498
-2.16498
-2.16498
-2.16498
-2.16498
-2.16499
-2.165
-2.16501
-2.16502
-2.16502
-2.16503
-2.16503
-2.16504
-2.16505
-2.16506
-2.16507
-2.16508
-2.16509
-2.1651
-2.1651
-2.16511
-2.16512
-2.16513
-2.16514
-2.16514
-2.16515
-2.16516
-2.16516
-2.16517
-2.16517
-2.16518
-2.16518
-2.16518
-2.16519
-2.16519
-2.16519
-2.16519
-2.16519
-2.16518
-2.16518
-2.16517
-2.16517
-2.16516
-2.16515
-2.16514
-2.16513
-2.16513
-2.16512
-2.16511
-2.1651
-2.16509
-2.16508
-2.16507
-2.16507
-2.16506
-2.16505
-2.16504
-2.16503
-2.16502
-2.16502
-2.16501
-2.165
-2.16499
-2.16499
-2.16498
-2.16498
-2.16497
-2.16497
-2.16496
-2.16496
-2.16495
-2.16495
-2.16494
-2.16493
-2.16493
-2.16492
-2.16492
-2.16491
-2.16491
-2.16491
-2.1649
-2.1649
-2.26338
-2.26338
-2.26338
-2.26339
-2.26339
-2.26339
-2.26339
-2.26339
-2.26339
-2.26339
-2.26339
-2.26338
-2.26338
-2.26337
-2.26337
-2.26337
-2.26337
-2.26337
-2.26336
-2.26336
-2.26336
-2.26337
-2.26337
-2.26338
-2.26339
-2.2634
-2.26341
-2.26342
-2.26343
-2.26344
-2.26345
-2.26346
-2.26347
-2.26348
-2.26349
-2.2635
-2.26351
-2.26352
-2.26352
-2.26353
-2.26354
-2.26355
-2.26356
-2.26356
-2.26357
-2.26357
-2.26358
-2.26358
-2.26359
-2.26359
-2.2636
-2.2636
-2.2636
-2.2636
-2.2636
-2.2636
-2.2636
-2.2636
-2.26359
-2.26358
-2.26358
-2.26357
-2.26356
-2.26355
-2.26354
-2.26353
-2.26353
-2.26352
-2.26351
-2.2635
-2.26349
-2.26348
-2.26347
-2.26346
-2.26345
-2.26345
-2.26344
-2.26343
-2.26342
-2.26341
-2.26341
-2.2634
-2.26339
-2.26339
-2.26338
-2.26338
-2.26337
-2.26337
-2.26336
-2.26336
-2.26335
-2.26334
-2.26334
-2.26333
-2.26333
-2.26332
-2.26332
-2.26332
-2.26332
-2.26331
-2.36179
-2.36179
-2.36179
-2.36179
-2.36179
-2.36179
-2.36179
-2.36179
-2.36179
-2.36179
-2.36179
-2.36178
-2.36178
-2.36177
-2.36177
-2.36176
-2.36176
-2.36176
-2.36176
-2.36175
-2.36176
-2.36176
-2.36177
-2.36178
-2.36179
-2.3618
-2.36181
-2.36182
-2.36183
-2.36184
-2.36185
-2.36187
-2.36188
-2.36189
-2.3619
-2.36191
-2.36192
-2.36193
-2.36193
-2.36194
-2.36195
-2.36196
-2.36197
-2.36197
-2.36198
-2.36199
-2.36199
-2.362
-2.362
-2.362
-2.36201
-2.36201
-2.36202
-2.36202
-2.36202
-2.36202
-2.36202
-2.36201
-2.36201
-2.362
-2.36199
-2.36199
-2.36198
-2.36197
-2.36196
-2.36195
-2.36194
-2.36193
-2.36192
-2.36192
-2.36191
-2.3619
-2.36189
-2.36188
-2.36187
-2.36186
-2.36185
-2.36184
-2.36184
-2.36183
-2.36182
-2.36181
-2.36181
-2.3618
-2.3618
-2.36179
-2.36178
-2.36178
-2.36177
-2.36177
-2.36176
-2.36176
-2.36175
-2.36175
-2.36174
-2.36174
-2.36173
-2.36173
-2.36173
-2.36173
-2.46019
-2.46019
-2.46019
-2.46019
-2.4602
-2.4602
-2.4602
-2.4602
-2.4602
-2.46019
-2.46019
-2.46019
-2.46018
-2.46017
-2.46017
-2.46016
-2.46016
-2.46015
-2.46015
-2.46015
-2.46016
-2.46016
-2.46017
-2.46018
-2.46019
-2.4602
-2.46022
-2.46023
-2.46024
-2.46025
-2.46026
-2.46027
-2.46028
-2.46029
-2.46031
-2.46032
-2.46033
-2.46033
-2.46034
-2.46035
-2.46036
-2.46037
-2.46038
-2.46038
-2.46039
-2.4604
-2.4604
-2.46041
-2.46041
-2.46042
-2.46042
-2.46042
-2.46043
-2.46043
-2.46043
-2.46043
-2.46043
-2.46043
-2.46042
-2.46042
-2.46041
-2.4604
-2.46039
-2.46039
-2.46038
-2.46037
-2.46036
-2.46035
-2.46034
-2.46033
-2.46032
-2.46031
-2.4603
-2.46029
-2.46029
-2.46028
-2.46027
-2.46026
-2.46025
-2.46024
-2.46023
-2.46023
-2.46022
-2.46021
-2.46021
-2.4602
-2.4602
-2.46019
-2.46018
-2.46018
-2.46017
-2.46017
-2.46016
-2.46016
-2.46015
-2.46015
-2.46015
-2.46014
-2.46014
-2.46014
-2.5586
-2.5586
-2.5586
-2.5586
-2.5586
-2.5586
-2.5586
-2.5586
-2.5586
-2.5586
-2.5586
-2.55859
-2.55859
-2.55858
-2.55858
-2.55857
-2.55857
-2.55856
-2.55856
-2.55856
-2.55856
-2.55857
-2.55858
-2.55859
-2.5586
-2.55861
-2.55863
-2.55864
-2.55865
-2.55866
-2.55867
-2.55868
-2.55869
-2.5587
-2.55871
-2.55872
-2.55873
-2.55874
-2.55875
-2.55876
-2.55877
-2.55878
-2.55879
-2.55879
-2.5588
-2.55881
-2.55881
-2.55882
-2.55882
-2.55883
-2.55883
-2.55884
-2.55884
-2.55884
-2.55885
-2.55885
-2.55885
-2.55884
-2.55884
-2.55883
-2.55883
-2.55882
-2.55881
-2.5588
-2.55879
-2.55878
-2.55878
-2.55877
-2.55876
-2.55875
-2.55874
-2.55873
-2.55872
-2.55871
-2.5587
-2.55869
-2.55868
-2.55867
-2.55866
-2.55866
-2.55865
-2.55864
-2.55863
-2.55863
-2.55862
-2.55862
-2.55861
-2.5586
-2.5586
-2.55859
-2.55859
-2.55858
-2.55858
-2.55857
-2.55857
-2.55856
-2.55856
-2.55856
-2.55856
-2.55855
-2.657
-2.657
-2.657
-2.657
-2.65701
-2.65701
-2.65701
-2.65701
-2.65701
-2.65701
-2.65701
-2.657
-2.657
-2.657
-2.65699
-2.65699
-2.65698
-2.65698
-2.65698
-2.65698
-2.65698
-2.65699
-2.65699
-2.657
-2.65701
-2.65702
-2.65704
-2.65705
-2.65706
-2.65707
-2.65708
-2.65709
-2.6571
-2.65711
-2.65712
-2.65713
-2.65714
-2.65715
-2.65716
-2.65717
-2.65718
-2.65719
-2.6572
-2.6572
-2.65721
-2.65722
-2.65722
-2.65723
-2.65723
-2.65724
-2.65724
-2.65725
-2.65725
-2.65726
-2.65726
-2.65726
-2.65726
-2.65726
-2.65725
-2.65725
-2.65724
-2.65723
-2.65722
-2.65722
-2.65721
-2.6572
-2.65719
-2.65718
-2.65717
-2.65716
-2.65715
-2.65714
-2.65714
-2.65713
-2.65712
-2.65711
-2.6571
-2.65709
-2.65708
-2.65707
-2.65706
-2.65706
-2.65705
-2.65704
-2.65704
-2.65703
-2.65702
-2.65702
-2.65701
-2.65701
-2.657
-2.65699
-2.65699
-2.65699
-2.65698
-2.65698
-2.65697
-2.65697
-2.65697
-2.65697
-2.7554
-2.7554
-2.75541
-2.75541
-2.75541
-2.75541
-2.75541
-2.75541
-2.75541
-2.75542
-2.75541
-2.75541
-2.75541
-2.75541
-2.7554
-2.7554
-2.7554
-2.7554
-2.75539
-2.7554
-2.7554
-2.7554
-2.75541
-2.75542
-2.75543
-2.75544
-2.75545
-2.75546
-2.75547
-2.75548
-2.75549
-2.7555
-2.75551
-2.75552
-2.75553
-2.75554
-2.75555
-2.75556
-2.75557
-2.75558
-2.75559
-2.7556
-2.75561
-2.75561
-2.75562
-2.75563
-2.75563
-2.75564
-2.75564
-2.75565
-2.75565
-2.75566
-2.75566
-2.75567
-2.75567
-2.75567
-2.75567
-2.75567
-2.75566
-2.75566
-2.75565
-2.75565
-2.75564
-2.75563
-2.75562
-2.75561
-2.75561
-2.7556
-2.75559
-2.75558
-2.75557
-2.75556
-2.75555
-2.75554
-2.75553
-2.75552
-2.75551
-2.7555
-2.75549
-2.75549
-2.75548
-2.75547
-2.75546
-2.75546
-2.75545
-2.75544
-2.75544
-2.75543
-2.75542
-2.75542
-2.75541
-2.75541
-2.7554
-2.7554
-2.7554
-2.75539
-2.75539
-2.75539
-2.75538
-2.75538
-2.85381
-2.85381
-2.85381
-2.85381
-2.85381
-2.85382
-2.85382
-2.85382
-2.85382
-2.85382
-2.85382
-2.85382
-2.85382
-2.85382
-2.85382
-2.85382
-2.85381
-2.85381
-2.85381
-2.85381
-2.85382
-2.85382
-2.85383
-2.85383
-2.85384
-2.85385
-2.85386
-2.85387
-2.85388
-2.85389
-2.8539
-2.85391
-2.85392
-2.85393
-2.85394
-2.85395
-2.85396
-2.85397
-2.85398
-2.85399
-2.854
-2.85401
-2.85402
-2.85402
-2.85403
-2.85404
-2.85404
-2.85405
-2.85406
-2.85406
-2.85406
-2.85407
-2.85407
-2.85408
-2.85408
-2.85408
-2.85408
-2.85408
-2.85408
-2.85407
-2.85407
-2.85406
-2.85405
-2.85405
-2.85404
-2.85403
-2.85402
-2.85401
-2.854
-2.85399
-2.85398
-2.85397
-2.85396
-2.85396
-2.85395
-2.85394
-2.85393
-2.85392
-2.85391
-2.8539
-2.85389
-2.85388
-2.85388
-2.85387
-2.85386
-2.85386
-2.85385
-2.85384
-2.85384
-2.85383
-2.85383
-2.85382
-2.85382
-2.85381
-2.85381
-2.85381
-2.8538
-2.8538
-2.8538
-2.8538
-2.95221
-2.95221
-2.95221
-2.95222
-2.95222
-2.95222
-2.95222
-2.95223
-2.95223
-2.95223
-2.95223
-2.95223
-2.95223
-2.95223
-2.95223
-2.95223
-2.95223
-2.95223
-2.95223
-2.95223
-2.95223
-2.95223
-2.95224
-2.95225
-2.95225
-2.95226
-2.95227
-2.95228
-2.95229
-2.9523
-2.95231
-2.95232
-2.95233
-2.95234
-2.95235
-2.95236
-2.95237
-2.95238
-2.95239
-2.9524
-2.95241
-2.95242
-2.95242
-2.95243
-2.95244
-2.95245
-2.95245
-2.95246
-2.95246
-2.95247
-2.95247
-2.95248
-2.95248
-2.95249
-2.95249
-2.95249
-2.95249
-2.95249
-2.95249
-2.95248
-2.95248
-2.95247
-2.95247
-2.95246
-2.95245
-2.95244
-2.95243
-2.95243
-2.95242
-2.95241
-2.9524
-2.95239
-2.95238
-2.95237
-2.95236
-2.95235
-2.95234
-2.95233
-2.95232
-2.95232
-2.95231
-2.9523
-2.95229
-2.95228
-2.95228
-2.95227
-2.95226
-2.95226
-2.95225
-2.95225
-2.95224
-2.95224
-2.95223
-2.95223
-2.95222
-2.95222
-2.95222
-2.95222
-2.95221
-2.95221
-3.05061
-3.05061
-3.05062
-3.05062
-3.05062
-3.05062
-3.05063
-3.05063
-3.05063
-3.05064
-3.05064
-3.05064