/*--------------------------------*- C++ -*----------------------------------*\
| =========                 |                                                 |
| \\      /  F ield         | OpenFOAM: The Open Source CFD Toolbox           |
|  \\    /   O peration     | Version:  4.1                                   |
|   \\  /    A nd           | Web:      www.OpenFOAM.org                      |
|    \\/     M anipulation  |                                                 |
\*---------------------------------------------------------------------------*/
FoamFile
{
    version     2.0;
    format      ascii;
    class       volScalarField;
    location    "160";
    object      mag(U);
}
// * * * * * * * * * * * * * * * * * * * * * * * * * * * * * * * * * * * * * //

dimensions      [0 1 -1 0 0 0 0];

internalField   nonuniform List<scalar> 
5000
(
0.00170353
0.003599
0.00717445
0.0097748
0.0116809
0.0133037
0.0148323
0.0163326
0.0178108
0.0192513
0.0206307
0.0219217
0.0230938
0.0241154
0.0249568
0.0255935
0.026009
0.0261956
0.0261525
0.025888
0.025422
0.0247847
0.0240088
0.0231233
0.0221495
0.021099
0.0199748
0.0187725
0.0174829
0.016095
0.0145979
0.0129827
0.0112448
0.00938594
0.00741732
0.0053699
0.00333526
0.00163004
0.00176122
0.00352988
0.00525574
0.00686905
0.00832467
0.00961208
0.01074
0.0117199
0.0125609
0.01327
0.0138521
0.0143112
0.0146503
0.0148727
0.0149819
0.014983
0.0148848
0.0146916
0.0144086
0.0140416
0.0135958
0.0130766
0.0124894
0.01184
0.0111345
0.0103803
0.0095859
0.00876178
0.00791801
0.00705437
0.00611341
0.00511809
0.00352871
0.00374523
0.00493203
0.00682234
0.00863658
0.0103946
0.0120429
0.0135158
0.0147465
0.0156684
0.0162115
0.0162924
0.0158233
0.0147043
0.0128477
0.0102443
0.00721912
0.00470636
0.0057041
0.00890043
0.012207
0.0145252
0.0157155
0.0160406
0.0156763
0.0147635
0.0133463
0.0113597
0.00858802
0.00668635
0.00419527
0.00642971
0.00900589
0.0110787
0.0129893
0.0147547
0.0163869
0.0179238
0.0193867
0.0207769
0.0220807
0.0232752
0.0243315
0.025218
0.0259052
0.0263693
0.0265986
0.0265891
0.02635
0.025916
0.0253213
0.0245933
0.023758
0.022837
0.0218444
0.0207865
0.0196621
0.0184645
0.0171841
0.0158108
0.0143358
0.0127545
0.0110693
0.00929292
0.00745704
0.00564237
0.0040851
0.00333562
0.00391914
0.00512148
0.00653682
0.00796833
0.00931937
0.0105539
0.0116609
0.0126402
0.0134949
0.0142284
0.0148437
0.0153432
0.0157293
0.0160046
0.0161722
0.0162341
0.0161931
0.0160555
0.0158258
0.0155088
0.0151102
0.0146352
0.0140891
0.0134771
0.0128036
0.0120726
0.0112863
0.0104433
0.00953528
0.00853976
0.00741189
0.00641782
0.00655583
0.00512214
0.00508099
0.00682123
0.00866397
0.0104156
0.0120067
0.0133796
0.0144777
0.0152463
0.0156341
0.0155811
0.0150586
0.0140378
0.0125151
0.0106246
0.00886457
0.00810809
0.00813692
0.00852294
0.0100279
0.0116096
0.0125597
0.0128788
0.0126187
0.0119123
0.0108143
0.00940883
0.00795977
0.00898152
0.00705491
0.00892077
0.010547
0.0117006
0.0130914
0.0146022
0.0160845
0.0174952
0.0188277
0.0200774
0.021232
0.0222713
0.0231704
0.0239031
0.0244467
0.0247867
0.0249215
0.0248576
0.0246103
0.0242118
0.0236755
0.0230243
0.0222807
0.0214632
0.0205836
0.0196457
0.0186466
0.0175793
0.0164351
0.015207
0.0138916
0.0124932
0.0110281
0.00953115
0.00806848
0.00677314
0.00589776
0.00570018
0.00598715
0.0066766
0.00769151
0.00883813
0.00999296
0.0110952
0.0121148
0.0130374
0.0138563
0.0145681
0.0151712
0.0156643
0.0160472
0.0163199
0.0164833
0.0165407
0.0164947
0.0163496
0.0161117
0.0157871
0.0153816
0.0149011
0.0143514
0.0137374
0.0130628
0.0123296
0.0115368
0.0106797
0.00975092
0.00875268
0.00776765
0.00747514
0.00928571
0.00816888
0.00636921
0.00713457
0.00850058
0.00992957
0.0112481
0.0123738
0.013253
0.0138488
0.0141338
0.0140821
0.0137271
0.0131103
0.012323
0.0115915
0.0112699
0.0115434
0.0117602
0.0106378
0.00931744
0.00912235
0.00928662
0.00935227
0.00920129
0.0088707
0.00846659
0.00829558
0.00897104
0.0122282
0.00991671
0.0113097
0.0121081
0.0123331
0.0130469
0.0141428
0.015358
0.0165706
0.0177374
0.0188386
0.019857
0.0207723
0.0215617
0.0222031
0.0226786
0.0229791
0.0231054
0.0230683
0.0228824
0.0225645
0.0221269
0.0215869
0.0209635
0.0202732
0.0195265
0.0187266
0.0178705
0.0169523
0.0159665
0.0149111
0.0137909
0.0126211
0.0114326
0.0102775
0.00923532
0.00842866
0.00801686
0.00796238
0.00786932
0.0081549
0.0087851
0.0096213
0.0105465
0.0114864
0.0123958
0.0132472
0.0140235
0.0147135
0.0153094
0.0158054
0.016197
0.0164815
0.0166574
0.0167254
0.0166862
0.0165445
0.0163063
0.0159776
0.0155651
0.0150751
0.0145141
0.0138876
0.0132003
0.0124551
0.0116535
0.0107972
0.00989463
0.0089923
0.00829373
0.00871126
0.0116604
0.0111948
0.00833306
0.00815327
0.00879681
0.00966514
0.0105183
0.0112433
0.0117837
0.0121178
0.0122506
0.0122038
0.012086
0.0120024
0.0120943
0.0125322
0.013348
0.0142367
0.0145765
0.0132279
0.00989652
0.00748255
0.00652643
0.00629191
0.00636758
0.00658886
0.00703782
0.00808442
0.0103109
0.014891
0.0125481
0.013567
0.0137119
0.0131243
0.0131339
0.0137436
0.0146288
0.0155976
0.0165685
0.0175043
0.0183805
0.0191753
0.0198676
0.0204389
0.0208759
0.0211724
0.0213301
0.0213563
0.0212591
0.0210495
0.0207327
0.0203202
0.0198277
0.0192708
0.0186605
0.0180013
0.0172919
0.0165297
0.0157139
0.0148494
0.0139495
0.013039
0.0121575
0.0113593
0.01071
0.0102875
0.0101638
0.0100931
0.00967104
0.00959461
0.00984524
0.0103421
0.0109956
0.0117319
0.0124967
0.0132512
0.0139682
0.0146279
0.0152153
0.0157187
0.0161289
0.0164387
0.0166431
0.0167401
0.0167272
0.0166078
0.016388
0.0160739
0.0156724
0.0151908
0.0146362
0.0140157
0.0133356
0.0126022
0.0118222
0.0110069
0.0101833
0.00943319
0.00903172
0.00998266
0.0136651
0.0138483
0.0103441
0.00953123
0.00951208
0.00972716
0.00995891
0.0101079
0.010141
0.0100773
0.00997986
0.0099448
0.010143
0.0106931
0.0117174
0.0132323
0.014957
0.0163136
0.0166898
0.0154705
0.011394
0.00683062
0.00453623
0.00388961
0.00429564
0.00513451
0.0063171
0.00816335
0.0113095
0.0168045
0.0148376
0.0156048
0.0153066
0.0140752
0.0134229
0.0135213
0.0140403
0.0147327
0.01548
0.0162268
0.0169414
0.017601
0.0181879
0.0186888
0.0190959
0.0194045
0.0196146
0.0197255
0.0197338
0.0196459
0.0194607
0.0191821
0.0188225
0.0183975
0.0179205
0.017399
0.0168359
0.0162333
0.0155967
0.014938
0.0142779
0.0136464
0.0130827
0.0126291
0.0123212
0.0121851
0.012222
0.0120871
0.011397
0.0109778
0.0108525
0.0109891
0.0113329
0.0118229
0.0124035
0.0130288
0.0136626
0.0142764
0.0148475
0.0153577
0.0157919
0.0161383
0.0163872
0.0165329
0.0165686
0.0164943
0.0163159
0.0160393
0.0156716
0.015221
0.0146962
0.0141061
0.0134602
0.0127689
0.0120452
0.0113101
0.0106046
0.010031
0.00989587
0.0112339
0.0153986
0.0160537
0.0122783
0.0109579
0.0104417
0.0100619
0.00963952
0.00911691
0.00851168
0.0079123
0.00747915
0.0074334
0.00798511
0.00919252
0.0111061
0.0135712
0.0160542
0.0178183
0.0182809
0.0170329
0.0132438
0.00689543
0.00346504
0.00224667
0.00300842
0.00435489
0.00597108
0.00821358
0.0119289
0.0181851
0.0167506
0.0173653
0.0168198
0.0151263
0.0138965
0.0134934
0.013632
0.0140308
0.0145364
0.0150748
0.0156069
0.0161102
0.0165717
0.0169868
0.0173552
0.0176758
0.0179428
0.0181457
0.0182743
0.0183147
0.018267
0.0181253
0.0178979
0.0176015
0.0172534
0.0168666
0.0164498
0.0160113
0.0155631
0.0151234
0.0147172
0.0143744
0.0141253
0.0139906
0.0139704
0.0140405
0.0141409
0.0139295
0.013026
0.0122813
0.0117916
0.0115638
0.0115751
0.011784
0.0121417
0.012601
0.01312
0.0136627
0.0141995
0.0147054
0.0151599
0.0155458
0.015849
0.016059
0.0161655
0.0161609
0.0160498
0.0158373
0.0155305
0.0151379
0.01467
0.014138
0.0135547
0.0129348
0.0122979
0.0116726
0.0111087
0.0107175
0.0108164
0.0124512
0.0169414
0.0178873
0.0140532
0.0122868
0.0114144
0.0105586
0.00955788
0.00838575
0.00710265
0.0058654
0.00497745
0.00491198
0.00582036
0.00761493
0.0102845
0.0135586
0.016681
0.0188043
0.0193954
0.0181357
0.0147279
0.00748476
0.00319754
0.00132188
0.00237581
0.00400765
0.00578678
0.00816836
0.0122702
0.0192262
0.018296
0.0188194
0.0181899
0.0162098
0.0145065
0.0136354
0.0133975
0.0135005
0.013761
0.0140841
0.0144217
0.0147498
0.0150615
0.015363
0.0156672
0.0159818
0.0162986
0.0165943
0.0168448
0.0170169
0.0171101
0.0171074
0.017012
0.0168419
0.0166201
0.016367
0.0160984
0.0158295
0.0155784
0.0153676
0.0152228
0.0151687
0.0152206
0.0153735
0.015591
0.0158023
0.0158953
0.0156
0.014533
0.0134904
0.0126653
0.0120945
0.0117777
0.0116917
0.0117992
0.0120578
0.0124248
0.012861
0.0133315
0.0138066
0.0142611
0.0146738
0.0150269
0.0153053
0.0154982
0.0155847
0.0155663
0.0154458
0.0152288
0.0149238
0.014542
0.0140967
0.0136038
0.0130823
0.0125564
0.0120606
0.0116493
0.0114369
0.0117442
0.0136258
0.0183422
0.019429
0.0156074
0.0134649
0.0123234
0.0111082
0.00965028
0.00794039
0.00606071
0.00419386
0.00277098
0.00279171
0.00400149
0.00616139
0.009355
0.0132848
0.016933
0.0193606
0.0200989
0.0189173
0.0155678
0.00870603
0.00340058
0.00096175
0.00217924
0.003905
0.00568332
0.00805278
0.0124244
0.0200475
0.0195004
0.0199553
0.0193666
0.017266
0.0152052
0.0139144
0.0133139
0.0131284
0.0131528
0.0132694
0.013416
0.0135627
0.0137046
0.0138587
0.0140568
0.0143261
0.014666
0.015044
0.015416
0.0157208
0.0159574
0.0160972
0.0161359
0.0160924
0.0159971
0.0158788
0.0157618
0.0156678
0.0156198
0.0156423
0.0157585
0.0159838
0.016316
0.0167234
0.0171341
0.0174346
0.017476
0.0170719
0.0159008
0.014601
0.0134942
0.0126335
0.0120309
0.011672
0.0115291
0.011567
0.0117483
0.0120358
0.0123946
0.0127938
0.0132063
0.0136095
0.0139841
0.014312
0.0145872
0.0147729
0.0148641
0.0148589
0.0147589
0.0145706
0.0143043
0.0139742
0.013598
0.0131979
0.0128017
0.0124474
0.0121918
0.0121499
0.0126478
0.0147541
0.0196357
0.0207242
0.0168945
0.0145008
0.0131131
0.0116348
0.00983744
0.00772379
0.00538453
0.00299744
0.00111595
0.00156829
0.00292244
0.00505913
0.00846649
0.0128862
0.0169354
0.019596
0.0204706
0.0194035
0.0161869
0.00989661
0.00385203
0.00095684
0.00223742
0.00396194
0.0056544
0.00791771
0.0124606
0.0207242
0.0203981
0.020771
0.0203047
0.0182392
0.0159512
0.014305
0.0133623
0.0128971
0.012698
0.0126271
0.0126035
0.0125831
0.0125532
0.0125337
0.0125746
0.0127356
0.0130441
0.0134748
0.0139619
0.0144039
0.0147856
0.0150737
0.0152515
0.0153383
0.0153721
0.0153918
0.0154302
0.0155149
0.0156717
0.0159249
0.016293
0.0167807
0.017368
0.0179972
0.0185632
0.0189155
0.0188831
0.0183294
0.0171167
0.0156278
0.0143054
0.0132371
0.0124262
0.0118563
0.0115006
0.011328
0.0113077
0.01141
0.0116069
0.0118725
0.0121833
0.0125186
0.0128603
0.0131915
0.0135065
0.0137757
0.0139758
0.014097
0.0141335
0.0140857
0.0139606
0.0137707
0.013534
0.0132741
0.0130209
0.0128144
0.0127128
0.0128329
0.0135119
0.015842
0.0208528
0.0218088
0.0179238
0.0153564
0.0137788
0.0120936
0.0100574
0.00765742
0.00499561
0.00222687
0.000119823
0.00136711
0.00258192
0.00440943
0.00776657
0.0125067
0.0168182
0.019628
0.0206058
0.0196554
0.0166271
0.0108547
0.00451813
0.00116531
0.00246801
0.00416206
0.00572431
0.00781809
0.0124341
0.0213075
0.0210254
0.0212735
0.0209622
0.0190692
0.0167023
0.0147903
0.0135384
0.0128008
0.0123845
0.0121431
0.011978
0.011825
0.0116505
0.0114591
0.0113038
0.0112787
0.0114683
0.0118852
0.012454
0.0130495
0.0135788
0.0140233
0.0143487
0.0145724
0.0147408
0.0149032
0.0151004
0.0153644
0.0157224
0.0161965
0.0167998
0.0175267
0.018341
0.0191612
0.0198522
0.0202328
0.0201206
0.0194143
0.018146
0.016587
0.0151298
0.0139375
0.0130112
0.0123156
0.0118142
0.011473
0.0112642
0.0111664
0.0111634
0.0112419
0.0113887
0.0115903
0.0118334
0.0121054
0.0123933
0.0127019
0.0129834
0.0132189
0.0133934
0.0134971
0.0135292
0.0134973
0.0134167
0.0133099
0.0132078
0.0131511
0.0131997
0.0134749
0.0143344
0.016904
0.0220196
0.0227013
0.0187104
0.0160137
0.014311
0.0124895
0.0102696
0.00768337
0.00484358
0.00166527
0.000579814
0.00152835
0.00253914
0.00409189
0.00734725
0.0122594
0.016691
0.0195621
0.0205966
0.0197431
0.016902
0.0116006
0.00532045
0.0014804
0.00281403
0.00450438
0.0059201
0.00780125
0.0123902
0.0218317
0.0214167
0.0214802
0.0213079
0.0196926
0.0174049
0.0153511
0.0138506
0.0128552
0.0122187
0.011809
0.0115215
0.0112753
0.0110097
0.0106927
0.0103473
0.0100746
0.0100299
0.0103198
0.0109068
0.0116464
0.0123287
0.0129372
0.0134209
0.0137915
0.0141023
0.0144133
0.014772
0.0152131
0.0157633
0.0164421
0.0172574
0.0181957
0.0192072
0.0201904
0.0209831
0.0213803
0.0211963
0.0203674
0.0190205
0.0174567
0.0159814
0.0147414
0.0137778
0.0130327
0.0124568
0.0120036
0.0116423
0.0113555
0.0111392
0.0109966
0.010932
0.0109464
0.011036
0.0111931
0.0114057
0.0116861
0.0119955
0.0123092
0.0126016
0.0128504
0.0130422
0.0131753
0.0132585
0.0133112
0.0133627
0.0134545
0.0136487
0.0140757
0.015124
0.0179623
0.0231572
0.0234052
0.0192634
0.0164859
0.0146849
0.0127738
0.0104517
0.00771861
0.00457347
0.00181522
0.00102408
0.00169112
0.00253178
0.00399065
0.00729308
0.0121938
0.0166126
0.0194664
0.0205109
0.0197205
0.0170236
0.0122074
0.00611777
0.00182213
0.00320433
0.00496733
0.00625297
0.00789895
0.0123649
0.0223187
0.0215985
0.0214178
0.0213225
0.020043
0.0180156
0.0159649
0.0143052
0.0130892
0.0122343
0.0116435
0.0112278
0.0109068
0.0106032
0.0102424
0.00978252
0.00927145
0.00888876
0.00887877
0.00935346
0.0101809
0.0110302
0.0118074
0.0124623
0.012992
0.0134556
0.0139224
0.0144452
0.0150592
0.0157888
0.0166511
0.0176507
0.0187691
0.0199473
0.0210675
0.0219457
0.0223582
0.0221225
0.0212118
0.019813
0.0182491
0.0168072
0.015619
0.01468
0.0139412
0.0133432
0.0128279
0.0123548
0.0119046
0.0114809
0.0111036
0.0107987
0.0105896
0.0104896
0.0104991
0.0106056
0.0108147
0.0111042
0.011452
0.0118284
0.0122002
0.0125401
0.0128332
0.0130785
0.0132891
0.0134918
0.0137281
0.0140639
0.0146435
0.0158983
0.0190458
0.0242776
0.0239078
0.019591
0.0167805
0.0149112
0.0129324
0.0105472
0.00771669
0.00452222
0.00212069
0.0014643
0.0018742
0.00252675
0.00392185
0.00737703
0.0123221
0.0166576
0.0194226
0.0204147
0.0196386
0.0170741
0.0126343
0.00680629
0.00215636
0.00358097
0.00550832
0.00671144
0.0081234
0.0123854
0.0227817
0.0215724
0.021111
0.0210056
0.0200545
0.0184127
0.0165938
0.0149418
0.0135797
0.0125084
0.0117134
0.0111357
0.0107168
0.0103877
0.0100543
0.00960389
0.00897225
0.00825476
0.00776781
0.00788225
0.00863384
0.00967356
0.0106256
0.0114649
0.0121678
0.0127964
0.0134282
0.0141187
0.0149007
0.0157955
0.0168177
0.0179711
0.0192362
0.0205499
0.0217837
0.0227369
0.0231724
0.0229134
0.0219638
0.0205498
0.0190106
0.0176202
0.0164965
0.0156354
0.0149596
0.014379
0.0138372
0.0132854
0.0126987
0.0120811
0.0114656
0.0109003
0.0104378
0.0101197
0.0099641
0.00996117
0.0100972
0.0103496
0.0107025
0.0111306
0.0115969
0.0120634
0.0125014
0.0128981
0.0132586
0.0136058
0.013981
0.0144556
0.0151939
0.0166834
0.0201889
0.0253758
0.024181
0.0197002
0.016906
0.0149936
0.0129661
0.010534
0.00764001
0.0045755
0.00247683
0.00188275
0.00206245
0.00253084
0.00391159
0.00758539
0.012573
0.0168064
0.0194512
0.0203569
0.0195563
0.0170679
0.0128862
0.00734144
0.00248071
0.00391606
0.00608354
0.00726743
0.00846822
0.0124698
0.0232285
0.021292
0.0205773
0.0204082
0.0197636
0.018566
0.0171168
0.015653
0.0143109
0.0131388
0.0121656
0.0113946
0.0108068
0.0103833
0.0100628
0.00971112
0.00914131
0.00826486
0.007277
0.00673516
0.00713415
0.00825299
0.0093897
0.0104188
0.0113083
0.0121156
0.0129236
0.0137875
0.0147348
0.0157816
0.0169404
0.0182166
0.019594
0.0210116
0.0223369
0.0233591
0.023832
0.023583
0.0226362
0.0212413
0.0197477
0.0184237
0.0173758
0.0165889
0.0159921
0.0154784
0.0149423
0.0143387
0.0136391
0.0128437
0.0119907
0.0111474
0.0103979
0.00982266
0.00947559
0.00936426
0.00945743
0.00969764
0.010063
0.0105323
0.0110727
0.011643
0.0122058
0.0127378
0.0132358
0.0137182
0.0142265
0.0148399
0.0157501
0.0175154
0.0214298
0.0264151
0.0241893
0.0196016
0.0168727
0.0149356
0.0128654
0.0103945
0.00748425
0.00463476
0.0028342
0.0022606
0.00224171
0.00254001
0.00396222
0.00790497
0.0129282
0.0170435
0.0195466
0.0203405
0.0194846
0.0170272
0.0130101
0.00771156
0.00277841
0.00421127
0.00666298
0.00788763
0.00891335
0.0126267
0.0236636
0.0206605
0.0198002
0.0195965
0.0192572
0.0185313
0.0175298
0.0163938
0.0152296
0.014101
0.013059
0.0121445
0.011379
0.0107753
0.0103388
0.0100205
0.00962088
0.00883674
0.0075839
0.00627953
0.00585677
0.00674297
0.00809022
0.00930948
0.0103978
0.0113979
0.0123956
0.0134421
0.0145558
0.0157455
0.0170211
0.0183911
0.0198469
0.0213364
0.0227316
0.0238189
0.0243468
0.0241424
0.0232375
0.0218908
0.0204571
0.0192056
0.0182379
0.0175294
0.0170006
0.0165569
0.0160692
0.0154425
0.0146543
0.0137007
0.0126185
0.0114877
0.0104181
0.00953206
0.0089373
0.00869076
0.00877145
0.00905371
0.00947918
0.0100142
0.0106303
0.0112923
0.0119628
0.0126136
0.0132357
0.013844
0.0144811
0.0152374
0.0163426
0.0184413
0.0227943
0.0273212
0.023899
0.0193119
0.0166924
0.0147418
0.012629
0.0101238
0.00725872
0.00467574
0.00314987
0.00257812
0.00239979
0.00255577
0.00408858
0.00832447
0.0133638
0.017348
0.0196965
0.0203614
0.0194258
0.0169599
0.0130348
0.00792439
0.00302328
0.00448521
0.00723313
0.00854182
0.00943123
0.0128547
0.0240888
0.0195276
0.0187269
0.018649
0.018669
0.0184312
0.0179113
0.0171741
0.016295
0.0153379
0.0143607
0.0134132
0.0125328
0.0117447
0.0110876
0.0106131
0.010268
0.00974187
0.00859681
0.00677771
0.00523778
0.00530141
0.00671754
0.00812704
0.00941754
0.0106227
0.011825
0.0130671
0.014354
0.0156839
0.0170626
0.0185022
0.0200049
0.0215343
0.0229766
0.0241246
0.0247249
0.0245986
0.0237714
0.0224972
0.0211322
0.0199522
0.0190619
0.0184313
0.0179708
0.0175783
0.0171499
0.0165367
0.015689
0.014604
0.0133126
0.0119032
0.010498
0.00925056
0.00832312
0.0078623
0.00792495
0.00830577
0.008864
0.009522
0.010244
0.0110046
0.0117763
0.0125351
0.0132713
0.0139988
0.0147635
0.0156732
0.01701
0.0195224
0.0243407
0.0278536
0.0233847
0.0188546
0.016377
0.0144167
0.0122592
0.00972898
0.00697262
0.00468489
0.00339313
0.00282311
0.00253081
0.00258518
0.0043122
0.00883506
0.0138599
0.0176992
0.0198838
0.0204078
0.0193732
0.0168664
0.0129778
0.00799661
0.00319356
0.0047595
0.00779194
0.00920583
0.00999193
0.0131438
0.0245039
0.0176888
0.0173077
0.0176712
0.018174
0.018431
0.0183741
0.0180348
0.0174709
0.016744
0.0159142
0.0150335
0.0141393
0.0132512
0.0123945
0.0116538
0.0111373
0.0107138
0.00992158
0.00821274
0.00569898
0.00431243
0.00526494
0.00686569
0.00834596
0.00976467
0.0111869
0.0126415
0.0141146
0.0155898
0.0170664
0.0185589
0.0200817
0.0216203
0.023085
0.0242857
0.0249721
0.0249539
0.0242367
0.0230563
0.0217653
0.0206508
0.0198293
0.0192708
0.0188773
0.0185358
0.0181379
0.0175694
0.0166962
0.0155131
0.0140446
0.0123891
0.0106655
0.00904087
0.00769794
0.00689024
0.00684255
0.00736217
0.00813576
0.00899436
0.00987501
0.0107604
0.0116414
0.0125071
0.0133538
0.0141984
0.0150947
0.016178
0.0178093
0.020949
0.0258465
0.0278961
0.0226508
0.0182931
0.0159383
0.0139652
0.0117617
0.00922698
0.00663707
0.00465232
0.00355387
0.00298758
0.00262815
0.00263741
0.0046531
0.00942741
0.0143997
0.0180777
0.0200906
0.0204646
0.0193154
0.0167414
0.0128466
0.0079435
0.00327918
0.00505419
0.00834332
0.00986112
0.0105662
0.0134772
0.0249068
0.0148892
0.0155532
0.016771
0.0178859
0.0186096
0.0189421
0.0189313
0.0186396
0.0181334
0.0174752
0.0167165
0.0158914
0.0150084
0.014063
0.0131058
0.0123099
0.0117727
0.0111944
0.00994965
0.00739549
0.00438069
0.00384885
0.00550762
0.00716213
0.00879569
0.0104514
0.0121382
0.0138162
0.01545
0.0170292
0.0185682
0.0200925
0.0216127
0.0230729
0.0243126
0.025092
0.0252063
0.0246285
0.0235625
0.0223497
0.0212918
0.0205255
0.0200282
0.0196962
0.0194061
0.0190393
0.0184848
0.0176341
0.016391
0.0147852
0.0129336
0.0109418
0.00898089
0.00719564
0.00588592
0.00555092
0.00620861
0.00726937
0.00840241
0.00949776
0.0105436
0.0115529
0.012534
0.013495
0.0144602
0.0154994
0.0167983
0.0189291
0.0227045
0.0269802
0.0274559
0.0217289
0.0176742
0.0153877
0.0133937
0.0111464
0.00864244
0.00626789
0.00457431
0.00362902
0.00307312
0.00269035
0.00272465
0.00512227
0.0100906
0.0149676
0.0184658
0.0202991
0.0205158
0.0192391
0.0165764
0.0126417
0.00777533
0.00328182
0.00538603
0.00889264
0.0104928
0.0111271
0.0138341
0.0252936
0.0108172
0.0134972
0.0158893
0.0176421
0.0187622
0.0193917
0.0196269
0.0195507
0.0192394
0.0187582
0.018157
0.017465
0.016681
0.0157727
0.0147338
0.0137104
0.012945
0.012389
0.0115132
0.00955309
0.00599094
0.00318786
0.00408812
0.00586458
0.00768436
0.00958262
0.0115241
0.0134309
0.0152443
0.0169408
0.0185316
0.02005
0.021531
0.0229594
0.0242173
0.0250872
0.0253508
0.0249389
0.0240088
0.0228805
0.0218696
0.0211416
0.0206898
0.020409
0.0201667
0.0198346
0.0192939
0.0184404
0.0172038
0.0155049
0.0135144
0.0113208
0.00910955
0.00694565
0.00504878
0.00416216
0.00489462
0.00629999
0.00776321
0.00911625
0.0103547
0.0115149
0.0126259
0.0137105
0.0148044
0.0160196
0.0177236
0.0205167
0.0243819
0.0276001
0.0265898
0.0206871
0.0169887
0.0147577
0.0127108
0.0104302
0.00800571
0.00588228
0.0044515
0.00362434
0.00308696
0.00271299
0.00286059
0.00571732
0.0108114
0.0155482
0.0188468
0.0204929
0.0205455
0.01913
0.0163601
0.0123583
0.00749655
0.00321457
0.00576854
0.00944352
0.0110874
0.01165
0.0141922
0.0256592
0.00557812
0.0111105
0.0146574
0.0169791
0.0184598
0.0193516
0.0198066
0.0199341
0.0198229
0.0195419
0.0191389
0.0186388
0.0180328
0.0172672
0.0162832
0.0151599
0.014181
0.0135216
0.0128534
0.0114345
0.00856915
0.00418569
0.00262447
0.00440893
0.00638685
0.00853918
0.0107622
0.0129254
0.0149448
0.0167821
0.0184425
0.0199615
0.0213937
0.0227659
0.0240148
0.0249612
0.0253811
0.0251575
0.0243872
0.0233544
0.0223835
0.0216754
0.0212494
0.0210045
0.0208012
0.020503
0.0199837
0.019132
0.017869
0.0161785
0.014106
0.011778
0.00941232
0.00698878
0.00458169
0.00283255
0.00352834
0.00532936
0.00714401
0.0087691
0.0102173
0.0115464
0.0127995
0.0140174
0.0152849
0.016869
0.0191168
0.0222666
0.025703
0.0276754
0.0253768
0.0195833
0.0162455
0.0140607
0.0119279
0.0096388
0.00735051
0.00549547
0.00428779
0.00355027
0.00303346
0.00269058
0.00306586
0.00642537
0.0115735
0.0161252
0.0192045
0.0206565
0.020539
0.0189741
0.0160804
0.0119879
0.0071049
0.00310398
0.00621321
0.00999572
0.0116311
0.0121128
0.0145295
0.0259976
0.00196751
0.00832682
0.0127401
0.0156021
0.0174642
0.0186395
0.0193346
0.0196878
0.0198024
0.019753
0.0195878
0.0193285
0.0189606
0.0184155
0.0175918
0.0164955
0.015386
0.0145814
0.0139864
0.0129712
0.0107836
0.00708683
0.00246395
0.00283054
0.00489292
0.00728637
0.00981869
0.012266
0.0145189
0.0165254
0.0182836
0.0198251
0.0212143
0.022515
0.0237246
0.0247215
0.0252918
0.0252726
0.0246882
0.0237692
0.0228371
0.0221314
0.0217088
0.0214802
0.0213013
0.0210298
0.0205344
0.0196984
0.0184345
0.0167176
0.0146218
0.0122874
0.00985199
0.00728444
0.00458551
0.0018552
0.00233254
0.00452691
0.00664178
0.00851328
0.0101658
0.0116677
0.0130857
0.0145274
0.0161292
0.0181495
0.0207922
0.023862
0.0265293
0.0272197
0.0239139
0.0184601
0.0154548
0.0132999
0.0110627
0.00880834
0.00671073
0.00511972
0.00409043
0.00341507
0.00291191
0.0026277
0.00336893
0.0072278
0.0123564
0.0166796
0.0195233
0.0207764
0.0204832
0.0187582
0.0157247
0.01152
0.00659364
0.00300586
0.00672676
0.0105437
0.0121081
0.0124959
0.0148263
0.0263023
0.00376355
0.00529109
0.010319
0.0137084
0.0159328
0.017389
0.0183266
0.0189102
0.0192592
0.0194554
0.0195477
0.0195563
0.0194627
0.0191868
0.0185933
0.0176212
0.0164755
0.015542
0.0149298
0.0141813
0.0125577
0.00962324
0.00551956
0.00105466
0.00318657
0.00582689
0.00868914
0.011428
0.0139334
0.0161371
0.0180278
0.0196273
0.0209976
0.022227
0.0233708
0.0243819
0.0250815
0.0252728
0.0249001
0.0241212
0.0232361
0.0225197
0.0220778
0.0218429
0.0216687
0.0214094
0.0209327
0.0201189
0.0188747
0.017169
0.0150682
0.0127197
0.0102657
0.00773374
0.00504912
0.00216353
0.0011844
0.00394461
0.00632565
0.00840777
0.0102654
0.012
0.0136599
0.0153999
0.0173828
0.0197547
0.0224582
0.0250868
0.0267916
0.0262965
0.0223051
0.0173449
0.0146212
0.0124773
0.0101436
0.007983
0.00611661
0.00476594
0.00387007
0.00322523
0.00272253
0.00253586
0.00379539
0.00810286
0.0131347
0.0171909
0.019789
0.0208424
0.0203682
0.0184717
0.0152816
0.0109437
0.00595561
0.00299903
0.00731204
0.0110743
0.0124999
0.0127824
0.0150662
0.0265677
0.00589655
0.00286102
0.00793322
0.0117063
0.0142044
0.0158817
0.0170147
0.0177935
0.0183521
0.0187778
0.0191201
0.0193977
0.0195897
0.0196064
0.0192835
0.0185014
0.0173999
0.0163791
0.0157004
0.015096
0.0139031
0.0116103
0.00828425
0.00435166
0.00123704
0.00426735
0.00740966
0.0104092
0.0131644
0.0155818
0.0176418
0.0193444
0.020737
0.0219159
0.0229799
0.0239649
0.0247564
0.0251489
0.0250093
0.0244036
0.0235854
0.0228531
0.0223714
0.0221068
0.0219141
0.0216464
0.0211745
0.0203817
0.0191702
0.0174993
0.0154295
0.0131122
0.0106941
0.00820503
0.00558076
0.0028165
0.00112533
0.00368639
0.0062715
0.00856855
0.0106568
0.0126369
0.0146009
0.0166816
0.0189591
0.021427
0.0238648
0.0258023
0.0265015
0.0249984
0.0206459
0.0162509
0.0137478
0.0115931
0.00921662
0.00720829
0.00559183
0.00444497
0.00363656
0.00298224
0.00246738
0.00244539
0.00436122
0.00902405
0.0138775
0.0176377
0.0199913
0.0208487
0.0201879
0.0181066
0.014742
0.010249
0.0051826
0.00317904
0.00796252
0.0115633
0.0127853
0.0129594
0.0152377
0.026789
0.00740118
0.00241079
0.00593202
0.00990909
0.0125702
0.0143694
0.0156158
0.0165241
0.0172396
0.0178533
0.0184144
0.0189403
0.0194085
0.019721
0.0196878
0.0191373
0.0181428
0.0170826
0.0163171
0.0157572
0.014856
0.0130812
0.010371
0.00720061
0.00384148
0.00290091
0.00606614
0.00921875
0.0122035
0.0148432
0.0170985
0.0189476
0.0204155
0.0215851
0.0225761
0.0235
0.0243328
0.0248981
0.0250015
0.024605
0.0238858
0.0231438
0.0226062
0.0222904
0.0220552
0.0217536
0.0212652
0.0204827
0.0193084
0.0176897
0.0156743
0.0134135
0.011065
0.00867483
0.00619657
0.00370628
0.00228313
0.00404171
0.0066127
0.00908397
0.0114176
0.0136791
0.0159404
0.0182606
0.020625
0.0229079
0.0248342
0.0259692
0.0257217
0.0234322
0.0190125
0.0151794
0.012837
0.0106677
0.0083283
0.00652439
0.00515294
0.00416638
0.00339654
0.00268676
0.00215793
0.00239108
0.0050696
0.00995669
0.014551
0.0180028
0.0201266
0.0207955
0.0199404
0.0176588
0.0140998
0.00942875
0.00426716
0.00362249
0.00865644
0.0119736
0.0129439
0.01302
0.015335
0.0269636
0.00839473
0.00307169
0.00435462
0.00846479
0.0111876
0.0130088
0.014281
0.0152417
0.016047
0.0167916
0.0175245
0.0182625
0.0189826
0.0195799
0.019841
0.0195478
0.0187088
0.0176584
0.0168069
0.0162175
0.0154825
0.0140901
0.0118815
0.00916817
0.00653523
0.00432799
0.00514561
0.00796175
0.0110917
0.0139175
0.0163895
0.0184192
0.020012
0.0212254
0.0221747
0.0230202
0.0238389
0.0245274
0.0248651
0.0247093
0.0241315
0.0233992
0.0227968
0.0224117
0.0221122
0.0217498
0.0212174
0.0204256
0.0192836
0.0177266
0.0157833
0.0135981
0.0113413
0.00908018
0.00679637
0.00464854
0.00361569
0.00497001
0.00742809
0.0100277
0.0125808
0.0150789
0.0175296
0.0199079
0.0221241
0.0240075
0.025291
0.0256152
0.0245451
0.0217085
0.0174545
0.0141254
0.0118949
0.00973083
0.00752969
0.00595858
0.00480623
0.00393176
0.00314974
0.00234376
0.00181405
0.00240925
0.00591782
0.010856
0.0151228
0.0182784
0.0202007
0.0206896
0.0196284
0.0171273
0.0133519
0.00847812
0.00320625
0.00434557
0.00933253
0.0122666
0.0129623
0.0129667
0.0153586
0.0270912
0.00897049
0.00380778
0.0031341
0.00736427
0.0100905
0.0118674
0.0130961
0.0140383
0.0148639
0.0156757
0.0165243
0.0174277
0.0183652
0.0192261
0.0197761
0.019756
0.0191129
0.0181225
0.0172046
0.0165399
0.0158685
0.014737
0.0129231
0.0106133
0.00826814
0.00630619
0.00573459
0.00732058
0.00999148
0.0128618
0.0155332
0.0177476
0.0195108
0.0208209
0.0217772
0.0225527
0.0233113
0.0240571
0.0245955
0.0246987
0.0243095
0.0236206
0.0229529
0.0224847
0.0221029
0.0216548
0.0210488
0.0202213
0.0190975
0.0176036
0.0157437
0.013648
0.0114987
0.00939136
0.00734482
0.00558528
0.00497631
0.00624358
0.00862286
0.0113082
0.0140149
0.0166446
0.0191291
0.0213807
0.0232733
0.024633
0.025236
0.0248114
0.0230801
0.0199288
0.0159942
0.0130826
0.010936
0.00882469
0.0068561
0.00551678
0.00454183
0.00372905
0.00289391
0.00197289
0.00145251
0.00255329
0.00688341
0.0116689
0.015571
0.0184718
0.0202301
0.020543
0.0192576
0.0165139
0.0124955
0.00738583
0.001987
0.00523791
0.00998347
0.0123637
0.0128352
0.0128134
0.0153126
0.0271737
0.00921552
0.00435806
0.00209261
0.00650792
0.00923195
0.0109463
0.0120971
0.0129696
0.0137543
0.0145691
0.0154722
0.0164872
0.017599
0.0186942
0.0195203
0.0197824
0.0193702
0.0184927
0.0175464
0.0167899
0.0161064
0.0151321
0.0136202
0.0116533
0.00956923
0.00779625
0.00672619
0.00731061
0.0093509
0.0119665
0.0145896
0.0169547
0.0189049
0.0203506
0.0213712
0.022111
0.0227874
0.0235199
0.0241998
0.024557
0.0244005
0.0238013
0.0230779
0.0225171
0.0220397
0.0214853
0.0207784
0.0198863
0.0187599
0.0173226
0.0155517
0.0135551
0.011524
0.00958902
0.00781252
0.00646395
0.00627037
0.00761414
0.00998027
0.0127175
0.0154965
0.0181426
0.0205247
0.0225158
0.0239814
0.0247722
0.0247214
0.0236529
0.021436
0.0181748
0.0146323
0.0120491
0.00998427
0.00799425
0.00631366
0.00517918
0.00433097
0.00353718
0.00263675
0.00162115
0.00106051
0.00294859
0.0079058
0.0123473
0.0158966
0.018608
0.0202388
0.0203699
0.0188355
0.0158234
0.0115313
0.00613368
0.00116826
0.00643263
0.0103215
0.0122588
0.0125838
0.0125822
0.0152049
0.0272163
0.00922744
0.00470835
0.00109843
0.00578427
0.00852593
0.0102023
0.0112806
0.0120637
0.0127646
0.0135246
0.0144195
0.0154855
0.0167203
0.0180123
0.0190944
0.0196415
0.0194906
0.0187802
0.0178593
0.0170247
0.016283
0.0153797
0.0140795
0.0123888
0.0105371
0.00887541
0.00769943
0.00767661
0.0090572
0.0113032
0.013796
0.0161643
0.0182049
0.0198029
0.0209342
0.021688
0.0222927
0.0229572
0.0236992
0.0242763
0.024382
0.0239277
0.0231695
0.02251
0.0219274
0.0212519
0.0204231
0.0194406
0.0182879
0.016895
0.0152139
0.0133233
0.0114176
0.00966672
0.0081792
0.00723724
0.00741598
0.00889374
0.0112836
0.0140435
0.0168249
0.0193972
0.0215838
0.0232383
0.024236
0.0244668
0.0238292
0.0222426
0.0197117
0.0165007
0.0133569
0.0110294
0.00906788
0.00726691
0.00586974
0.00491164