/*--------------------------------*- C++ -*----------------------------------*\
| =========                 |                                                 |
| \\      /  F ield         | OpenFOAM: The Open Source CFD Toolbox           |
|  \\    /   O peration     | Version:  4.1                                   |
|   \\  /    A nd           | Web:      www.OpenFOAM.org                      |
|    \\/     M anipulation  |                                                 |
\*---------------------------------------------------------------------------*/
FoamFile
{
    version     2.0;
    format      ascii;
    class       volScalarField;
    location    "160";
    object      p;
}
// * * * * * * * * * * * * * * * * * * * * * * * * * * * * * * * * * * * * * //

dimensions      [0 2 -2 0 0 0 0];

internalField   nonuniform List<scalar> 
5000
(
0
-4.65249e-06
-1.20948e-05
-2.32319e-05
-3.60203e-05
-4.96322e-05
-6.38278e-05
-7.84491e-05
-9.334e-05
-0.000108305
-0.000123058
-0.000137194
-0.000150192
-0.000161443
-0.000170311
-0.000176234
-0.000178786
-0.00017768
-0.000172774
-0.000164171
-0.000152211
-0.000137386
-0.000120218
-0.000101167
-8.05906e-05
-5.87587e-05
-3.59017e-05
-1.22665e-05
1.1833e-05
3.59785e-05
5.96226e-05
8.2079e-05
0.000102531
0.000120061
0.000133692
0.00014244
0.000145463
0.000142711
0.000136192
0.000126657
0.000112655
9.52416e-05
7.58334e-05
5.56401e-05
3.54891e-05
1.59361e-05
-2.61011e-06
-1.9831e-05
-3.54719e-05
-4.93283e-05
-6.12416e-05
-7.11014e-05
-7.88537e-05
-8.45003e-05
-8.80543e-05
-8.96085e-05
-8.92981e-05
-8.72919e-05
-8.37792e-05
-7.89653e-05
-7.30665e-05
-6.63013e-05
-5.88829e-05
-5.10126e-05
-4.2875e-05
-3.46346e-05
-2.64354e-05
-1.83968e-05
-1.05736e-05
-2.68068e-06
4.37109e-06
5.12758e-06
-3.29016e-06
-1.34329e-05
-2.58493e-05
-3.99111e-05
-5.4461e-05
-6.78915e-05
-7.83347e-05
-8.38251e-05
-8.23363e-05
-7.19251e-05
-5.11326e-05
-1.92977e-05
2.1531e-05
6.49943e-05
9.98099e-05
0.000115155
0.000112955
8.96598e-05
4.51974e-05
1.01743e-06
-2.91801e-05
-4.38322e-05
-4.75022e-05
-4.27996e-05
-3.17201e-05
-1.50932e-05
6.69608e-06
3.41822e-05
-0.0984608
-0.0984683
-0.0984791
-0.0984945
-0.0985117
-0.0985294
-0.0985472
-0.098565
-0.0985828
-0.0986005
-0.0986178
-0.0986344
-0.0986497
-0.098663
-0.0986738
-0.0986814
-0.0986854
-0.0986856
-0.0986818
-0.098674
-0.0986626
-0.0986483
-0.0986317
-0.0986131
-0.0985931
-0.0985717
-0.0985494
-0.0985262
-0.0985026
-0.0984789
-0.0984557
-0.0984337
-0.0984136
-0.0983963
-0.0983829
-0.0983742
-0.0983714
-0.098374
-0.0983802
-0.0983899
-0.0984039
-0.098421
-0.0984397
-0.098459
-0.0984784
-0.0984971
-0.0985148
-0.0985312
-0.0985461
-0.0985591
-0.0985702
-0.0985792
-0.098586
-0.0985907
-0.0985932
-0.0985936
-0.0985921
-0.0985888
-0.0985839
-0.0985776
-0.0985701
-0.0985617
-0.0985526
-0.0985429
-0.098533
-0.0985229
-0.0985127
-0.0985025
-0.0984924
-0.0984823
-0.0984733
-0.0984775
-0.0984902
-0.0985049
-0.0985216
-0.0985395
-0.0985577
-0.0985745
-0.0985881
-0.0985965
-0.0985981
-0.098591
-0.0985738
-0.0985465
-0.0985111
-0.0984731
-0.0984423
-0.0984293
-0.0984329
-0.0984539
-0.0984917
-0.0985284
-0.0985522
-0.0985622
-0.0985614
-0.0985534
-0.0985396
-0.0985207
-0.0984974
-0.0984665
-0.19695
-0.196961
-0.196975
-0.196994
-0.197014
-0.197035
-0.197055
-0.197075
-0.197095
-0.197115
-0.197134
-0.197153
-0.19717
-0.197185
-0.197196
-0.197205
-0.197209
-0.19721
-0.197206
-0.197198
-0.197186
-0.197172
-0.197156
-0.197138
-0.197118
-0.197097
-0.197075
-0.197052
-0.197029
-0.197006
-0.196983
-0.196961
-0.196941
-0.196924
-0.196911
-0.196903
-0.1969
-0.196903
-0.196909
-0.196919
-0.196933
-0.196949
-0.196967
-0.196986
-0.197005
-0.197023
-0.19704
-0.197056
-0.19707
-0.197083
-0.197094
-0.197103
-0.19711
-0.197114
-0.197116
-0.197116
-0.197114
-0.197111
-0.197105
-0.197098
-0.19709
-0.19708
-0.19707
-0.197059
-0.197048
-0.197036
-0.197025
-0.197013
-0.197001
-0.19699
-0.19698
-0.196984
-0.196998
-0.197015
-0.197035
-0.197056
-0.197077
-0.197096
-0.197112
-0.197122
-0.197126
-0.197121
-0.197107
-0.197083
-0.197053
-0.19702
-0.196993
-0.19698
-0.196984
-0.197003
-0.197033
-0.197063
-0.197081
-0.197087
-0.197085
-0.197076
-0.197062
-0.197045
-0.197025
-0.197
-0.29546
-0.295472
-0.29549
-0.295511
-0.295532
-0.295554
-0.295575
-0.295596
-0.295617
-0.295638
-0.295658
-0.295677
-0.295695
-0.29571
-0.295722
-0.295731
-0.295735
-0.295736
-0.295732
-0.295724
-0.295712
-0.295699
-0.295682
-0.295665
-0.295645
-0.295625
-0.295603
-0.295581
-0.295558
-0.295535
-0.295513
-0.295492
-0.295472
-0.295455
-0.295443
-0.295435
-0.295433
-0.295435
-0.295441
-0.295451
-0.295465
-0.295481
-0.295498
-0.295516
-0.295534
-0.295551
-0.295568
-0.295583
-0.295597
-0.29561
-0.29562
-0.295629
-0.295635
-0.29564
-0.295642
-0.295642
-0.295639
-0.295635
-0.29563
-0.295622
-0.295613
-0.295603
-0.295593
-0.295581
-0.29557
-0.295557
-0.295545
-0.295533
-0.295522
-0.295511
-0.295503
-0.295506
-0.295519
-0.295537
-0.295557
-0.29558
-0.295602
-0.295623
-0.295641
-0.295653
-0.295658
-0.295655
-0.295644
-0.295625
-0.295599
-0.29557
-0.295546
-0.295532
-0.295534
-0.295549
-0.295572
-0.295595
-0.295608
-0.295611
-0.295608
-0.295599
-0.295587
-0.295573
-0.295559
-0.29554
-0.393985
-0.393997
-0.394016
-0.394037
-0.394059
-0.39408
-0.394101
-0.394122
-0.394143
-0.394164
-0.394184
-0.394204
-0.394222
-0.394237
-0.394249
-0.394258
-0.394262
-0.394262
-0.394259
-0.394251
-0.39424
-0.394226
-0.39421
-0.394193
-0.394174
-0.394155
-0.394134
-0.394112
-0.39409
-0.394067
-0.394045
-0.394024
-0.394005
-0.393989
-0.393977
-0.393969
-0.393968
-0.393971
-0.393977
-0.393987
-0.394
-0.394015
-0.394031
-0.394048
-0.394065
-0.394082
-0.394097
-0.394112
-0.394126
-0.394138
-0.394148
-0.394157
-0.394163
-0.394167
-0.394169
-0.394169
-0.394166
-0.394162
-0.394156
-0.394148
-0.394139
-0.394129
-0.394118
-0.394106
-0.394094
-0.394082
-0.39407
-0.394058
-0.394047
-0.394038
-0.394032
-0.394035
-0.394048
-0.394065
-0.394085
-0.394108
-0.394131
-0.394153
-0.39417
-0.394183
-0.39419
-0.394189
-0.394181
-0.394166
-0.394144
-0.394119
-0.394096
-0.394081
-0.394079
-0.394088
-0.394104
-0.394121
-0.394129
-0.39413
-0.394126
-0.394119
-0.394109
-0.394099
-0.394089
-0.394075
-0.492519
-0.492531
-0.492548
-0.492569
-0.49259
-0.492611
-0.492631
-0.492651
-0.492672
-0.492692
-0.492712
-0.492731
-0.492749
-0.492765
-0.492777
-0.492785
-0.49279
-0.49279
-0.492786
-0.492779
-0.492768
-0.492755
-0.49274
-0.492723
-0.492705
-0.492686
-0.492665
-0.492645
-0.492623
-0.492601
-0.49258
-0.492559
-0.492541
-0.492525
-0.492513
-0.492506
-0.492506
-0.492509
-0.492515
-0.492524
-0.492537
-0.492551
-0.492567
-0.492582
-0.492598
-0.492613
-0.492628
-0.492642
-0.492655
-0.492667
-0.492677
-0.492686
-0.492692
-0.492696
-0.492698
-0.492697
-0.492694
-0.49269
-0.492683
-0.492675
-0.492666
-0.492656
-0.492645
-0.492633
-0.492621
-0.492609
-0.492597
-0.492586
-0.492576
-0.492568
-0.492563
-0.492567
-0.49258
-0.492596
-0.492616
-0.492638
-0.49266
-0.492681
-0.492699
-0.492711
-0.492718
-0.492719
-0.492714
-0.492702
-0.492685
-0.492663
-0.492641
-0.492624
-0.492618
-0.492621
-0.492629
-0.49264
-0.492644
-0.492644
-0.492641
-0.492635
-0.492628
-0.49262
-0.492613
-0.492603
-0.591057
-0.591068
-0.591085
-0.591105
-0.591124
-0.591144
-0.591163
-0.591182
-0.591201
-0.591221
-0.59124
-0.591259
-0.591276
-0.591292
-0.591304
-0.591313
-0.591318
-0.591318
-0.591314
-0.591307
-0.591297
-0.591284
-0.59127
-0.591254
-0.591236
-0.591218
-0.591198
-0.591178
-0.591157
-0.591136
-0.591115
-0.591096
-0.591078
-0.591063
-0.591051
-0.591045
-0.591045
-0.591048
-0.591054
-0.591064
-0.591076
-0.591089
-0.591103
-0.591117
-0.591131
-0.591145
-0.591159
-0.591173
-0.591185
-0.591197
-0.591207
-0.591215
-0.591221
-0.591225
-0.591227
-0.591227
-0.591224
-0.591219
-0.591212
-0.591204
-0.591195
-0.591184
-0.591173
-0.591161
-0.591149
-0.591137
-0.591126
-0.591116
-0.591107
-0.5911
-0.591096
-0.5911
-0.591112
-0.591127
-0.591146
-0.591166
-0.591188
-0.591207
-0.591223
-0.591235
-0.59124
-0.591242
-0.591239
-0.591231
-0.591218
-0.591199
-0.591178
-0.591161
-0.59115
-0.591147
-0.59115
-0.591153
-0.591156
-0.591155
-0.591152
-0.591148
-0.591142
-0.591137
-0.591133
-0.591125
-0.689597
-0.689607
-0.689622
-0.689641
-0.689659
-0.689677
-0.689695
-0.689713
-0.689731
-0.689749
-0.689768
-0.689786
-0.689803
-0.689818
-0.689831
-0.68984
-0.689845
-0.689846
-0.689843
-0.689836
-0.689826
-0.689814
-0.6898
-0.689785
-0.689768
-0.68975
-0.689732
-0.689713
-0.689692
-0.689672
-0.689652
-0.689633
-0.689616
-0.689601
-0.689591
-0.689585
-0.689585
-0.689588
-0.689595
-0.689603
-0.689614
-0.689626
-0.689638
-0.689651
-0.689664
-0.689677
-0.68969
-0.689702
-0.689715
-0.689726
-0.689736
-0.689745
-0.689751
-0.689755
-0.689757
-0.689757
-0.689754
-0.689749
-0.689742
-0.689734
-0.689724
-0.689713
-0.689702
-0.68969
-0.689678
-0.689667
-0.689656
-0.689646
-0.689638
-0.689632
-0.689629
-0.689633
-0.689644
-0.689657
-0.689674
-0.689693
-0.689712
-0.689729
-0.689743
-0.689752
-0.689757
-0.689758
-0.689756
-0.689752
-0.689743
-0.689728
-0.689708
-0.68969
-0.689676
-0.689668
-0.689666
-0.689664
-0.689665
-0.689663
-0.689662
-0.689659
-0.689655
-0.689651
-0.689649
-0.689644
-0.788135
-0.788144
-0.788158
-0.788176
-0.788193
-0.78821
-0.788227
-0.788243
-0.78826
-0.788277
-0.788295
-0.788312
-0.788329
-0.788344
-0.788356
-0.788366
-0.788371
-0.788373
-0.78837
-0.788364
-0.788355
-0.788344
-0.78833
-0.788316
-0.7883
-0.788283
-0.788266
-0.788247
-0.788228
-0.788209
-0.788189
-0.788171
-0.788154
-0.78814
-0.78813
-0.788125
-0.788125
-0.788128
-0.788134
-0.788142
-0.788152
-0.788162
-0.788173
-0.788184
-0.788195
-0.788207
-0.788219
-0.788231
-0.788243
-0.788254
-0.788264
-0.788273
-0.78828
-0.788285
-0.788287
-0.788287
-0.788285
-0.78828
-0.788273
-0.788264
-0.788254
-0.788243
-0.788232
-0.78822
-0.788208
-0.788197
-0.788186
-0.788177
-0.78817
-0.788164
-0.788161
-0.788164
-0.788173
-0.788185
-0.7882
-0.788216
-0.788233
-0.788248
-0.788259
-0.788266
-0.788269
-0.788269
-0.788269
-0.788267
-0.788261
-0.788249
-0.788232
-0.788214
-0.788197
-0.788186
-0.788178
-0.788174
-0.788173
-0.788172
-0.788171
-0.788169
-0.788167
-0.788164
-0.788163
-0.788159
-0.88667
-0.886678
-0.886692
-0.886709
-0.886726
-0.886742
-0.886757
-0.886773
-0.886788
-0.886804
-0.88682
-0.886836
-0.886852
-0.886867
-0.88688
-0.88689
-0.886897
-0.886899
-0.886897
-0.886892
-0.886884
-0.886873
-0.88686
-0.886847
-0.886832
-0.886816
-0.886799
-0.886782
-0.886764
-0.886745
-0.886727
-0.886709
-0.886693
-0.88668
-0.88667
-0.886665
-0.886664
-0.886668
-0.886673
-0.88668
-0.886688
-0.886696
-0.886705
-0.886714
-0.886724
-0.886735
-0.886746
-0.886758
-0.886769
-0.886781
-0.886792
-0.886801
-0.886808
-0.886814
-0.886817
-0.886817
-0.886815
-0.88681
-0.886803
-0.886795
-0.886785
-0.886774
-0.886762
-0.88675
-0.886739
-0.886728
-0.886717
-0.886708
-0.886701
-0.886696
-0.886693
-0.886694
-0.886701
-0.886711
-0.886723
-0.886737
-0.886751
-0.886763
-0.886772
-0.886776
-0.886778
-0.886779
-0.886779
-0.886778
-0.886774
-0.886765
-0.88675
-0.886733
-0.886716
-0.886701
-0.886691
-0.886684
-0.886682
-0.886681
-0.886681
-0.88668
-0.886678
-0.886677
-0.886676
-0.886674
-0.985202
-0.985209
-0.985222
-0.985239
-0.985256
-0.985271
-0.985286
-0.9853
-0.985315
-0.985329
-0.985344
-0.985359
-0.985375
-0.985389
-0.985402
-0.985413
-0.98542
-0.985423
-0.985423
-0.985419
-0.985411
-0.985402
-0.98539
-0.985377
-0.985363
-0.985349
-0.985333
-0.985316
-0.985299
-0.985281
-0.985264
-0.985247
-0.985231
-0.985218
-0.985209
-0.985204
-0.985203
-0.985205
-0.985209
-0.985215
-0.985221
-0.985227
-0.985235
-0.985242
-0.985251
-0.985261
-0.985271
-0.985283
-0.985294
-0.985306
-0.985317
-0.985327
-0.985335
-0.985342
-0.985345
-0.985346
-0.985344
-0.98534
-0.985334
-0.985325
-0.985315
-0.985304
-0.985293
-0.985281
-0.985269
-0.985258
-0.985248
-0.985239
-0.985232
-0.985226
-0.985222
-0.985221
-0.985226
-0.985233
-0.985243
-0.985255
-0.985266
-0.985276
-0.985283
-0.985287
-0.985288
-0.985288
-0.985288
-0.985287
-0.985284
-0.985278
-0.985265
-0.985249
-0.985232
-0.985216
-0.985204
-0.985195
-0.985191
-0.985191
-0.985191
-0.985191
-0.98519
-0.985189
-0.985189
-0.985187
-1.08373
-1.08374
-1.08375
-1.08376
-1.08378
-1.0838
-1.08381
-1.08383
-1.08384
-1.08385
-1.08387
-1.08388
-1.08389
-1.08391
-1.08392
-1.08393
-1.08394
-1.08395
-1.08395
-1.08394
-1.08394
-1.08393
-1.08392
-1.08391
-1.08389
-1.08388
-1.08387
-1.08385
-1.08383
-1.08382
-1.0838
-1.08378
-1.08377
-1.08376
-1.08375
-1.08374
-1.08374
-1.08374
-1.08374
-1.08375
-1.08375
-1.08376
-1.08376
-1.08377
-1.08378
-1.08378
-1.0838
-1.08381
-1.08382
-1.08383
-1.08384
-1.08385
-1.08386
-1.08387
-1.08387
-1.08387
-1.08387
-1.08387
-1.08386
-1.08385
-1.08385
-1.08383
-1.08382
-1.08381
-1.0838
-1.08379
-1.08378
-1.08377
-1.08376
-1.08376
-1.08375
-1.08375
-1.08375
-1.08375
-1.08376
-1.08377
-1.08378
-1.08379
-1.08379
-1.0838
-1.0838
-1.0838
-1.0838
-1.0838
-1.08379
-1.08379
-1.08378
-1.08376
-1.08375
-1.08373
-1.08372
-1.08371
-1.0837
-1.0837
-1.0837
-1.0837
-1.0837
-1.0837
-1.0837
-1.0837
-1.18225
-1.18226
-1.18227
-1.18229
-1.1823
-1.18232
-1.18234
-1.18235
-1.18236
-1.18237
-1.18239
-1.1824
-1.18241
-1.18243
-1.18244
-1.18245
-1.18246
-1.18247
-1.18247
-1.18247
-1.18246
-1.18246
-1.18245
-1.18244
-1.18242
-1.18241
-1.1824
-1.18238
-1.18237
-1.18235
-1.18234
-1.18232
-1.18231
-1.18229
-1.18228
-1.18228
-1.18227
-1.18227
-1.18228
-1.18228
-1.18228
-1.18228
-1.18229
-1.18229
-1.1823
-1.18231
-1.18232
-1.18233
-1.18234
-1.18235
-1.18237
-1.18238
-1.18239
-1.1824
-1.1824
-1.1824
-1.1824
-1.1824
-1.18239
-1.18238
-1.18237
-1.18236
-1.18235
-1.18234
-1.18233
-1.18232
-1.18231
-1.1823
-1.18229
-1.18228
-1.18228
-1.18227
-1.18227
-1.18227
-1.18228
-1.18228
-1.18229
-1.1823
-1.1823
-1.18231
-1.18231
-1.18231
-1.18231
-1.1823
-1.1823
-1.1823
-1.18229
-1.18228
-1.18226
-1.18224
-1.18223
-1.18222
-1.18222
-1.18222
-1.18222
-1.18222
-1.18222
-1.18222
-1.18222
-1.18222
-1.28077
-1.28077
-1.28078
-1.2808
-1.28082
-1.28084
-1.28086
-1.28087
-1.28088
-1.28089
-1.28091
-1.28092
-1.28093
-1.28094
-1.28095
-1.28097
-1.28098
-1.28099
-1.28099
-1.28099
-1.28099
-1.28098
-1.28097
-1.28096
-1.28095
-1.28094
-1.28093
-1.28092
-1.2809
-1.28089
-1.28087
-1.28085
-1.28084
-1.28083
-1.28082
-1.28081
-1.28081
-1.28081
-1.28081
-1.28081
-1.28081
-1.28081
-1.28081
-1.28082
-1.28082
-1.28083
-1.28084
-1.28085
-1.28087
-1.28088
-1.28089
-1.2809
-1.28091
-1.28092
-1.28093
-1.28093
-1.28093
-1.28092
-1.28092
-1.28091
-1.2809
-1.28089
-1.28088
-1.28087
-1.28086
-1.28085
-1.28083
-1.28083
-1.28082
-1.28081
-1.2808
-1.28079
-1.28079
-1.28079
-1.28079
-1.2808
-1.2808
-1.28081
-1.28081
-1.28081
-1.28081
-1.28081
-1.28081
-1.28081
-1.28081
-1.28081
-1.2808
-1.28079
-1.28077
-1.28076
-1.28075
-1.28074
-1.28073
-1.28073
-1.28073
-1.28073
-1.28073
-1.28073
-1.28073
-1.28073
-1.37928
-1.37928
-1.37929
-1.37931
-1.37933
-1.37935
-1.37937
-1.37939
-1.3794
-1.37941
-1.37942
-1.37943
-1.37944
-1.37946
-1.37947
-1.37948
-1.37949
-1.3795
-1.37951
-1.37951
-1.37951
-1.3795
-1.3795
-1.37949
-1.37948
-1.37947
-1.37946
-1.37945
-1.37943
-1.37942
-1.3794
-1.37939
-1.37937
-1.37936
-1.37935
-1.37934
-1.37934
-1.37934
-1.37933
-1.37933
-1.37933
-1.37933
-1.37933
-1.37934
-1.37935
-1.37935
-1.37936
-1.37938
-1.37939
-1.3794
-1.37942
-1.37943
-1.37944
-1.37945
-1.37945
-1.37946
-1.37946
-1.37945
-1.37945
-1.37944
-1.37943
-1.37942
-1.37941
-1.3794
-1.37938
-1.37937
-1.37936
-1.37935
-1.37934
-1.37933
-1.37932
-1.37931
-1.3793
-1.3793
-1.3793
-1.37931
-1.37931
-1.37932
-1.37932
-1.37932
-1.37932
-1.37932
-1.37932
-1.37932
-1.37932
-1.37932
-1.37931
-1.3793
-1.37929
-1.37927
-1.37926
-1.37925
-1.37925
-1.37925
-1.37925
-1.37925
-1.37925
-1.37925
-1.37925
-1.37925
-1.47778
-1.47779
-1.4778
-1.47782
-1.47784
-1.47786
-1.47788
-1.4779
-1.47791
-1.47793
-1.47794
-1.47795
-1.47796
-1.47797
-1.47798
-1.47799
-1.478
-1.47802
-1.47802
-1.47803
-1.47803
-1.47803
-1.47802
-1.47802
-1.47801
-1.478
-1.47799
-1.47798
-1.47796
-1.47795
-1.47794
-1.47792
-1.47791
-1.47789
-1.47788
-1.47787
-1.47787
-1.47786
-1.47786
-1.47786
-1.47785
-1.47786
-1.47786
-1.47786
-1.47787
-1.47788
-1.47789
-1.4779
-1.47791
-1.47793
-1.47794
-1.47796
-1.47797
-1.47798
-1.47798
-1.47798
-1.47798
-1.47798
-1.47797
-1.47796
-1.47796
-1.47794
-1.47793
-1.47792
-1.47791
-1.4779
-1.47789
-1.47788
-1.47787
-1.47786
-1.47784
-1.47782
-1.47782
-1.47782
-1.47782
-1.47782
-1.47782
-1.47783
-1.47783
-1.47783
-1.47783
-1.47783
-1.47783
-1.47783
-1.47783
-1.47783
-1.47782
-1.47781
-1.4778
-1.47779
-1.47778
-1.47777
-1.47776
-1.47776
-1.47776
-1.47776
-1.47777
-1.47776
-1.47776
-1.47776
-1.57628
-1.57629
-1.5763
-1.57632
-1.57635
-1.57637
-1.57639
-1.57641
-1.57642
-1.57644
-1.57645
-1.57646
-1.57647
-1.57648
-1.57649
-1.5765
-1.57651
-1.57653
-1.57654
-1.57655
-1.57655
-1.57655
-1.57654
-1.57654
-1.57653
-1.57653
-1.57652
-1.57651
-1.57649
-1.57648
-1.57647
-1.57645
-1.57644
-1.57642
-1.57641
-1.5764
-1.57639
-1.57639
-1.57638
-1.57638
-1.57638
-1.57638
-1.57638
-1.57638
-1.57639
-1.5764
-1.57641
-1.57642
-1.57643
-1.57645
-1.57647
-1.57648
-1.57649
-1.5765
-1.57651
-1.57651
-1.57651
-1.57651
-1.5765
-1.57649
-1.57648
-1.57647
-1.57646
-1.57645
-1.57643
-1.57642
-1.57641
-1.5764
-1.57639
-1.57637
-1.57635
-1.57634
-1.57633
-1.57633
-1.57633
-1.57633
-1.57633
-1.57633
-1.57633
-1.57634
-1.57634
-1.57634
-1.57634
-1.57634
-1.57634
-1.57634
-1.57633
-1.57632
-1.57631
-1.5763
-1.57629
-1.57629
-1.57628
-1.57628
-1.57628
-1.57628
-1.57628
-1.57628
-1.57628
-1.57628
-1.67478
-1.67479
-1.6748
-1.67483
-1.67485
-1.67488
-1.6749
-1.67492
-1.67493
-1.67495
-1.67496
-1.67497
-1.67498
-1.67499
-1.675
-1.67501
-1.67502
-1.67504
-1.67505
-1.67506
-1.67507
-1.67507
-1.67507
-1.67506
-1.67506
-1.67505
-1.67505
-1.67503
-1.67502
-1.67501
-1.675
-1.67498
-1.67497
-1.67495
-1.67494
-1.67493
-1.67492
-1.67491
-1.67491
-1.6749
-1.6749
-1.6749
-1.6749
-1.6749
-1.67491
-1.67492
-1.67493
-1.67494
-1.67496
-1.67497
-1.67499
-1.675
-1.67502
-1.67503
-1.67503
-1.67504
-1.67504
-1.67503
-1.67502
-1.67501
-1.675
-1.67499
-1.67498
-1.67497
-1.67496
-1.67494
-1.67493
-1.67492
-1.67491
-1.67489
-1.67487
-1.67485
-1.67484
-1.67484
-1.67484
-1.67484
-1.67484
-1.67484
-1.67484
-1.67484
-1.67484
-1.67485
-1.67485
-1.67485
-1.67485
-1.67484
-1.67484
-1.67483
-1.67483
-1.67482
-1.67481
-1.67481
-1.6748
-1.6748
-1.6748
-1.6748
-1.6748
-1.6748
-1.6748
-1.6748
-1.77327
-1.77328
-1.77331
-1.77333
-1.77336
-1.77338
-1.7734
-1.77342
-1.77344
-1.77345
-1.77347
-1.77348
-1.77349
-1.7735
-1.77351
-1.77352
-1.77353
-1.77355
-1.77356
-1.77357
-1.77358
-1.77359
-1.77359
-1.77359
-1.77358
-1.77358
-1.77357
-1.77356
-1.77355
-1.77354
-1.77352
-1.77351
-1.77349
-1.77348
-1.77347
-1.77346
-1.77344
-1.77344
-1.77343
-1.77342
-1.77342
-1.77342
-1.77342
-1.77342
-1.77343
-1.77344
-1.77345
-1.77346
-1.77348
-1.77349
-1.77351
-1.77352
-1.77354
-1.77355
-1.77356
-1.77356
-1.77356
-1.77355
-1.77355
-1.77354
-1.77353
-1.77352
-1.7735
-1.77349
-1.77348
-1.77347
-1.77345
-1.77344
-1.77342
-1.7734
-1.77338
-1.77336
-1.77335
-1.77335
-1.77335
-1.77334
-1.77335
-1.77335
-1.77335
-1.77335
-1.77335
-1.77335
-1.77335
-1.77335
-1.77335
-1.77335
-1.77335
-1.77335
-1.77334
-1.77333
-1.77333
-1.77333
-1.77332
-1.77332
-1.77332
-1.77332
-1.77332
-1.77332
-1.77332
-1.77332
-1.87177
-1.87178
-1.87181
-1.87184
-1.87187
-1.87189
-1.87191
-1.87193
-1.87195
-1.87196
-1.87197
-1.87198
-1.87199
-1.872
-1.87202
-1.87203
-1.87204
-1.87205
-1.87207
-1.87208
-1.8721
-1.8721
-1.87211
-1.87211
-1.87211
-1.87211
-1.8721
-1.87209
-1.87208
-1.87207
-1.87205
-1.87204
-1.87202
-1.87201
-1.87199
-1.87198
-1.87197
-1.87196
-1.87195
-1.87194
-1.87194
-1.87194
-1.87194
-1.87194
-1.87195
-1.87195
-1.87196
-1.87198
-1.87199
-1.87201
-1.87203
-1.87204
-1.87205
-1.87207
-1.87208
-1.87208
-1.87208
-1.87208
-1.87207
-1.87206
-1.87205
-1.87204
-1.87202
-1.87201
-1.872
-1.87198
-1.87197
-1.87196
-1.87194
-1.87191
-1.87188
-1.87187
-1.87186
-1.87186
-1.87185
-1.87185
-1.87185
-1.87185
-1.87186
-1.87186
-1.87186
-1.87186
-1.87186
-1.87186
-1.87186
-1.87186
-1.87186
-1.87186
-1.87185
-1.87185
-1.87185
-1.87184
-1.87184
-1.87184
-1.87184
-1.87184
-1.87184
-1.87184
-1.87184
-1.87184
-1.97028
-1.9703
-1.97034
-1.97036
-1.97039
-1.97041
-1.97042
-1.97044
-1.97045
-1.97047
-1.97048
-1.97049
-1.9705
-1.97051
-1.97052
-1.97054
-1.97055
-1.97056
-1.97058
-1.9706
-1.97061
-1.97062
-1.97063
-1.97063
-1.97063
-1.97063
-1.97063
-1.97062
-1.97061
-1.97059
-1.97058
-1.97056
-1.97054
-1.97053
-1.97051
-1.9705
-1.97049
-1.97048
-1.97047
-1.97046
-1.97045
-1.97045
-1.97045
-1.97046
-1.97046
-1.97047
-1.97048
-1.97049
-1.97051
-1.97052
-1.97054
-1.97055
-1.97057
-1.97058
-1.97059
-1.9706
-1.9706
-1.97059
-1.97059
-1.97058
-1.97057
-1.97055
-1.97054
-1.97053
-1.97052
-1.9705
-1.97049
-1.97047
-1.97044
-1.97042
-1.97039
-1.97038
-1.97037
-1.97037
-1.97036
-1.97036
-1.97036
-1.97036
-1.97036
-1.97036
-1.97036
-1.97037
-1.97037
-1.97037
-1.97037
-1.97037
-1.97037
-1.97037
-1.97037
-1.97037
-1.97037
-1.97036
-1.97036
-1.97036
-1.97036
-1.97036
-1.97036
-1.97036
-1.97036
-1.97036
-2.06882
-2.06884
-2.06887
-2.06889
-2.06891
-2.06892
-2.06894
-2.06895
-2.06896
-2.06897
-2.06898
-2.069
-2.06901
-2.06902
-2.06903
-2.06904
-2.06906
-2.06907
-2.06909
-2.0691
-2.06912
-2.06914
-2.06915
-2.06915
-2.06916
-2.06916
-2.06915
-2.06914
-2.06913
-2.06912
-2.0691
-2.06908
-2.06907
-2.06905
-2.06903
-2.06902
-2.06901
-2.06899
-2.06898
-2.06898
-2.06897
-2.06897
-2.06897
-2.06897
-2.06897
-2.06898
-2.06899
-2.069
-2.06902
-2.06903
-2.06905
-2.06907
-2.06908
-2.06909
-2.0691
-2.06911
-2.06911
-2.06911
-2.0691
-2.06909
-2.06908
-2.06907
-2.06906
-2.06904
-2.06903
-2.06901
-2.069
-2.06898
-2.06895
-2.06892
-2.0689
-2.06889
-2.06888
-2.06887
-2.06887
-2.06887
-2.06887
-2.06887
-2.06887
-2.06887
-2.06887
-2.06887
-2.06887
-2.06887
-2.06888
-2.06888
-2.06888
-2.06888
-2.06888
-2.06888
-2.06888
-2.06888
-2.06889
-2.06889
-2.06889
-2.06888
-2.06888
-2.06888
-2.06888
-2.06888
-2.16737
-2.16738
-2.1674
-2.16742
-2.16743
-2.16744
-2.16745
-2.16746
-2.16747
-2.16748
-2.16749
-2.1675
-2.16751
-2.16752
-2.16754
-2.16755
-2.16756
-2.16758
-2.16759
-2.16761
-2.16763
-2.16765
-2.16767
-2.16768
-2.16768
-2.16768
-2.16768
-2.16767
-2.16765
-2.16764
-2.16762
-2.1676
-2.16759
-2.16757
-2.16755
-2.16754
-2.16752
-2.16751
-2.1675
-2.16749
-2.16748
-2.16748
-2.16748
-2.16748
-2.16749
-2.16749
-2.1675
-2.16751
-2.16753
-2.16754
-2.16756
-2.16757
-2.16759
-2.1676
-2.16761
-2.16762
-2.16762
-2.16762
-2.16761
-2.16761
-2.1676
-2.16758
-2.16757
-2.16756
-2.16754
-2.16752
-2.1675
-2.16748
-2.16745
-2.16742
-2.1674
-2.16739
-2.16739
-2.16738
-2.16738
-2.16738
-2.16738
-2.16738
-2.16738
-2.16738
-2.16738
-2.16738
-2.16738
-2.16738
-2.16738
-2.16739
-2.16739
-2.16739
-2.1674
-2.1674
-2.1674
-2.1674
-2.16741
-2.16741
-2.16741
-2.1674
-2.1674
-2.1674
-2.1674
-2.16739
-2.2659
-2.26591
-2.26593
-2.26594
-2.26595
-2.26596
-2.26596
-2.26597
-2.26598
-2.26599
-2.266
-2.26601
-2.26602
-2.26603
-2.26604
-2.26605
-2.26607
-2.26608
-2.2661
-2.26612
-2.26614
-2.26616
-2.26618
-2.26619
-2.2662
-2.2662
-2.2662
-2.26619
-2.26617
-2.26616
-2.26614
-2.26612
-2.2661
-2.26609
-2.26607
-2.26605
-2.26604
-2.26602
-2.26601
-2.266
-2.266
-2.26599
-2.26599
-2.26599
-2.266
-2.266
-2.26601
-2.26602
-2.26603
-2.26605
-2.26606
-2.26608
-2.26609
-2.26611
-2.26612
-2.26612
-2.26613
-2.26613
-2.26612
-2.26612
-2.26611
-2.2661
-2.26608
-2.26607
-2.26605
-2.26603
-2.26601
-2.26598
-2.26595
-2.26593
-2.26591
-2.2659
-2.26589
-2.26589
-2.26589
-2.26588
-2.26588
-2.26588
-2.26588
-2.26588
-2.26588
-2.26588
-2.26588
-2.26588
-2.26589
-2.26589
-2.2659
-2.26591
-2.26591
-2.26592
-2.26592
-2.26592
-2.26593
-2.26593
-2.26593
-2.26592
-2.26592
-2.26591
-2.26591
-2.26591
-2.36443
-2.36444
-2.36445
-2.36446
-2.36447
-2.36447
-2.36447
-2.36448
-2.36449
-2.36449
-2.3645
-2.36451
-2.36452
-2.36453
-2.36454
-2.36456
-2.36457
-2.36459
-2.3646
-2.36462
-2.36464
-2.36466
-2.36468
-2.3647
-2.36471
-2.36471
-2.36471
-2.3647
-2.36469
-2.36467
-2.36466
-2.36464
-2.36462
-2.3646
-2.36458
-2.36456
-2.36455
-2.36454
-2.36452
-2.36451
-2.36451
-2.3645
-2.3645
-2.3645
-2.3645
-2.36451
-2.36452
-2.36453
-2.36454
-2.36455
-2.36457
-2.36458
-2.3646
-2.36461
-2.36462
-2.36463
-2.36463
-2.36463
-2.36463
-2.36462
-2.36461
-2.3646
-2.36459
-2.36457
-2.36455
-2.36453
-2.36451
-2.36448
-2.36445
-2.36443
-2.36442
-2.36441
-2.3644
-2.3644
-2.3644
-2.36439
-2.36439
-2.36439
-2.36439
-2.36439
-2.36439
-2.36438
-2.36438
-2.36439
-2.36439
-2.3644
-2.36441
-2.36442
-2.36443
-2.36443
-2.36444
-2.36444
-2.36445
-2.36445
-2.36444
-2.36444
-2.36443
-2.36443
-2.36443
-2.36443
-2.46295
-2.46296
-2.46297
-2.46297
-2.46298
-2.46298
-2.46298
-2.46298
-2.46299
-2.463
-2.463
-2.46301
-2.46302
-2.46303
-2.46305
-2.46306
-2.46307
-2.46309
-2.4631
-2.46312
-2.46314
-2.46316
-2.46318
-2.4632
-2.46321
-2.46321
-2.46321
-2.46321
-2.4632
-2.46318
-2.46317
-2.46315
-2.46313
-2.46311
-2.46309
-2.46307
-2.46306
-2.46305
-2.46303
-2.46302
-2.46301
-2.46301
-2.46301
-2.46301
-2.46301
-2.46301
-2.46302
-2.46303
-2.46304
-2.46305
-2.46307
-2.46308
-2.46309
-2.46311
-2.46312
-2.46313
-2.46313
-2.46314
-2.46313
-2.46313
-2.46312
-2.46311
-2.46309
-2.46307
-2.46305
-2.46303
-2.463
-2.46298
-2.46295
-2.46293
-2.46292
-2.46291
-2.46291
-2.46291
-2.4629
-2.4629
-2.4629
-2.4629
-2.4629
-2.46289
-2.46289
-2.46289
-2.46289
-2.46289
-2.4629
-2.46291
-2.46292
-2.46293
-2.46294
-2.46295
-2.46296
-2.46296
-2.46296
-2.46296
-2.46296
-2.46295
-2.46295
-2.46294
-2.46294
-2.46294
-2.56146
-2.56147
-2.56147
-2.56148
-2.56148
-2.56148
-2.56149
-2.56149
-2.56149
-2.5615
-2.56151
-2.56151
-2.56152
-2.56153
-2.56155
-2.56156
-2.56157
-2.56159
-2.5616
-2.56162
-2.56164
-2.56166
-2.56167
-2.56169
-2.5617
-2.56171
-2.56171
-2.56171
-2.5617
-2.56169
-2.56167
-2.56165
-2.56163
-2.56162
-2.5616
-2.56158
-2.56157
-2.56155
-2.56154
-2.56153
-2.56152
-2.56152
-2.56151
-2.56151
-2.56151
-2.56152
-2.56152
-2.56153
-2.56154
-2.56155
-2.56157
-2.56158
-2.56159
-2.5616
-2.56162
-2.56162
-2.56163
-2.56163
-2.56163
-2.56163
-2.56162
-2.5616
-2.56159
-2.56157
-2.56155
-2.56153
-2.5615
-2.56148
-2.56146
-2.56144
-2.56143
-2.56142
-2.56142
-2.56141
-2.56141
-2.56141
-2.56141
-2.56141
-2.5614
-2.5614
-2.5614
-2.56139
-2.56139
-2.5614
-2.56141
-2.56142
-2.56143
-2.56144
-2.56145
-2.56147
-2.56147
-2.56148
-2.56148
-2.56148
-2.56147
-2.56147
-2.56146
-2.56146
-2.56145
-2.56145
-2.65997
-2.65997
-2.65998
-2.65998
-2.65998
-2.65999
-2.65999
-2.65999
-2.65999
-2.66
-2.66001
-2.66001
-2.66002
-2.66003
-2.66004
-2.66006
-2.66007
-2.66009
-2.6601
-2.66012
-2.66013
-2.66015
-2.66017
-2.66018
-2.66019
-2.6602
-2.6602
-2.6602
-2.66019
-2.66018
-2.66017
-2.66016
-2.66014
-2.66012
-2.6601
-2.66009
-2.66007
-2.66006
-2.66004
-2.66003
-2.66003
-2.66002
-2.66002
-2.66002
-2.66002
-2.66002
-2.66002
-2.66003
-2.66004
-2.66005
-2.66006
-2.66007
-2.66009
-2.6601
-2.66011
-2.66012
-2.66012
-2.66013
-2.66013
-2.66012
-2.66011
-2.6601
-2.66008
-2.66006
-2.66004
-2.66002
-2.66
-2.65998
-2.65996
-2.65994
-2.65994
-2.65993
-2.65993
-2.65992
-2.65992
-2.65992
-2.65992
-2.65991
-2.65991
-2.65991
-2.6599
-2.6599
-2.6599
-2.6599
-2.65991
-2.65993
-2.65994
-2.65995
-2.65997
-2.65998
-2.65999
-2.65999
-2.66
-2.65999
-2.65998
-2.65998
-2.65997
-2.65997
-2.65997
-2.65996
-2.75848
-2.75848
-2.75848
-2.75848
-2.75848
-2.75849
-2.75849
-2.75849
-2.75849
-2.7585
-2.75851
-2.75851
-2.75852
-2.75853
-2.75854
-2.75855
-2.75857
-2.75858
-2.7586
-2.75861
-2.75863
-2.75864
-2.75866
-2.75867
-2.75868
-2.75869
-2.75869
-2.75869
-2.75869
-2.75868
-2.75867
-2.75865
-2.75864
-2.75862
-2.7586
-2.75859
-2.75857
-2.75856
-2.75855
-2.75854
-2.75853
-2.75852
-2.75852
-2.75852
-2.75852
-2.75852
-2.75852
-2.75853
-2.75854
-2.75855
-2.75856
-2.75857
-2.75858
-2.75859
-2.7586
-2.75861
-2.75861
-2.75862
-2.75861
-2.75861
-2.7586
-2.75859
-2.75857
-2.75855
-2.75854
-2.75852
-2.7585
-2.75848
-2.75846
-2.75845
-2.75844
-2.75844
-2.75844
-2.75843
-2.75843
-2.75843
-2.75842
-2.75842
-2.75842
-2.75841
-2.75841
-2.7584
-2.75841
-2.75841
-2.75842
-2.75843
-2.75845
-2.75847
-2.75848
-2.75849
-2.7585
-2.75851
-2.75851
-2.7585
-2.75849
-2.75849
-2.75848
-2.75848
-2.75847
-2.75847
-2.85698
-2.85698
-2.85698
-2.85698
-2.85698
-2.85699
-2.85699
-2.85699
-2.85699
-2.857
-2.857
-2.85701
-2.85702
-2.85703
-2.85704
-2.85705
-2.85706
-2.85708
-2.85709
-2.85711
-2.85712
-2.85713
-2.85715
-2.85716
-2.85717
-2.85718
-2.85718
-2.85718
-2.85718
-2.85717
-2.85716
-2.85715
-2.85714
-2.85712
-2.8571
-2.85709
-2.85707
-2.85706
-2.85705
-2.85704
-2.85703
-2.85702
-2.85702
-2.85702
-2.85702
-2.85702
-2.85702
-2.85703
-2.85703
-2.85704
-2.85705
-2.85706
-2.85707
-2.85708
-2.85709
-2.8571
-2.8571
-2.8571
-2.8571
-2.85709
-2.85708
-2.85707
-2.85706
-2.85705
-2.85703
-2.85701
-2.85699
-2.85698
-2.85697
-2.85696
-2.85695
-2.85695
-2.85694
-2.85694
-2.85694
-2.85693
-2.85693
-2.85693
-2.85692
-2.85692
-2.85692
-2.85691
-2.85692
-2.85692
-2.85693
-2.85694
-2.85696
-2.85698
-2.85699
-2.857
-2.85701
-2.85702
-2.85701
-2.85701
-2.857
-2.85699
-2.85699
-2.85698
-2.85698
-2.85698
-2.95548
-2.95548
-2.95548
-2.95548
-2.95548
-2.95548
-2.95549
-2.95549
-2.95549
-2.9555
-2.9555
-2.95551
-2.95552
-2.95553
-2.95554
-2.95555
-2.95556
-2.95557
-2.95559
-2.9556
-2.95561
-2.95563
-2.95564
-2.95565
-2.95566
-2.95566
-2.95567
-2.95567
-2.95567
-2.95566
-2.95565
-2.95564
-2.95563
-2.95561
-2.9556
-2.95558
-2.95557
-2.95556
-2.95555
-2.95554
-2.95553
-2.95552
-2.95552
-2.95552
-2.95552
-2.95552
-2.95552
-2.95552
-2.95553
-2.95554
-2.95554
-2.95555
-2.95556
-2.95557
-2.95558
-2.95558
-2.95559
-2.95559
-2.95558
-2.95558
-2.95557
-2.95556
-2.95555
-2.95554
-2.95552
-2.95551
-2.95549
-2.95548
-2.95547
-2.95546
-2.95546
-2.95546
-2.95545
-2.95545
-2.95545
-2.95544
-2.95544
-2.95543
-2.95543
-2.95543
-2.95543
-2.95543
-2.95543
-2.95543
-2.95544
-2.95545
-2.95547
-2.95549
-2.9555
-2.95551
-2.95552
-2.95552
-2.95552
-2.95551
-2.9555
-2.9555
-2.95549
-2.95549
-2.95549
-2.95549
-3.05398
-3.05398
-3.05398
-3.05398
-3.05398
-3.05398
-3.05398
-3.05399
-3.05399
-3.054
-3.054
-3.05401
-3.05401
-3.05402
-3.05403
-3.05404
-3.05405