/*--------------------------------*- C++ -*----------------------------------*\
| =========                 |                                                 |
| \\      /  F ield         | OpenFOAM: The Open Source CFD Toolbox           |
|  \\    /   O peration     | Version:  4.1                                   |
|   \\  /    A nd           | Web:      www.OpenFOAM.org                      |
|    \\/     M anipulation  |                                                 |
\*---------------------------------------------------------------------------*/
FoamFile
{
    version     2.0;
    format      ascii;
    class       volScalarField;
    location    "160";
    object      p_rgh;
}
// * * * * * * * * * * * * * * * * * * * * * * * * * * * * * * * * * * * * * //

dimensions      [0 2 -2 0 0 0 0];

internalField   nonuniform List<scalar> 
5000
(
0.0492219
0.0492187
0.0492131
0.0492044
0.049194
0.0491824
0.0491699
0.0491569
0.0491434
0.0491297
0.0491162
0.0491031
0.0490911
0.0490808
0.0490728
0.0490677
0.0490659
0.0490678
0.0490734
0.0490827
0.0490953
0.0491106
0.0491281
0.0491475
0.0491683
0.0491904
0.0492135
0.0492373
0.0492616
0.0492859
0.0493098
0.0493324
0.0493531
0.0493707
0.0493845
0.0493933
0.0493964
0.0493936
0.049387
0.0493775
0.0493634
0.0493457
0.0493261
0.0493056
0.0492851
0.0492652
0.0492462
0.0492285
0.0492124
0.0491979
0.0491854
0.0491749
0.0491663
0.0491599
0.0491555
0.0491531
0.0491526
0.0491538
0.0491565
0.0491605
0.0491655
0.0491715
0.049178
0.049185
0.0491923
0.0491997
0.049207
0.0492141
0.0492208
0.0492274
0.0492331
0.0492395
0.0492345
0.0492268
0.0492162
0.0492037
0.0491905
0.0491783
0.0491689
0.0491645
0.0491669
0.0491783
0.0492
0.0492326
0.0492741
0.0493182
0.0493535
0.0493693
0.049367
0.0493432
0.0492981
0.049253
0.0492217
0.0492058
0.0492008
0.049204
0.0492133
0.0492278
0.0492466
0.0492691
0.0492395
0.0492323
0.0492248
0.0492229
0.0492176
0.0492081
0.0491961
0.0491828
0.0491691
0.0491553
0.0491415
0.0491283
0.049116
0.0491054
0.0490969
0.0490912
0.0490887
0.0490895
0.0490938
0.0491019
0.0491134
0.0491278
0.0491446
0.0491634
0.0491836
0.0492051
0.0492277
0.049251
0.0492747
0.0492986
0.0493219
0.0493441
0.0493643
0.0493817
0.0493953
0.049404
0.0494069
0.0494044
0.0493982
0.0493885
0.0493744
0.0493574
0.0493387
0.0493193
0.0493
0.0492813
0.0492636
0.0492472
0.0492324
0.0492194
0.0492083
0.0491993
0.0491925
0.0491878
0.0491851
0.0491842
0.0491849
0.0491872
0.0491909
0.0491956
0.0492013
0.0492078
0.0492147
0.0492219
0.0492294
0.0492368
0.0492441
0.0492506
0.0492545
0.0492504
0.0492367
0.0492454
0.04925
0.0492433
0.0492322
0.0492185
0.0492038
0.0491899
0.0491785
0.0491717
0.0491711
0.0491785
0.0491958
0.0492234
0.0492592
0.0492977
0.0493292
0.0493428
0.0493395
0.0493177
0.049279
0.0492419
0.0492179
0.0492076
0.0492068
0.0492117
0.0492204
0.0492313
0.0492417
0.0492493
0.0492395
0.0492297
0.0492238
0.0492289
0.0492285
0.0492208
0.0492087
0.0491945
0.0491792
0.0491634
0.0491475
0.0491319
0.0491171
0.049104
0.0490932
0.0490856
0.0490817
0.0490817
0.0490859
0.0490942
0.0491059
0.0491205
0.0491374
0.0491561
0.0491762
0.0491975
0.0492199
0.049243
0.0492666
0.0492902
0.0493134
0.0493354
0.0493555
0.0493727
0.0493861
0.0493946
0.049397
0.0493945
0.0493884
0.0493783
0.0493643
0.0493476
0.0493295
0.0493108
0.0492922
0.049274
0.0492569
0.0492409
0.0492265
0.0492138
0.049203
0.0491942
0.0491877
0.0491834
0.0491812
0.0491812
0.0491832
0.049187
0.0491923
0.049199
0.0492068
0.0492154
0.0492245
0.0492339
0.0492434
0.0492526
0.0492613
0.0492684
0.0492711
0.0492595
0.0492258
0.0492338
0.0492529
0.0492479
0.0492354
0.0492191
0.0492011
0.0491834
0.0491683
0.049158
0.0491543
0.0491591
0.0491735
0.0491976
0.0492294
0.0492639
0.0492927
0.0493067
0.0493033
0.0492834
0.04925
0.0492186
0.0492003
0.0491946
0.049197
0.0492044
0.0492134
0.0492206
0.0492191
0.0492018
0.049223
0.0492131
0.0492113
0.0492233
0.0492276
0.0492218
0.0492097
0.0491945
0.0491777
0.0491601
0.0491423
0.0491247
0.0491082
0.0490937
0.0490821
0.049074
0.04907
0.0490704
0.049075
0.0490837
0.0490957
0.0491104
0.0491273
0.0491458
0.0491657
0.0491868
0.0492088
0.0492316
0.0492548
0.0492782
0.0493011
0.049323
0.0493428
0.0493598
0.0493731
0.0493813
0.0493831
0.0493803
0.049374
0.0493635
0.0493494
0.0493331
0.0493156
0.0492976
0.0492797
0.0492622
0.0492457
0.0492303
0.0492163
0.0492041
0.0491936
0.0491853
0.049179
0.0491751
0.0491733
0.0491737
0.0491762
0.0491806
0.0491866
0.0491942
0.049203
0.0492127
0.0492232
0.0492341
0.049245
0.0492558
0.0492657
0.0492737
0.0492758
0.0492585
0.0492067
0.04921
0.0492448
0.0492419
0.049228
0.0492088
0.0491874
0.0491663
0.0491481
0.049135
0.0491289
0.0491311
0.0491426
0.0491636
0.0491925
0.049225
0.0492536
0.0492698
0.049269
0.0492522
0.0492228
0.0491951
0.049182
0.0491799
0.0491852
0.0491941
0.0492026
0.0492057
0.0491925
0.0491489
0.0491942
0.0491864
0.0491898
0.0492087
0.0492177
0.0492139
0.0492021
0.0491863
0.0491685
0.0491498
0.0491307
0.0491121
0.0490948
0.0490797
0.0490679
0.04906
0.0490565
0.0490574
0.0490625
0.0490714
0.0490836
0.0490984
0.0491152
0.0491334
0.049153
0.0491736
0.0491951
0.0492174
0.0492402
0.0492632
0.0492858
0.0493074
0.049327
0.0493437
0.0493566
0.0493644
0.0493656
0.0493623
0.0493553
0.0493443
0.0493302
0.0493142
0.0492972
0.04928
0.0492628
0.0492462
0.0492304
0.0492157
0.0492023
0.0491905
0.0491805
0.0491725
0.0491667
0.0491633
0.049162
0.049163
0.049166
0.0491709
0.0491776
0.0491858
0.0491953
0.0492058
0.049217
0.0492287
0.0492406
0.0492522
0.0492629
0.0492715
0.0492732
0.0492518
0.0491852
0.0491808
0.0492297
0.0492288
0.0492138
0.0491922
0.049168
0.0491442
0.0491236
0.0491083
0.0491
0.0490999
0.0491087
0.0491269
0.0491537
0.0491858
0.0492162
0.049236
0.0492398
0.0492282
0.0492031
0.0491764
0.0491679
0.0491698
0.0491773
0.049187
0.0491945
0.0491939
0.0491706
0.0491025
0.0491582
0.0491533
0.0491619
0.0491873
0.0492011
0.0491997
0.0491887
0.0491728
0.0491546
0.0491352
0.0491155
0.0490964
0.0490787
0.0490636
0.0490518
0.0490443
0.0490413
0.0490428
0.0490483
0.0490576
0.0490699
0.0490847
0.0491012
0.0491191
0.049138
0.049158
0.0491789
0.0492006
0.0492229
0.0492454
0.0492677
0.0492889
0.0493082
0.0493247
0.0493372
0.0493445
0.0493453
0.049341
0.0493329
0.0493213
0.049307
0.0492912
0.0492749
0.0492584
0.0492421
0.0492262
0.0492112
0.0491971
0.0491842
0.0491728
0.0491632
0.0491557
0.0491503
0.0491474
0.0491467
0.0491484
0.0491521
0.0491578
0.0491652
0.0491742
0.0491844
0.0491956
0.0492076
0.0492199
0.0492323
0.0492445
0.0492557
0.0492645
0.0492659
0.0492417
0.0491633
0.0491508
0.0492097
0.0492125
0.0491962
0.0491728
0.0491464
0.0491206
0.0490979
0.0490808
0.0490708
0.0490688
0.0490754
0.049091
0.0491165
0.0491497
0.0491833
0.0492078
0.0492173
0.0492115
0.049192
0.049164
0.0491585
0.049164
0.0491738
0.0491841
0.0491909
0.0491875
0.0491558
0.0490641
0.0491195
0.0491175
0.0491299
0.0491611
0.0491799
0.0491814
0.0491717
0.0491562
0.0491379
0.0491183
0.0490984
0.049079
0.0490612
0.0490461
0.0490345
0.0490273
0.0490248
0.0490269
0.0490329
0.0490425
0.049055
0.0490696
0.0490858
0.049103
0.0491213
0.0491405
0.0491606
0.0491816
0.0492033
0.0492253
0.0492471
0.0492681
0.0492872
0.0493034
0.0493156
0.0493224
0.0493227
0.0493175
0.0493079
0.0492954
0.0492808
0.0492653
0.0492495
0.0492338
0.0492183
0.0492033
0.0491889
0.0491753
0.0491628
0.0491518
0.0491425
0.0491352
0.0491302
0.0491276
0.0491276
0.04913
0.0491345
0.0491411
0.0491495
0.0491595
0.0491706
0.0491827
0.0491954
0.0492084
0.0492214
0.0492339
0.0492454
0.0492544
0.0492557
0.0492291
0.0491414
0.049122
0.0491875
0.0491954
0.0491781
0.0491533
0.0491257
0.0490986
0.0490747
0.0490565
0.0490453
0.049042
0.0490462
0.0490592
0.0490836
0.0491188
0.0491566
0.0491862
0.0492015
0.0492017
0.0491877
0.0491593
0.049153
0.0491615
0.0491733
0.0491846
0.0491912
0.0491862
0.0491472
0.0490323
0.0490811
0.0490817
0.0490961
0.049132
0.0491558
0.0491606
0.0491528
0.0491381
0.0491201
0.0491004
0.0490804
0.0490609
0.049043
0.0490278
0.0490163
0.0490093
0.0490073
0.0490099
0.0490165
0.0490264
0.0490391
0.0490535
0.0490692
0.0490858
0.0491032
0.0491214
0.0491407
0.0491609
0.0491819
0.0492033
0.0492248
0.0492455
0.0492644
0.0492805
0.0492925
0.0492989
0.0492988
0.0492926
0.0492815
0.049268
0.0492531
0.0492379
0.0492227
0.0492077
0.0491931
0.0491788
0.0491649
0.0491517
0.0491395
0.0491285
0.0491192
0.0491119
0.049107
0.0491046
0.0491051
0.0491081
0.0491136
0.0491211
0.0491306
0.0491417
0.0491539
0.0491671
0.0491807
0.0491945
0.0492082
0.0492212
0.0492331
0.0492422
0.0492434
0.0492149
0.0491198
0.0490955
0.0491654
0.0491791
0.0491615
0.049136
0.0491079
0.0490805
0.0490568
0.0490388
0.0490276
0.0490232
0.0490239
0.0490333
0.0490564
0.0490942
0.0491364
0.0491709
0.0491917
0.0491975
0.0491879
0.0491627
0.0491499
0.0491595
0.0491735
0.0491865
0.049194
0.0491887
0.0491436
0.0490056
0.0490453
0.0490481
0.0490624
0.0491014
0.0491298
0.0491384
0.049133
0.0491196
0.0491022
0.0490828
0.0490627
0.049043
0.0490248
0.0490092
0.0489975
0.0489905
0.0489888
0.048992
0.0489993
0.0490097
0.0490225
0.0490368
0.049052
0.0490677
0.049084
0.0491012
0.0491195
0.0491388
0.0491591
0.04918
0.0492011
0.0492216
0.0492405
0.0492567
0.0492685
0.0492747
0.0492743
0.0492673
0.0492551
0.0492406
0.0492254
0.0492105
0.049196
0.0491819
0.049168
0.0491543
0.0491409
0.0491278
0.0491155
0.0491044
0.0490948
0.0490872
0.049082
0.0490796
0.0490802
0.0490837
0.0490898
0.0490984
0.049109
0.0491212
0.0491347
0.0491491
0.0491639
0.0491787
0.0491931
0.0492069
0.0492192
0.0492288
0.0492299
0.0491996
0.0490987
0.0490717
0.0491452
0.0491644
0.0491475
0.0491219
0.049094
0.0490673
0.0490448
0.0490291
0.0490201
0.0490135
0.0490095
0.049014
0.0490353
0.0490761
0.0491225
0.0491612
0.0491865
0.0491971
0.0491923
0.0491695
0.049149
0.0491561
0.0491724
0.049188
0.0491976
0.0491934
0.0491439
0.0489828
0.0490134
0.0490184
0.0490304
0.0490706
0.0491028
0.0491153
0.0491128
0.0491015
0.0490852
0.0490662
0.0490461
0.0490261
0.0490072
0.048991
0.0489786
0.0489712
0.0489695
0.0489733
0.0489815
0.0489925
0.0490057
0.0490199
0.0490344
0.0490491
0.0490642
0.0490803
0.0490975
0.0491159
0.0491354
0.0491558
0.0491766
0.049197
0.049216
0.0492324
0.0492444
0.0492507
0.04925
0.0492425
0.04923
0.0492148
0.0491994
0.0491849
0.0491711
0.0491579
0.0491447
0.0491315
0.0491183
0.0491052
0.0490925
0.0490808
0.0490706
0.0490625
0.0490568
0.0490539
0.0490542
0.0490578
0.0490644
0.0490738
0.0490854
0.0490988
0.0491136
0.0491293
0.0491453
0.0491613
0.0491768
0.0491914
0.0492045
0.0492147
0.0492159
0.0491837
0.0490779
0.0490508
0.0491278
0.0491521
0.0491366
0.0491112
0.0490839
0.0490585
0.0490384
0.0490268
0.0490199
0.0490098
0.0490014
0.049001
0.0490205
0.0490643
0.049114
0.0491557
0.0491844
0.0491987
0.0491976
0.0491777
0.0491516
0.0491519
0.0491688
0.0491877
0.0492005
0.049199
0.049147
0.048963
0.0489864
0.0489938
0.0490018
0.0490406
0.0490753
0.0490916
0.0490925
0.0490837
0.0490693
0.0490515
0.0490316
0.0490112
0.0489915
0.048974
0.0489604
0.048952
0.0489498
0.0489539
0.048963
0.0489752
0.0489889
0.0490031
0.0490169
0.0490305
0.0490443
0.049059
0.0490751
0.0490925
0.0491113
0.0491312
0.0491517
0.0491721
0.0491914
0.0492082
0.0492208
0.0492274
0.0492268
0.0492192
0.0492067
0.0491915
0.0491764
0.0491624
0.0491494
0.0491369
0.0491244
0.0491115
0.0490982
0.0490847
0.0490713
0.0490588
0.0490477
0.0490387
0.0490322
0.0490287
0.0490285
0.0490318
0.0490386
0.0490484
0.0490608
0.0490753
0.0490913
0.0491083
0.0491257
0.0491429
0.0491597
0.0491753
0.0491894
0.0492003
0.0492016
0.0491673
0.0490571
0.0490328
0.0491139
0.0491424
0.0491288
0.0491041
0.0490773
0.0490535
0.0490364
0.0490303
0.049021
0.049008
0.0489967
0.0489934
0.049012
0.0490584
0.0491101
0.0491534
0.0491839
0.0492007
0.0492024
0.0491858
0.0491573
0.0491479
0.0491627
0.0491846
0.0492017
0.0492042
0.0491518
0.0489451
0.0489646
0.0489753
0.0489779
0.0490126
0.0490478
0.049067
0.0490713
0.0490658
0.0490542
0.0490384
0.0490197
0.0489992
0.0489784
0.0489593
0.0489437
0.0489334
0.0489301
0.048934
0.0489441
0.0489579
0.0489724
0.0489867
0.0489998
0.049012
0.0490243
0.0490377
0.0490525
0.0490691
0.0490872
0.0491066
0.0491269
0.0491474
0.0491671
0.0491846
0.049198
0.0492054
0.0492054
0.0491981
0.0491858
0.0491714
0.0491571
0.0491438
0.0491316
0.0491197
0.0491075
0.0490947
0.049081
0.0490666
0.0490522
0.0490384
0.049026
0.0490159
0.0490086
0.0490044
0.0490037
0.0490067
0.0490134
0.0490235
0.0490364
0.0490517
0.0490687
0.0490869
0.0491056
0.0491242
0.0491422
0.0491592
0.0491744
0.0491863
0.0491876
0.0491505
0.049036
0.0490178
0.0491036
0.0491353
0.0491235
0.0490996
0.0490739
0.0490517
0.0490386
0.0490342
0.049023
0.0490069
0.0489926
0.0489883
0.0490095
0.0490577
0.04911
0.0491535
0.0491846
0.0492024
0.0492059
0.0491928
0.049164
0.0491452
0.0491549
0.0491784
0.0492003
0.0492079
0.0491574
0.0489288
0.0489481
0.0489632
0.0489603
0.0489881
0.0490205
0.0490412
0.0490484
0.0490464
0.0490384
0.0490261
0.0490099
0.0489906
0.0489692
0.0489481
0.0489297
0.0489166
0.048911
0.048914
0.0489248
0.0489402
0.0489562
0.0489708
0.0489832
0.048994
0.0490046
0.0490164
0.0490301
0.0490457
0.0490631
0.0490821
0.0491023
0.049123
0.0491433
0.0491617
0.0491764
0.0491851
0.0491862
0.0491799
0.0491682
0.0491545
0.0491412
0.0491291
0.0491176
0.0491062
0.0490941
0.0490809
0.0490663
0.0490506
0.0490344
0.0490188
0.0490048
0.0489933
0.0489851
0.0489804
0.0489795
0.0489825
0.0489892
0.0489994
0.0490128
0.0490287
0.0490466
0.0490659
0.0490858
0.0491057
0.0491251
0.0491434
0.04916
0.0491729
0.049174
0.0491332
0.0490141
0.049006
0.0490972
0.0491307
0.0491204
0.0490974
0.0490731
0.0490531
0.0490441
0.0490392
0.0490253
0.0490056
0.0489883
0.0489835
0.0490092
0.0490608
0.0491134
0.049156
0.0491864
0.049204
0.0492082
0.0491971
0.0491694
0.0491434
0.049146
0.0491695
0.049196
0.0492095
0.0491629
0.0489135
0.0489366
0.048957
0.0489497
0.048969
0.0489951
0.0490138
0.0490226
0.0490237
0.0490197
0.0490119
0.0490005
0.0489845
0.0489643
0.0489416
0.0489198
0.0489026
0.0488934
0.0488942
0.048905
0.0489222
0.0489405
0.0489557
0.0489673
0.0489764
0.0489851
0.0489954
0.0490078
0.0490225
0.0490394
0.0490581
0.0490782
0.0490992
0.0491202
0.0491399
0.0491561
0.0491667
0.0491696
0.0491647
0.0491541
0.0491413
0.049129
0.0491178
0.0491072
0.0490961
0.0490837
0.0490697
0.0490537
0.049036
0.0490174
0.0489994
0.0489832
0.0489699
0.0489606
0.0489555
0.0489548
0.0489584
0.0489656
0.0489764
0.0489903
0.0490068
0.0490255
0.0490457
0.0490667
0.049088
0.0491088
0.0491285
0.0491465
0.0491603
0.0491609
0.049115
0.0489911
0.0489981
0.0490947
0.0491287
0.0491193
0.0490974
0.0490747
0.0490577
0.0490515
0.0490446
0.0490273
0.0490037
0.0489835
0.0489793
0.0490108
0.049066
0.0491188
0.0491603
0.049189
0.0492054
0.049209
0.0491985
0.0491723
0.0491418
0.0491368
0.0491585
0.0491889
0.0492087
0.0491676
0.0488989
0.0489301
0.0489551
0.0489457
0.0489554
0.048973
0.0489872
0.0489951
0.0489975
0.0489964
0.0489931
0.0489875
0.0489779
0.0489622
0.0489403
0.0489154
0.048893
0.0488784
0.0488754
0.0488851
0.0489039
0.0489249
0.0489412
0.0489521
0.0489592
0.0489658
0.0489743
0.0489855
0.0489995
0.0490159
0.0490344
0.0490546
0.049076
0.0490979
0.049119
0.0491372
0.0491501
0.0491553
0.0491525
0.0491435
0.0491318
0.0491202
0.0491097
0.0490996
0.0490887
0.0490759
0.0490606
0.0490427
0.0490224
0.0490008
0.0489795
0.0489605
0.048945
0.0489342
0.0489285
0.0489283
0.048933
0.0489417
0.0489538
0.0489687
0.0489862
0.0490057
0.0490269
0.049049
0.0490714
0.0490936
0.0491148
0.0491342
0.0491489
0.0491481
0.0490953
0.0489667
0.048995
0.0490964
0.049129
0.04912
0.0490993
0.0490787
0.0490649
0.0490595
0.0490495
0.0490282
0.0490007
0.048978
0.048976
0.0490144
0.0490728
0.0491255
0.0491653
0.0491919
0.0492062
0.0492082
0.0491973
0.0491722
0.0491394
0.0491273
0.0491461
0.0491794
0.0492055
0.049171
0.0488848
0.0489287
0.048956
0.0489466
0.0489471
0.0489548
0.0489626
0.0489676
0.0489697
0.0489699
0.0489695
0.0489686
0.0489659
0.0489582
0.0489422
0.0489177
0.0488899
0.0488675
0.0488582
0.0488651
0.048885
0.0489088
0.0489273
0.0489374
0.0489424
0.0489465
0.0489531
0.048963
0.0489763
0.0489925
0.0490111
0.0490316
0.0490535
0.0490764
0.049099
0.0491194
0.0491351
0.0491434
0.0491432
0.0491362
0.0491256
0.0491147
0.0491046
0.0490947
0.0490836
0.0490703
0.0490536
0.0490332
0.0490098
0.0489845
0.0489595
0.048937
0.0489188
0.0489061
0.0488995
0.0488994
0.0489056
0.0489164
0.0489307
0.0489476
0.0489666
0.0489874
0.0490095
0.0490327
0.0490564
0.0490799
0.0491027
0.0491235
0.0491387
0.0491354
0.0490728
0.048942
0.0489977
0.0491018
0.0491316
0.0491225
0.0491031
0.0490848
0.0490739
0.0490675
0.0490533
0.0490272
0.0489959
0.0489718
0.0489739
0.0490198
0.0490808
0.0491329
0.0491706
0.0491945
0.049206
0.0492058
0.0491935
0.0491688
0.0491352
0.0491174
0.0491325
0.0491681
0.0492001
0.0491728
0.0488709
0.0489337
0.0489591
0.0489506
0.0489432
0.0489412
0.0489415
0.0489421
0.0489424
0.0489425
0.0489433
0.0489453
0.0489477
0.0489478
0.0489409
0.0489225
0.0488941
0.0488644
0.0488447
0.0488453
0.0488651
0.0488922
0.0489138
0.0489233
0.0489256
0.0489269
0.0489313
0.04894
0.0489527
0.048969
0.0489879
0.049009
0.0490316
0.0490555
0.0490798
0.0491026
0.0491214
0.0491332
0.0491363
0.0491317
0.0491225
0.0491122
0.0491023
0.0490923
0.0490808
0.0490665
0.0490484
0.0490255
0.0489987
0.0489694
0.0489401
0.0489138
0.0488926
0.0488777
0.0488696
0.0488689
0.0488762
0.0488894
0.0489067
0.0489265
0.0489479
0.0489704
0.0489939
0.0490183
0.0490432
0.0490681
0.0490924
0.0491145
0.0491297
0.0491215
0.0490437
0.0489224
0.0490057
0.0491108
0.0491358
0.0491263
0.0491084
0.0490927
0.0490836
0.0490745
0.0490549
0.0490238
0.0489892
0.0489649
0.0489736
0.0490269
0.0490896
0.0491405
0.0491757
0.0491965
0.0492048
0.0492017
0.0491874
0.0491623
0.0491287
0.0491065
0.0491181
0.0491553
0.0491928
0.0491728
0.0488573
0.0489487
0.0489671
0.0489571
0.0489428
0.0489321
0.0489251
0.0489208
0.0489182
0.048917
0.0489177
0.0489207
0.0489258
0.0489315
0.0489332
0.0489245
0.0489013
0.0488684
0.048839
0.0488271
0.0488442
0.0488746
0.0488996
0.0489094
0.0489087
0.0489067
0.0489086
0.048916
0.0489283
0.0489449
0.0489646
0.0489866
0.0490103
0.0490353
0.0490612
0.0490866
0.0491087
0.0491245
0.0491314
0.0491297
0.0491222
0.0491125
0.0491026
0.0490924
0.0490804
0.0490649
0.0490451
0.0490202
0.04899
0.0489566
0.0489228
0.0488926
0.0488684
0.0488513
0.0488413
0.0488391
0.0488462
0.0488615
0.0488822
0.0489055
0.04893
0.0489549
0.0489801
0.0490059
0.0490321
0.0490585
0.0490842
0.0491073
0.0491211
0.0491013
0.0490114
0.0489117
0.0490196
0.0491217
0.0491415
0.0491313
0.0491151
0.0491018
0.0490929
0.0490794
0.0490535
0.049017
0.0489802
0.0489578
0.0489756
0.0490354
0.0490989
0.0491481
0.0491803
0.0491976
0.0492023
0.0491959
0.0491789
0.0491528
0.0491195
0.0490944
0.049103
0.0491416
0.0491842
0.0491714
0.0488438
0.0489825
0.0489868
0.0489681
0.0489458
0.0489275
0.0489141
0.0489048
0.0488989
0.0488958
0.0488953
0.0488978
0.0489037
0.0489121
0.0489201
0.0489209
0.0489067
0.0488761
0.0488405
0.048816
0.0488206
0.0488552
0.0488845
0.0488957
0.0488916
0.0488856
0.0488847
0.0488906
0.0489027
0.0489199
0.0489408
0.0489642
0.0489894
0.0490158
0.0490434
0.049071
0.0490966
0.0491166
0.049128
0.0491298
0.0491243
0.0491154
0.0491055
0.049095
0.0490823
0.0490658
0.0490443
0.0490171
0.0489844
0.0489471
0.048909
0.0488751
0.0488484
0.0488297
0.048818
0.0488132
0.0488183
0.0488348
0.0488586
0.0488858
0.0489138
0.0489414
0.0489686
0.0489959
0.0490235
0.0490513
0.0490784
0.0491018
0.0491098
0.0490732
0.0489824
0.0489107
0.0490389
0.0491337
0.049148
0.0491372
0.0491227
0.0491111
0.0491004
0.0490809
0.049048
0.0490068
0.0489695
0.0489515
0.0489799
0.0490452
0.0491088
0.0491556
0.0491843
0.0491976
0.0491982
0.0491883
0.0491683
0.0491406
0.0491074
0.0490806
0.0490873
0.0491275
0.0491748
0.0491685
0.0488304
0.0490427
0.0490207
0.0489842
0.0489511
0.0489257
0.0489069
0.0488936
0.0488846
0.0488793
0.0488771
0.0488783
0.0488836
0.0488928
0.0489042
0.0489122
0.0489077
0.0488838
0.0488466
0.0488125
0.0488014
0.0488296
0.0488686
0.0488814
0.0488741
0.0488636
0.0488594
0.0488637
0.0488756
0.0488938
0.0489164
0.0489418
0.0489689
0.048997
0.0490262
0.049056
0.0490848
0.0491092
0.0491254
0.0491315
0.0491287
0.0491208
0.0491109
0.0491
0.0490868
0.0490693
0.0490464
0.0490172
0.0489818
0.0489419
0.0488999
0.0488629
0.0488344
0.0488151
0.0488025
0.0487951
0.048796
0.0488121
0.0488385
0.0488692
0.0489005
0.0489307
0.0489599
0.0489886
0.0490176
0.049047
0.0490751
0.0490961
0.0490917
0.0490434
0.0489593
0.0489199
0.049062
0.0491461
0.0491549
0.0491437
0.0491307
0.0491195
0.0491047
0.0490779
0.049038
0.0489935
0.0489578
0.0489468
0.0489868
0.0490565
0.0491195
0.049163
0.0491876
0.0491963
0.0491926
0.0491788
0.0491555
0.0491257
0.0490924
0.0490652
0.0490712
0.0491133
0.0491651
0.0491648
0.0488172
0.0491058
0.0490462
0.0489922
0.0489508
0.0489209
0.0488992
0.0488838
0.0488732
0.0488663
0.0488627
0.0488626
0.0488666
0.0488754
0.0488882
0.0489008
0.0489045
0.0488892
0.0488547
0.0488147
0.0487905
0.0488012
0.0488468
0.0488655
0.0488569
0.048841
0.0488328
0.0488352
0.048847
0.0488664
0.0488911
0.0489192
0.0489488
0.048979
0.0490099
0.0490417
0.0490733
0.0491018
0.0491232
0.0491342
0.0491349
0.0491285
0.0491188
0.0491075
0.0490937
0.0490756
0.0490516
0.0490209
0.0489833
0.0489404
0.0488963
0.0488566
0.048827
0.0488083
0.0487965
0.0487881
0.0487829
0.0487961
0.0488243
0.048858
0.0488918
0.048924
0.0489547
0.0489847
0.0490151
0.0490459
0.0490736
0.0490865
0.0490692
0.0490149
0.0489445
0.0489391
0.0490871
0.0491584
0.0491621
0.0491504
0.0491382
0.0491251
0.0491041
0.0490692
0.0490234
0.0489779
0.0489464
0.048945
0.0489965
0.0490699
0.0491311
0.0491705
0.04919
0.0491937
0.0491853
0.0491674
0.0491406
0.0491085
0.0490747
0.0490482
0.0490548
0.0490996
0.0491557
0.0491605
0.0488042
0.0491108
0.0490292
0.0489736
0.0489334
0.0489054
0.0488857
0.0488717
0.0488618
0.048855
0.0488511
0.0488501
0.0488531
0.0488609
0.0488738
0.0488889
0.0488987
0.0488919
0.0488628
0.0488208
0.0487866
0.0487817
0.0488131
0.04885
0.04884
0.0488182
0.0488055
0.0488057
0.0488173
0.0488381
0.0488653
0.0488964
0.0489291
0.048962
0.0489949
0.0490282
0.049062
0.0490943
0.0491209
0.0491375
0.0491426
0.0491384
0.0491291
0.0491174
0.0491032
0.0490846
0.04906
0.0490284
0.0489894
0.0489443
0.0488973
0.0488558
0.0488259
0.0488086
0.0487995
0.0487929
0.0487847
0.0487914
0.0488201
0.0488546
0.0488893
0.0489222
0.0489536
0.0489848
0.049017
0.049048
0.0490703
0.0490723
0.0490448
0.048991
0.0489397
0.0489673
0.0491126
0.04917
0.0491691
0.0491565
0.0491437
0.0491263
0.0490972
0.0490543
0.0490046
0.0489612
0.0489365
0.0489471
0.0490099
0.049086
0.0491441
0.0491779
0.0491915
0.0491895
0.049176
0.0491539
0.0491236
0.0490891
0.0490549
0.0490299
0.0490386
0.049087
0.0491472
0.0491561
0.0487917
0.0490803
0.0489799
0.0489287
0.0488968
0.0488772
0.0488644
0.0488553
0.0488488
0.0488441
0.0488411
0.0488403
0.0488428
0.0488497
0.048862
0.0488782
0.0488921
0.0488924
0.0488702
0.0488295
0.0487888
0.0487705
0.048786
0.0488179
0.0488225
0.0487971
0.0487786
0.0487763
0.0487877
0.0488097
0.0488394
0.0488737
0.04891
0.0489462
0.0489813
0.049016
0.0490515
0.0490868
0.0491182
0.0491408
0.0491512
0.0491501
0.0491416
0.0491295
0.0491148
0.0490959
0.0490711
0.0490394
0.0489999
0.0489533
0.0489039
0.0488601
0.0488297
0.0488143
0.0488087
0.0488061
0.0488024
0.0488006
0.0488277
0.0488601
0.0488935
0.0489261
0.0489583
0.0489905
0.0490227
0.0490499
0.0490634
0.0490548
0.0490217
0.0489743
0.0489458
0.0490022
0.0491368
0.0491804
0.0491755
0.049161
0.0491454
0.049121
0.049083
0.0490336
0.048983
0.0489449
0.0489292
0.0489539
0.049028
0.0491053
0.049158
0.0491848
0.0491915
0.0491833
0.0491646
0.0491385
0.0491046
0.0490677
0.0490333
0.0490109
0.0490232
0.049076
0.04914
0.0491521
0.0487798
0.0490579
0.0489297
0.0488727
0.0488491
0.0488404
0.048837
0.0488353
0.0488341
0.0488331
0.0488325
0.048833
0.0488356
0.048842
0.0488534
0.0488697
0.048886
0.048892
0.0488769
0.04884
0.0487962
0.0487676
0.0487683
0.0487888
0.0488006
0.0487827
0.048756
0.0487499
0.0487602
0.048783
0.0488146
0.0488518
0.0488918
0.0489316
0.0489695
0.0490057
0.0490421
0.0490794
0.049115
0.0491436
0.0491601
0.0491633
0.0491562
0.0491438
0.0491285
0.0491092
0.0490845
0.0490533
0.0490142
0.048967
0.0489156
0.0488693
0.0488377
0.0488238
0.0488218
0.0488236
0.048825
0.0488269
0.0488447
0.0488732
0.0489045
0.0489362
0.0489682
0.0490001
0.0490292
0.0490493
0.0490532
0.0490366
0.0490028
0.0489669
0.0489627
0.0490411
0.0491586
0.0491891
0.0491804
0.0491623
0.049141
0.0491078
0.0490614
0.0490081
0.0489605
0.0489309
0.0489259
0.0489668
0.049052
0.0491276
0.0491723
0.0491905
0.0491898
0.0491751
0.049151
0.0491209
0.0490838
0.0490445
0.0490105
0.0489917
0.0490093
0.0490672
0.0491346
0.049149
0.0487687
0.0490443
0.0488981
0.0488214
0.048801
0.0488015
0.0488074
0.0488137
0.0488188
0.0488226
0.0488254
0.048828
0.0488316
0.0488377
0.0488483
0.048864
0.0488815
0.0488917
0.0488831
0.0488517
0.048808
0.0487724
0.0487607
0.0487691
0.0487766
0.0487705
0.048747
0.0487325
0.0487388
0.0487605
0.0487925
0.0488318
0.0488749
0.0489184
0.0489596
0.0489977
0.0490346
0.0490728
0.0491114
0.0491456
0.049169
0.0491775
0.0491727
0.0491599
0.0491438
0.049124
0.0490994
0.0490691
0.0490314
0.0489847
0.0489319
0.0488827
0.048849
0.0488357
0.0488371
0.0488436
0.0488496
0.0488558
0.0488687
0.0488926
0.0489212
0.0489514
0.0489821
0.0490111
0.0490344
0.0490459
0.0490412
0.0490204
0.0489907
0.0489699
0.0489892
0.0490806
0.0491771
0.0491956
0.0491824
0.0491585
0.0491288
0.0490862
0.0490333
0.0489801
0.0489392
0.0489207
0.0489274
0.0489883
0.0490824
0.0491517
0.0491855
0.0491941
0.0491857
0.0491644
0.049135
0.0491013
0.0490613
0.0490198
0.048987
0.0489734
0.0489979
0.0490611
0.0491313
0.0491469
0.0487586
0.0490388
0.0488816
0.0487824
0.0487598
0.0487654
0.0487788
0.0487924
0.048804
0.0488132
0.0488202
0.0488256
0.0488307
0.048837
0.0488467
0.0488614
0.0488791
0.0488921
0.0488893
0.0488642
0.0488232
0.048784
0.0487629
0.0487606
0.0487626
0.0487554
0.0487413
0.048727
0.0487276
0.0487453
0.0487753
0.0488147
0.0488598
0.0489068
0.0489516
0.0489921
0.0490296
0.0490677
0.0491079
0.0491468
0.0491771
0.0491923
0.0491908
0.0491778
0.0491605
0.0491397
0.049115
0.049086
0.0490505
0.0490055
0.0489521
0.0489
0.0488633
0.0488495
0.0488537
0.0488647
0.0488751
0.0488846
0.0488965
0.0489169
0.0489425
0.0489703
0.0489977
0.0490216
0.0490373
0.0490406
0.04903
0.0490088
0.0489872
0.0489834
0.049023
0.0491176
0.0491913
0.0491986
0.0491798
0.0491474
0.0491077
0.0490569
0.0490012
0.0489522
0.0489215
0.048916
0.0489354
0.0490208
0.0491182
0.0491753
0.0491958
0.0491948
0.049179
0.0491512
0.0491168
0.0490798
0.0490373
0.0489937
0.0489638
0.0489574
0.0489899
0.0490581
0.0491301
0.0491462
0.0487497
0.0490407
0.0488777
0.0487587
0.0487287
0.0487348
0.0487527
0.0487724
0.0487902
0.0488051
0.0488167
0.0488256
0.0488326
0.0488394
0.0488484
0.0488618
0.048879
0.0488936
0.0488956
0.048877
0.0488406
0.0488007
0.0487733
0.0487621
0.0487578
0.0487493
0.0487369
0.0487266
0.0487259
0.0487388
0.048765
0.0488023
0.0488474
0.048897
0.0489454
0.0489889
0.0490274
0.0490649
0.0491053
0.0491474
0.0491844
0.0492071
0.0492102
0.0491972
0.0491782
0.049156
0.0491307
0.0491028
0.0490701
0.0490282
0.0489755
0.0489208
0.0488802
0.0488648
0.048871
0.0488863
0.0489012
0.0489137
0.0489262
0.0489443
0.0489669
0.048991
0.0490135
0.0490307
0.0490387
0.0490353
0.0490217
0.0490039
0.0489932
0.0490064
0.0490608
0.0491492
0.0492003
0.0491968
0.0491703
0.049128
0.0490783
0.0490224
0.0489682
0.0489273
0.0489095
0.0489181
0.0489536
0.0490655
0.0491558
0.0491951
0.0492017
0.0491921
0.0491696
0.0491356
0.0490966
0.049057
0.0490125
0.0489655
0.0489426
0.0489465
0.0489862
0.0490573
0.0491305
0.0491469
0.0487422
0.0490482
0.0488833
0.0487514
0.0487086
0.0487105
0.0487297
0.0487536
0.0487771
0.0487977
0.0488145
0.0488273
0.0488369
0.0488446
0.048853
0.0488651
0.0488811
0.0488964
0.048902
0.0488897
0.0488591
0.0488209
0.0487897
0.0487715
0.0487613
0.0487504
0.0487378
0.0487296
0.0487297
0.0487408
0.0487631
0.0487957
0.0488388
0.0488894
0.0489408
0.0489879
0.0490282
0.0490651
0.0491043
0.0491479
0.0491906
0.0492215
0.0492306
0.0492181
0.0491968
0.0491724
0.0491458
0.0491187
0.0490892
0.0490515
0.0490013
0.048945
0.0488999
0.0488813
0.0488883
0.0489077
0.0489271
0.0489427
0.0489563
0.048973
0.0489924
0.0490121
0.0490286
0.0490387
0.0490398
0.0490318
0.0490183
0.0490067
0.0490083
0.0490364
0.0490985
0.0491732
0.0492029
0.0491883
0.0491521
0.0491004
0.0490427
0.048986
0.0489377
0.0489083
0.0489048
0.0489268
0.0489896
0.0491194
0.0491896
0.0492078
0.0492021
0.049186
0.0491576
0.0491178
0.0490749
0.0490333
0.0489876
0.0489381
0.0489274
0.0489415
0.0489862
0.0490589
0.0491323
0.0491492
0.048736
0.0490596
0.0488953
0.0487605
0.0486985
0.0486924
0.0487097
0.0487357
0.0487637
0.0487899
0.0488122
0.0488297
0.0488426
0.0488518
0.04886
0.0488707
0.0488852
0.0489003
0.0489085
0.0489017
0.0488775
0.048843
0.0488104
0.0487873
0.0487718
0.0487584
0.0487456
0.0487378
0.0487382
0.0487482
0.0487675
0.0487965
0.048836
0.0488848
0.0489381
0.0489888
0.0490317
0.0490687
0.049106
0.0491493
0.0491961
0.0492351
0.0492518
0.0492401
0.0492159
0.0491886
0.0491601
0.049133
0.0491067
0.0490742
0.0490282
0.0489718
0.0489223
0.0488989
0.0489052
0.0489278
0.0489517
0.0489706
0.0489857
0.0490015
0.0490178
0.0490325
0.0490428
0.0490463
0.0490419
0.0490317
0.0490208
0.0490174
0.0490311
0.0490701
0.0491319
0.0491878
0.0491978
0.0491714
0.0491248
0.0490657
0.0490051
0.0489516
0.0489129
0.048897
0.0489079
0.0489404
0.0490532
0.0491738
0.0492133
0.0492114
0.0491973
0.049177
0.0491435
0.0490985
0.0490524
0.0490093
0.0489628
0.048915
0.048921
0.0489419
0.0489895
0.0490625
0.0491355
0.0491526
0.0487311
0.0490747
0.0489102
0.0487852
0.048697
0.0486808
0.0486931
0.0487185
0.048749
0.0487799
0.0488078
0.0488308
0.0488479
0.0488596
0.0488684
0.0488781
0.0488909
0.0489052
0.048915
0.0489129
0.0488951
0.0488655
0.0488338
0.0488078
0.0487882
0.0487724
0.0487592
0.0487514
0.0487517
0.0487604
0.0487769
0.0488022
0.0488383
0.0488852
0.0489387
0.0489915
0.0490376
0.0490757
0.0491111
0.0491524
0.0492013
0.0492479
0.0492732
0.0492632
0.0492354
0.0492044