/*--------------------------------*- C++ -*----------------------------------*\
| =========                 |                                                 |
| \\      /  F ield         | OpenFOAM: The Open Source CFD Toolbox           |
|  \\    /   O peration     | Version:  4.1                                   |
|   \\  /    A nd           | Web:      www.OpenFOAM.org                      |
|    \\/     M anipulation  |                                                 |
\*---------------------------------------------------------------------------*/
FoamFile
{
    version     2.0;
    format      ascii;
    class       volVectorField;
    location    "160";
    object      U;
}
// * * * * * * * * * * * * * * * * * * * * * * * * * * * * * * * * * * * * * //

dimensions      [0 1 -1 0 0 0 0];

internalField   nonuniform List<vector> 
400
(
(-3.77074e-06 2.78289e-06 0)
(-3.83113e-06 -1.81984e-06 0)
(3.6634e-08 -1.2328e-06 0)
(8.36545e-08 1.67485e-07 0)
(1.59987e-08 9.93857e-08 0)
(2.75049e-08 4.75963e-08 0)
(6.40816e-09 -2.65827e-10 0)
(9.41672e-08 -1.94442e-08 0)
(5.63859e-08 8.18343e-08 0)
(-1.24134e-07 6.09564e-08 0)
(-1.19704e-07 -3.07739e-08 0)
(-4.96662e-08 -3.12341e-08 0)
(-1.96478e-08 -1.18117e-08 0)
(-8.853e-09 -8.72808e-09 0)
(1.04688e-08 -1.38277e-10 0)
(-5.46295e-09 1.6855e-08 0)
(-2.9954e-08 -1.15767e-08 0)
(2.73403e-08 -2.73419e-09 0)
(-2.1197e-08 3.63772e-08 0)
(-5.9525e-08 -3.46851e-08 0)
(4.92487e-08 5.16468e-06 0)
(-2.30171e-07 -2.89973e-06 0)
(-7.61282e-07 -2.0279e-06 0)
(-6.26729e-07 -1.32175e-07 0)
(-2.56652e-07 -7.75326e-08 0)
(-1.58708e-07 -3.8052e-08 0)
(-8.00001e-08 -6.19287e-08 0)
(-4.30821e-08 -6.63721e-08 0)
(-3.03653e-08 1.53459e-07 0)
(-3.26892e-08 1.10935e-07 0)
(-2.55754e-08 -6.29413e-08 0)
(-2.39771e-08 -5.66827e-08 0)
(-2.18065e-08 -2.55427e-08 0)
(-1.70562e-08 -1.82885e-08 0)
(-1.29313e-08 -6.90527e-09 0)
(-7.32654e-09 2.7466e-08 0)
(-6.07154e-09 -2.24376e-08 0)
(-5.58696e-09 -1.2812e-08 0)
(6.81348e-09 6.08325e-08 0)
(9.0407e-09 -5.22426e-08 0)
(1.98033e-06 3.17573e-06 0)
(2.01331e-06 -1.33223e-06 0)
(5.38202e-09 -9.99465e-07 0)
(-4.33748e-08 -3.93882e-07 0)
(-6.10986e-08 -2.42529e-07 0)
(-5.71512e-08 -1.2208e-07 0)
(-5.21059e-08 -8.41977e-08 0)
(-9.68758e-08 -6.54043e-08 0)
(-6.73673e-08 8.40573e-08 0)
(4.05047e-08 5.86952e-08 0)
(3.95427e-08 -4.26921e-08 0)
(2.38351e-09 -3.64155e-08 0)
(-6.09151e-09 -2.18455e-08 0)
(-1.06379e-08 -1.49759e-08 0)
(-1.95413e-08 -9.57684e-09 0)
(-9.25525e-09 1.30145e-08 0)
(3.33641e-09 -1.37427e-08 0)
(-2.83187e-08 -1.24441e-08 0)
(8.14752e-10 2.44435e-08 0)
(2.7801e-08 -2.70745e-08 0)
(9.69088e-07 1.27757e-06 0)
(1.04924e-06 -3.60527e-07 0)
(1.70929e-07 -3.12526e-07 0)
(9.61671e-08 -1.85736e-07 0)
(-1.05435e-08 -1.31039e-07 0)
(-2.57794e-08 -8.26653e-08 0)
(-3.41204e-08 -5.21356e-08 0)
(-5.48106e-08 -4.02836e-08 0)
(-3.76753e-08 1.33895e-08 0)
(1.82499e-08 1.02343e-08 0)
(1.9444e-08 -2.00834e-08 0)
(2.43756e-09 -1.96479e-08 0)
(-3.01414e-09 -1.44557e-08 0)
(-8.01556e-09 -9.3941e-09 0)
(-1.33308e-08 -5.42342e-09 0)
(-9.83556e-09 1.70922e-09 0)
(-2.59076e-09 -6.78313e-09 0)
(-1.37713e-08 -5.9981e-09 0)
(-4.9584e-10 -2.09343e-09 0)
(1.19597e-08 -1.64259e-08 0)
(3.94793e-07 6.92499e-07 0)
(4.75607e-07 -9.29878e-08 0)
(1.68589e-07 -1.12676e-07 0)
(1.1324e-07 -1.27303e-07 0)
(3.65813e-08 -9.82224e-08 0)
(6.39719e-09 -7.32268e-08 0)
(-9.16286e-09 -5.11367e-08 0)
(-1.67281e-08 -3.90978e-08 0)
(-1.45726e-08 -6.72273e-09 0)
(7.41591e-09 -4.66605e-09 0)
(8.47452e-09 -1.67421e-08 0)
(2.42417e-09 -1.41468e-08 0)
(-2.19631e-09 -9.62507e-09 0)
(-7.06153e-09 -5.18522e-09 0)
(-1.00699e-08 -3.9126e-09 0)
(-9.99438e-09 -1.76859e-09 0)
(-6.60612e-09 -8.63567e-09 0)
(-6.46702e-09 -8.86462e-09 0)
(1.37088e-09 -9.33596e-09 0)
(5.5578e-09 -1.19495e-08 0)
(1.8424e-07 3.34886e-07 0)
(2.44194e-07 1.91507e-08 0)
(1.24936e-07 -1.31147e-08 0)
(9.1836e-08 -5.32825e-08 0)
(4.3074e-08 -5.285e-08 0)
(2.03092e-08 -4.47431e-08 0)
(6.68351e-09 -3.89813e-08 0)
(-2.08868e-09 -3.17115e-08 0)
(-4.55293e-09 -1.48802e-08 0)
(5.07914e-09 -1.27782e-08 0)
(4.53213e-09 -1.3551e-08 0)
(9.49284e-10 -9.85085e-09 0)
(-2.92078e-09 -5.02672e-09 0)
(-5.74299e-09 -2.07586e-09 0)
(-6.9458e-09 -2.38051e-09 0)
(-6.70211e-09 -2.51677e-09 0)
(-4.07271e-09 -1.12346e-08 0)
(-1.28179e-09 -1.25416e-08 0)
(3.33975e-09 -1.49035e-08 0)
(3.42838e-09 -8.0244e-09 0)
(8.17237e-08 1.89331e-07 0)
(1.23558e-07 3.93216e-08 0)
(8.61192e-08 1.37915e-08 0)
(7.03882e-08 -1.95382e-08 0)
(3.9324e-08 -2.78156e-08 0)
(2.43609e-08 -3.12997e-08 0)
(1.55022e-08 -2.88665e-08 0)
(4.21298e-09 -2.48339e-08 0)
(1.63143e-09 -1.62459e-08 0)
(4.57018e-09 -1.46178e-08 0)
(2.77527e-09 -1.11734e-08 0)
(-2.65291e-10 -6.76527e-09 0)
(-2.76733e-09 -2.42313e-09 0)
(-3.8331e-09 -8.91322e-10 0)
(-3.90033e-09 -3.02186e-09 0)
(-1.74453e-09 -4.7837e-09 0)
(1.25376e-09 -1.40704e-08 0)
(3.07795e-09 -1.52249e-08 0)
(4.05343e-09 -1.55664e-08 0)
(2.14032e-09 -4.401e-09 0)
(4.12446e-08 1.08017e-07 0)
(6.81009e-08 4.31099e-08 0)
(5.52468e-08 2.32465e-08 0)
(4.85614e-08 6.89482e-10 0)
(3.32866e-08 -9.34774e-09 0)
(2.34594e-08 -2.21323e-08 0)
(1.48137e-08 -1.91549e-08 0)
(7.57521e-09 -1.85091e-08 0)
(5.8822e-09 -1.6276e-08 0)
(5.11619e-09 -1.38022e-08 0)
(2.70012e-09 -8.64066e-09 0)
(1.19002e-11 -4.17137e-09 0)
(-9.84385e-10 -1.94168e-09 0)
(-6.23115e-10 -3.08826e-10 0)
(-6.43662e-10 -4.44141e-09 0)
(1.48983e-09 -7.6368e-09 0)
(4.27271e-09 -1.60338e-08 0)
(5.12323e-09 -1.59127e-08 0)
(3.64322e-09 -1.39579e-08 0)
(1.02682e-09 -1.482e-09 0)
(2.18239e-08 6.59199e-08 0)
(3.80896e-08 4.03609e-08 0)
(3.45129e-08 2.67675e-08 0)
(3.08591e-08 8.12521e-09 0)
(2.75051e-08 -3.64786e-09 0)
(2.12782e-08 -1.19846e-08 0)
(1.2368e-08 -1.33534e-08 0)
(1.11889e-08 -1.54461e-08 0)
(8.85638e-09 -1.46991e-08 0)
(5.93285e-09 -1.10931e-08 0)
(2.73195e-09 -6.33941e-09 0)
(1.45188e-09 -2.65402e-09 0)
(7.3471e-10 -2.19829e-09 0)
(1.10813e-09 -8.75174e-10 0)
(2.12518e-09 -5.44549e-09 0)
(3.59455e-09 -9.90597e-09 0)
(5.54999e-09 -1.70301e-08 0)
(4.8817e-09 -1.50927e-08 0)
(2.02082e-09 -1.12041e-08 0)
(1.51705e-11 3.98044e-11 0)
(1.13333e-08 4.27449e-08 0)
(1.9858e-08 3.70475e-08 0)
(2.16277e-08 2.59113e-08 0)
(2.35047e-08 1.12208e-08 0)
(2.17416e-08 -2.51612e-09 0)
(1.72976e-08 -3.84153e-09 0)
(1.35903e-08 -1.08566e-08 0)
(1.32401e-08 -1.37752e-08 0)
(9.61781e-09 -1.15801e-08 0)
(6.67556e-09 -8.0959e-09 0)
(4.19197e-09 -4.24634e-09 0)
(3.24788e-09 -1.87413e-09 0)
(2.29533e-09 -1.55086e-09 0)
(1.99467e-09 -1.72489e-09 0)
(3.56734e-09 -6.73575e-09 0)
(5.06739e-09 -1.15351e-08 0)
(5.12732e-09 -1.66326e-08 0)
(3.40736e-09 -1.32364e-08 0)
(8.17932e-10 -8.79671e-09 0)
(-3.2471e-10 3.48014e-10 0)
(5.4786e-09 3.11511e-08 0)
(1.14843e-08 3.34939e-08 0)
(1.43751e-08 2.16765e-08 0)
(1.95928e-08 9.47484e-09 0)
(1.7423e-08 1.80244e-09 0)
(1.48022e-08 -2.36449e-09 0)
(1.65865e-08 -9.80011e-09 0)
(1.30761e-08 -1.07049e-08 0)
(8.89177e-09 -7.85032e-09 0)
(5.967e-09 -5.79463e-09 0)
(5.21518e-09 -3.3479e-09 0)
(4.98859e-09 -8.50055e-10 0)
(3.84466e-09 -7.80036e-10 0)
(3.84833e-09 -2.28577e-09 0)
(4.59118e-09 -7.89259e-09 0)
(5.29204e-09 -1.20388e-08 0)
(4.40519e-09 -1.51839e-08 0)
(2.88922e-09 -1.15166e-08 0)
(9.45914e-10 -7.08156e-09 0)
(-1.69348e-10 5.43593e-10 0)
(1.98474e-09 2.44579e-08 0)
(8.44922e-09 2.85218e-08 0)
(1.32201e-08 1.8013e-08 0)
(1.50011e-08 7.43641e-09 0)
(1.38852e-08 4.88291e-09 0)
(1.52953e-08 -5.01728e-09 0)
(1.57367e-08 -7.61131e-09 0)
(1.03322e-08 -6.62752e-09 0)
(8.4542e-09 -5.3031e-09 0)
(6.70527e-09 -3.57277e-09 0)
(5.60315e-09 -3.79192e-09 0)
(5.72747e-09 -6.69644e-11 0)
(5.14681e-09 -3.03343e-10 0)
(5.1767e-09 -2.52721e-09 0)
(5.83695e-09 -8.5088e-09 0)
(6.20242e-09 -1.18798e-08 0)
(5.12485e-09 -1.36731e-08 0)
(3.61343e-09 -1.00222e-08 0)
(1.3463e-09 -5.31226e-09 0)
(-1.50132e-10 1.05804e-09 0)
(1.12653e-09 2.0383e-08 0)
(5.28677e-09 2.27649e-08 0)
(1.14653e-08 1.45331e-08 0)
(1.14881e-08 8.67679e-09 0)
(1.25179e-08 2.50384e-09 0)
(1.58044e-08 -5.68389e-09 0)
(1.17135e-08 -3.54512e-09 0)
(8.18786e-09 -3.39754e-09 0)
(7.61307e-09 -5.3411e-09 0)
(7.51231e-09 -2.17628e-09 0)
(6.17542e-09 -2.99396e-09 0)
(5.29356e-09 1.42232e-10 0)
(6.2057e-09 -2.8488e-10 0)
(7.02013e-09 -3.13855e-09 0)
(7.94011e-09 -9.09184e-09 0)
(7.88919e-09 -1.15046e-08 0)
(6.25573e-09 -1.19056e-08 0)
(4.19355e-09 -8.04091e-09 0)
(1.32904e-09 -3.09295e-09 0)
(-3.15594e-10 1.66192e-09 0)
(1.37322e-09 1.73874e-08 0)
(4.85457e-09 1.84888e-08 0)
(8.7873e-09 1.10734e-08 0)
(1.05982e-08 8.04117e-09 0)
(1.4047e-08 -1.43712e-09 0)
(1.29882e-08 -2.72377e-09 0)
(8.06162e-09 -3.82138e-10 0)
(8.51082e-09 -2.12689e-09 0)
(7.14247e-09 -4.7611e-09 0)
(6.19618e-09 -1.90918e-09 0)
(5.81774e-09 -1.37116e-09 0)
(5.51475e-09 -6.67661e-10 0)
(7.8516e-09 -1.6779e-09 0)
(9.38754e-09 -4.39028e-09 0)
(9.85339e-09 -9.20529e-09 0)
(8.83032e-09 -1.04429e-08 0)
(6.51201e-09 -9.56209e-09 0)
(4.04658e-09 -5.47801e-09 0)
(9.8381e-10 -6.84369e-10 0)
(-4.7506e-10 2.03914e-09 0)
(3.02374e-10 1.45641e-08 0)
(5.56055e-09 1.42097e-08 0)
(8.46891e-09 8.93943e-09 0)
(1.08614e-08 3.90246e-09 0)
(1.29475e-08 -7.55949e-10 0)
(7.87046e-09 1.86145e-09 0)
(6.27281e-09 5.08777e-11 0)
(8.62694e-09 -2.82861e-09 0)
(7.04806e-09 -2.2718e-09 0)
(4.98107e-09 -1.83861e-09 0)
(5.69918e-09 -1.18485e-09 0)
(6.99901e-09 -2.77107e-09 0)
(9.45702e-09 -3.70208e-09 0)
(1.06875e-08 -5.31912e-09 0)
(1.02864e-08 -8.3636e-09 0)
(8.61806e-09 -8.58899e-09 0)
(5.93533e-09 -6.81983e-09 0)
(3.30949e-09 -2.74332e-09 0)
(3.38035e-10 1.58603e-09 0)
(-7.25083e-10 2.05319e-09 0)
(1.15957e-09 1.15711e-08 0)
(4.83658e-09 9.94101e-09 0)
(7.37088e-09 6.99086e-09 0)
(9.49412e-09 1.74511e-09 0)
(8.00695e-09 2.944e-09 0)
(5.68399e-09 3.52912e-09 0)
(7.96512e-09 -1.14333e-09 0)
(8.2741e-09 -3.6175e-09 0)
(6.40555e-09 3.10925e-10 0)
(5.01206e-09 -1.8332e-09 0)
(6.032e-09 -2.28373e-09 0)
(8.38032e-09 -5.2872e-09 0)
(1.02405e-08 -5.18186e-09 0)
(1.05909e-08 -5.35353e-09 0)
(9.37765e-09 -6.83849e-09 0)
(7.37547e-09 -6.34151e-09 0)
(4.58474e-09 -3.99628e-09 0)
(2.02212e-09 -2.48211e-11 0)
(-5.76554e-10 3.48257e-09 0)
(-1.05263e-09 1.52764e-09 0)
(2.55659e-09 8.14719e-09 0)
(3.77738e-09 8.34229e-09 0)
(5.78154e-09 4.18088e-09 0)
(6.7468e-09 2.97737e-09 0)
(4.70929e-09 3.91259e-09 0)
(7.52449e-09 1.02731e-09 0)
(9.73819e-09 -1.62929e-09 0)
(7.15353e-09 -2.0857e-09 0)
(5.15503e-09 1.89942e-09 0)
(5.73102e-09 -2.4504e-09 0)
(7.13764e-09 -3.94045e-09 0)
(8.82719e-09 -7.24233e-09 0)
(9.5826e-09 -5.94711e-09 0)
(9.08252e-09 -4.47244e-09 0)
(7.25231e-09 -4.7985e-09 0)
(4.92806e-09 -3.92441e-09 0)
(2.34049e-09 -1.33244e-09 0)
(2.71564e-10 2.30852e-09 0)
(-1.44302e-09 4.76587e-09 0)
(-1.17438e-09 2.85606e-10 0)
(1.11707e-09 5.32963e-09 0)
(3.50065e-09 7.03736e-09 0)
(5.14258e-09 2.68008e-09 0)
(4.69737e-09 3.96931e-09 0)
(5.96096e-09 1.55415e-09 0)
(8.82167e-09 -1.77625e-09 0)
(8.8743e-09 -3.34105e-10 0)
(6.20958e-09 1.0169e-09 0)
(5.17278e-09 1.76259e-09 0)
(6.96542e-09 -4.18596e-09 0)
(8.33645e-09 -5.2821e-09 0)
(8.07488e-09 -7.36892e-09 0)
(6.7647e-09 -5.51434e-09 0)
(5.36623e-09 -3.06863e-09 0)
(3.47014e-09 -2.50873e-09 0)
(1.37992e-09 -1.61161e-09 0)
(-4.37903e-10 6.89203e-10 0)
(-1.43359e-09 3.63642e-09 0)
(-1.7141e-09 5.09494e-09 0)
(-8.50063e-10 -1.2135e-09 0)
(6.12599e-10 3.3359e-09 0)
(3.93408e-09 4.22343e-09 0)
(5.50753e-09 3.03527e-09 0)
(6.01989e-09 2.46968e-09 0)
(8.35432e-09 -8.22426e-10 0)
(8.42869e-09 -1.58258e-09 0)
(7.08176e-09 9.41298e-10 0)
(6.97575e-09 2.1318e-09 0)
(8.01105e-09 5.78012e-10 0)
(8.26106e-09 -5.1735e-09 0)
(7.19257e-09 -5.16381e-09 0)
(4.59144e-09 -5.13642e-09 0)
(1.60709e-09 -3.46657e-09 0)
(-2.52821e-10 -1.43015e-09 0)
(-1.47617e-09 -7.14628e-10 0)
(-2.62221e-09 -4.01924e-11 0)
(-3.06697e-09 1.50348e-09 0)
(-2.75695e-09 3.58854e-09 0)
(-9.29321e-10 4.24853e-09 0)
(3.34813e-10 -2.45213e-09 0)
(1.07302e-09 1.12981e-09 0)
(3.51289e-09 1.37743e-09 0)
(6.20852e-09 1.6237e-09 0)
(8.49009e-09 4.39611e-10 0)
(8.61863e-09 -7.52036e-10 0)
(7.57575e-09 -2.03837e-10 0)
(7.03489e-09 6.04584e-10 0)
(8.57624e-09 8.2372e-10 0)
(1.03506e-08 -1.29472e-10 0)
(8.00468e-09 -2.51168e-09 0)
(3.66816e-09 -2.25715e-09 0)
(-1.13654e-10 -1.66736e-09 0)
(-2.90679e-09 -9.79504e-10 0)
(-4.35725e-09 -2.54353e-10 0)
(-4.90579e-09 -3.56058e-11 0)
(-5.13702e-09 2.00145e-10 0)
(-4.32834e-09 7.34506e-10 0)
(-3.05997e-09 1.54691e-09 0)
(1.24011e-09 1.72754e-09 0)
(2.55195e-09 -1.50302e-09 0)
)
;

boundaryField
{
    floor
    {
        type            noSlip;
    }
    ceiling
    {
        type            noSlip;
    }
    fixedWalls
    {
        type            noSlip;
    }
    frontAndBack
    {
        type            empty;
    }
}


// ************************************************************************* //
