/*--------------------------------*- C++ -*----------------------------------*\
| =========                 |                                                 |
| \\      /  F ield         | OpenFOAM: The Open Source CFD Toolbox           |
|  \\    /   O peration     | Version:  4.1                                   |
|   \\  /    A nd           | Web:      www.OpenFOAM.org                      |
|    \\/     M anipulation  |                                                 |
\*---------------------------------------------------------------------------*/
FoamFile
{
    version     2.0;
    format      ascii;
    class       volScalarField;
    location    "660";
    object      mag(U);
}
// * * * * * * * * * * * * * * * * * * * * * * * * * * * * * * * * * * * * * //

dimensions      [0 1 -1 0 0 0 0];

internalField   nonuniform List<scalar> 
5000
(
0.00602695
0.00754631
0.00970265
0.0109937
0.0116491
0.0117287
0.0112712
0.0103994
0.00924539
0.00796471
0.0066777
0.00545524
0.00433485
0.00333421
0.00246764
0.00173441
0.00112361
0.000633369
0.000308506
0.000354999
0.000639294
0.000923905
0.00119787
0.00137701
0.00154042
0.00170105
0.00186466
0.00204057
0.00223423
0.00244601
0.00267328
0.00291193
0.00315708
0.00340365
0.00364672
0.00388188
0.00410548
0.00431481
0.00450845
0.00468672
0.00485205
0.0050089
0.00516266
0.00531788
0.00547645
0.00563717
0.00579898
0.00597328
0.00620868
0.00658596
0.00707836
0.0072533
0.00712543
0.00391855
0.00489121
0.00482685
0.00450561
0.00421654
0.00404363
0.0039596
0.00392754
0.00391922
0.00391243
0.0038924
0.00385384
0.00379788
0.00372586
0.0036375
0.00353072
0.00340224
0.00324815
0.00306427
0.00284636
0.00259041
0.00229285
0.00195066
0.00156155
0.00112707
0.000671093
0.000320397
0.000693626
0.00131576
0.00199929
0.00270001
0.00339477
0.00406464
0.0046911
0.00525616
0.00574392
0.00614227
0.00644432
0.00664967
0.00676554
0.00680593
0.00678905
0.00673399
0.00664232
0.00643716
0.00568866
0.00526057
0.0082055
0.00708968
0.00818153
0.00909804
0.00959126
0.00954036
0.00897568
0.00802521
0.00682153
0.0055126
0.00422675
0.00301848
0.00204375
0.00141138
0.00136121
0.00173634
0.00219286
0.00260612
0.00294783
0.00321611
0.00341523
0.00352889
0.00359552
0.0036633
0.00373866
0.00381648
0.00389658
0.00398362
0.00408217
0.00419408
0.00431847
0.00445255
0.00459241
0.00473368
0.0048722
0.00500459
0.00512872
0.00524411
0.0053522
0.00545599
0.00555943
0.00566641
0.00578025
0.00590376
0.00604008
0.00619398
0.00637246
0.00658118
0.0068104
0.00701311
0.0070907
0.00660665
0.00777412
0.00808418
0.0042831
0.00370018
0.0036887
0.00360195
0.00351179
0.00345577
0.00344265
0.00346626
0.0035131
0.00357012
0.00362363
0.00365991
0.00366907
0.00364596
0.00358821
0.00349444
0.00336346
0.00319395
0.00298452
0.00273391
0.0024416
0.0021087
0.00174042
0.00135555
0.00102034
0.000895498
0.00117058
0.00163665
0.00220791
0.00283677
0.00348598
0.00412507
0.00472814
0.00527242
0.00573818
0.00610951
0.006375
0.00652829
0.00657026
0.00650423
0.00634168
0.00609402
0.00576479
0.00533929
0.0048616
0.00717087
0.0112446
0.0078215
0.00700436
0.00710271
0.00732371
0.00722971
0.00677763
0.00605812
0.00517003
0.0042509
0.00353905
0.00313561
0.00323091
0.00366276
0.00422756
0.00480025
0.00532362
0.00576511
0.00611169
0.00636148
0.00651809
0.00659098
0.006602
0.00657808
0.0065363
0.00648506
0.00643071
0.00637968
0.0063374
0.00630706
0.00628945
0.00628334
0.00628617
0.00629466
0.00630542
0.00631536
0.00632202
0.00632372
0.00631966
0.00630994
0.00629527
0.00627702
0.00625727
0.00623912
0.00622699
0.00622623
0.00624133
0.00627048
0.00629228
0.00623575
0.00583415
0.00550309
0.00999145
0.0117808
0.00383005
0.00194994
0.00249917
0.00275735
0.00299333
0.00322021
0.00342874
0.0036104
0.00376119
0.00387964
0.00396572
0.00401991
0.00404205
0.00402969
0.00398299
0.00390142
0.00378431
0.00363088
0.00344047
0.00321296
0.0029496
0.00265429
0.00233645
0.00201749
0.00174401
0.00159424
0.00163082
0.00186796
0.00225962
0.00275979
0.00331594
0.00388435
0.00443108
0.00492905
0.00535606
0.00569446
0.00593119
0.00605712
0.00606784
0.0059441
0.00568255
0.0052785
0.00473135
0.00411407
0.00457129
0.00978383
0.0138189
0.00899754
0.00675226
0.00602567
0.00584335
0.0056064
0.00552893
0.00547073
0.00528415
0.00502474
0.00489592
0.004987
0.00531027
0.00582227
0.00642881
0.00705425
0.00764782
0.00817468
0.00861316
0.00895227
0.00918928
0.00932895
0.00938339
0.0093689
0.00930076
0.00919167
0.00905321
0.00889648
0.00873139
0.00856557
0.00840407
0.00824947
0.00810249
0.00796251
0.00782818
0.00769791
0.0075701
0.00744348
0.00731738
0.00719152
0.00706537
0.00693797
0.00680822
0.00667601
0.0065427
0.00641054
0.00628023
0.00614571
0.00598208
0.00570449
0.00513982
0.00562613
0.0127559
0.014087
0.00363609
0.00149618
0.00209118
0.00260001
0.00303871
0.00340305
0.00369798
0.00393161
0.0041131
0.00424999
0.0043479
0.0044104
0.00444139
0.00443946
0.00440497
0.0043379
0.00423783
0.00410428
0.00393713
0.00373709
0.00350659
0.00325098
0.0029807
0.00271472
0.00248487
0.00233569
0.00230441
0.0023962
0.00261502
0.00294206
0.00334972
0.00379586
0.00424195
0.00465701
0.00501647
0.00530091
0.00549577
0.00559104
0.0055783
0.00544347
0.00517965
0.00478326
0.00427371
0.00381463
0.00501848
0.0119756
0.015754
0.0100207
0.00695126
0.00558407
0.00479301
0.0043598
0.00516813
0.00595222
0.00634363
0.0064724
0.00655674
0.00672382
0.00702658
0.00746191
0.00799304
0.00857511
0.00916718
0.00973464
0.0102499
0.0106926
0.0110492
0.0113129
0.0114832
0.0115648
0.011565
0.0114929
0.0113591
0.0111752
0.0109536
0.0107058
0.0104412
0.0101677
0.00989068
0.00961402
0.00934023
0.009071
0.00880778
0.00855434
0.00830941
0.00806985
0.00783166
0.00759144
0.00734738
0.00709938
0.0068483
0.00659474
0.006337
0.00606679
0.00575704
0.00534254
0.00484301
0.00658652
0.0155738
0.0150619
0.00331567
0.00175096
0.00225086
0.00280842
0.00329321
0.00369294
0.00401471
0.00426876
0.00446575
0.00461517
0.00472443
0.00479848
0.00484018
0.00485166
0.00483218
0.00478231
0.00470184
0.00459065
0.00444916
0.0042788
0.00408285
0.00386734
0.00364242
0.00342384
0.00323388
0.00309962
0.00304566
0.00307841
0.00318941
0.00336791
0.00360826
0.00389296
0.00419311
0.00448176
0.00473681
0.00494016
0.00507728
0.0051384
0.00511415
0.00499847
0.00479076
0.00450051
0.00416844
0.00400213
0.00560528
0.0136604
0.0172239
0.0108158
0.00726523
0.00543537
0.00376665
0.00355693
0.00561892
0.00700671
0.00768176
0.00799729
0.00817031
0.00833324
0.00855675
0.0088678
0.00926336
0.00972412
0.0102247
0.0107389
0.0112425
0.0117139
0.0121351
0.0124916
0.0127728
0.0129716
0.0130847
0.0131118
0.0130577
0.0129286
0.0127327
0.0124805
0.0121831
0.0118514
0.0114961
0.0111264
0.0107503
0.0103737
0.00999993
0.00962734
0.00925629
0.00888689
0.00851938
0.00815384
0.00779022
0.00742856
0.00706886
0.00671032
0.00635008
0.0059806
0.00558384
0.00514076
0.00493573
0.00836166
0.0183144
0.0150172
0.00319602
0.00231521
0.0027047
0.0032117
0.00367078
0.00405754
0.00437402
0.00462824
0.00482924
0.00498551
0.00510375
0.0051884
0.00524178
0.00526748
0.00526388
0.00523197
0.00517185
0.00508383
0.00496889
0.00482917
0.00466859
0.00449344
0.00431301
0.00414
0.00399008
0.00387993
0.00382364
0.00382808
0.00388318
0.00396872
0.00406512
0.00417875
0.00430153
0.00442108
0.00452796
0.0046144
0.00467182
0.00469288
0.00467085
0.00460349
0.00449989
0.004381
0.00428993
0.00441723
0.00621956
0.0150362
0.0183625
0.0114164
0.0075341
0.00535997
0.00242654
0.00376781
0.00666659
0.0082595
0.00912094
0.00954885
0.00975943
0.00989313
0.0100342
0.0102266
0.0104857
0.0108088
0.0111829
0.0115908
0.012014
0.0124347
0.0128364
0.0132038
0.0135235
0.0137834
0.0139733
0.0140855
0.0141146
0.0140612
0.0139278
0.0137201
0.0134464
0.0131163
0.0127398
0.012327
0.0118872
0.0114282
0.0109568
0.0104786
0.00999798
0.00951795
0.00904076
0.00856813
0.00810145
0.00764187
0.00719024
0.00674684
0.00631092
0.00587963
0.00544634
0.00504635
0.00539188
0.0115974
0.0202526
0.0141471
0.00341611
0.00302365
0.00332246
0.00374045
0.00413504
0.00447969
0.00477068
0.00501149
0.00520765
0.00536505
0.00548855
0.00558137
0.00564528
0.00568398
0.0056955
0.00568095
0.0056408
0.00557586
0.00548773
0.00537922
0.00525474
0.00512057
0.00498494
0.00485779
0.00474979
0.0046706
0.00462659
0.0046189
0.00464166
0.00467263
0.00467592
0.00464102
0.00458022
0.00450061
0.00441417
0.00433736
0.00428156
0.00424925
0.00423865
0.00424721
0.00428757
0.00437942
0.00454449
0.00492759
0.00684346
0.0162233
0.0192101
0.011842
0.0076836
0.0051715
0.000300983
0.00493832
0.0078988
0.00966369
0.0106258
0.0111013
0.0113111
0.0114003
0.0114612
0.0115478
0.0116869
0.0118863
0.0121415
0.0124414
0.0127714
0.0131161
0.0134603
0.0137892
0.0140893
0.0143475
0.0145518
0.0146918
0.0147584
0.0147468
0.0146546
0.0144828
0.0142354
0.0139186
0.0135405
0.0131102
0.0126371
0.0121306
0.0115997
0.0110523
0.0104955
0.0099351
0.00937574
0.00882132
0.00827497
0.00773939
0.00721701
0.00671027
0.006222
0.00575631
0.00532517
0.00509602
0.00659375
0.0154908
0.0212602
0.0126548
0.00395732
0.00381152
0.00402487
0.00434251
0.00465643
0.00494369
0.00519673
0.0054144
0.00559827
0.0057511
0.00587555
0.00597343
0.00604597
0.00609477
0.0061198
0.00612124
0.00610011
0.00605773
0.00599637
0.00591945
0.00583177
0.00573944
0.00564956
0.0055696
0.00550623
0.00546386
0.00544305
0.00543937
0.00544296
0.00543665
0.00538823
0.00525153
0.00502938
0.00474454
0.00443033
0.00413748
0.00391907
0.00380669
0.00381025
0.0039187
0.00413361
0.00445414
0.00486439
0.00546232
0.00745703
0.0172717
0.0197502
0.0120901
0.00767229
0.00423281
0.00206649
0.00640838
0.00937583
0.0111532
0.0121248
0.0125922
0.0127672
0.0127937
0.0127674
0.0127493
0.0127743
0.0128581
0.0130029
0.013202
0.0134437
0.0137137
0.0139966
0.0142774
0.0145411
0.0147738
0.0149624
0.0150954
0.015163
0.0151575
0.0150746
0.0149129
0.0146737
0.0143609
0.0139805
0.0135403
0.013049
0.0125161
0.0119507
0.0113619
0.0107581
0.0101465
0.00953341
0.00892411
0.00832309
0.00773449
0.00716237
0.00661143
0.00608849
0.00560637
0.00520839
0.00534645
0.00971684
0.0186835
0.0214369
0.0109314
0.00472681
0.00464335
0.0047663
0.00498133
0.00520992
0.00543303
0.00564082
0.00582839
0.00599377
0.00613681
0.00625789
0.00635729
0.00643524
0.00649182
0.00652819
0.0065439
0.00654047
0.0065198
0.00648482
0.00643957
0.00638916
0.00633942
0.00629636
0.00626525
0.00624949
0.00624931
0.00626062
0.00627422
0.00627561
0.00624507
0.00615633
0.0059693
0.00563081
0.00516318
0.00461182
0.00405711
0.00361146
0.00337149
0.00338032
0.00360759
0.00401816
0.00456973
0.00520422
0.00598335
0.00804523
0.0182086
0.0198292
0.0121503
0.00742843
0.00324645
0.00410786
0.00813669
0.0109265
0.0126148
0.0135328
0.0139501
0.0140622
0.0140073
0.0138824
0.013753
0.0136605
0.013627
0.0136603
0.0137578
0.0139105
0.0141051
0.0143261
0.0145575
0.014783
0.0149872
0.0151555
0.0152749
0.0153345
0.0153243
0.0152394
0.0150773
0.0148381
0.0145245
0.0141415
0.0136959
0.0131959
0.0126502
0.0120683
0.0114591
0.0108313
0.0101928
0.0095502
0.00890951
0.00827594
0.00765445
0.00705005
0.00646897
0.00592153
0.00543458
0.00516242
0.00627852
0.0139448
0.0208676
0.0209415
0.00948139
0.00558169
0.00547409
0.00551064
0.00562829
0.00577362
0.005931
0.00608974
0.00624247
0.00638456
0.00651333
0.00662704
0.00672438
0.00680445
0.00686626
0.0069115
0.00693939
0.00695195
0.00695169
0.00694223
0.00692821
0.00691501
0.00690818
0.00691273
0.00693204
0.00696679
0.00701383
0.00706522
0.00710768
0.00712245
0.00708567
0.00696906
0.00673999
0.00635069
0.00574593
0.00497945
0.00414342
0.00340323
0.0029612
0.00294626
0.00330467
0.00392293
0.00469848
0.00553564
0.00647173
0.00860096
0.0190542
0.0193295
0.0119266
0.00696735
0.00330649
0.00618745
0.00988027
0.0124157
0.0139564
0.0147796
0.0151173
0.0151449
0.0149932
0.0147591
0.0145117
0.0142974
0.0141434
0.0140625
0.0140559
0.0141169
0.0142336
0.0143909
0.0145721
0.0147601
0.0149377
0.0150889
0.0151988
0.0152553
0.0152454
0.0151635
0.0150061
0.0147724
0.0144644
0.0140864
0.0136448
0.0131472
0.0126022
0.0120189
0.0114062
0.0107728
0.0101264
0.00947362
0.00882052
0.00817242
0.00753423
0.00691081
0.00630868
0.00574034
0.00526471
0.00532256
0.00930198
0.0175257
0.0220744
0.0199032
0.0085978
0.00640237
0.00626055
0.0062279
0.00626025
0.00632855
0.0064217
0.00652991
0.00664481
0.00676003
0.00687084
0.0069736
0.00706548
0.00714444
0.00720881
0.00726011
0.00729771
0.00732402
0.00734226
0.00735677
0.00737279
0.00739599
0.00743172
0.00748411
0.00755501
0.00764287
0.00774174
0.00784052
0.0079224
0.00796482
0.00793976
0.0078147
0.00755431
0.00712219
0.00646433
0.00553068
0.00443114
0.00335229
0.00261044
0.00250869
0.00300196
0.00383193
0.00482032
0.00584215
0.00691906
0.00912151
0.019824
0.0182369
0.0113108
0.00636399
0.00469348
0.00815672
0.0114778
0.0137415
0.0151107
0.0158162
0.0160539
0.0159804
0.0157198
0.0153688
0.0149997
0.0146626
0.014389
0.0141951
0.0140853
0.0140552
0.0140942
0.0141881
0.0143202
0.0144728
0.0146279
0.0147681
0.0148767
0.0149402
0.0149419
0.0148755
0.0147355
0.0145203
0.0142307
0.0138706
0.0134458
0.0129638
0.0124331
0.0118625
0.011261
0.0106371
0.00999814
0.00935081
0.00870078
0.00805294
0.00741134
0.00677963
0.00616333
0.00557828
0.00521412
0.00632865
0.0135077
0.0201338
0.022444
0.0184398
0.00829441
0.00715905
0.00699026
0.006903
0.00686185
0.00685971
0.00689108
0.00694847
0.00702372
0.00710945
0.00719934
0.00728805
0.0073713
0.00744598
0.0075099
0.00756408
0.00760838
0.00764559
0.00767968
0.00771577
0.00775977
0.00781768
0.00789477
0.00799451
0.00811754
0.00826052
0.00841528
0.00856806
0.00869908
0.00878235
0.00878598
0.00867298
0.00840307
0.00793576
0.00723491
0.00624286
0.00493001
0.00351351
0.00237597
0.00207201
0.00269195
0.00373157
0.00492156
0.0061148
0.00732233
0.00960609
0.0205295
0.0165922
0.0102658
0.00583861
0.00630268
0.00987069
0.012846
0.0148472
0.0160392
0.0166129
0.0167344
0.0165457
0.0161669
0.0156956
0.015206
0.0147512
0.014365
0.0140659
0.0138599
0.0137443
0.0137097
0.0137428
0.0138276
0.0139467
0.0140824
0.0142165
0.0143315
0.0144126
0.0144396
0.0144035
0.0142971
0.0141168
0.0138621
0.0135359
0.0131436
0.0126922
0.0121902
0.0116465
0.01107
0.0104692
0.00985141
0.00922316
0.00858972
0.00795522
0.00732235
0.00669294
0.00607081
0.00549113
0.0054826
0.00944965
0.0170733
0.0218334
0.0221319
0.0167325
0.00847016
0.00788354
0.00767757
0.00753502
0.00742524
0.00735625
0.00732745
0.00733394
0.0073683
0.00742259
0.00748912
0.00756098
0.00763254
0.00769973
0.00776008
0.00781325
0.00786064
0.00790519
0.00795168
0.0080061
0.00807508
0.0081651
0.00828147
0.00842725
0.00860215
0.00880149
0.00901536
0.00922788
0.00941677
0.00955308
0.00960132
0.00952018
0.00926418
0.00878678
0.00804573
0.00701196
0.00562701
0.0039197
0.00233279
0.00166585
0.00237026
0.00361176
0.00499375
0.00634942
0.00768154
0.0100551
0.0211794
0.0144549
0.00886448
0.00567869
0.0078802
0.011324
0.0139618
0.0157137
0.0167261
0.0171541
0.0171432
0.0168276
0.0163259
0.0157367
0.0151358
0.014577
0.0140947
0.0137069
0.0134199
0.013231
0.0131313
0.0131084
0.0131475
0.0132327
0.0133474
0.0134748
0.0135979
0.0137013
0.0137635
0.0137714
0.0137146
0.0135868
0.0133851
0.0131111
0.0127688
0.0123648
0.0119075
0.0114056
0.0108684
0.0103043
0.00972084
0.0091245
0.00852032
0.00791165
0.00729974
0.00668475
0.00606809
0.00559623
0.00674263
0.0134578
0.0198195
0.0227732
0.0213241
0.0150782
0.0089817
0.00860046
0.00833486
0.0081255
0.00794543
0.00780981
0.00772106
0.0076763
0.00766877
0.00768998
0.00773097
0.00778334
0.00784013
0.00789632
0.00794908
0.00799743
0.00804373
0.0080914
0.00814613
0.00821485
0.00830504
0.00842374
0.00857647
0.0087661
0.0089917
0.00924766
0.00952275
0.00979955
0.0100538
0.0102541
0.0103617
0.0103313
0.0101121
0.00965136
0.00889918
0.00781775
0.0063973
0.00457849
0.00255605
0.00133537
0.00203054
0.00346482
0.00503205
0.00654494
0.00799847
0.01047
0.0217811
0.0119086
0.00724532
0.006059
0.0092935
0.0124885
0.0148236
0.0163412
0.0171655
0.0174303
0.0172718
0.0168221
0.0162004
0.0155059
0.0148141
0.0141773
0.013627
0.0131786
0.0128355
0.0125934
0.0124427
0.0123716
0.0123665
0.0124139
0.0125001
0.0126114
0.0127338
0.0128527
0.0129517
0.0130102
0.0130141
0.0129537
0.0128223
0.0126186
0.0123448
0.0120063
0.0116105
0.0111664
0.010683
0.0101692
0.00963292
0.00908077
0.00851784
0.00794696
0.0073685
0.00678224
0.00619331
0.00605364
0.00975079
0.0169124
0.021801
0.0230929
0.0202146
0.0137875
0.00965973
0.00929763
0.00895675
0.00866979
0.00841611
0.00821262
0.00806342
0.00796687
0.00791653
0.00790319
0.00791654
0.00794669
0.00798543
0.00802685
0.00806775
0.00810697
0.00814748
0.00819356
0.00825187
0.00833037
0.00843747
0.00858087
0.0087664
0.00899688
0.00927104
0.00958263
0.00991964
0.0102636
0.010589
0.0108625
0.0110428
0.0110807
0.0109205
0.0105029
0.00976996
0.00867434
0.00719342
0.00535943
0.0030992
0.00117386
0.00166475
0.00328424
0.00503388
0.00670204
0.0082758
0.0108529
0.0223409
0.0090973
0.00562289
0.00682374
0.0104385
0.013389
0.0154552
0.0167354
0.0173518
0.017434
0.0171179
0.0165368
0.0158107
0.0150377
0.0142905
0.0136158
0.0130391
0.0125693
0.0122044
0.0119363
0.0117537
0.0116446
0.011597
0.0116005
0.0116454
0.011723
0.0118248
0.011941
0.0120627
0.0121653
0.0122316
0.0122465
0.0121986
0.0120813
0.0118934
0.0116377
0.0113205
0.0109497
0.0105346
0.0100841
0.00960673
0.0091098
0.00859868
0.00807621
0.00754246
0.00699694
0.00649826
0.00738087
0.013408
0.0196803
0.0231113
0.0229306
0.0189881
0.0130084
0.0103595
0.00994378
0.00952592
0.00915771
0.00882906
0.00855704
0.00834708
0.00819832
0.00810431
0.00805493
0.00803844
0.00804349
0.00806067
0.00808327
0.00810785
0.00813327
0.00816308
0.00820275
0.00825991
0.00834368
0.00846338
0.00862739
0.00884184
0.00910957
0.00942908
0.00979388
0.0101917
0.0106036
0.0110036
0.0113572
0.0116212
0.0117433
0.0116629
0.0113142
0.0106309
0.0095553
0.00805225
0.00613227
0.00388995
0.00134421
0.00127043
0.0030661
0.00499799
0.00682208
0.00851628
0.0112058
0.0228639
0.00625847
0.00434778
0.00785644
0.0114744
0.0141194
0.015882
0.0168925
0.0172752
0.0171619
0.0166908
0.0159969
0.0151994
0.0143926
0.0136412
0.0129824
0.0124308
0.0119854
0.0116368
0.0113717
0.0111768
0.0110398
0.0109511
0.0109034
0.010892
0.0109143
0.010969
0.0110535
0.0111698
0.0112963
0.0114138
0.0115024
0.0115438
0.0115244
0.0114369
0.0112798
0.0110564
0.0107733
0.0104389
0.0100628
0.00965414
0.00922109
0.00876987
0.00830388
0.00782418
0.0073299
0.00706282
0.0100275
0.0166654
0.0217933
0.0238542
0.0224182
0.0178112
0.012699
0.0110023
0.0105163
0.0100265
0.00957895
0.00917638
0.00883642
0.008566
0.00836494
0.00822651
0.00813953
0.00809084
0.00806767
0.00805953
0.00805908
0.0080627
0.0080696
0.00808417
0.00811307
0.00816507
0.00825037
0.00837914
0.00856021
0.00879986
0.00910081
0.00946146
0.00987533
0.0103304
0.0108083
0.0112832
0.0117207
0.0120764
0.0122956
0.0123136
0.0120583
0.0114545
0.0104333
0.00894575
0.00698627
0.00462722
0.00201846
0.000851899
0.00281022
0.00492369
0.00690644
0.00872218
0.0115306
0.0233548
0.00365967
0.00507607
0.00921736
0.0124155
0.014666
0.0160834
0.0167948
0.0169292
0.0166236
0.0160198
0.0152529
0.0144375
0.0136584
0.0129666
0.0123833
0.0119082
0.0115286
0.0112273
0.0109868
0.0107926
0.0106336
0.0105027
0.0103968
0.0103161
0.010264
0.0102467
0.0102698
0.0103462
0.0104661
0.0106126
0.010763
0.0108917
0.0109757
0.010999
0.0109528
0.0108356
0.0106513
0.0104074
0.0101135
0.00977988
0.00941595
0.00902919
0.00862415
0.00820377
0.0077819
0.00823838
0.0132285
0.019391
0.0233257
0.0241319
0.0216776
0.0168177
0.0127275
0.011566
0.0110089
0.0104505
0.00992697
0.00945263
0.00904622
0.00871631
0.00846318
0.00827966
0.00815343
0.00806994
0.00801519
0.0079778
0.00795005
0.00792842
0.00791258
0.00790829
0.00792344
0.00796795
0.00805289
0.00818892
0.00838488
0.00864674
0.0089768
0.00937332
0.00983016
0.0103362
0.0108744
0.0114205
0.0119411
0.0123922
0.0127177
0.0128496
0.0127095
0.0122136
0.0112808
0.00984694
0.00788716
0.00545357
0.00274655
0.000298097
0.00249104
0.00480859
0.0069567
0.00889509
0.0118283
0.0238174
0.00179311
0.00660179
0.0104499
0.0131801
0.0149967
0.0160371
0.0164341
0.0163252
0.0158541
0.0151644
0.0143868
0.0136248
0.0129448
0.0123759
0.0119185
0.0115563
0.0112661
0.0110254
0.0108157
0.0106234
0.0104402
0.0102629
0.0100924
0.00993377
0.00979586
0.0096908
0.00963239
0.0096409
0.00972376
0.00987292
0.0100672
0.0102753
0.0104633
0.010603
0.0106758
0.010673
0.0105945
0.0104463
0.0102383
0.00998182
0.00968823
0.00936673
0.0090235
0.0086632
0.00837965
0.0103779
0.0162321
0.0215902
0.024363
0.0240474
0.0208254
0.0160866
0.0129559
0.0120517
0.0114234
0.0107962
0.0101993
0.00965555
0.00918481
0.0087969
0.00849229
0.00826311
0.00809588
0.00797484
0.007885
0.00781445
0.00775544
0.00770492
0.00766333
0.00763863
0.00763959
0.00767718
0.0077629
0.00790715
0.00811799
0.00840031
0.00875555
0.00918169
0.00967322
0.0102206
0.0108093
0.0114178
0.0120155
0.01256
0.0129954
0.0132515
0.0132446
0.0128823
0.0120708
0.0107294
0.00881148
0.00634156
0.0034807
0.00062051
0.00210878
0.00465812
0.00697433
0.00903533
0.0120993
0.0242546
0.00404479
0.00841318
0.0116144
0.0137777
0.0151006
0.015739
0.0158276
0.0155076
0.0149253
0.0142209
0.0135124
0.0128804
0.0123626
0.0119606
0.0116538
0.0114133
0.0112108
0.0110233
0.0108341
0.0106331
0.0104161
0.0101841
0.00994286
0.00970217
0.00947538
0.0092793
0.00913411
0.00906322
0.00909046
0.00922195
0.00944404
0.00972237
0.0100119
0.01027
0.0104654
0.0105801
0.0106092
0.0105568
0.0104333
0.0102519
0.010026
0.00976708
0.00948361
0.0091856
0.00934348
0.0130287
0.0188754
0.0233077
0.0249851
0.023697
0.0199657
0.0156289
0.013272
0.0124617
0.0117616
0.0110643
0.0103965
0.00978606
0.00925368
0.00880989
0.00845481
0.00817963
0.0079697
0.0078083
0.00767992
0.00757263
0.00747918
0.00739755
0.00732941
0.00728582
0.00727589
0.00731123
0.00740286
0.0075598
0.00778812
0.0080907
0.00846751
0.00891615
0.00943202
0.0100079
0.0106327
0.0112892
0.0119511
0.01258
0.0131219
0.013506
0.0136447
0.0134371
0.012777
0.0115658
0.00973403
0.00727583
0.00431404
0.00123684
0.00161531
0.00447964
0.00695677
0.00914151
0.0123429
0.0246687
0.00685598
0.0102033
0.0126313
0.0141729
0.0149837
0.0152259
0.0150402
0.0145685
0.0139528
0.0133192
0.0127586
0.0123157
0.0119933
0.0117667
0.0116013
0.0114637
0.0113262
0.011169
0.0109793
0.0107514
0.0104857
0.010188
0.00986925
0.00954429
0.00923105
0.0089503
0.00872694
0.0085829
0.00855469
0.00866363
0.00890722
0.00925147
0.00964076
0.0100169
0.0103339
0.010564
0.0106966
0.0107348
0.0106898
0.0105774
0.0104134
0.0102118
0.00998361
0.0097728
0.0109519
0.0156829
0.0211175
0.0245984
0.0252672
0.0231696
0.0191812
0.0154012
0.0135988
0.0127958
0.0120245
0.0112573
0.0105216
0.00984791
0.00925747
0.00876069
0.00835679
0.0080357
0.00778167
0.00757737
0.0074074
0.00726056
0.00713087
0.00701812
0.00692602
0.00686917
0.00685627
0.0068987
0.0070056
0.00718306
0.0074338
0.0077577
0.00815283
0.00861632
0.00914473
0.00973366
0.0103763
0.011061
0.0117677
0.0124639
0.0131003
0.0136079
0.0138966
0.0138586
0.0133749
0.0123289
0.0106266
0.00822974
0.00521435
0.00189593
0.00106177
0.00425021
0.00689768
0.00921242
0.0125586
0.0250615
0.0094362
0.0119708
0.0135576
0.0144212
0.0147126
0.0145876
0.0141857
0.0136418
0.0130802
0.0125948
0.0122336
0.0119988
0.0118621
0.0117836
0.011725
0.0116547
0.0115494
0.0113933
0.0111779
0.0109017
0.0105697
0.0101929
0.00978805
0.00937596
0.00898016
0.00862636
0.00834306
0.00814502
0.00808011
0.0081813
0.00845602
0.00887156
0.00936243
0.00985487
0.0102885
0.010626
0.0108528
0.0109714
0.0109952
0.0109427
0.0108327
0.0106815
0.0105063
0.0105683
0.0129994
0.0181525
0.0229663
0.0255147
0.0252752
0.0225422
0.0185231
0.0153347
0.0138914
0.0130541
0.0122138
0.0113789
0.0105796
0.00984743
0.0092036
0.00865768
0.00820743
0.00784125
0.00754239
0.00729336
0.00707961
0.00689167
0.00672584
0.00658446
0.00647614
0.00641606
0.00641276
0.0064757
0.00661033
0.00681808
0.00709715
0.00744389
0.00785432
0.00832521
0.00885438
0.00944029
0.0100807
0.0107702
0.0114964
0.0122352
0.0129449
0.0135614
0.0139951
0.0141329
0.0138439
0.0129931
0.0114609
0.00917516
0.00616238
0.00266004
0.000660169
0.00390522
0.00680229
0.00925053
0.0127475
0.0254353
0.0116255
0.0135609
0.0143538
0.0145525
0.0143617
0.013934
0.0133994
0.0128716
0.012438
0.012143
0.0119854
0.011932
0.0119379
0.0119605
0.0119644
0.0119227
0.0118159
0.0116316
0.0113649
0.0110181
0.0106007
0.0101292
0.00962701
0.0091224
0.00864607
0.00823195
0.00790311
0.00768257
0.00761835
0.00774753
0.00808122
0.008585
0.00918355
0.00978936
0.0103303
0.0107623
0.0110687
0.0112537
0.0113337
0.0113304
0.0112656
0.0111583
0.0110545
0.0117373
0.0152014
0.0203514
0.0244476
0.0261062
0.025069
0.0218776
0.0180087
0.0153614
0.0141278
0.0132389
0.0123331
0.011435
0.0105777
0.00979302
0.00910153
0.00851128
0.00801803
0.0076085
0.0072651
0.00697074
0.00671254
0.00648399
0.00628464
0.00611949
0.00600839
0.00595884
0.00598094
0.00607972
0.00625497
0.00650213
0.00681439
0.00718476
0.00760767
0.00807972
0.00859984
0.00916887
0.00978856
0.0104594
0.0111773
0.0119282
0.0126812
0.0133815
0.013944
0.0142534
0.0141685
0.0135359
0.01221
0.0100832
0.00713314
0.0035188
0.000341967
0.00344013
0.00668988
0.00926141
0.0129123
0.0257923
0.013439
0.0148948
0.0149805
0.0145913
0.0140062
0.0133743
0.0128026
0.012365
0.0120951
0.0119834
0.01199
0.0120642
0.0121585
0.0122339
0.0122592
0.0122109
0.0120719
0.011832
0.0114892
0.0110494
0.0105264
0.0099427
0.00932923
0.00872363
0.00816656
0.00770467
0.00735159
0.00714888
0.00713538
0.00734314
0.00777686
0.00839344
0.00910711
0.00982041
0.0104545
0.010963
0.0113309
0.0115659
0.011688
0.0117228
0.0116949
0.0116293
0.0117169
0.0132359
0.0173801
0.0222515
0.0255913
0.0264178
0.0247014
0.021223
0.0176276
0.0154262
0.0142999
0.0133544
0.012388
0.0114327
0.0105243
0.00969416
0.00896154
0.0083324
0.00780019
0.00734987
0.00696338
0.00662468
0.00632355
0.00605754
0.00583129
0.00565425
0.00555189
0.00552897
0.00559257
0.00574114
0.00596706
0.00625936
0.00660686
0.00700025
0.00743314
0.00790224
0.00840719
0.00895028
0.00953584
0.0101689
0.0108527
0.0115836
0.0123444
0.0130937
0.013757
0.0142217
0.0143394
0.0139397
0.01285
0.0109272
0.00810098
0.00445527
0.000498829
0.00298574
0.0065584
0.00924678
0.013055
0.0261348
0.0148898
0.0159373
0.0154204
0.0145665
0.0137126
0.0129898
0.012464
0.0121539
0.0120375
0.0120652
0.0121789
0.0123251
0.01246
0.0125479
0.0125605
0.0124753
0.0122765
0.0119554
0.0115126
0.0109577
0.0103086
0.00959348
0.00885214
0.00813382
0.00749383
0.00699827
0.00665215
0.00651651
0.00661737
0.00696647
0.00754769
0.00830175
0.00913379
0.00994285
0.0106504
0.0112134
0.0116221
0.0118896
0.0120402
0.0121031
0.0121065
0.0121092
0.0125704
0.0149467
0.0194255
0.0238508
0.0264298
0.0264918
0.0242184
0.0206088
0.0173521
0.0154905
0.0144067
0.0134058
0.0123849
0.0113801
0.0104283
0.0095602
0.00879317
0.00813063
0.00756358
0.00707547
0.00664824
0.00626764
0.00592701
0.00562902
0.00538445
0.00520823
0.00512976
0.00514934
0.00526815
0.00547606
0.0057575
0.00609605
0.0064777
0.00689228
0.00733337
0.0077979
0.00828577
0.00879962
0.00934475
0.00992859
0.0105593
0.0112424
0.0119746
0.0127323
0.0134575
0.0140483
0.0143547
0.0141919
0.0133608
0.0116817
0.00903692
0.00543881
0.00120495
0.00263154
0.00637445
0.00920464
0.013177
0.026465
0.0159974
0.0166883
0.0156854
0.0145136
0.0135271
0.0128131
0.0123813
0.0121954
0.0121935
0.0123079
0.0124776
0.0126523
0.012791
0.01286
0.0128314
0.0126829
0.0123992
0.011973
0.0114078
0.0107171
0.00992201
0.00905566
0.00816728
0.00732006
0.00659265
0.00608192
0.00578377
0.00578656
0.00608328
0.0066424
0.0074133
0.00831867
0.00926131
0.0101459
0.0109016
0.0114941
0.0119219
0.0122054
0.0123732
0.0124579
0.0124956
0.0126365
0.0136416
0.0167453
0.0212769
0.0251587
0.0269943
0.0263671
0.0236589
0.0200498
0.0171476
0.0155289
0.0144501
0.0133986
0.0123308
0.0112846
0.0102977
0.00939897
0.00860368
0.00791251
0.00731418
0.00679106
0.00632572
0.00590652
0.00553129
0.00520865
0.00495608
0.00479436
0.00475461
0.00483011
0.00501324
0.00528428
0.00562071
0.00600271
0.00641551
0.00684923
0.00729789
0.00775852
0.00823078
0.00871684
0.00922168
0.00975309
0.0103214
0.0109378
0.0116107
0.0123355
0.0130767
0.0137523
0.0142197
0.0142855
0.0137258
0.0123238
0.00991371
0.00644181
0.00210639
0.00230802
0.00612294
0.00913985
0.0132844
0.0267866
0.0167924
0.0171715
0.0158085
0.0144677
0.013466
0.0128246
0.0124972
0.0124083
0.0124788
0.0126378
0.012827
0.012999
0.0131141
0.0131388
0.0130446
0.0128093
0.0124182
0.0118654
0.0111588
0.0103156
0.00935829
0.00832242
0.00726541
0.00626493
0.00544053
0.00493147
0.00475795
0.00500788
0.00559809
0.00642532
0.00740549
0.00845327
0.00948184
0.0104107
0.0111847
0.0117819
0.0122103
0.0124988
0.012673
0.0127748
0.0128694
0.0132579
0.0149053
0.0185274
0.0229043
0.0261901
0.0273149
0.0260792
0.0230537
0.0195466
0.0169794
0.0155256
0.0144329
0.0133379
0.0122316
0.0111528
0.0101385
0.00921563
0.00839693
0.00768047
0.00705311
0.0064968
0.00599539
0.00554052
0.00513541
0.00479536
0.00454429
0.00441547
0.00442746
0.00456879
0.00482018
0.00515296
0.00554011
0.00596104
0.00640183
0.00685359
0.00731067
0.00776981
0.00822991
0.00869227
0.00916084
0.00964258
0.0101477
0.0106893
0.0112831
0.0119402
0.0126501
0.0133599
0.0139468
0.0142188
0.0139319
0.0128324
0.0107053
0.0074338
0.00311606
0.00183942
0.00581537
0.00905982
0.0133898
0.0271052
0.017314
0.0174257
0.0158325
0.0144519
0.0135145
0.0129713
0.0127354
0.0127144
0.0128257
0.0130013
0.0131854
0.0133322
0.0134021
0.013361
0.0131801
0.0128378
0.0123205
0.0116246
0.0107644
0.00976137
0.00863541
0.0074197
0.00617421
0.00498265
0.00402998
0.00349829
0.00363994
0.00431455
0.00528245
0.00638677
0.00754729
0.00870139
0.00977749
0.0107204
0.011485
0.0120571
0.0124667
0.0127456
0.0129235
0.0130503
0.0132518
0.0140132
0.0163009
0.0202173
0.0242942
0.0269623
0.0274197
0.0256596
0.0224248
0.0190891
0.0168172
0.0154709
0.0143574
0.0132276
0.0120918
0.0109887
0.00995398
0.00901195
0.0081728
0.00743245
0.00677666
0.00618772
0.00565154
0.0051637
0.00473362
0.00438416
0.00414537
0.00406651
0.00414104
0.00435418
0.00467334
0.00506316
0.00549535
0.0059509
0.00641785
0.0068882
0.00735613
0.00781743