/*--------------------------------*- C++ -*----------------------------------*\
| =========                 |                                                 |
| \\      /  F ield         | OpenFOAM: The Open Source CFD Toolbox           |
|  \\    /   O peration     | Version:  4.1                                   |
|   \\  /    A nd           | Web:      www.OpenFOAM.org                      |
|    \\/     M anipulation  |                                                 |
\*---------------------------------------------------------------------------*/
FoamFile
{
    version     2.0;
    format      ascii;
    class       volVectorField;
    location    "660";
    object      U;
}
// * * * * * * * * * * * * * * * * * * * * * * * * * * * * * * * * * * * * * //

dimensions      [0 1 -1 0 0 0 0];

internalField   nonuniform List<vector> 
5000
(
(-0.00490874 0.00349692 0)
(-0.00734423 0.00173464 0)
(-0.00965916 0.000917626 0)
(-0.0109832 0.00047934 0)
(-0.0116479 0.000166399 0)
(-0.0117282 -0.000103495 0)
(-0.0112657 -0.000350476 0)
(-0.0103853 -0.000541849 0)
(-0.00922259 -0.000648889 0)
(-0.00793571 -0.000679044 0)
(-0.00664519 -0.000658141 0)
(-0.00542038 -0.00061573 0)
(-0.00429779 -0.000565579 0)
(-0.00329577 -0.000504835 0)
(-0.00242734 -0.000444128 0)
(-0.00168938 -0.000392683 0)
(-0.00106933 -0.000345026 0)
(-0.000553969 -0.000307041 0)
(-0.00013034 -0.00027962 0)
(0.000229829 -0.000270561 0)
(0.000570231 -0.000289022 0)
(0.000873885 -0.000299878 0)
(0.0011765 -0.000225263 0)
(0.00136628 -0.000171526 0)
(0.00153374 -0.000143327 0)
(0.00169569 -0.000134831 0)
(0.00185969 -0.000135986 0)
(0.00203574 -0.000140415 0)
(0.00222951 -0.000145206 0)
(0.00244147 -0.000148952 0)
(0.00266902 -0.000150872 0)
(0.00290803 -0.000150581 0)
(0.00315361 -0.00014801 0)
(0.00340063 -0.000143335 0)
(0.00364415 -0.00013686 0)
(0.00387974 -0.000128885 0)
(0.00410373 -0.000119688 0)
(0.00431342 -0.000109604 0)
(0.00450736 -9.92105e-05 0)
(0.00468586 -8.94353e-05 0)
(0.00485137 -8.14115e-05 0)
(0.00500832 -7.60454e-05 0)
(0.00516214 -7.35242e-05 0)
(0.00531738 -7.29342e-05 0)
(0.00547597 -7.23641e-05 0)
(0.00563673 -7.0125e-05 0)
(0.00579857 -6.85944e-05 0)
(0.00597271 -8.24501e-05 0)
(0.00620702 -0.000143312 0)
(0.00658053 -0.000267274 0)
(0.00707137 -0.000314541 0)
(0.00725056 0.000199434 0)
(0.006793 0.00215102 0)
(-0.00125415 0.00371243 0)
(-0.00480033 0.000938494 0)
(-0.00482505 -0.000131884 0)
(-0.00450151 -0.000192159 0)
(-0.00421502 -0.000113238 0)
(-0.00404328 -5.25895e-05 0)
(-0.00395956 -1.72241e-05 0)
(-0.00392754 -1.74335e-06 0)
(-0.00391922 -3.05891e-06 0)
(-0.0039124 -1.4044e-05 0)
(-0.00389231 -2.58247e-05 0)
(-0.00385368 -3.48523e-05 0)
(-0.00379767 -4.05548e-05 0)
(-0.00372559 -4.47061e-05 0)
(-0.00363717 -4.94656e-05 0)
(-0.00353028 -5.62242e-05 0)
(-0.00340161 -6.56479e-05 0)
(-0.00324721 -7.80268e-05 0)
(-0.00306284 -9.34363e-05 0)
(-0.00284416 -0.000111828 0)
(-0.00258699 -0.000133063 0)
(-0.00228747 -0.000156914 0)
(-0.00194205 -0.000183049 0)
(-0.00154719 -0.000211271 0)
(-0.00110079 -0.000241998 0)
(-0.000611841 -0.000275712 0)
(-8.94766e-05 -0.00030765 0)
(0.000587418 -0.000368859 0)
(0.00125397 -0.000398464 0)
(0.00195781 -0.000405126 0)
(0.00267019 -0.000400204 0)
(0.0033727 -0.000386465 0)
(0.00404834 -0.000363662 0)
(0.00467935 -0.000331703 0)
(0.00524808 -0.000291438 0)
(0.00573871 -0.000244754 0)
(0.00613919 -0.000194401 0)
(0.00644272 -0.000143758 0)
(0.00664896 -9.68031e-05 0)
(0.00676529 -5.86298e-05 0)
(0.00680585 -3.31092e-05 0)
(0.00678903 -1.80199e-05 0)
(0.00673398 -8.75276e-06 0)
(0.00664231 9.7982e-06 0)
(0.00643605 0.000119282 0)
(0.00563778 0.000759139 0)
(0.00443896 0.00282298 0)
(-0.00378906 0.00727827 0)
(-0.00559005 0.0043606 0)
(-0.00777796 0.00253787 0)
(-0.00898936 0.0014021 0)
(-0.00957729 0.000517557 0)
(-0.00953607 -0.000285787 0)
(-0.00891706 -0.0010242 0)
(-0.00786826 -0.00157941 0)
(-0.00655865 -0.0018755 0)
(-0.00515566 -0.00195141 0)
(-0.00378292 -0.00188545 0)
(-0.00246294 -0.00174503 0)
(-0.0012934 -0.00158241 0)
(-0.000249073 -0.00138923 0)
(0.000690386 -0.00117314 0)
(0.00143819 -0.000972882 0)
(0.00204306 -0.000796584 0)
(0.00252437 -0.000647616 0)
(0.00290035 -0.000526911 0)
(0.00318589 -0.000439804 0)
(0.00339275 -0.000391146 0)
(0.0035105 -0.000359793 0)
(0.00358285 -0.000301546 0)
(0.00365464 -0.000251649 0)
(0.00373187 -0.00022525 0)
(0.00380996 -0.000223032 0)
(0.00388934 -0.000237395 0)
(0.0039751 -0.000260289 0)
(0.00407216 -0.000285755 0)
(0.00418264 -0.000309555 0)
(0.00430594 -0.000328737 0)
(0.00443944 -0.000341462 0)
(0.00457929 -0.000346906 0)
(0.00472108 -0.000345113 0)
(0.00486055 -0.000336796 0)
(0.00499415 -0.000323145 0)
(0.0051196 -0.00030572 0)
(0.00523628 -0.000286466 0)
(0.00534549 -0.000267797 0)
(0.00545015 -0.000252411 0)
(0.00555413 -0.000242732 0)
(0.00566132 -0.000240127 0)
(0.00577509 -0.000244231 0)
(0.00589834 -0.000252909 0)
(0.00603435 -0.000263111 0)
(0.00618795 -0.000273211 0)
(0.00636594 -0.000288216 0)
(0.00657297 -0.00032861 0)
(0.00679674 -0.000431152 0)
(0.00698755 -0.000598306 0)
(0.00706882 -0.000556618 0)
(0.0065326 0.000986358 0)
(0.005549 0.00544477 0)
(-0.00189264 0.00785951 0)
(-0.0036011 0.00231885 0)
(-0.00368612 -0.000322323 0)
(-0.00365841 -0.00047175 0)
(-0.00358594 -0.000339194 0)
(-0.00350532 -0.000213086 0)
(-0.00345368 -0.000120011 0)
(-0.00344217 -5.73115e-05 0)
(-0.00346619 -2.2607e-05 0)
(-0.00351307 -1.41829e-05 0)
(-0.00357003 -2.4336e-05 0)
(-0.00362335 -4.44501e-05 0)
(-0.00365926 -6.92674e-05 0)
(-0.00366779 -9.69125e-05 0)
(-0.00364372 -0.000127735 0)
(-0.00358452 -0.000162811 0)
(-0.00348855 -0.00020286 0)
(-0.00335428 -0.000248334 0)
(-0.00317988 -0.000299458 0)
(-0.00296318 -0.00035626 0)
(-0.00270168 -0.000418584 0)
(-0.00239272 -0.000486078 0)
(-0.00203348 -0.000558187 0)
(-0.00162065 -0.000634476 0)
(-0.00115135 -0.000715483 0)
(-0.000629899 -0.000802692 0)
(-5.81075e-05 -0.000893611 0)
(0.000615146 -0.00099592 0)
(0.00126247 -0.00104152 0)
(0.00193729 -0.00105913 0)
(0.00263296 -0.00105584 0)
(0.00333053 -0.00102938 0)
(0.0040079 -0.000976202 0)
(0.00464266 -0.000895028 0)
(0.00521327 -0.000787503 0)
(0.00570033 -0.000658027 0)
(0.00608791 -0.000513258 0)
(0.00636474 -0.000361506 0)
(0.00652482 -0.000212694 0)
(0.00656978 -7.96137e-05 0)
(0.00650417 2.59231e-05 0)
(0.00634081 0.000105378 0)
(0.00609174 0.000166842 0)
(0.0057595 0.000246988 0)
(0.00531 0.000558493 0)
(0.004344 0.00218285 0)
(0.00361838 0.00619102 0)
(-0.00287434 0.010871 0)
(-0.00394984 0.00675089 0)
(-0.00573058 0.00402759 0)
(-0.00672564 0.00228349 0)
(-0.00727576 0.000836741 0)
(-0.0072062 -0.000582525 0)
(-0.00649679 -0.00193077 0)
(-0.0053252 -0.00288842 0)
(-0.00392142 -0.00336923 0)
(-0.00243672 -0.00348318 0)
(-0.00103192 -0.00338526 0)
(0.0004815 -0.00309842 0)
(0.00168738 -0.00275527 0)
(0.00276872 -0.00239791 0)
(0.00370272 -0.00204014 0)
(0.00449208 -0.00169223 0)
(0.00514281 -0.00137565 0)
(0.00565945 -0.00109866 0)
(0.00605018 -0.000864927 0)
(0.00632549 -0.000675743 0)
(0.00649657 -0.00052928 0)
(0.0065778 -0.000416712 0)
(0.00659385 -0.000327891 0)
(0.00657262 -0.0002678 0)
(0.00653192 -0.000239217 0)
(0.00648067 -0.000238617 0)
(0.00642551 -0.000258765 0)
(0.00637301 -0.000291651 0)
(0.0063288 -0.000329894 0)
(0.00629637 -0.000367175 0)
(0.00627681 -0.000398505 0)
(0.00626926 -0.000420439 0)
(0.00627137 -0.000431144 0)
(0.00627994 -0.000430303 0)
(0.00629149 -0.000418893 0)
(0.00630275 -0.000398938 0)
(0.006311 -0.000373259 0)
(0.00631428 -0.000345367 0)
(0.00631159 -0.000319257 0)
(0.00630286 -0.000298779 0)
(0.00628872 -0.000286998 0)
(0.00627052 -0.000285695 0)
(0.00625032 -0.000294821 0)
(0.00623128 -0.00031275 0)
(0.00621784 -0.000337447 0)
(0.00621531 -0.000368575 0)
(0.00622784 -0.000410124 0)
(0.00625271 -0.000471784 0)
(0.00626734 -0.00055967 0)
(0.00620513 -0.000617231 0)
(0.0058304 -0.000209214 0)
(0.0049416 0.0024217 0)
(0.00409204 0.00911506 0)
(-0.00216625 0.0115799 0)
(-0.00180622 0.00337741 0)
(-0.00194413 -0.000150473 0)
(-0.00246953 -0.000383748 0)
(-0.00274347 -0.000276354 0)
(-0.0029903 -0.000134779 0)
(-0.00322015 -1.93085e-05 0)
(-0.00342826 5.71453e-05 0)
(-0.0036091 9.68304e-05 0)
(-0.0037598 0.000102428 0)
(-0.00387882 7.9352e-05 0)
(-0.00396556 3.60703e-05 0)
(-0.00401986 -2.01939e-05 0)
(-0.00404117 -8.42643e-05 0)
(-0.00402675 -0.000153883 0)
(-0.00397642 -0.000228658 0)
(-0.00388916 -0.00030913 0)
(-0.00376352 -0.000396057 0)
(-0.00359764 -0.000490128 0)
(-0.00338918 -0.00059181 0)
(-0.0031355 -0.000701258 0)
(-0.00283382 -0.000818267 0)
(-0.00248141 -0.000942265 0)
(-0.00207574 -0.00107253 0)
(-0.00161524 -0.00120882 0)
(-0.00110226 -0.00135152 0)
(-0.000549824 -0.00149643 0)
(5.59558e-05 -0.00162986 0)
(0.000737485 -0.00171621 0)
(0.00142121 -0.00175671 0)
(0.00212335 -0.0017629 0)
(0.00283013 -0.00172795 0)
(0.00351909 -0.00164443 0)
(0.00416595 -0.00150974 0)
(0.00474718 -0.0013266 0)
(0.00524138 -0.00110241 0)
(0.00563094 -0.000848168 0)
(0.00590306 -0.000576972 0)
(0.00604953 -0.000303181 0)
(0.00606769 -4.24858e-05 0)
(0.00594097 0.000192875 0)
(0.00566856 0.000398519 0)
(0.00524638 0.000581391 0)
(0.0046663 0.000781903 0)
(0.0039209 0.00124586 0)
(0.00288394 0.00354677 0)
(0.00282096 0.00936833 0)
(-0.00225722 0.0136334 0)
(-0.00285677 0.00853197 0)
(-0.00432081 0.0051888 0)
(-0.0051855 0.0030691 0)
(-0.00572638 0.00116333 0)
(-0.00552493 -0.000952255 0)
(-0.00465024 -0.00299071 0)
(-0.00339802 -0.00428747 0)
(-0.00198323 -0.00489787 0)
(-0.000467388 -0.00500295 0)
(0.000958079 -0.00480127 0)
(0.00227402 -0.00443836 0)
(0.0035211 -0.00397503 0)
(0.00466983 -0.00347729 0)
(0.0057002 -0.00297275 0)
(0.00660361 -0.00248089 0)
(0.00737627 -0.00201986 0)
(0.00801619 -0.0016019 0)
(0.00852422 -0.0012346 0)
(0.00890465 -0.000922072 0)
(0.00916518 -0.000665104 0)
(0.00931756 -0.000460998 0)
(0.0093784 -0.000305894 0)
(0.0093668 -0.000198583 0)
(0.00929975 -0.000137314 0)
(0.00919093 -0.000116652 0)
(0.0090523 -0.000128014 0)
(0.00889502 -0.000161434 0)
(0.00872894 -0.000206946 0)
(0.00856176 -0.000255516 0)
(0.00839872 -0.000299692 0)
(0.00824271 -0.000334025 0)
(0.0080947 -0.000355264 0)
(0.00795426 -0.000362287 0)
(0.00782009 -0.000355816 0)
(0.00769048 -0.000338017 0)
(0.00756366 -0.000312027 0)
(0.00743814 -0.000281945 0)
(0.00731302 -0.000252566 0)
(0.00718789 -0.00022844 0)
(0.00706216 -0.000212895 0)
(0.00693486 -0.000207595 0)
(0.00680488 -0.00021314 0)
(0.00667207 -0.000229434 0)
(0.00653769 -0.000256148 0)
(0.00640383 -0.000293078 0)
(0.006271 -0.000340381 0)
(0.00613294 -0.000395951 0)
(0.00596605 -0.000437665 0)
(0.00569465 -0.000334928 0)
(0.00511578 0.0004965 0)
(0.00397227 0.00398426 0)
(0.00271339 0.012464 0)
(-0.00245235 0.0138719 0)
(-0.000929671 0.00351524 0)
(-0.00145351 0.000354747 0)
(-0.00208829 0.000109906 0)
(-0.002595 0.000161294 0)
(-0.00302904 0.000242318 0)
(-0.00339005 0.000297105 0)
(-0.00368448 0.000315678 0)
(-0.00392022 0.000299172 0)
(-0.00410522 0.00025453 0)
(-0.00424579 0.000188767 0)
(-0.00434656 0.000108193 0)
(-0.00441036 1.76355e-05 0)
(-0.00444067 -7.9931e-05 0)
(-0.00443565 -0.00018379 0)
(-0.00439516 -0.000293792 0)
(-0.00431839 -0.000410957 0)
(-0.00420372 -0.00053653 0)
(-0.00404895 -0.000671646 0)
(-0.0038514 -0.000817117 0)
(-0.00360813 -0.000973264 0)
(-0.00331617 -0.00113981 0)
(-0.00297279 -0.00131582 0)
(-0.00257591 -0.00149976 0)
(-0.00212476 -0.0016897 0)
(-0.00162104 -0.00188329 0)
(-0.00107089 -0.00207573 0)
(-0.000488748 -0.00225198 0)
(0.000163584 -0.00239061 0)
(0.000870118 -0.00246601 0)
(0.00158127 -0.00248099 0)
(0.00229925 -0.00243599 0)
(0.00300372 -0.00232083 0)
(0.00366807 -0.00213058 0)
(0.00426584 -0.00186826 0)
(0.00477284 -0.00154433 0)
(0.00516912 -0.00117468 0)
(0.00544048 -0.000777608 0)
(0.00557871 -0.000371108 0)
(0.00557822 2.94192e-05 0)
(0.00542764 0.000414832 0)
(0.00512084 0.000778316 0)
(0.0046495 0.00112328 0)
(0.00400884 0.00148116 0)
(0.00321639 0.00205091 0)
(0.00209045 0.00456236 0)
(0.00228942 0.0117547 0)
(-0.0018274 0.0156477 0)
(-0.00211348 0.00979528 0)
(-0.0033394 0.00609659 0)
(-0.00409294 0.00379864 0)
(-0.0045705 0.00144343 0)
(-0.00406209 -0.00158344 0)
(-0.00302242 -0.00419221 0)
(-0.00175261 -0.00568835 0)
(-0.000375564 -0.0063325 0)
(0.000963587 -0.00640028 0)
(0.00226402 -0.00615346 0)
(0.00353486 -0.00571966 0)
(0.00474826 -0.00517947 0)
(0.00588555 -0.00458699 0)
(0.00693375 -0.00397642 0)
(0.00788446 -0.00337163 0)
(0.0087319 -0.00279123 0)
(0.0094712 -0.00224933 0)
(0.0100983 -0.00175623 0)
(0.0106109 -0.00131917 0)
(0.011009 -0.000942675 0)
(0.0112954 -0.00062875 0)
(0.011477 -0.00037761 0)
(0.0115632 -0.00018859 0)
(0.0115648 -5.93247e-05 0)
(0.0114929 1.58113e-05 0)
(0.011359 4.54549e-05 0)
(0.0111751 4.007e-05 0)
(0.0109536 1.10977e-05 0)
(0.0107057 -3.01406e-05 0)
(0.010441 -7.37089e-05 0)
(0.0101671 -0.000111789 0)
(0.0098897 -0.00013912 0)
(0.0096128 -0.000153111 0)
(0.00933897 -0.000153579 0)
(0.00906988 -0.000142474 0)
(0.00880691 -0.000123402 0)
(0.00855376 -9.95628e-05 0)
(0.00830907 -7.4687e-05 0)
(0.00806969 -5.22201e-05 0)
(0.00783158 -3.53412e-05 0)
(0.00759139 -2.66467e-05 0)
(0.00734732 -2.8002e-05 0)
(0.00709927 -4.04995e-05 0)
(0.006848 -6.44543e-05 0)
(0.006594 -9.9e-05 0)
(0.00633545 -0.00014053 0)
(0.00606424 -0.000175873 0)
(0.00575503 -0.000152115 0)
(0.00534088 0.000133255 0)
(0.00464651 0.00136551 0)
(0.00316177 0.00577801 0)
(0.00119236 0.0155281 0)
(-0.00259373 0.0148369 0)
(-0.000621786 0.00325685 0)
(-0.00148698 0.000924521 0)
(-0.00213991 0.000697985 0)
(-0.00272623 0.000674483 0)
(-0.00322425 0.000670421 0)
(-0.0036357 0.000647694 0)
(-0.00396985 0.000598485 0)
(-0.00423648 0.000523971 0)
(-0.00444509 0.000429065 0)
(-0.00460412 0.000319214 0)
(-0.00472024 0.000199073 0)
(-0.00479794 7.17354e-05 0)
(-0.00483979 -6.14895e-05 0)
(-0.00484752 -0.000200463 0)
(-0.00481977 -0.000346114 0)
(-0.00475607 -0.000500252 0)
(-0.0046546 -0.000664808 0)
(-0.00451288 -0.000841462 0)
(-0.00432796 -0.00103139 0)
(-0.00409669 -0.00123502 0)
(-0.00381596 -0.00145193 0)
(-0.00348306 -0.00168066 0)
(-0.00309609 -0.00191872 0)
(-0.00265448 -0.0021625 0)
(-0.00215963 -0.00240707 0)
(-0.00161521 -0.00264551 0)
(-0.00102785 -0.00286698 0)
(-0.00041215 -0.0030507 0)
(0.000288375 -0.00317635 0)
(0.00101439 -0.00321152 0)
(0.00174102 -0.00316044 0)
(0.00246063 -0.0030167 0)
(0.00314559 -0.00277263 0)
(0.00376575 -0.00243009 0)
(0.00429286 -0.00200218 0)
(0.00470355 -0.00151058 0)
(0.00498175 -0.000980259 0)
(0.00512006 -0.000433751 0)
(0.00511291 0.000112711 0)
(0.00495588 0.000651079 0)
(0.00464432 0.00117545 0)
(0.00417288 0.00168571 0)
(0.00354033 0.00220044 0)
(0.00279569 0.00286376 0)
(0.00163793 0.00536063 0)
(0.00191755 0.0135252 0)
(-0.00150639 0.0171579 0)
(-0.00156152 0.0107025 0)
(-0.00260067 0.00678381 0)
(-0.00321605 0.00438181 0)
(-0.00344546 0.001522 0)
(-0.00250361 -0.0025266 0)
(-0.00139485 -0.00544304 0)
(-0.000158128 -0.00700492 0)
(0.00104657 -0.00761014 0)
(0.0022573 -0.00767211 0)
(0.00346661 -0.00739842 0)
(0.00464511 -0.00691851 0)
(0.00577197 -0.00631683 0)
(0.0068343 -0.00565068 0)
(0.00782422 -0.00495898 0)
(0.00873721 -0.00426844 0)
(0.00957064 -0.00359818 0)
(0.0103223 -0.00296218 0)
(0.0109897 -0.00237072 0)
(0.0115698 -0.00183152 0)
(0.0120597 -0.00135043 0)
(0.0124568 -0.000931785 0)
(0.0127597 -0.000578566 0)
(0.0129683 -0.000292328 0)
(0.0130845 -7.25584e-05 0)
(0.0131115 8.42746e-05 0)
(0.0130564 0.000185109 0)
(0.0129263 0.000239644 0)
(0.0127301 0.000258833 0)
(0.0124779 0.00025407 0)
(0.0121808 0.000236136 0)
(0.0118495 0.000214168 0)
(0.0114945 0.00019513 0)
(0.0111249 0.000183398 0)
(0.0107488 0.000180993 0)
(0.010372 0.000187778 0)
(0.00999789 0.000201865 0)
(0.00962483 0.000219831 0)
(0.0092532 0.000239129 0)
(0.00888315 0.000257468 0)
(0.00851502 0.000272436 0)
(0.00814899 0.000281214 0)
(0.00778514 0.000281059 0)
(0.00742365 0.000270036 0)
(0.00706451 0.000247866 0)
(0.00670682 0.000216918 0)
(0.00634739 0.000184651 0)
(0.0059781 0.000172754 0)
(0.00557798 0.000255614 0)
(0.00509271 0.000701191 0)
(0.00431193 0.00240181 0)
(0.00215495 0.00807921 0)
(-0.000471667 0.0183083 0)
(-0.00257756 0.0147943 0)
(-0.000590274 0.00314104 0)
(-0.00169511 0.00157696 0)
(-0.00234706 0.00134414 0)
(-0.00296334 0.0012384 0)
(-0.0034881 0.00114356 0)
(-0.00392317 0.00103558 0)
(-0.00427816 0.000910747 0)
(-0.00456349 0.000771427 0)
(-0.00478907 0.000621561 0)
(-0.0049638 0.000464755 0)
(-0.00509472 0.000303511 0)
(-0.00518654 0.000138753 0)
(-0.00524169 -2.99526e-05 0)
(-0.00526354 -0.000203594 0)
(-0.00524982 -0.000384575 0)
(-0.00520022 -0.000575553 0)
(-0.00511281 -0.000779203 0)
(-0.00498495 -0.000997763 0)
(-0.00481355 -0.00123272 0)
(-0.00459532 -0.00148458 0)
(-0.00432713 -0.00175262 0)
(-0.00400631 -0.00203481 0)
(-0.00363099 -0.00232766 0)
(-0.00320053 -0.00262606 0)
(-0.00271593 -0.00292309 0)
(-0.0021799 -0.00320966 0)
(-0.00159684 -0.00347424 0)
(-0.00097392 -0.00370211 0)
(-0.000327757 -0.00386933 0)
(0.000411399 -0.00394734 0)
(0.00114661 -0.00390006 0)
(0.00187829 -0.00373282 0)
(0.00258451 -0.00343853 0)
(0.00323212 -0.00301651 0)
(0.00378761 -0.00248122 0)
(0.00422253 -0.00186089 0)
(0.0045178 -0.00118971 0)
(0.00466647 -0.000497154 0)
(0.00466667 0.000197573 0)
(0.00451738 0.000886225 0)
(0.00421898 0.00156499 0)
(0.00377032 0.0022311 0)
(0.00316942 0.00289107 0)
(0.00249483 0.00364524 0)
(0.00134275 0.00607288 0)
(0.00163614 0.0149469 0)
(-0.00124947 0.0183199 0)
(-0.00109915 0.0113634 0)
(-0.00197806 0.00726979 0)
(-0.00243651 0.00477417 0)
(-0.00211059 0.00119729 0)
(-0.000768587 -0.00368859 0)
(0.000309342 -0.00665941 0)
(0.00139022 -0.00814166 0)
(0.00248954 -0.00877461 0)
(0.00360737 -0.00884123 0)
(0.00471601 -0.00854433 0)
(0.00579155 -0.00802073 0)
(0.00681806 -0.00736205 0)
(0.0077857 -0.00663071 0)
(0.00868902 -0.00586951 0)
(0.00952571 -0.00510784 0)
(0.0102954 -0.00436595 0)
(0.0109985 -0.00365782 0)
(0.0116352 -0.00299317 0)
(0.0122051 -0.00237884 0)
(0.0127067 -0.00181985 0)
(0.0131377 -0.00132 0)
(0.0134947 -0.000882214 0)
(0.013774 -0.000508443 0)
(0.0139719 -0.000199268 0)
(0.0140854 4.67084e-05 0)
(0.0141127 0.000233425 0)
(0.0140564 0.000367993 0)
(0.0139202 0.000459575 0)
(0.0137103 0.000518036 0)
(0.013435 0.000553053 0)
(0.0131038 0.000573298 0)
(0.0127263 0.000585695 0)
(0.0123126 0.000595437 0)
(0.0118717 0.000605726 0)
(0.0114115 0.000618139 0)
(0.0109385 0.000633191 0)
(0.0104584 0.000650529 0)
(0.00997559 0.000668791 0)
(0.00949322 0.000685633 0)
(0.00901377 0.000698044 0)
(0.00853925 0.000702916 0)
(0.00807136 0.000697656 0)
(0.00761148 0.000680812 0)
(0.00716054 0.000652833 0)
(0.00671854 0.000617335 0)
(0.0062838 0.000584402 0)
(0.00585063 0.000583252 0)
(0.00539878 0.000718169 0)
(0.00485662 0.00137073 0)
(0.00383003 0.00379516 0)
(0.000617022 0.011581 0)
(-0.0019976 0.0201538 0)
(-0.00248438 0.0139272 0)
(-0.000775396 0.00332695 0)
(-0.0019905 0.00227603 0)
(-0.00264525 0.00201032 0)
(-0.00326903 0.00181779 0)
(-0.00379976 0.00163108 0)
(-0.00424267 0.00143782 0)
(-0.00460733 0.00123772 0)
(-0.00490372 0.0010337 0)
(-0.0051413 0.000828689 0)
(-0.00532858 0.000624537 0)
(-0.00547232 0.00042173 0)
(-0.00557706 0.000219341 0)
(-0.00564526 1.53167e-05 0)
(-0.00568071 -0.00019285 0)
(-0.00568079 -0.000409081 0)
(-0.00564514 -0.000636863 0)
(-0.00557178 -0.000879676 0)
(-0.00545801 -0.00114032 0)
(-0.00530067 -0.00142057 0)
(-0.00509652 -0.00172091 0)
(-0.00484244 -0.00204036 0)
(-0.00453581 -0.00237626 0)
(-0.00417475 -0.00272418 0)
(-0.00375841 -0.00307775 0)
(-0.00328727 -0.00342846 0)
(-0.00276328 -0.00376547 0)
(-0.00218991 -0.00407549 0)
(-0.00157251 -0.00434298 0)
(-0.000920529 -0.00454947 0)
(-0.000244794 -0.00466622 0)
(0.000509801 -0.00464805 0)
(0.0012518 -0.00446901 0)
(0.00197693 -0.00413161 0)
(0.00265462 -0.00363435 0)
(0.00324616 -0.00299121 0)
(0.00371607 -0.00223686 0)
(0.00404001 -0.00141778 0)
(0.00421023 -0.000574472 0)
(0.0042301 0.000269045 0)
(0.00410131 0.00110366 0)
(0.00382938 0.00192849 0)
(0.00341688 0.00273938 0)
(0.002858 0.0035333 0)
(0.0022595 0.00437901 0)
(0.00114049 0.00674776 0)
(0.00141592 0.0161614 0)
(-0.00101845 0.0191831 0)
(-0.000633672 0.011825 0)
(-0.00136984 0.00756051 0)
(-0.00154799 0.00493439 0)
(-0.000242767 -0.000177918 0)
(0.00098156 -0.00483979 0)
(0.00196734 -0.00764988 0)
(0.00296527 -0.00919751 0)
(0.00398218 -0.00985139 0)
(0.00499979 -0.00991171 0)
(0.00600015 -0.00958847 0)
(0.00696769 -0.00902326 0)
(0.00789071 -0.00831242 0)
(0.00876155 -0.00752247 0)
(0.00957604 -0.00669954 0)
(0.0103326 -0.00587538 0)
(0.0110316 -0.00507157 0)
(0.0116738 -0.00430251 0)
(0.0122601 -0.00357759 0)
(0.0127909 -0.00290288 0)
(0.0132653 -0.00228233 0)
(0.0136817 -0.00171854 0)
(0.014037 -0.00121327 0)
(0.0143269 -0.000767563 0)
(0.0145468 -0.000381621 0)
(0.0146917 -5.45214e-05 0)
(0.0147568 0.000216002 0)
(0.0147404 0.000434115 0)
(0.014642 0.000606464 0)
(0.0144638 0.00074077 0)
(0.0142103 0.000844523 0)
(0.0138878 0.000924785 0)
(0.0135044 0.00098773 0)
(0.013069 0.00103834 0)
(0.0125908 0.00108039 0)
(0.0120791 0.00111653 0)
(0.0115427 0.00114832 0)
(0.0109896 0.00117611 0)
(0.0104268 0.00119913 0)
(0.00986043 0.00121579 0)
(0.00929551 0.00122397 0)
(0.00873634 0.00122151 0)
(0.00818654 0.00120654 0)
(0.00764918 0.00117821 0)
(0.00712681 0.00113747 0)
(0.00662137 0.00108867 0)
(0.00613383 0.00104376 0)
(0.00566147 0.00104059 0)
(0.00518111 0.00123025 0)
(0.00459646 0.00220046 0)
(0.00284926 0.00594637 0)
(-0.00125705 0.0154397 0)
(-0.00318713 0.02102 0)
(-0.00240988 0.0124232 0)
(-0.0011808 0.00377704 0)
(-0.00234992 0.00300093 0)
(-0.00300675 0.00267564 0)
(-0.00362275 0.00239439 0)
(-0.00414658 0.00211855 0)
(-0.00458711 0.00184348 0)
(-0.00495352 0.00157122 0)
(-0.00525484 0.00130478 0)
(-0.00549966 0.00104608 0)
(-0.00569583 0.000795438 0)
(-0.00584959 0.000551653 0)
(-0.00596526 0.00031223 0)
(-0.00604552 7.34599e-05 0)
(-0.00609242 -0.00016904 0)
(-0.00610536 -0.000420171 0)
(-0.00608285 -0.000684477 0)
(-0.0060231 -0.000966227 0)
(-0.00592338 -0.00126874 0)
(-0.00578061 -0.00159403 0)
(-0.00559163 -0.00194256 0)
(-0.00535345 -0.00231304 0)
(-0.00506349 -0.00270226 0)
(-0.00471981 -0.00310498 0)
(-0.0043213 -0.0035138 0)
(-0.00386788 -0.00391894 0)
(-0.00336068 -0.00430809 0)
(-0.00280228 -0.00466626 0)
(-0.00219703 -0.00497593 0)
(-0.00155187 -0.00521704 0)
(-0.000878253 -0.00536524 0)
(-0.000178942 -0.00538525 0)
(0.000581139 -0.00521928 0)
(0.00132252 -0.00485238 0)
(0.0020293 -0.00428867 0)
(0.00266219 -0.00354127 0)
(0.00317767 -0.00264975 0)
(0.00354273 -0.00167575 0)
(0.00374604 -0.000676795 0)
(0.00379714 0.000315741 0)
(0.00369976 0.0012915 0)
(0.00346468 0.00225449 0)
(0.0030976 0.00320067 0)
(0.00258684 0.00411954 0)
(0.00206527 0.00505684 0)
(0.000998908 0.00738982 0)
(0.00124059 0.0172271 0)
(-0.00076858 0.0197352 0)
(-6.78054e-05 0.0120899 0)
(-0.000702751 0.00764004 0)
(-0.000252812 0.00422526 0)
(0.0014798 -0.00144242 0)
(0.00262573 -0.00584576 0)
(0.00360906 -0.00865338 0)
(0.00454408 -0.0101856 0)
(0.00545893 -0.0108264 0)
(0.00635809 -0.0108692 0)
(0.00723612 -0.0105186 0)
(0.00808409 -0.00991595 0)
(0.00889404 -0.00915988 0)
(0.00966052 -0.00831986 0)
(0.0103808 -0.00744467 0)
(0.0110542 -0.00656791 0)
(0.0116811 -0.00571212 0)
(0.0122623 -0.00489184 0)
(0.0127981 -0.00411603 0)
(0.0132881 -0.00338992 0)
(0.0137305 -0.0027164 0)
(0.0141225 -0.00209691 0)
(0.0144602 -0.00153211 0)
(0.0147384 -0.00102215 0)
(0.0149517 -0.000566753 0)
(0.0150945 -0.000165175 0)
(0.0151619 0.000183808 0)
(0.0151498 0.000482744 0)
(0.0150566 0.00073613 0)
(0.0148826 0.000949545 0)
(0.0146303 0.00112828 0)
(0.0143039 0.0012775 0)
(0.01391 0.00140187 0)
(0.0134564 0.0015054 0)
(0.0129517 0.00159134 0)
(0.0124052 0.00166219 0)
(0.0118263 0.0017196 0)
(0.0112241 0.00176438 0)
(0.010607 0.00179663 0)
(0.00998268 0.00181578 0)
(0.00935792 0.00182078 0)
(0.00873856 0.00181031 0)
(0.00812983 0.00178319 0)
(0.00753644 0.00173905 0)
(0.00696276 0.00167915 0)
(0.0064129 0.00160799 0)
(0.00589079 0.0015389 0)
(0.00539581 0.00152204 0)
(0.00488695 0.00180139 0)
(0.00411443 0.00341409 0)
(0.000970003 0.0096683 0)
(-0.00289823 0.0184573 0)
(-0.0039718 0.0210658 0)
(-0.00242657 0.0106587 0)
(-0.00176851 0.0043835 0)
(-0.00277446 0.00372331 0)
(-0.00341646 0.00332346 0)
(-0.00400966 0.00295572 0)
(-0.00451693 0.00259626 0)
(-0.00494756 0.00224488 0)
(-0.00530943 0.00190495 0)
(-0.0056103 0.00157944 0)
(-0.00585781 0.0012694 0)
(-0.00605903 0.000973962 0)
(-0.00621967 0.000690563 0)
(-0.00634371 0.000415214 0)
(-0.00643367 0.000142462 0)
(-0.00649044 -0.000133703 0)
(-0.00651473 -0.000419007 0)
(-0.00650426 -0.000719187 0)
(-0.00645738 -0.00103921 0)
(-0.00637146 -0.00138286 0)
(-0.00624357 -0.00175233 0)
(-0.00607075 -0.00214804 0)
(-0.00585017 -0.00256843 0)
(-0.00557934 -0.00300986 0)
(-0.00525622 -0.00346646 0)
(-0.00487939 -0.00393001 0)
(-0.00444817 -0.00438975 0)
(-0.00396287 -0.00483214 0)
(-0.003425 -0.00524068 0)
(-0.00283774 -0.0055958 0)
(-0.00220648 -0.00587493 0)
(-0.00153969 -0.00605229 0)
(-0.000850006 -0.00609736 0)
(-0.000134758 -0.00596778 0)
(0.0006258 -0.00559593 0)
(0.00135846 -0.00498127 0)
(0.00203409 -0.00413901 0)
(0.00260406 -0.00311112 0)
(0.00302326 -0.00197549 0)
(0.00327148 -0.000815096 0)
(0.00336446 0.000326983 0)
(0.00330794 0.00143952 0)
(0.0031181 0.00253437 0)
(0.00280325 0.00360891 0)
(0.00234442 0.00464624 0)
(0.00189717 0.00567461 0)
(0.00089487 0.00799531 0)
(0.00109836 0.0181755 0)
(-0.000465464 0.0198237 0)
(0.000603369 0.0121353 0)
(0.000246031 0.00742435 0)
(0.00131554 0.00296797 0)
(0.00308712 -0.00271001 0)
(0.00425572 -0.00693502 0)
(0.00520251 -0.00960847 0)
(0.00604534 -0.0110719 0)
(0.00683784 -0.0116782 0)
(0.0076027 -0.0116963 0)
(0.00834402 -0.0113191 0)
(0.0090583 -0.0106842 0)
(0.00974121 -0.00989085 0)
(0.01039 -0.00901076 0)
(0.0110039 -0.00809466 0)
(0.0115836 -0.00717741 0)
(0.0121302 -0.00628186 0)
(0.0126443 -0.00542216 0)
(0.0131257 -0.00460637 0)
(0.0135727 -0.00383852 0)
(0.0139822 -0.0031202 0)
(0.0143495 -0.00245166 0)
(0.014669 -0.00183253 0)
(0.014934 -0.00126227 0)
(0.0151374 -0.00074038 0)
(0.0152725 -0.000266521 0)
(0.0153337 0.000159392 0)
(0.0153149 0.000538385 0)
(0.0152144 0.000872853 0)
(0.0150321 0.00116645 0)
(0.0147697 0.00142241 0)
(0.0144311 0.00164394 0)
(0.014022 0.00183402 0)
(0.0135498 0.00199533 0)
(0.0130228 0.00213022 0)
(0.0124502 0.00224067 0)
(0.0118415 0.00232826 0)
(0.0112062 0.00239415 0)
(0.0105531 0.00243907 0)
(0.00989065 0.00246321 0)
(0.00922624 0.00246632 0)
(0.00856665 0.00244784 0)
(0.00791812 0.00240721 0)
(0.00728661 0.00234433 0)
(0.00667788 0.00226033 0)
(0.00609796 0.00215926 0)
(0.00555319 0.00205589 0)
(0.00504385 0.00202344 0)
(0.00450738 0.00251676 0)
(0.00299578 0.0055177 0)
(-0.00131293 0.0138829 0)
(-0.00410785 0.0204593 0)
(-0.00438655 0.0204769 0)
(-0.00254347 0.00913387 0)
(-0.00243816 0.00502102 0)
(-0.00324677 0.00440728 0)
(-0.00385482 0.00393796 0)
(-0.00441381 0.00349226 0)
(-0.00489779 0.00305717 0)
(-0.00531298 0.00263609 0)
(-0.00566529 0.00223369 0)
(-0.00596111 0.00185301 0)
(-0.00620716 0.00149461 0)
(-0.00640979 0.00115673 0)
(-0.00657415 0.00083559 0)
(-0.0067038 0.000525757 0)
(-0.00680088 0.000220196 0)
(-0.00686569 -8.85188e-05 0)
(-0.0068995 -0.000407001 0)
(-0.0068996 -0.000742056 0)
(-0.00686449 -0.00109927 0)
(-0.00679171 -0.00148277 0)
(-0.0066786 -0.00189493 0)
(-0.00652247 -0.00233612 0)
(-0.00632073 -0.00280458 0)
(-0.006071 -0.00329636 0)
(-0.00577118 -0.00380517 0)
(-0.00541953 -0.00432225 0)
(-0.00501481 -0.00483611 0)
(-0.00455642 -0.00533225 0)
(-0.00404472 -0.00579289 0)
(-0.0034815 -0.00619663 0)
(-0.00287049 -0.0065184 0)
(-0.00221811 -0.00672954 0)
(-0.00153423 -0.00679809 0)
(-0.000832771 -0.00668834 0)
(-0.000108188 -0.00634977 0)
(0.000649008 -0.00570916 0)
(0.00136467 -0.0047888 0)
(0.00199461 -0.00363173 0)
(0.00248116 -0.00232934 0)
(0.00278738 -0.000999615 0)
(0.00293159 0.000293607 0)
(0.00292422 0.00153942 0)
(0.00278629 0.00276151 0)
(0.00252849 0.00396011 0)
(0.00212371 0.00511206 0)
(0.00174646 0.00623163 0)
(0.000813367 0.00856241 0)
(0.000980838 0.019029 0)
(-9.84123e-05 0.0193293 0)
(0.00132977 0.0118522 0)
(0.00149352 0.00680539 0)
(0.00298857 0.00141468 0)
(0.00467269 -0.00405592 0)
(0.00581268 -0.00798952 0)
(0.00667361 -0.0104696 0)
(0.00739776 -0.0118345 0)
(0.00805433 -0.0123922 0)
(0.00867482 -0.0123807 0)
(0.0092688 -0.0119774 0)
(0.00983743 -0.0113147 0)
(0.0103804 -0.0104919 0)
(0.0108983 -0.00958214 0)
(0.0113933 -0.00863757 0)
(0.0118679 -0.00769352 0)
(0.0123243 -0.00677244 0)
(0.0127635 -0.00588734 0)
(0.0131847 -0.00504473 0)
(0.0135852 -0.00424699 0)
(0.0139603 -0.00349408 0)
(0.0143035 -0.00278482 0)
(0.0146074 -0.00211778 0)
(0.0148631 -0.0014918 0)
(0.0150617 -0.000906307 0)
(0.0151945 -0.000361525 0)
(0.0152547 0.000141368 0)
(0.0152335 0.000601306 0)
(0.0151293 0.00101828 0)
(0.0149413 0.0013938 0)
(0.0146709 0.00172895 0)
(0.014322 0.00202488 0)
(0.0139002 0.00228286 0)
(0.013413 0.00250419 0)
(0.012869 0.00269029 0)
(0.0122774 0.0028426 0)
(0.011648 0.00296261 0)
(0.0109904 0.00305168 0)
(0.0103139 0.00311101 0)
(0.00962676 0.00314147 0)
(0.00893687 0.00314353 0)
(0.00825131 0.00311728 0)
(0.00757688 0.00306259 0)
(0.00692011 0.00297937 0)
(0.0062875 0.00286821 0)
(0.00568628 0.00273233 0)
(0.00512322 0.00258923 0)
(0.00459551 0.00256876 0)
(0.00388157 0.00364184 0)
(0.000849207 0.00926313 0)
(-0.00323615 0.0172243 0)
(-0.00491406 0.0215205 0)
(-0.00448975 0.0193902 0)
(-0.00270011 0.00816282 0)
(-0.00306807 0.00561937 0)
(-0.0037211 0.00503467 0)
(-0.00429356 0.00451133 0)
(-0.00481648 0.00399904 0)
(-0.00527465 0.00349695 0)
(-0.00567106 0.00301284 0)
(-0.00601008 0.00255316 0)
(-0.00629707 0.00212143 0)
(-0.00653808 0.001718 0)
(-0.00673882 0.00134041 0)
(-0.00690386 0.000983773 0)
(-0.00703632 0.000641242 0)
(-0.00713795 0.000304411 0)
(-0.00720873 -3.54662e-05 0)
(-0.00724984 -0.000385916 0)
(-0.00725859 -0.000754573 0)
(-0.00723357 -0.00114751 0)
(-0.00717263 -0.00156914 0)
(-0.00707346 -0.00202194 0)
(-0.00693374 -0.00250625 0)
(-0.00675122 -0.00302022 0)
(-0.00652371 -0.00355973 0)