/*--------------------------------*- C++ -*----------------------------------*\
| =========                 |                                                 |
| \\      /  F ield         | OpenFOAM: The Open Source CFD Toolbox           |
|  \\    /   O peration     | Version:  4.1                                   |
|   \\  /    A nd           | Web:      www.OpenFOAM.org                      |
|    \\/     M anipulation  |                                                 |
\*---------------------------------------------------------------------------*/
FoamFile
{
    version     2.0;
    format      ascii;
    class       volScalarField;
    location    "220";
    object      mag(U);
}
// * * * * * * * * * * * * * * * * * * * * * * * * * * * * * * * * * * * * * //

dimensions      [0 1 -1 0 0 0 0];

internalField   nonuniform List<scalar> 
5000
(
0.00402008
0.00521245
0.00714521
0.00876392
0.0101846
0.0114469
0.0125768
0.0135924
0.0145062
0.0153268
0.0160604
0.0167108
0.0172799
0.0177687
0.0181771
0.0185042
0.0187494
0.0189116
0.0189899
0.0189836
0.0188925
0.0187184
0.0184651
0.0181379
0.0177437
0.0172905
0.0167874
0.0162448
0.0156735
0.0150849
0.0144906
0.0139015
0.0133276
0.0127768
0.0122541
0.0117601
0.0112882
0.0108214
0.0103281
0.00976255
0.00907077
0.00819695
0.00709458
0.00575356
0.00424468
0.00273012
0.00130697
0.00185708
0.0031848
0.00462411
0.00600725
0.00730907
0.00853879
0.00970717
0.0108225
0.0118911
0.0129176
0.0139041
0.0148501
0.0157522
0.0166041
0.017397
0.0181197
0.0187594
0.0193023
0.0197348
0.0200444
0.0202216
0.0202645
0.0201752
0.0199554
0.0196087
0.0191404
0.0185583
0.0178722
0.0170927
0.0162297
0.0152894
0.0142696
0.0131458
0.011835
0.0101343
0.00726118
0.00213386
0.0013645
0.00127811
0.000837951
0.000415154
0.00056684
0.00109217
0.00172241
0.00240982
0.00310878
0.00375162
0.00426034
0.00455109
0.0045193
0.00433357
0.00404923
0.0040547
0.00649334
0.00666823
0.00854217
0.0102409
0.0117243
0.0130098
0.014129
0.0151072
0.0159628
0.0167092
0.0173558
0.0179087
0.0183718
0.018747
0.019035
0.0192355
0.0193479
0.0193716
0.0193055
0.0191537
0.0189231
0.0186159
0.0182353
0.0177862
0.0172747
0.0167088
0.0160978
0.0154523
0.0147841
0.0141056
0.0134296
0.0127683
0.0121326
0.0115315
0.010971
0.0104532
0.00997446
0.00952163
0.00906628
0.00856478
0.00796936
0.00723762
0.00634507
0.00531513
0.00426467
0.00339921
0.00277852
0.00304381
0.00395923
0.0051612
0.00641742
0.00765181
0.00884643
0.009999
0.0111113
0.0121861
0.0132259
0.014232
0.0152037
0.016138
0.0170297
0.0178714
0.0186537
0.0193659
0.0199963
0.0205335
0.0209663
0.0212847
0.0214766
0.0215256
0.0214297
0.0211905
0.0208107
0.0202964
0.0196559
0.0188974
0.0180269
0.0170438
0.0159345
0.0146637
0.0131811
0.0115675
0.00992795
0.00731811
0.00252154
0.000570133
0.000925503
0.00116944
0.00147701
0.00185145
0.00227233
0.00269919
0.00308161
0.00335956
0.00348923
0.00348248
0.00342972
0.00327583
0.00306642
0.00557246
0.00970744
0.00816175
0.00894066
0.0101063
0.0112826
0.0123529
0.0133032
0.0141409
0.0148772
0.0155218
0.016082
0.0165624
0.0169655
0.0172921
0.017542
0.017714
0.0178067
0.0178186
0.0177483
0.0175962
0.0173565
0.0170301
0.0166191
0.0161272
0.0155601
0.014925
0.0142314
0.0134907
0.0127167
0.0119256
0.0111355
0.0103668
0.00963995
0.00897454
0.00838612
0.00788391
0.00746904
0.0071321
0.00684465
0.00655608
0.00622705
0.00584358
0.0054212
0.0050202
0.00472868
0.00456589
0.00440684
0.0045412
0.00507867
0.00590075
0.00685755
0.00786252
0.00887545
0.00987827
0.010863
0.0118264
0.012767
0.0136835
0.0145739
0.0154348
0.0162607
0.0170441
0.0177761
0.0184462
0.0190431
0.0195557
0.0199732
0.0202853
0.0204853
0.0205623
0.0205089
0.0203222
0.0200026
0.0195525
0.0189772
0.0182838
0.0174783
0.0165646
0.0155436
0.0144233
0.013272
0.0124111
0.0120769
0.0106995
0.00641554
0.00177081
0.0013419
0.00156286
0.00173785
0.00199176
0.00232015
0.00267303
0.00298094
0.00318258
0.00323694
0.00313247
0.00295356
0.00254286
0.00222939
0.00754024
0.012897
0.0100378
0.00959218
0.0100013
0.0107428
0.0115586
0.0123595
0.0131132
0.0138092
0.0144442
0.0150169
0.0155258
0.0159685
0.0163423
0.0166437
0.016869
0.0170143
0.0170758
0.0170513
0.0169331
0.0167185
0.0164068
0.0159989
0.015497
0.0149046
0.0142267
0.0134693
0.01264
0.0117481
0.0108055
0.00982764
0.00883437
0.00785215
0.00691557
0.00606768
0.00535658
0.00482594
0.00450137
0.00436746
0.00433039
0.00433639
0.00441618
0.00461459
0.00495998
0.0053863
0.005702
0.00578621
0.00589739
0.00621583
0.00673874
0.00740646
0.0081615
0.0089636
0.00978747
0.0106178
0.0114455
0.0122649
0.0130718
0.0138624
0.0146323
0.0153754
0.016084
0.0167489
0.0173596
0.0179053
0.0183752
0.0187596
0.0190497
0.0192382
0.019317
0.0192771
0.0191139
0.0188254
0.0184123
0.01788
0.0172367
0.0164938
0.0156662
0.0147778
0.0138829
0.0131386
0.0129751
0.0135144
0.0126849
0.00874636
0.00400379
0.00185537
0.00184252
0.00193616
0.00212186
0.0024133
0.00273535
0.0029856
0.00310371
0.00311745
0.00304131
0.00285573
0.0024721
0.00234608
0.00908173
0.015724
0.0119436
0.0105536
0.0102646
0.0105606
0.0111163
0.0117798
0.012475
0.0131633
0.0138233
0.0144419
0.0150091
0.015517
0.0159584
0.0163269
0.0166165
0.0168212
0.0169362
0.0169579
0.0168815
0.0167052
0.0164288
0.0160535
0.0155815
0.0150159
0.01436
0.0136176
0.0127929
0.0118903
0.010915
0.00987319
0.00877279
0.00762508
0.00644751
0.00526924
0.0041409
0.00315011
0.0024383
0.0021911
0.00239238
0.00276148
0.00335351
0.00417107
0.00514869
0.00608527
0.00670365
0.00695433
0.0070908
0.00727781
0.0075815
0.00800586
0.00852838
0.00912142
0.009761
0.0104289
0.011112
0.0118013
0.0124899
0.0131724
0.0138428
0.0144945
0.0151191
0.0157069
0.0162472
0.0167291
0.0171428
0.0174796
0.0177324
0.0178965
0.017966
0.0179318
0.0177885
0.0175322
0.0171623
0.0166832
0.0161044
0.0154418
0.0147201
0.0139821
0.0133161
0.0129405
0.013335
0.0144487
0.0138985
0.0101226
0.00546729
0.00267794
0.0020469
0.00201895
0.00219283
0.00251501
0.0028618
0.00308324
0.00309759
0.00301867
0.00297195
0.00288636
0.0026637
0.00277154
0.0102314
0.0181872
0.0137319
0.0116825
0.0108611
0.0107706
0.011075
0.0115927
0.0122155
0.0128798
0.0135466
0.0141902
0.0147929
0.0153409
0.0158236
0.0162321
0.0165588
0.0167973
0.0169427
0.016991
0.0169413
0.016794
0.0165503
0.0162128
0.0157847
0.0152693
0.01467
0.01399
0.013232
0.0123987
0.0114925
0.010516
0.00947191
0.00836392
0.00719773
0.00598368
0.00474198
0.00351381
0.00239107
0.00154787
0.00181118
0.00235499
0.00316362
0.00425692
0.00553
0.00669907
0.0075036
0.0079176
0.00809458
0.00820337
0.00835236
0.00858752
0.008915
0.0093222
0.00979094
0.0103037
0.010846
0.0114068
0.0119774
0.0125507
0.0131199
0.0136773
0.0142138
0.0147189
0.0151814
0.0155906
0.0159373
0.0162145
0.0164175
0.0165443
0.0165921
0.0165543
0.0164261
0.0162034
0.0158847
0.0154732
0.0149781
0.0144172
0.0138211
0.0132451
0.0128043
0.0127709
0.0136533
0.0151793
0.014694
0.0109047
0.00628134
0.00331522
0.00219418
0.00196197
0.00216128
0.0025817
0.0030085
0.00324064
0.00315557
0.00293305
0.00291213
0.00300306
0.00300811
0.00334543
0.011192
0.0203664
0.0153907
0.012883
0.0116844
0.0112857
0.0113573
0.0117136
0.0122318
0.0128323
0.0134624
0.0140866
0.0146801
0.0152245
0.0157064
0.016115
0.0164421
0.0166815
0.0168289
0.0168809
0.0168382
0.0167056
0.0164859
0.0161833
0.0158021
0.0153463
0.0148191
0.0142234
0.0135609
0.0128331
0.012041
0.0111851
0.0102664
0.0092861
0.00824673
0.00715366
0.00601589
0.00484715
0.00366727
0.00230694
0.00249362
0.00300447
0.00371433
0.00470784
0.00594147
0.00718282
0.00813655
0.00867841
0.00890007
0.0089674
0.0090137
0.00911216
0.00928926
0.00954504
0.009868
0.0102435
0.0106576
0.0110988
0.0115577
0.0120262
0.0124968
0.0129608
0.0134081
0.0138273
0.0142067
0.0145358
0.0148066
0.015014
0.0151562
0.0152346
0.0152493
0.0151988
0.0150805
0.0148916
0.0146308
0.0142998
0.0139059
0.013466
0.0130128
0.0126108
0.0124025
0.0127183
0.0140735
0.0158915
0.0152465
0.0112583
0.00666713
0.00364644
0.00223073
0.00177472
0.00202394
0.00260049
0.00315007
0.00342608
0.00326253
0.00285276
0.00285053
0.00317867
0.00344474
0.00399981
0.0120544
0.0223311
0.0169398
0.0141068
0.0126442
0.0120048
0.0118645
0.012046
0.0124259
0.0129185
0.0134635
0.0140188
0.0145545
0.0150488
0.0154861
0.0158544
0.0161453
0.0163531
0.0164749
0.016508
0.0164551
0.0163256
0.0161235
0.0158546
0.0155239
0.0151358
0.014693
0.0141975
0.0136498
0.0130498
0.0123965
0.0116887
0.010925
0.0101043
0.00922623
0.00829134
0.00729897
0.00624922
0.0051472
0.00333829
0.00327226
0.00370229
0.00434978
0.00522749
0.00636255
0.00759083
0.00861486
0.00924501
0.00951135
0.00956492
0.00955126
0.0095602
0.00963108
0.00977275
0.00997948
0.0102403
0.0105433
0.0108778
0.0112348
0.011606
0.0119831
0.0123568
0.0127156
0.0130471
0.0133389
0.0135813
0.0137682
0.0138977
0.0139715
0.0139944
0.0139692
0.0139004
0.0137893
0.0136364
0.0134412
0.0132034
0.0129271
0.0126255
0.0123311
0.0121176
0.0121618
0.0128612
0.0146988
0.0166743
0.0156039
0.0112776
0.00676738
0.00380657
0.0021716
0.00147236
0.00180033
0.00258414
0.00328275
0.00362329
0.00340561
0.00277195
0.00277096
0.00338655
0.00392472
0.00468146
0.0128473
0.0241294
0.0183975
0.0153269
0.0136752
0.012844
0.0125102
0.0125087
0.0127229
0.0130688
0.0134844
0.0139244
0.0143561
0.0147559
0.0151067
0.0153963
0.0156167
0.0157636
0.0158356
0.0158316
0.0157573
0.0156251
0.0154401
0.0152087
0.0149364
0.0146266
0.0142816
0.0139016
0.0134854
0.0130305
0.0125337
0.0119909
0.0113981
0.0107512
0.0100466
0.00927989
0.00844328
0.00752753
0.00650539
0.00464274
0.00415198
0.00435212
0.00490264
0.0056974
0.00673903
0.0079155
0.00895774
0.00964149
0.00994787
0.0100075
0.00996838
0.00992813
0.00993239
0.00999491
0.0101143
0.0102834
0.0104932
0.0107351
0.011001
0.0112833
0.0115736
0.0118614
0.0121339
0.0123767
0.0125769
0.0127259
0.0128208
0.0128643
0.012863
0.0128262
0.0127589
0.0126722
0.0125722
0.0124638
0.0123473
0.0122194
0.0120783
0.0119317
0.011811
0.0118039
0.0121341
0.0132728
0.0156
0.0175332
0.0157336
0.011023
0.00670032
0.00389213
0.00210979
0.00108436
0.00153223
0.00256543
0.00342037
0.0038338
0.00358236
0.00269722
0.00265423
0.00360061
0.00441023
0.00535408
0.0135832
0.0257943
0.0197762
0.0165247
0.0147306
0.01374
0.0132274
0.0130394
0.0130694
0.0132391
0.0134889
0.0137738
0.0140609
0.0143262
0.0145527
0.0147291
0.0148491
0.0149107
0.0149146
0.0148616
0.0147627
0.0146298
0.0144682
0.0142842
0.0140821
0.0138644
0.0136316
0.0133819
0.0131117
0.0128154
0.0124866
0.012118
0.0117021
0.0112317
0.0106999
0.0100985
0.00941549
0.00863427
0.00770572
0.00602903
0.00520071
0.00508614
0.00544651
0.00612564
0.00706762
0.00817093
0.00919408
0.00990119
0.0102393
0.0103179
0.0102801
0.0102234
0.0101939
0.010207
0.0102643
0.0103621
0.0104949
0.0106568
0.0108417
0.0110434
0.0112538
0.0114614
0.0116511
0.0118057
0.011911
0.0119597
0.0119538
0.0119027
0.0118204
0.0117217
0.011614
0.0115162
0.0114398
0.0113934
0.0113766
0.0113802
0.0113938
0.0114182
0.0114857
0.0117074
0.0123727
0.0140224
0.0168051
0.0183777
0.0155583
0.0105731
0.00658656
0.00399964
0.00212567
0.000655075
0.00130014
0.00259117
0.0035887
0.00407202
0.0038021
0.00265944
0.00248414
0.0037996
0.00487515
0.00599439
0.0142686
0.027349
0.0210835
0.017686
0.0157768
0.0146465
0.0139665
0.0135926
0.013428
0.013402
0.0134594
0.0135583
0.0136674
0.0137645
0.0138348
0.0138696
0.0138657
0.0138248
0.0137508
0.013646
0.0135286
0.0134055
0.0132813
0.0131602
0.0130446
0.0129348
0.0128289
0.0127224
0.0126086
0.0124787
0.0123225
0.0121287
0.0118863
0.0115849
0.0112149
0.010766
0.0102242
0.00956961
0.00875254
0.00732494
0.00634124
0.00593222
0.00604124
0.00655218
0.0073694
0.00837804
0.00935322
0.0100584
0.0104188
0.0105242
0.0105074
0.0104594
0.0104217
0.0104085
0.0104236
0.0104666
0.0105357
0.0106279
0.0107401
0.0108681
0.011005
0.0111387
0.0112508
0.0113199
0.0113284
0.0112706
0.0111547
0.0109998
0.0108302
0.0106683
0.0105256
0.0104304
0.0103998
0.0104436
0.0105557
0.0107165
0.0109042
0.0111126
0.0113819
0.0118626
0.0129314
0.0151591
0.0182678
0.0190224
0.0150432
0.0100405
0.00653381
0.00417838
0.00225084
0.00045452
0.00124512
0.00270494
0.0038123
0.00435751
0.00408194
0.0027205
0.00225181
0.00396795
0.00530293
0.00658887
0.0149059
0.0288089
0.0223228
0.0187988
0.0167888
0.0155305
0.0146917
0.0141355
0.0137734
0.0135415
0.0133902
0.0132816
0.0131884
0.0130921
0.0129818
0.0128538
0.0127104
0.0125587
0.0124065
0.0122574
0.0121372
0.0120434
0.0119783
0.011942
0.011933
0.0119483
0.0119826
0.0120285
0.0120757
0.0121121
0.0121238
0.012096
0.0120141
0.011865
0.0116374
0.0113204
0.0109004
0.0103596
0.00965375
0.0084643
0.00746868
0.00684335
0.00669562
0.00700023
0.00766348
0.00855595
0.00946048
0.0101441
0.0105181
0.010655
0.0106732
0.0106517
0.010624
0.0106012
0.0105884
0.0105889
0.0106039
0.0106341
0.0106794
0.0107389
0.0108077
0.0108736
0.0109149
0.0109035
0.0108161
0.0106469
0.0104119
0.0101432
0.00988003
0.00965229
0.00948523
0.00941575
0.00946461
0.00963658
0.00991227
0.0102554
0.0106313
0.0110317
0.0115161
0.012298
0.0138587
0.0167903
0.019722
0.0191575
0.0143586
0.00961728
0.00661188
0.00446997
0.00254281
0.000871824
0.00149171
0.00296333
0.00411046
0.00469946
0.00443837
0.00295153
0.00192036
0.00408591
0.00568271
0.0071324
0.0154968
0.0301844
0.0234948
0.0198532
0.0177481
0.0163683
0.0153777
0.014645
0.0140878
0.0136483
0.0132818
0.0129549
0.012645
0.0123388
0.0120318
0.0117275
0.0114365
0.0111733
0.0109509
0.010774
0.0106754
0.0106399
0.0106648
0.0107423
0.0108643
0.0110223
0.0112076
0.0114091
0.0116138
0.0118068
0.0119718
0.0120912
0.0121476
0.0121263
0.0120154
0.0118043
0.0114828
0.0110365
0.0104165
0.00944471
0.00850717
0.00775498
0.00738579
0.00747216
0.00795978
0.0087183
0.00953554
0.0101834
0.0105648
0.010736
0.0107985
0.0108154
0.0108091
0.010787
0.0107558
0.0107218
0.0106896
0.0106627
0.0106447
0.0106385
0.0106429
0.0106467
0.0106247
0.0105402
0.0103604
0.0100772
0.00971512
0.009323
0.00895969
0.00866896
0.00849282
0.00848167
0.00865463
0.00899942
0.00947197
0.0100149
0.0105836
0.0111771
0.0118925
0.0130416
0.0153291
0.0187753
0.0207652
0.0187919
0.0135638
0.00942731
0.00688887
0.00485008
0.00293237
0.00148645
0.00197063
0.0033544
0.00451075
0.00510919
0.0048726
0.00337974
0.00134842
0.00413499
0.00600332
0.0076229
0.0160437
0.0314821
0.0245989
0.0208407
0.0186409
0.0171431
0.0160067
0.0151047
0.0143594
0.0137173
0.0131377
0.0125914
0.0120601
0.0115366
0.0110238
0.010535
0.0100923
0.00972082
0.00944063
0.00925874
0.00921602
0.00928036
0.00943775
0.00966608
0.0099462
0.0102632
0.0106045
0.0109567
0.0113054
0.0116352
0.0119293
0.0121685
0.0123341
0.012411
0.0123875
0.0122539
0.0120024
0.0116225
0.0110618
0.0102831
0.00942045
0.00861411
0.00807617
0.00795589
0.00825897
0.00887257
0.00959234
0.0101962
0.0105812
0.0107889
0.0109012
0.0109628
0.0109837
0.0109675
0.0109227
0.0108589
0.0107836
0.0107028
0.0106231
0.0105522
0.0104937
0.0104396
0.0103618
0.0102133
0.00994769
0.00955063
0.00905504
0.00853021
0.00806172
0.0077074
0.00755225
0.0076472
0.00799883
0.00856011
0.00925194
0.00999768
0.0107522
0.0115361
0.0125127
0.0142241
0.01742
0.0205535
0.0212711
0.0180601
0.0129083
0.009486
0.00724957
0.00524757
0.00337468
0.00213438
0.00255985
0.0038459
0.00499308
0.00560269
0.00536663
0.00396255
0.000807882
0.0041371
0.00624913
0.0080546
0.0165462
0.0327067
0.0256338
0.0217545
0.0194573
0.0178432
0.0165667
0.0155035
0.0145798
0.0137453
0.012962
0.0122034
0.011455
0.0107144
0.00999192
0.00931169
0.00871131
0.00823171
0.00790294
0.00775161
0.00781449
0.00803816
0.00838328
0.00880372
0.00926604
0.00975013
0.0102429
0.0107307
0.0112001
0.0116383
0.0120307
0.0123574
0.0125993
0.0127426
0.0127754
0.0126901
0.0124781
0.0121346
0.0116429
0.0109819
0.0101995
0.00938613
0.00873206
0.00843187
0.00855474
0.00902094
0.00963986
0.0101967
0.0105847
0.0108304
0.010995
0.0111033
0.0111524
0.0111429
0.0110856
0.0109941
0.010878
0.0107448
0.0106039
0.0104678
0.0103461
0.0102359
0.0101086
0.00990615
0.00956392
0.0090561
0.00842297
0.00775792
0.00717904
0.00677738
0.00668046
0.00694328
0.0075308
0.00833892
0.00925286
0.010188
0.011113
0.0120896
0.0134329
0.0161225
0.0195674
0.0218723
0.0212573
0.0171661
0.0125247
0.00971515
0.00762674
0.00563818
0.00383199
0.00276614
0.00317665
0.00439044
0.00553039
0.00616459
0.00595742
0.00455427
0.00144372
0.00411485
0.00640371
0.0084235
0.017003
0.0338621
0.0265986
0.0225898
0.0201903
0.0184607
0.0170496
0.0158341
0.0147434
0.0137299
0.0127572
0.0118002
0.0108463
0.00989534
0.0089626
0.00808158
0.00730815
0.00670923
0.00633723
0.00628485
0.0065304
0.00699358
0.00758604
0.0082305
0.008883
0.00952607
0.0101524
0.0107503
0.0113098
0.0118246
0.012282
0.0126614
0.0129469
0.0131261
0.0131847
0.0131191
0.0129278
0.0126091
0.0121577
0.0115681
0.0108504
0.0100522
0.00932493
0.00887841
0.0088365
0.0091616
0.00968307
0.0101949
0.0105875
0.0108727
0.0110898
0.011243
0.0113175
0.0113118
0.0112404
0.0111211
0.010965
0.0107804
0.0105784
0.0103756
0.0101888
0.0100221
0.00984941
0.00960285
0.00919514
0.00858257
0.00781063
0.00699985
0.00630894
0.00588177
0.00590491
0.00641024
0.00727839
0.0083384
0.00945535
0.0105548
0.0116337
0.012838
0.0149994
0.0183043
0.0214371
0.0226661
0.0208254
0.0163292
0.012406
0.0100103
0.00797722
0.0059992
0.00426746
0.00334511
0.00376536
0.00493819
0.0060831
0.00675925
0.00661205
0.00527133
0.0023841
0.00375124
0.00646347
0.0087466
0.0174213
0.0349519
0.0274934
0.0233434
0.0208351
0.0189906
0.0174504
0.0160917
0.0148464
0.013669
0.0125244
0.0113878
0.0102458
0.00909794
0.00795926
0.00686767
0.00589833
0.00516557
0.0047844
0.00492173
0.0054701
0.00625592
0.00713191
0.00799997
0.00882246
0.00959704
0.0103266
0.0109998
0.0116164
0.0121768
0.0126668
0.0130664
0.0133652
0.0135508
0.0136139
0.0135507
0.0133611
0.0130479
0.0126141
0.0120601
0.0113838
0.010605
0.00983443
0.0092754
0.00909184
0.00929016
0.009724
0.0101974
0.0105984
0.010924
0.0111915
0.0113849
0.0114789
0.0114714
0.0113822
0.0112333
0.0110376
0.0108023
0.0105391
0.0102682
0.0100133
0.00978756
0.00957102
0.00928876
0.00882796
0.00811922
0.00721014
0.00625111
0.00544938
0.00503812
0.00526946
0.00608834
0.00725091
0.00853853
0.00982357
0.0110586
0.0122852
0.0140585
0.0169801
0.0204329
0.0228794
0.0229543
0.0201364
0.0156942
0.012463
0.0102948
0.00827175
0.00630611
0.0046468
0.00384154
0.00428768
0.00544645
0.00661185
0.00734872
0.00729289
0.00605726
0.00321998
0.00260748
0.00648534
0.00905505
0.0178186
0.0359799
0.0283194
0.024014
0.021389
0.0194297
0.0177661
0.0162736
0.0148864
0.0135611
0.0122637
0.0109688
0.00966139
0.00833727
0.00700606
0.00570055
0.0045095
0.00362366
0.00330559
0.00382276
0.00481493
0.00595116
0.00708679
0.00812768
0.00907185
0.00993669
0.0107327
0.0114436
0.0120852
0.0126561
0.0131468
0.0135447
0.0138369
0.0140116
0.0140607
0.0139815
0.0137762
0.0134509
0.0130131
0.0124673
0.0118096
0.011044
0.0102478
0.00960625
0.00930844
0.00940093
0.0097627
0.0102079
0.0106227
0.0109891
0.0113028
0.0115291
0.0116342
0.0116176
0.0115052
0.0113244
0.0110887
0.0108036
0.0104798
0.0101399
0.00981396
0.00952515
0.00926325
0.00895134
0.00845013
0.00765592
0.00661433
0.0055076
0.0046034
0.00428191
0.00482975
0.00600089
0.00743101
0.00890093
0.0103137
0.0116587
0.0132418
0.015699
0.0191004
0.022291
0.0238377
0.0228298
0.0193618
0.0152942
0.0125925
0.0105228
0.00849074
0.00653757
0.00494308
0.00423403
0.0047188
0.00588514
0.00708604
0.00790137
0.00796429
0.00686776
0.00415687
0.0010858
0.00652151
0.0093524
0.0182046
0.0369506
0.0290791
0.0246017
0.0218504
0.019776
0.0179948
0.0163783
0.014862
0.0134049
0.0119741
0.0105441
0.00909748
0.00762511
0.00612804
0.00462236
0.00318729
0.00211837
0.0020969
0.0033179
0.0047611
0.00614932
0.00745474
0.00858165
0.00958564
0.0104862
0.0112941
0.0120181
0.012664
0.0132297
0.0137069
0.0140841
0.0143498
0.0144943
0.0145113
0.0143994
0.0141627
0.0138094
0.0133499
0.0127918
0.0121332
0.0113708
0.0105575
0.00985826
0.00947531
0.00948804
0.00979813
0.0102285
0.0106632
0.0110699
0.0114236
0.0116731
0.011779
0.0117446
0.0116033
0.0113877
0.0111118
0.0107782
0.0103952
0.00998649
0.00958738
0.00923079
0.00891938
0.00858074
0.00805113
0.00718376
0.00601704
0.00476757
0.00378208
0.00367209
0.00463397
0.0061386
0.00777839
0.00937672
0.0108796
0.012459
0.014516
0.0175977
0.0211287
0.0237618
0.024343
0.0224124
0.0186376
0.0150781
0.0127156
0.0106703
0.00862153
0.00667847
0.0051399
0.004515
0.00504917
0.00623988
0.00748835
0.0083963
0.00859939
0.0076679
0.00511613
0.000613846
0.00647672
0.00960806
0.0185701
0.0378692
0.0297765
0.0251083
0.0222192
0.0200283
0.0181351
0.0164046
0.0147724
0.0131994
0.0116547
0.0101134
0.00855685
0.00697213
0.00535713
0.00370835
0.00203798
0.000639821
0.00196888
0.00372973
0.00533198
0.00678763
0.00808838
0.00924327
0.0102676
0.0111771
0.0119855
0.0127016
0.0133308
0.0138715
0.0143164
0.0146554
0.0148782
0.0149767
0.0149462
0.0147872
0.0145053
0.0141105
0.0136152
0.01303
0.0123554
0.0115859
0.0107589
0.0100221
0.00958353
0.0095465
0.00982911
0.01026
0.0107208
0.011166
0.011551
0.0118118
0.0119069
0.0118454
0.0116695
0.0114168
0.011101
0.0107208
0.010281
0.00980499
0.00933189
0.00890322
0.00853617
0.00817022
0.00762262
0.00669563
0.0054129
0.00402835
0.00301126
0.00328781
0.00469397
0.00646042
0.00823787
0.0099288
0.0115897
0.0134381
0.0160608
0.0195615
0.0229113
0.0248209
0.0244651
0.0218251
0.0180357
0.0149644
0.0127847
0.0107267
0.00865753
0.00672162
0.00523245
0.00468792
0.00528307
0.00651074
0.0078142
0.00882345
0.00918478
0.0084528
0.00610082
0.00169036
0.00605535
0.00980469
0.0189065
0.0387412
0.030417
0.0255373
0.0224961
0.0201854
0.0181854
0.0163512
0.0146165
0.0129439
0.0113052
0.00967823
0.00804786
0.00639928
0.00471937
0.00296729
0.00126784
0.00115581
0.00291947
0.00463037
0.00621662
0.00765517
0.00894069
0.0100779
0.0110828
0.0119713
0.0127562
0.0134458
0.0140428
0.0145443
0.0149432
0.01523
0.0153959
0.0154345
0.0153432
0.0151244
0.0147854
0.014338
0.0137965
0.0131735
0.0124722
0.0116873
0.0108482
0.0100909
0.00962692
0.00957335
0.00985529
0.0103027
0.0107949
0.0112743
0.0116797
0.0119379
0.0120093
0.0119119
0.0116966
0.0114056
0.0110511
0.0106268
0.0101335
0.0095932
0.00904716
0.00854343
0.00811373
0.00771636
0.00715892
0.00618665
0.00479831
0.00329135
0.00236514
0.00319296
0.00497318
0.00690235
0.00879166
0.0105829
0.0123802
0.0146143
0.017765
0.0214331
0.0243774
0.025492
0.0242925
0.0211716
0.0175653
0.0148797
0.0127767
0.0106893
0.00859803
0.00666764
0.00522609
0.00476638
0.00543525
0.00670872
0.00806865
0.00917938
0.00970687
0.00919649
0.00707116
0.00275208
0.00525734
0.0099629
0.0192232
0.0395725
0.0310074
0.0258938
0.0226834
0.0202469
0.0181438
0.0162158
0.0143924
0.0126377
0.010929
0.0092431
0.00755744
0.00585144
0.00420067
0.00268201
0.00181973
0.00266998
0.00421627
0.00581212
0.00731006
0.00867542
0.00990073
0.0109902
0.0119552
0.0128078
0.0135576
0.0142096
0.0147636
0.015215
0.0155562
0.0157788
0.0158755
0.015842
0.0156782
0.0153887
0.0149827
0.0144739
0.0138782
0.0132102
0.0124754
0.0116698
0.0108207
0.0100603
0.00960301
0.00956907
0.00987813
0.0103569
0.0108834
0.0113897
0.0118016
0.0120415
0.0120762
0.0119348
0.0116773
0.0113487
0.0109578
0.0104928
0.00995003
0.00934982
0.00873382
0.00815405
0.00765489
0.00721886
0.00665704
0.00565386
0.00417185
0.00256107
0.00193885
0.00338265
0.00539386
0.00747363
0.00941471
0.0112629
0.0132742
0.0159534
0.0195027
0.0231125
0.0255109
0.0258279
0.0239131
0.0205246
0.0171964
0.0147731
0.0126836
0.0105605
0.00844742
0.00652342
0.00513301
0.00476963
0.00552586
0.00685115
0.00826376
0.00946739
0.0101565
0.00987233
0.00798056
0.00377239
0.00423804
0.0100982
0.0195367
0.0403676
0.031555
0.0261846
0.0227851
0.0202134
0.0180083
0.0159949
0.0140973
0.0122781
0.0105034
0.00875851
0.00707397
0.00545457
0.00400385
0.00300131
0.00298665
0.00412181
0.00557243
0.00704785
0.00844379
0.0097235
0.0108783
0.0119108
0.0128287
0.0136397
0.0143488
0.0149566
0.0154597
0.0158519
0.0161252
0.0162726
0.0162889
0.0161725
0.0159259
0.0155562
0.015075
0.0144979
0.0138428
0.0131258
0.0123538
0.0115258
0.0106717
0.00992885
0.00951484
0.00953914
0.00990167
0.010423
0.0109824
0.0115046
0.0119059
0.0121103
0.0120959
0.0119046
0.0116048
0.0112416
0.0108184
0.0103168
0.00972932
0.00907458
0.0083933
0.00773861
0.00716442
0.00668004
0.00611595
0.00509563
0.00353727
0.00185039
0.00185545
0.00376457
0.00599783
0.00808646
0.0100355
0.0119805
0.0142729
0.0173855
0.021172
0.0245523
0.0263312
0.0258913
0.0234046
0.0199231
0.0168855
0.0146163
0.0125065
0.0103462
0.00821366
0.00629948
0.0049682
0.00471735
0.00557459
0.00695625
0.00841495
0.00969666
0.0105334
0.0104711
0.00882048
0.00475887
0.00305721
0.0102173
0.0198514
0.0411277
0.0320665
0.0264176
0.0228079
0.0200881
0.0177782
0.0156839
0.0137162
0.0118183
0.0100162
0.00829436
0.0066767
0.00523007
0.00414162
0.00374184
0.004316
0.00549789
0.00686431
0.00823277
0.00952901
0.010724
0.0118096
0.0127868
0.0136592
0.014429
0.0150956
0.0156549
0.0161005
0.0164246
0.0166202
0.016682
0.0166075
0.0163982
0.0160597
0.0156019
0.0150391
0.0143891
0.0136716
0.0129043
0.0120946
0.0112459
0.0103977
0.00970093
0.00937373
0.00949549
0.00993247
0.010501
0.0110862
0.0116082
0.0119791
0.0121305
0.0120562
0.0118125
0.0114738
0.0110819
0.0106317
0.0100984
0.0094715
0.00876834
0.00802769
0.0073011
0.00664804
0.00610408
0.00553523
0.00451036
0.00288545
0.00118561
0.00212143
0.00440251
0.00661918
0.00868197
0.0106578
0.0127412
0.015352
0.0188354
0.022708
0.0257425
0.0268752
0.0257457
0.0228288
0.0193784
0.0165935
0.0143973
0.0122509
0.010055
0.00790705
0.00600835
0.00474678
0.00462578
0.00559609
0.00703813
0.0085362
0.00987836
0.0108426
0.0109928
0.00959349
0.00572004
0.00178314
0.010327
0.020151
0.0418466
0.0325462
0.0266013
0.022761
0.019877
0.0174542
0.0152669
0.0132074
0.011296
0.00950605
0.007846
0.00636839
0.00519912
0.00456809
0.00467674
0.00554131
0.00673214
0.00802159
0.00929572
0.0105029
0.011623
0.0126494
0.0135805
0.0144143
0.0151465
0.0157701
0.0162765
0.0166569
0.0169037
0.0170112
0.016977
0.0168019
0.0164908
0.0160526
0.0155005
0.0148516
0.0141262
0.0133459
0.0125294
0.0116841
0.0108217
0.0100003
0.00939158
0.00920275
0.00945657
0.00997827
0.0105892
0.0111858
0.0116866
0.0120051
0.0120869
0.0119456
0.0116516
0.0112819
0.0108697
0.0103992
0.00983939
0.0091786
0.0084335
0.00763989
0.00684551
0.00611157
0.00549639
0.00491477
0.00389614
0.00220225
0.000740134
0.00276426
0.00504492
0.00721274
0.00926152
0.0112841
0.0135398
0.0164733
0.0202414
0.0240787
0.0266961
0.0271875
0.0254487
0.0222299
0.0188846
0.0162924
0.0141149
0.0119253
0.00969713
0.00753964
0.00566371
0.00448296
0.00450685
0.00559827
0.00710392
0.00863625
0.0100214
0.0110892
0.0114373
0.0102973
0.00664965
0.000710393
0.0103437
0.0204069
0.0425052
0.0329934
0.0267427
0.0226548
0.0195883
0.0170292
0.014717
0.0126262
0.010716
0.00897061
0.00742379
0.00616523
0.00535324
0.00516401
0.00564281
0.00662217
0.00779054
0.0090051
0.0101953
0.0113277
0.0123884
0.013371
0.014269
0.0150729
0.0157705
0.0163485
0.016795
0.0171006
0.017259
0.0172676
0.0171272
0.0168424
0.0164218
0.0158778
0.015227
0.0144898
0.013689
0.0128483
0.0119866
0.0111104
0.0102495
0.00949326
0.00903412
0.00903863
0.00944449
0.0100449
0.0106823
0.0112686
0.0117229
0.0119665
0.0119655
0.0117556
0.0114198
0.0110311
0.010609
0.010125
0.00954397
0.00885497
0.0080743
0.0072338
0.00637578
0.00556027
0.00486304
0.00425529
0.00325109
0.00146396
0.00111506
0.00342821
0.00565376
0.00778332
0.00982646
0.011914
0.0143627
0.017596
0.021562
0.0252761
0.0274389
0.0273136
0.0250494
0.0216362
0.0184287
0.0159667
0.0137741
0.01154
0.00928436
0.00712474
0.00528002
0.00419058
0.00436948
0.00558355
0.00715369
0.00871683
0.0101294
0.0112745
0.0118
0.0109231
0.00752713
0.000850243
0.0100749
0.0205993
0.0430649
0.0333994
0.0268467
0.022499
0.0192259
0.0164894
0.0140985
0.0119837
0.010091
0.00842875
0.00705382
0.00607763
0.00564177
0.00580896
0.00652708
0.00753377
0.00865376
0.00979517
0.010913
0.0119869
0.0130068
0.0139629
0.0148408
0.015621
0.0162828
0.0168081
0.0171837
0.0174019
0.0174595
0.0173579
0.0171018
0.0166997
0.0161636
0.0155097
0.0147584
0.0139333
0.0130603
0.0121649
0.011265
0.0103659
0.00953781
0.00891539
0.0086878
0.0089278
0.00947787
0.010132
0.0107699
0.0113176
0.0116978
0.0118464
0.0117556
0.0114839
0.0111212
0.0107293
0.0103079
0.00981671
0.00921936
0.00850773
0.00769724
0.00681454
0.0058957
0.00499837
0.00421008
0.00355796
0.00256984
0.000626607
0.00182677
0.0040591
0.00624114
0.0083338
0.0103776
0.0125442
0.0151908
0.0186848
0.0227741
0.0263073
0.0280024
0.0272965
0.0245875
0.0210636
0.0179969
0.0156108
0.0133837
0.0111067
0.00882926
0.00667571
0.00487119
0.00388194
0.00422194
0.0055518
0.0071828
0.00877322
0.0101998
0.0113947
0.0120711
0.0114552
0.00834613
0.00168323
0.00956685
0.0207245
0.0434695
0.0337426
0.0269123
0.022296
0.0187802
0.0159009
0.0134423
0.0113066
0.00946018
0.00792437
0.00677167
0.00610789
0.00600736
0.0064276
0.00725165
0.00824998
0.00931286
0.0103867
0.0114458
0.0124795
0.0134781
0.0144241
0.0152908
0.0160471
0.016665
0.0171244
0.0174139
0.0175297
0.0174736
0.0172514
0.0168719
0.0163469
0.015692
0.0149269
0.0140758
0.0131666
0.0122285
0.0112882
0.0103613
0.00945319
0.00872343
0.00834863
0.00843628
0.00891131
0.00956227
0.0102302
0.0108355
0.0113129
0.0115923
0.0116322
0.0114545
0.0111375
0.0107695
0.0103909
0.00997919
0.00948533
0.00887626
0.00814728
0.0073114
0.00638866
0.00540918
0.00442918
0.00354398
0.00282569
0.00182807
0.000335836
0.00250007
0.00467454
0.0068084
0.00886492
0.010915
0.0131678
0.0160032
0.0197136
0.0238688
0.0271884
0.0284193
0.027174
0.0240929
0.0205188
0.0175783
0.0152252
0.0129538
0.0106368
0.00834317
0.00620292
0.00444669
0.00356455
0.00407362
0.00550373
0.00718519
0.00879667
0.0102247
0.0114414
0.0122363
0.0118729
0.00908503
0.00261444
0.00884421
0.0207806
0.0436274
0.0339876
0.02693
0.0220387
0.0183188
0.0153057
0.0127808
0.0106482
0.0088831
0.00751658
0.00661902
0.00625521
0.0064107
0.00699396
0.00783299
0.00878469
0.00977977
0.0107892
0.0118028
0.0128149
0.0138101
0.0147573
0.0156138
0.0163373
0.0168957
0.0172704
0.0174555
0.0174533
0.0172716
0.0169209
0.0164134
0.0157635
0.0149895
0.0141146
0.0131681
0.0121826