/*--------------------------------*- C++ -*----------------------------------*\
| =========                 |                                                 |
| \\      /  F ield         | OpenFOAM: The Open Source CFD Toolbox           |
|  \\    /   O peration     | Version:  4.1                                   |
|   \\  /    A nd           | Web:      www.OpenFOAM.org                      |
|    \\/     M anipulation  |                                                 |
\*---------------------------------------------------------------------------*/
FoamFile
{
    version     2.0;
    format      ascii;
    class       volScalarField;
    location    "220";
    object      T;
}
// * * * * * * * * * * * * * * * * * * * * * * * * * * * * * * * * * * * * * //

dimensions      [0 0 0 1 0 0 0];

internalField   nonuniform List<scalar> 
5000
(
284.131
283.832
283.664
283.539
283.435
283.345
283.263
283.187
283.116
283.047
282.981
282.916
282.852
282.789
282.726
282.664
282.601
282.538
282.473
282.408
282.346
282.289
282.238
282.19
282.147
282.106
282.068
282.031
281.995
281.959
281.922
281.884
281.843
281.798
281.749
281.696
281.638
281.577
281.513
281.448
281.386
281.327
281.276
281.233
281.203
281.189
281.214
281.245
281.273
281.298
281.322
281.345
281.366
281.387
281.407
281.427
281.447
281.467
281.488
281.511
281.537
281.565
281.598
281.637
281.682
281.735
281.797
281.87
281.947
282.023
282.1
282.178
282.259
282.342
282.428
282.52
282.617
282.722
282.837
282.966
283.121
283.337
283.642
283.628
283.275
283.014
282.912
282.773
282.664
282.562
282.465
282.406
282.416
282.51
282.706
283.005
283.268
283.436
283.551
283.679
283.306
282.586
282.191
281.914
281.695
281.514
281.363
281.234
281.124
281.028
280.945
280.873
280.812
280.759
280.715
280.679
280.651
280.632
280.62
280.615
280.614
280.613
280.611
280.609
280.607
280.604
280.601
280.598
280.594
280.59
280.586
280.581
280.576
280.571
280.566
280.561
280.556
280.551
280.547
280.542
280.537
280.53
280.523
280.514
280.504
280.495
280.485
280.48
280.475
280.472
280.468
280.465
280.462
280.459
280.456
280.453
280.451
280.448
280.446
280.443
280.441
280.44
280.438
280.437
280.435
280.435
280.434
280.434
280.442
280.463
280.496
280.542
280.601
280.673
280.756
280.852
280.961
281.086
281.233
281.423
281.711
282.196
282.804
282.693
281.241
280.642
280.605
280.602
280.603
280.603
280.603
280.601
280.6
280.599
280.597
280.622
280.745
280.693
281.025
282.425
282.889
282.029
281.585
281.305
281.111
280.973
280.873
280.801
280.749
280.712
280.685
280.667
280.655
280.647
280.643
280.64
280.639
280.638
280.638
280.637
280.636
280.636
280.635
280.635
280.635
280.635
280.635
280.635
280.635
280.634
280.632
280.629
280.626
280.621
280.616
280.609
280.603
280.596
280.59
280.583
280.575
280.565
280.552
280.538
280.522
280.507
280.495
280.488
280.482
280.477
280.473
280.468
280.464
280.46
280.456
280.452
280.449
280.445
280.442
280.438
280.435
280.433
280.43
280.428
280.426
280.424
280.422
280.421
280.42
280.419
280.422
280.427
280.439
280.458
280.487
280.528
280.584
280.659
280.762
280.917
281.179
281.654
282.278
282.299
281.465
280.812
280.622
280.596
280.594
280.595
280.594
280.592
280.59
280.588
280.584
280.578
280.578
280.559
280.677
281.978
282.628
281.714
281.275
281.025
280.873
280.779
280.721
280.685
280.663
280.65
280.642
280.637
280.634
280.631
280.629
280.627
280.624
280.622
280.619
280.617
280.615
280.614
280.614
280.615
280.617
280.62
280.623
280.627
280.632
280.637
280.643
280.648
280.652
280.655
280.657
280.655
280.651
280.645
280.637
280.628
280.616
280.602
280.584
280.562
280.54
280.52
280.506
280.497
280.49
280.485
280.48
280.475
280.47
280.466
280.461
280.456
280.452
280.448
280.443
280.44
280.436
280.433
280.43
280.428
280.425
280.424
280.422
280.42
280.419
280.418
280.417
280.417
280.418
280.423
280.432
280.449
280.476
280.519
280.587
280.704
280.925
281.35
281.928
282.045
281.517
280.976
280.688
280.613
280.601
280.597
280.594
280.589
280.585
280.584
280.584
280.581
280.572
280.555
280.598
281.734
282.445
281.514
281.096
280.879
280.762
280.697
280.661
280.641
280.629
280.62
280.614
280.608
280.602
280.596
280.591
280.585
280.58
280.575
280.571
280.567
280.564
280.563
280.562
280.563
280.565
280.568
280.572
280.577
280.584
280.593
280.602
280.613
280.625
280.638
280.651
280.663
280.672
280.677
280.675
280.666
280.653
280.635
280.612
280.584
280.555
280.531
280.515
280.505
280.497
280.491
280.486
280.481
280.476
280.471
280.466
280.461
280.456
280.451
280.446
280.442
280.438
280.434
280.431
280.429
280.427
280.425
280.424
280.422
280.421
280.42
280.419
280.417
280.417
280.417
280.42
280.426
280.44
280.466
280.512
280.603
280.791
281.172
281.699
281.862
281.488
281.025
280.735
280.628
280.604
280.596
280.589
280.581
280.576
280.575
280.579
280.58
280.573
280.556
280.572
281.577
282.311
281.376
280.982
280.795
280.701
280.654
280.628
280.613
280.601
280.591
280.582
280.572
280.563
280.555
280.546
280.539
280.532
280.526
280.521
280.517
280.514
280.512
280.511
280.511
280.512
280.514
280.518
280.523
280.529
280.537
280.547
280.558
280.572
280.588
280.605
280.625
280.647
280.669
280.691
280.689
280.678
280.659
280.632
280.6
280.569
280.542
280.523
280.51
280.502
280.497
280.492
280.487
280.483
280.478
280.472
280.467
280.461
280.455
280.45
280.444
280.44
280.436
280.433
280.43
280.428
280.427
280.426
280.425
280.425
280.424
280.423
280.422
280.42
280.419
280.419
280.421
280.428
280.444
280.478
280.553
280.721
281.072
281.555
281.725
281.423
281.009
280.739
280.632
280.603
280.592
280.582
280.573
280.566
280.564
280.57
280.575
280.573
280.557
280.56
281.465
282.206
281.275
280.905
280.741
280.664
280.626
280.604
280.588
280.574
280.562
280.549
280.538
280.527
280.517
280.507
280.499
280.492
280.487
280.482
280.479
280.476
280.474
280.473
280.473
280.474
280.475
280.477
280.481
280.486
280.492
280.5
280.51
280.522
280.536
280.553
280.574
280.597
280.626
280.676
280.683
280.68
280.666
280.642
280.611
280.579
280.55
280.529
280.515
280.507
280.501
280.497
280.493
280.489
280.484
280.479
280.473
280.467
280.46
280.454
280.448
280.442
280.438
280.434
280.431
280.43
280.429
280.429
280.429
280.429
280.429
280.428
280.427
280.425
280.423
280.422
280.421
280.424
280.435
280.462
280.528
280.687
281.022
281.471
281.621
281.337
280.958
280.718
280.626
280.6
280.587
280.576
280.565
280.557
280.554
280.56
280.569
280.571
280.557
280.553
281.381
282.123
281.198
280.85
280.704
280.638
280.604
280.583
280.565
280.55
280.535
280.521
280.508
280.497
280.487
280.478
280.471
280.465
280.461
280.458
280.456
280.454
280.452
280.451
280.451
280.451
280.451
280.452
280.453
280.456
280.461
280.466
280.474
280.484
280.496
280.511
280.529
280.552
280.579
280.639
280.656
280.662
280.656
280.64
280.613
280.583
280.554
280.532
280.518
280.51
280.506
280.503
280.5
280.496
280.492
280.486
280.48
280.473
280.466
280.459
280.452
280.445
280.439
280.435
280.432
280.43
280.43
280.43
280.431
280.433
280.434
280.434
280.433
280.431
280.429
280.426
280.424
280.425
280.432
280.456
280.519
280.678
281.01
281.43
281.534
281.237
280.886
280.686
280.615
280.594
280.582
280.57
280.558
280.549
280.546
280.552
280.564
280.569
280.556
280.549
281.314
282.053
281.138
280.809
280.677
280.618
280.587
280.564
280.545
280.528
280.512
280.498
280.486
280.476
280.467
280.46
280.455
280.451
280.449
280.447
280.447
280.446
280.445
280.444
280.442
280.441
280.44
280.439
280.439
280.44
280.442
280.445
280.451
280.458
280.468
280.48
280.496
280.515
280.541
280.595
280.621
280.635
280.638
280.629
280.608
280.582
280.555
280.533
280.52
280.513
280.509
280.508
280.506
280.503
280.499
280.495
280.488
280.481
280.473
280.465
280.456
280.448
280.441
280.436
280.432
280.43
280.43
280.431
280.433
280.436
280.438
280.439
280.438
280.437
280.434
280.431
280.427
280.426
280.432
280.454
280.52
280.688
281.028
281.42
281.449
281.121
280.807
280.652
280.605
280.589
280.577
280.565
280.553
280.544
280.54
280.545
280.559
280.567
280.556
280.546
281.26
281.995
281.089
280.777
280.656
280.602
280.572
280.548
280.528
280.511
280.495
280.482
280.471
280.463
280.456
280.452
280.45
280.448
280.448
280.449
280.449
280.449
280.448
280.447
280.445
280.442
280.44
280.437
280.435
280.433
280.433
280.434
280.437
280.442
280.449
280.459
280.472
280.488
280.511
280.555
280.585
280.605
280.615
280.613
280.599
280.577
280.553
280.533
280.521
280.515
280.513
280.512
280.512
280.511
280.508
280.504
280.498
280.49
280.481
280.472
280.462
280.452
280.443
280.436
280.431
280.429
280.429
280.431
280.434
280.438
280.441
280.443
280.443
280.442
280.439
280.435
280.431
280.429
280.433
280.457
280.53
280.716
281.073
281.424
281.349
280.994
280.73
280.625
280.597
280.585
280.574
280.562
280.55
280.54
280.535
280.54
280.555
280.566
280.556
280.543
281.215
281.946
281.05
280.752
280.64
280.589
280.559
280.535
280.514
280.497
280.482
280.471
280.462
280.457
280.453
280.452
280.453
280.454
280.456
280.458
280.46
280.46
280.459
280.457
280.454
280.451
280.446
280.442
280.438
280.434
280.431
280.43
280.431
280.434
280.438
280.446
280.456
280.469
280.488
280.523
280.553
280.577
280.593
280.597
280.589
280.571
280.55
280.533
280.522
280.517
280.516
280.517
280.518
280.518
280.517
280.513
280.508
280.5
280.491
280.48
280.468
280.456
280.445
280.436
280.431
280.428
280.428
280.431
280.435
280.44
280.444
280.447
280.448
280.447
280.443
280.438
280.433
280.431
280.436
280.463
280.549
280.762
281.142
281.421
281.222
280.864
280.667
280.608
280.593
280.582
280.571
280.56
280.548
280.538
280.532
280.536
280.554
280.566
280.556
280.542
281.177
281.904
281.017
280.732
280.627
280.578
280.548
280.524
280.503
280.487
280.474
280.465
280.459
280.456
280.456
280.458
280.462
280.466
280.47
280.473
280.475
280.475
280.474
280.472
280.468
280.463
280.457
280.451
280.445
280.439
280.434
280.431
280.43
280.43
280.434
280.439
280.447
280.458
280.473
280.5
280.527
280.552
280.572
280.581
280.578
280.565
280.547
280.531
280.522
280.519
280.519
280.521
280.524
280.525
280.525
280.523
280.518
280.511
280.501
280.489
280.475
280.461
280.447
280.437
280.43
280.427
280.427
280.431
280.435
280.441
280.446
280.45
280.451
280.45
280.447
280.441
280.436
280.432
280.439
280.473
280.579
280.842
281.22
281.371
281.079
280.755
280.628
280.601
280.59
280.581
280.57
280.559
280.547
280.537
280.531
280.534
280.552
280.565
280.557
280.541
281.144
281.867
280.99
280.716
280.616
280.569
280.539
280.515
280.495
280.48
280.469
280.462
280.459
280.46
280.463
280.468
280.474
280.48
280.485
280.488
280.49
280.49
280.489
280.486
280.482
280.476
280.47
280.462
280.454
280.446
280.44
280.435
280.432
280.431
280.433
280.437
280.443
280.451
280.464
280.484
280.506
280.531
280.553
280.567
280.568
280.559
280.544
280.53
280.522
280.52
280.521
280.525
280.529
280.532
280.534
280.533
280.529
280.522
280.512
280.499
280.483
280.466
280.45
280.437
280.428
280.425
280.426
280.43
280.436
280.442
280.448
280.453
280.454
280.453
280.449
280.443
280.437
280.434
280.444
280.489
280.638
280.953
281.26
281.278
280.935
280.682
280.612
280.598
280.59
280.581
280.571
280.559
280.547
280.537
280.531
280.533
280.55
280.565
280.557
280.54
281.116
281.835
280.967
280.703
280.607
280.562
280.532
280.508
280.489
280.475
280.466
280.462
280.462
280.465
280.471
280.479
280.486
280.493
280.498
280.501
280.502
280.502
280.501
280.498
280.494
280.488
280.481
280.472
280.463
280.454
280.446
280.44
280.436
280.434
280.434
280.437
280.442
280.45
280.46
280.474
280.493
280.516
280.538
280.554
280.559
280.553
280.541
280.529
280.522
280.521
280.523
280.528
280.534
280.539
280.542
280.543
280.54
280.533
280.523
280.509
280.492
280.473
280.454
280.437
280.427
280.423
280.425
280.43
280.437
280.444
280.45
280.455
280.457
280.455
280.451
280.444
280.438
280.436
280.451
280.521
280.739
281.045
281.257
281.153
280.812
280.641
280.606
280.598
280.591
280.583
280.573
280.562
280.549
280.538
280.531
280.533
280.546
280.565
280.558
280.54
281.093
281.808
280.949
280.692
280.601
280.556
280.526
280.503
280.485
280.473
280.466
280.464
280.466
280.472
280.479
280.488
280.497
280.503
280.508
280.51
280.51
280.509
280.508
280.506
280.502
280.497
280.49
280.481
280.471
280.461
280.452
280.445
280.44
280.438
280.438
280.44
280.445
280.451
280.459
280.47
280.485
280.505
280.527
280.544
280.552
280.548
280.538
280.528
280.522
280.521
280.525
280.531
280.539
280.545
280.55
280.552
280.55
280.545
280.535
280.521
280.502
280.48
280.458
280.438
280.426
280.421
280.424
280.43
280.437
280.445
280.452
280.457
280.459
280.457
280.452
280.444
280.438
280.438
280.464
280.594
280.842
281.104
281.211
281.016
280.724
280.621
280.605
280.6
280.594
280.587
280.577
280.566
280.553
280.541
280.533
280.533
280.544
280.568
280.559
280.541
281.072
281.785
280.934
280.684
280.595
280.552
280.522
280.499
280.483
280.472
280.466
280.466
280.47
280.477
280.486
280.495
280.504
280.51
280.513
280.513
280.512
280.512
280.511
280.51
280.507
280.503
280.496
280.487
280.477
280.467
280.458
280.45
280.445
280.442
280.443
280.445
280.449
280.454
280.461
280.469
280.481
280.498
280.518
280.536
280.546
280.544
280.536
280.526
280.521
280.522
280.526
280.533
280.542
280.551
280.558
280.561
280.561
280.556
280.547
280.533
280.513
280.489
280.462
280.439
280.424
280.42
280.422
280.43
280.438
280.447
280.454
280.459
280.46
280.457
280.451
280.444
280.438
280.442
280.506
280.683
280.929
281.126
281.132
280.889
280.67
280.614
280.607
280.604
280.599
280.593
280.584
280.571
280.558
280.545
280.536
280.534
280.543
280.57
280.56
280.541
281.053
281.765
280.922
280.678
280.592
280.548
280.519
280.497
280.481
280.471
280.467
280.468
280.473
280.48
280.49
280.499
280.507
280.512
280.513
280.512
280.511
280.511
280.511
280.511
280.509
280.505
280.499
280.49
280.481
280.471
280.462
280.454
280.45
280.447
280.448
280.45
280.454
280.459
280.465
280.472
280.481
280.495
280.514
280.531
280.541
280.541
280.534
280.525
280.521
280.522
280.527
280.535
280.546
280.556
280.565
280.569
280.57
280.567
280.559
280.545
280.525
280.498
280.468
280.44
280.423
280.418
280.421
280.43
280.439
280.449
280.456
280.46
280.461
280.457
280.45
280.442
280.438
280.461
280.57
280.772
280.99
281.113
281.034
280.788
280.64
280.613
280.611
280.61
280.607
280.601
280.592
280.579
280.565
280.55
280.539
280.536
280.543
280.566
280.56
280.542
281.036
281.748
280.913
280.674
280.589
280.547
280.518
280.497
280.481
280.472
280.468
280.469
280.474
280.482
280.491
280.5
280.507
280.51
280.509
280.507
280.506
280.508
280.51
280.511
280.51
280.506
280.5
280.492
280.482
280.473
280.464
280.458
280.454
280.453
280.454
280.457
280.461
280.466
280.471
280.477
280.485
280.496
280.512
280.528
280.538
280.539
280.532
280.524
280.52
280.521
280.527
280.537
280.549
280.561
280.571
280.577
280.579
280.577
280.57
280.557
280.537
280.509
280.475
280.442
280.421
280.415
280.42
280.43
280.44
280.45
280.457
280.461
280.461
280.456
280.449
280.441
280.443
280.499
280.645
280.848
281.023
281.072
280.934
280.718
280.627
280.616
280.617
280.617
280.616
280.611
280.602
280.589
280.574
280.558
280.544
280.538
280.543
280.56
280.559
280.542
281.021
281.735
280.906
280.672
280.588
280.546
280.518
280.497
280.482
280.473
280.469
280.47
280.474
280.481
280.489
280.497
280.502
280.504
280.502
280.501
280.502
280.506
280.509
280.51
280.509
280.506
280.499
280.491
280.482
280.474
280.466
280.461
280.458
280.458
280.46
280.464
280.469
280.474
280.479
280.484
280.49
280.499
280.512
280.527
280.537
280.537
280.53
280.523
280.519
280.52
280.527
280.538
280.552
280.566
280.578
280.585
280.588
280.586
280.581
280.569
280.549
280.52
280.482
280.445
280.42
280.413
280.419
280.43
280.441
280.451
280.458
280.461
280.46
280.454
280.446
280.441
280.461
280.551
280.718
280.906
281.029
281.011
280.843
280.673
280.623
280.621
280.625
280.627
280.627
280.623
280.614
280.601
280.584
280.567
280.551
280.542
280.544
280.556
280.559
280.543
281.007
281.724
280.902
280.671
280.588
280.547
280.519
280.499
280.484
280.475
280.471
280.471
280.474
280.479
280.485
280.491
280.495
280.496
280.494
280.496
280.5
280.505
280.508
280.51
280.508
280.505
280.498
280.49
280.482
280.474
280.468
280.464
280.463
280.464
280.468
280.473
280.478
280.484
280.489
280.493
280.498
280.504
280.515
280.528
280.536
280.536
280.528
280.521
280.517
280.52
280.528
280.54
280.556
280.572
280.584
280.592
280.596
280.595
280.591
280.58
280.561
280.531
280.491
280.448
280.418
280.41
280.418
280.43
280.442
280.451
280.458
280.46
280.458
280.452
280.444
280.446
280.491
280.611
280.783
280.943
281.013
280.942
280.77
280.649
280.625
280.628
280.634
280.638
280.639
280.636
280.627
280.613
280.596
280.577
280.559
280.548
280.547
280.557
280.562
280.544
280.994
281.716
280.9
280.672
280.59
280.549
280.522
280.502
280.488
280.478
280.473
280.472
280.474
280.477
280.482
280.486
280.488
280.488
280.491
280.495
280.501
280.506
280.509
280.51
280.508
280.503
280.496
280.488
280.48
280.474
280.469
280.467
280.468
280.472
280.477
280.483
280.489
280.495
280.5
280.503
280.506
280.511
280.52
280.53
280.537
280.535
280.527
280.519
280.516
280.519
280.528
280.543
280.561
280.578
280.591
280.6
280.604
280.604
280.6
280.591
280.573
280.543
280.501
280.452
280.416
280.407
280.417
280.43
280.442
280.451
280.457
280.459
280.455
280.449
280.444
280.46
280.531
280.67
280.836
280.961
280.98
280.873
280.717
280.638
280.629
280.637
280.644
280.65
280.652
280.649
280.641
280.627
280.609
280.589
280.569
280.555
280.551
280.56
280.566
280.545
280.983
281.71
280.9
280.675
280.593
280.552
280.526
280.506
280.492
280.483
280.477
280.475
280.475
280.477
280.48
280.483
280.485
280.487
280.492
280.499
280.505
280.509
280.511
280.51
280.507
280.501
280.493
280.485
280.479
280.474
280.471
280.472
280.475
280.481
280.488
280.495
280.502
280.508
280.512
280.515
280.516
280.519
280.526
280.534
280.537
280.533
280.524
280.516
280.514
280.519
280.53
280.547
280.566
280.585
280.599
280.607
280.611
280.612
280.609
280.601
280.585
280.555
280.511
280.457
280.414
280.404
280.415
280.429
280.441
280.45
280.456
280.456
280.452
280.446
280.448
280.482
280.577
280.725
280.875
280.961
280.938
280.812
280.682
280.635
280.636
280.646
280.655
280.662
280.665
280.662
280.654
280.641
280.623
280.601
280.58
280.563
280.557
280.565
280.573
280.546
280.973
281.708
280.904
280.68
280.598
280.558
280.531
280.513
280.499
280.489
280.483
280.48
280.48
280.481
280.482
280.485
280.487
280.493
280.499
280.505
280.51
280.513
280.513
280.51
280.505
280.498
280.49
280.483
280.477
280.475
280.475
280.479
280.485
280.493
280.501
280.51
280.517
280.523
280.526
280.527
280.527
280.528
280.532
280.538
280.538
280.531
280.521
280.513
280.512
280.519
280.533
280.552
280.574
280.593
280.607
280.615
280.619
280.619
280.617
280.611
280.595
280.567
280.522
280.464
280.413
280.4
280.413
280.428
280.44
280.449
280.454
280.453
280.449
280.445
280.456
280.51
280.624
280.772
280.899
280.949
280.891
280.761
280.66
280.636
280.643
280.655
280.666
280.674
280.677
280.675
280.667
280.654
280.636
280.614
280.591
280.571
280.564
280.571
280.581
280.547
280.964
281.71
280.91
280.688
280.606
280.565
280.539
280.521
280.507
280.498
280.492
280.489
280.488
280.488
280.49
280.492
280.497
280.503
280.509
280.514
280.517
280.517
280.515
280.509
280.502
280.493
280.486
280.48
280.478
280.478
280.483
280.489
280.498
280.508
280.518
280.527
280.534
280.539
280.541
280.541
280.539
280.538
280.539
280.541
280.538
280.528
280.517
280.51
280.511
280.521
280.538
280.56
280.583
280.603
280.616
280.623
280.626
280.627
280.625
280.619
280.605
280.577
280.532
280.471
280.412
280.395
280.411
280.427
280.439
280.447
280.451
280.45
280.446
280.447
280.47
280.543
280.668
280.81
280.912
280.927
280.844
280.721
280.649
280.64
280.651
280.664
280.676
280.684
280.688
280.687
280.679
280.666
280.649
280.627
280.602
280.581
280.571
280.578
280.59
280.548
280.957
281.717
280.921
280.7
280.617
280.575
280.549
280.531
280.518
280.509
280.504
280.5
280.499
280.5
280.501
280.504
280.51
280.515
280.52
280.522
280.522
280.519
280.513
280.505
280.496
280.488
280.482
280.48
280.481
280.486
280.494
280.504
280.515
280.527
280.538
280.546
280.553
280.556
280.557
280.554
280.55
280.547
280.546
280.544
280.536
280.523
280.512
280.507
280.512
280.525
280.546
280.57
280.594
280.614
280.626
280.632
280.634
280.634
280.633
280.627
280.613
280.586
280.542
280.478
280.412
280.389
280.409
280.426
280.438
280.445
280.448
280.446
280.445
280.451
280.488
280.577
280.708
280.839
280.915
280.899
280.802
280.692
280.644
280.644
280.658
280.672
280.684
280.694
280.699
280.698
280.691
280.678
280.661
280.639
280.614
280.59
280.578
280.586
280.6
280.55
280.951
281.729
280.937
280.717
280.632
280.59
280.563
280.545
280.533
280.525
280.519
280.516
280.515
280.515
280.517
280.52
280.524
280.528
280.53
280.529
280.525
280.518
280.509
280.499
280.49
280.484
280.481
280.483
280.489
280.498
280.51
280.524
280.537
280.549
280.56
280.568
280.573
280.574
280.572
280.567
280.56
280.555
280.55
280.544
280.531
280.516
280.506
280.506
280.515
280.532
280.556
280.583
280.608
280.626
280.636
280.64
280.641
280.641
280.64
280.633
280.619
280.593
280.551
280.486
280.412
280.383
280.407
280.425
280.436
280.442
280.444
280.443
280.444
280.459
280.509
280.61
280.743
280.859
280.909
280.869
280.764
280.672
280.642
280.649
280.664
280.678
280.691
280.701
280.707
280.708
280.701
280.689
280.672
280.651
280.625
280.6
280.586
280.593
280.609
280.554
280.948
281.749
280.961
280.74
280.654
280.61
280.583
280.565
280.553
280.544
280.539
280.535
280.534
280.534
280.535
280.537
280.539
280.54
280.538
280.532
280.524
280.513
280.502
280.491
280.484
280.481
280.484
280.492
280.503
280.518
280.533
280.549
280.563
280.575
280.585
280.591
280.594
280.592
280.587
280.578
280.569
280.561
280.552
280.539
280.522
280.508
280.502
280.507
280.521
280.543
280.571
280.599
280.622
280.638
280.646
280.648
280.649
280.649
280.646
280.639
280.624
280.598
280.557
280.494
280.414
280.375
280.404
280.423
280.433
280.439
280.441
280.441
280.445
280.468
280.531
280.641
280.772
280.872
280.898
280.838
280.733
280.659
280.642
280.653
280.668
280.683
280.696
280.707
280.715
280.716
280.71
280.699
280.682
280.661
280.636
280.609
280.593
280.601
280.62
280.562
280.946
281.775
280.995
280.771
280.683
280.638
280.61
280.592
280.579
280.57
280.563
280.559
280.556
280.555
280.554
280.554
280.552
280.548
280.541
280.531
280.518
280.504
280.491
280.483
280.48
280.484
280.494
280.508
280.525
280.544
280.562
280.578
280.592
280.604
280.611
280.615
280.614
280.609
280.599
280.587
280.576
280.564
280.549
280.53
280.511
280.501
280.501
280.512
280.532
280.559
280.589
280.617
280.638
280.65
280.655
280.656
280.656
280.655
280.652
280.643
280.627
280.601
280.56
280.499
280.416
280.366
280.4
280.42
280.43
280.436
280.438
280.44
280.448
280.479
280.553
280.669
280.795
280.879
280.883
280.809
280.708
280.65
280.643
280.656
280.67
280.685
280.698
280.711
280.72
280.723
280.719
280.708
280.691
280.671
280.647
280.619
280.6
280.608
280.633
280.577
280.946
281.804
281.041
280.814
280.723
280.675
280.646
280.627
280.612
280.602
280.593
280.587
280.582
280.577
280.574
280.569
280.561
280.552
280.539
280.523
280.506
280.491
280.481
280.478
280.484
280.496
280.513
280.534
280.555
280.576
280.595
280.612
280.624
280.633
280.637
280.637
280.632
280.622
280.608
280.593
280.581
280.561
280.538
280.515
280.5
280.496
280.504
280.522
280.548
280.578
280.609
280.636
280.653
280.662
280.664
280.664
280.663
280.662
280.656
280.645
280.627
280.6
280.561
280.502
280.418
280.358
280.392
280.417
280.427
280.432
280.435
280.439
280.452
280.491
280.574
280.694
280.814
280.881
280.866
280.782
280.688
280.644
280.644
280.657
280.671
280.685
280.698
280.712
280.723
280.729
280.726
280.716
280.7
280.681
280.657
280.628
280.607
280.614
280.648
280.609
280.947
281.834
281.099
280.867
280.772
280.723
280.692
280.67
280.653
280.639
280.628
280.617
280.608
280.598
280.589
280.578
280.564
280.548
280.529
280.509
280.491
280.478
280.475
280.482
280.497
280.518
280.543
280.568
280.592
280.614
280.632
280.646
280.656
280.66
280.66
280.656
280.646
280.631
280.613
280.595
280.581
280.55
280.52
280.5
280.493
280.498
280.514
280.538
280.569
280.601
280.631
280.654
280.667
280.671
280.672
280.671
280.67
280.667
280.659
280.645
280.624
280.595
280.557
280.502
280.42
280.352
280.383
280.412
280.424
280.43
280.433
280.439
280.456
280.503
280.593
280.716
280.828
280.88
280.848
280.757
280.672
280.64
280.644
280.657
280.67
280.683
280.697
280.712
280.725
280.734
280.733
280.724
280.708
280.689
280.666
280.638
280.613
280.618
280.662
280.657
280.947
281.867
281.164
280.93
280.832
280.779
280.745
280.72
280.698
280.68
280.662
280.646
280.63
280.614
280.598
280.579
280.558
280.535
280.512
280.49
280.474
280.469
280.477
280.496
280.522
280.551
280.581
280.609
280.634
280.654
280.67
280.68
280.685
280.685
280.68
280.67
280.654
280.634
280.612
280.592
280.578
280.528
280.5
280.491
280.494
280.507
280.53
280.56
280.594
280.627
280.653
280.671
280.678
280.68
280.679
280.678
280.676
280.671
280.659
280.642
280.617
280.587
280.548
280.496
280.416
280.35
280.374
280.407
280.421
280.427
280.431
280.439
280.461
280.515
280.611
280.734
280.838
280.876
280.83
280.736
280.659
280.637
280.643
280.655
280.667
280.679
280.693
280.71
280.726
280.737
280.738
280.73
280.715
280.697
280.675
280.647
280.62
280.62
280.671
280.714
280.949
281.9
281.234
281
280.898
280.841
280.802
280.771
280.744
280.718
280.693
280.668
280.644
280.621
280.595
280.569
280.543
280.515
280.489
280.469
280.462
280.471
280.493
280.524
280.558
280.593
280.625
280.653
280.676
280.693
280.704
280.709
280.709
280.703
280.693
280.677
280.656
280.63
280.604
280.583
280.566
280.502
280.488
280.49
280.503
280.524
280.553
280.587
280.621
280.652
280.673
280.684
280.687
280.687
280.686
280.685
280.681
280.672
280.657
280.635
280.607
280.575
280.536
280.485
280.409
280.356
280.368
280.402
280.417
280.424
280.43
280.44
280.466
280.526
280.627
280.749
280.846
280.87
280.813
280.717
280.649
280.634
280.641
280.652
280.662
280.674
280.689
280.707
280.726
280.739
280.743
280.736
280.722
280.704
280.683
280.657
280.627
280.619
280.671
280.767
280.951
281.935
281.304
281.073
280.966
280.903
280.857
280.819
280.782
280.747
280.713
280.679
280.646
280.614
280.582
280.55
280.519
280.489
280.465
280.454
280.461
280.486
280.522
280.562
280.602
280.638
280.67
280.696
280.715
280.728
280.733
280.732
280.725
280.714
280.698
280.676
280.648
280.617
280.588
280.566
280.543
280.486
280.488
280.5
280.52
280.547
280.581
280.616
280.649
280.674
280.689
280.694
280.695
280.694
280.693
280.691
280.684
280.671
280.651
280.625
280.595
280.559
280.519
280.469
280.409
280.363
280.366
280.396
280.414
280.422
280.429
280.441
280.472
280.536
280.641
280.762
280.851
280.863
280.796
280.701
280.642
280.631
280.638
280.648
280.658
280.669
280.685
280.705
280.726
280.741
280.746
280.741
280.728
280.711
280.691
280.667
280.635
280.617
280.658
280.794
280.953
281.971
281.372
281.144
281.031
280.96
280.905
280.855
280.808
280.762
280.717
280.674
280.633
280.594
280.558
280.523
280.49
280.461
280.444
280.448
280.474
280.515
280.561
280.606
280.647
280.683
280.712
280.735
280.749
280.756
280.754
280.745
280.732
280.715
280.693
280.664
280.63
280.594
280.566
280.542
280.515
280.489
280.499
280.517
280.543
280.575
280.611
280.645
280.673
280.691
280.7
280.702
280.702
280.701
280.7
280.695
280.684
280.667
280.643
280.614
280.581
280.543
280.502
280.456
280.406
280.369
280.368
280.392
280.411
280.42
280.428
280.443
280.478
280.546
280.653
280.773
280.855
280.856
280.782
280.687
280.635
280.628
280.635
280.644
280.653
280.665
280.682
280.703
280.726
280.742
280.748
280.745
280.733
280.716
280.697
280.675
280.645
280.616
280.637
280.772
280.956
282.007
281.434
281.207
281.087
281.005
280.936
280.874
280.814
280.757
280.703
280.652
280.606
280.564
280.526
280.49
280.459
280.436
280.434
280.457
280.5
280.552
280.603
280.649
280.689
280.722
280.749
280.767
280.776
280.775
280.765
280.748
280.728
280.705
280.676
280.639
280.601
280.569
280.542
280.518
280.501
280.5
280.516
280.539
280.571
280.606
280.641
280.671
280.692
280.703
280.708
280.708
280.709
280.708
280.705
280.697
280.683
280.663
280.635
280.603
280.567
280.529
280.488
280.445
280.404
280.374
280.371
280.39
280.408
280.419
280.428
280.446
280.484
280.556
280.665
280.782
280.857
280.849
280.768
280.676
280.63
280.625
280.632
280.64
280.649
280.661
280.68
280.705
280.727
280.743
280.75
280.747
280.736
280.721
280.703
280.683
280.655
280.62
280.617
280.722
280.959
282.041
281.484
281.256
281.126
281.029
280.946
280.869
280.798
280.731
280.671
280.617
280.569
280.527
280.49
280.457
280.43
280.42
280.437
280.479
280.534
280.591
280.642
280.686
280.724
280.755
280.779
280.793
280.795
280.785
280.765
280.739
280.712
280.682
280.646
280.608
280.573
280.545
280.523
280.508
280.505
280.515
280.537
280.566
280.601
280.636
280.668
280.691
280.705
280.712
280.714
280.715
280.716
280.715
280.71
280.7
280.683
280.659
280.629
280.594
280.557
280.517
280.477
280.438
280.404
280.381
280.378
280.391
280.407
280.418
280.429
280.45
280.491
280.567
280.676
280.79
280.859
280.843
280.757
280.667
280.626
280.623
280.629
280.637
280.646
280.66
280.682
280.708
280.73
280.745
280.751
280.748
280.738
280.723
280.706
280.689
280.665
280.629
280.606
280.684
280.963
282.074
281.52
281.286
281.14
281.026
280.928
280.838
280.758
280.687
280.624
280.571
280.526
280.488
280.454
280.425
280.408
280.417
280.452
280.507
280.567
280.624
280.673
280.715
280.751
280.78
280.802
280.811
280.805
280.785
280.753
280.718
280.684
280.649
280.613
280.579
280.552
280.531
280.517
280.513
280.518
280.534
280.56
280.594
280.629
280.662
280.688
280.706
280.715
280.719
280.721
280.722
280.723
280.721
280.715
280.702
280.683
280.657
280.626
280.59
280.551
280.512
280.473
280.437
280.409
280.39
280.386
280.394
280.407
280.419
280.432
280.455
280.501
280.579
280.687
280.798
280.86
280.837
280.748
280.66
280.623
280.622
280.628
280.635
280.646
280.663
280.688
280.713
280.733
280.747
280.752
280.749
280.739