/*--------------------------------*- C++ -*----------------------------------*\
| =========                 |                                                 |
| \\      /  F ield         | OpenFOAM: The Open Source CFD Toolbox           |
|  \\    /   O peration     | Version:  4.1                                   |
|   \\  /    A nd           | Web:      www.OpenFOAM.org                      |
|    \\/     M anipulation  |                                                 |
\*---------------------------------------------------------------------------*/
FoamFile
{
    version     2.0;
    format      ascii;
    class       surfaceScalarField;
    location    "30";
    object      phi;
}
// * * * * * * * * * * * * * * * * * * * * * * * * * * * * * * * * * * * * * //

dimensions      [0 3 -1 0 0 0 0];

internalField   nonuniform List<scalar> 
760
(
-8.68244e-12
8.65594e-12
-4.75901e-12
-3.92295e-12
-2.1417e-12
-2.61883e-12
-1.23363e-12
-9.07577e-13
-7.38886e-13
-4.94148e-13
-3.39512e-13
-3.99595e-13
-7.11828e-14
-2.66813e-13
7.42744e-14
-1.45836e-13
2.64324e-13
-1.89588e-13
2.23221e-13
4.06848e-14
6.22624e-15
2.16141e-13
-1.77945e-13
1.8375e-13
-2.85414e-13
1.07383e-13
-2.98793e-13
1.35486e-14
-1.88983e-13
-1.09254e-13
-3.46546e-14
-1.53706e-13
8.24423e-14
-1.16848e-13
1.01365e-13
-1.91902e-14
4.88438e-14
5.16637e-14
4.82698e-14
3.74994e-12
4.90853e-12
1.58115e-12
-1.75464e-12
2.99786e-13
-1.33508e-12
3.72369e-15
-6.10927e-13
-1.20022e-13
-3.68814e-13
-2.99041e-14
-4.89025e-13
9.00603e-14
-3.85536e-13
2.41943e-13
-2.96335e-13
2.12604e-13
-1.6027e-13
2.78268e-14
2.2545e-13
-1.22007e-13
3.66429e-13
-1.7971e-13
2.421e-13
-2.3906e-13
1.6747e-13
-2.35707e-13
1.06485e-14
-1.26306e-13
-2.18619e-13
-1.37338e-14
-2.65857e-13
8.14359e-14
-2.10945e-13
1.25213e-13
-6.09275e-14
6.59848e-14
1.1393e-13
1.12983e-13
2.64147e-12
2.26448e-12
1.20198e-12
-3.15619e-13
4.87293e-13
-6.20607e-13
1.48566e-13
-2.71881e-13
1.22451e-13
-3.42215e-13
1.84197e-13
-5.50052e-13
1.2146e-13
-3.23905e-13
1.52586e-13
-3.28255e-13
-4.94956e-15
-4.0982e-15
-1.64528e-13
3.83918e-13
-1.92182e-13
3.93284e-13
-1.78024e-13
2.27322e-13
-1.26674e-13
1.15891e-13
-5.53548e-14
-6.09542e-14
-2.38916e-14
-2.5091e-13
-3.5649e-14
-2.55278e-13
-2.93488e-14
-2.18843e-13
1.49984e-14
-1.05991e-13
2.97006e-15
1.26641e-13
1.15754e-13
1.09778e-12
1.16689e-12
6.75152e-13
1.07037e-13
4.28308e-13
-3.75136e-13
2.48107e-13
-9.1445e-14
2.80602e-13
-3.74028e-13
2.39239e-13
-5.08056e-13
2.20445e-13
-3.04502e-13
1.9761e-14
-1.288e-13
-2.01912e-13
2.16493e-13
-2.25488e-13
4.06939e-13
-2.16081e-13
3.83265e-13
-2.15277e-13
2.25652e-13
-8.78427e-14
-1.23787e-14
4.3478e-14
-1.92722e-13
8.25244e-14
-2.90176e-13
4.08191e-14
-2.13815e-13
-6.66373e-14
-1.11675e-13
-7.86327e-14
-9.51585e-14
-5.12694e-14
9.97028e-14
6.43201e-14
7.16453e-13
4.50634e-13
4.58873e-13
3.66082e-13
2.32597e-13
-1.48557e-13
2.74649e-13
-1.32696e-13
2.9283e-13
-3.91998e-13
1.31524e-13
-3.4737e-13
1.32114e-13
-3.04522e-13
-9.51676e-14
9.81553e-14
-2.58121e-13
3.79227e-13
-2.0345e-13
3.52304e-13
-1.74307e-13
3.54258e-13
-1.48696e-13
1.99936e-13
-4.0648e-14
-1.2096e-13
4.35583e-14
-2.77248e-13
7.81437e-14
-3.24986e-13
3.21947e-14
-1.67571e-13
-6.76208e-14
-1.13166e-14
-1.20416e-13
-4.24165e-14
-5.79603e-14
3.70123e-14
6.12801e-15
2.2832e-13
2.21181e-13
2.51004e-13
3.44712e-13
2.28387e-13
-1.2494e-13
2.95453e-13
-1.99279e-13
2.22829e-13
-3.19166e-13
1.44404e-13
-2.68697e-13
-2.89407e-14
-1.32188e-13
-1.92275e-13
2.61544e-13
-2.12411e-13
3.99609e-13
-1.94317e-13
3.34091e-13
-1.32928e-13
2.92906e-13
-3.06649e-14
9.7799e-14
3.68225e-14
-1.88611e-13
5.03618e-14
-2.9098e-13
1.44067e-15
-2.76233e-13
-3.60962e-14
-1.29497e-13
-6.67546e-14
2.01433e-14
-8.7903e-14
-2.12742e-14
-2.09853e-14
-3.00262e-14
-1.48778e-14
5.95163e-15
2.15464e-13
1.94535e-13
1.57231e-13
2.49945e-13
-1.79995e-13
2.45817e-13
-1.95052e-13
1.39117e-13
-2.12688e-13
1.00261e-13
-2.29005e-13
-1.4437e-13
1.12301e-13
-1.9095e-13
3.08917e-13
-1.54219e-13
3.63858e-13
-1.91338e-13
3.7169e-13
-1.07899e-13
2.09836e-13
2.82908e-14
-3.77763e-14
8.52399e-14
-2.44885e-13
6.08855e-14
-2.66198e-13
-4.41537e-14
-1.70808e-13
-8.64281e-14
-8.71539e-14
-7.30458e-14
6.9243e-15
-3.22097e-14
-6.21718e-14
3.27017e-14
-9.49121e-14
1.8044e-14
1.16267e-14
2.03848e-13
1.98327e-13
-2.89384e-14
1.84469e-13
-1.66161e-13
1.80073e-13
-1.90262e-13
1.45895e-13
-1.78304e-13
-4.96788e-14
-3.40089e-14
-1.88365e-13
2.5162e-13
-1.55529e-13
2.76477e-13
-1.40298e-13
3.48944e-13
-1.49886e-13
3.81399e-13
-6.24769e-14
1.22053e-13
1.98136e-14
-1.20571e-13
5.78942e-14
-2.83584e-13
3.00996e-14
-2.38292e-13
-4.34322e-14
-9.67931e-14
-6.2636e-14
-6.77064e-14
-1.40354e-14
-4.14235e-14
4.09793e-14
-1.17356e-13
6.47421e-14
-1.18531e-13
8.32362e-14
2.67612e-14
1.76456e-13
1.70693e-13
-1.73378e-13
1.24119e-13
-1.20014e-13
7.66614e-14
-1.43292e-13
5.07792e-14
-1.5235e-13
-1.54723e-13
1.7098e-13
-1.43225e-13
2.40732e-13
-1.5405e-13
2.87112e-13
-1.71497e-13
3.66117e-13
-9.00918e-14
3.00027e-13
5.77509e-15
2.60549e-14
3.963e-14
-1.5454e-13
-1.16873e-14
-2.32816e-13
-3.568e-14
-2.14934e-13
-3.38806e-14
-9.82262e-14
2.22433e-14
-1.23746e-13
8.08058e-14
-9.98884e-14
7.90404e-14
-1.15541e-13
6.31995e-14
-1.02154e-13
1.47001e-13
3.62866e-14
1.40465e-13
8.05086e-14
-2.17339e-13
8.8092e-14
-1.26928e-13
4.47688e-14
-9.98483e-14
-1.07842e-13
-3.58919e-16
-1.29156e-13
1.92867e-13
-9.22429e-14
2.03919e-13
-1.75115e-13
3.69671e-13
-1.60914e-13
3.51465e-13
-3.26136e-14
1.71398e-13
2.96674e-14
-3.66327e-14
6.45228e-14
-1.89976e-13
5.09969e-15
-1.73067e-13
-1.63148e-14
-1.93459e-13
1.3262e-14
-1.27554e-13
6.76039e-14
-1.78241e-13
1.03575e-13
-1.35658e-13
8.0776e-14
-9.22379e-14
6.23177e-14
-8.29147e-14
2.09798e-13
6.38771e-14
7.68667e-14
1.64293e-14
-1.69971e-13
1.72312e-14
-1.2804e-13
-2.63558e-15
-7.98103e-14
-1.44667e-13
1.41333e-13
-7.55346e-14
1.24152e-13
-1.1498e-13
2.43044e-13
-1.60627e-13
4.1566e-13
-6.97107e-14
2.60777e-13
2.52817e-14
7.62492e-14
5.35952e-14
-6.51478e-14
6.47384e-14
-2.01389e-13
6.19623e-14
-1.69989e-13
5.68151e-14
-1.87944e-13
6.1205e-14
-1.31413e-13
7.51311e-14
-1.91999e-13
8.73033e-14
-1.47383e-13
6.75272e-14
-7.17539e-14
5.37466e-14
-6.84074e-14
2.63868e-13
3.64758e-14
4.07398e-14
2.53331e-14
-1.58291e-13
-1.7984e-15
-1.0113e-13
-8.13624e-14
-7.13306e-16
-8.27326e-14
1.43277e-13
-1.15936e-13
1.56876e-13
-2.18327e-13
3.44783e-13
-1.17077e-13
3.14521e-13
4.42087e-14
9.96645e-14
9.86086e-14
2.21311e-14
1.3394e-13
-1.00437e-13
1.11031e-13
-1.78374e-13
1.06686e-13
-1.65099e-13
1.05641e-13
-1.86179e-13
1.08461e-13
-1.33345e-13
8.39476e-14
-1.67069e-13
5.89323e-14
-1.21917e-13
3.88885e-14
-5.11074e-14
2.74975e-14
-5.64613e-14
2.91555e-13
-7.34571e-16
4.12074e-14
-1.67938e-15
-1.57814e-13
-4.15491e-14
-6.13006e-14
-1.28694e-13
8.60226e-14
-8.30665e-14
9.79326e-14
-1.99248e-13
2.72736e-13
-1.89066e-13
3.35105e-13
-1.1394e-14
1.37284e-13
1.04457e-13
-1.6628e-14
1.57667e-13
-3.15395e-14
1.83507e-13
-1.26118e-13
1.84078e-13
-1.78416e-13
1.708e-13
-1.50949e-13
1.49219e-13
-1.63826e-13
1.20222e-13
-1.03502e-13
6.13688e-14
-1.07753e-13
2.38177e-14
-8.40306e-14
1.71344e-14
-4.40481e-14
3.39463e-15
-4.23932e-14
2.94979e-13
1.84913e-14
2.31294e-14
-2.87851e-14
-1.10511e-13
-1.09894e-13
1.98215e-14
-9.70242e-14
7.36361e-14
-1.32662e-13
1.32964e-13
-1.77995e-13
3.17827e-13
-2.53331e-14
1.82476e-13
1.13487e-13
-1.82096e-15
1.13772e-13
-1.71248e-14
1.851e-13
-1.03298e-13
2.26405e-13
-1.67216e-13
2.33819e-13
-1.85301e-13
1.88946e-13
-1.05263e-13
1.31392e-13
-1.05624e-13
7.72141e-14
-4.86275e-14
2.16546e-14
-5.17766e-14
1.05688e-14
-7.27741e-14
1.76827e-14
-5.10686e-14
-1.16842e-14
-1.29946e-14
2.83174e-13
-7.69135e-15
3.07022e-14
-3.50304e-14
-8.32266e-14
-8.50922e-14
6.9384e-14
-6.33262e-14
5.15325e-14
-1.27858e-13
1.96837e-13
-3.73964e-14
2.28028e-13
9.46398e-14
5.0657e-14
1.43465e-13
-5.1477e-14
1.25039e-13
1.12477e-15
2.09936e-13
-1.8832e-13
2.43324e-13
-2.00413e-13
2.0204e-13
-1.43719e-13
1.11585e-13
-1.42015e-14
4.90678e-14
-4.24888e-14
2.59419e-14
-2.48112e-14
1.23571e-14
-3.78963e-14
2.17289e-14
-8.22866e-14
2.21497e-14
-5.1758e-14
-2.80773e-14
3.69895e-14
2.54904e-13
-3.98757e-14
7.03528e-14
-4.68651e-14
-7.66828e-14
-2.02017e-14
4.2922e-14
-7.48888e-14
1.05866e-13
-3.83709e-14
1.60565e-13
1.3678e-13
5.3283e-14
1.6064e-13
2.68925e-14
1.22944e-13
-1.42462e-14
1.38797e-13
-1.49399e-14
1.76314e-13
-2.25968e-13
1.68471e-13
-1.92482e-13
1.11874e-13
-8.67174e-14
2.55507e-14
7.27765e-14
-2.16981e-14
5.30004e-15
-1.26558e-15
-4.47941e-14
2.59973e-14
-6.51481e-14
3.32235e-14
-8.9985e-14
9.46272e-15
-2.85549e-14
-4.68468e-14
9.29044e-14
2.07877e-13
-3.11626e-14
1.01369e-13
-2.12185e-14
-8.68861e-14
1.60404e-14
6.01357e-15
4.20339e-15
1.17961e-13
9.89815e-14
6.64034e-14
1.74451e-13
-2.25093e-14
1.23096e-13
7.78399e-14
9.35772e-14
1.55187e-14
1.48591e-13
-6.95339e-14
1.29196e-13
-2.06406e-13
5.91857e-14
-1.22628e-13
1.31958e-14
-4.04648e-14
-1.69621e-14
1.03618e-13
-4.0688e-14
2.94136e-14
-1.25766e-14
-7.28563e-14
2.49462e-14
-1.03003e-13
2.17318e-14
-8.74014e-14
-1.56096e-14
8.1794e-15
-5.96857e-14
1.36597e-13
1.48049e-13
-2.94002e-14
1.3067e-13
-6.55042e-15
-1.0963e-13
1.3781e-14
-1.45108e-14
9.82244e-14
3.4073e-14
1.55238e-13
9.81328e-15
9.12976e-14
4.14786e-14
6.60242e-14
1.03192e-13
8.32037e-14
-1.05184e-15
1.33732e-13
-1.19687e-13
8.72776e-14
-1.5969e-13
-7.55606e-15
-2.80197e-14
-5.61741e-14
8.06916e-15
-3.45823e-14
8.24898e-14
-2.65867e-14
2.16858e-14
-1.54748e-14
-8.41645e-14
-3.82093e-15
-1.15186e-13
-2.04639e-14
-7.13986e-14
-5.17398e-14
3.89434e-14
-6.60343e-14
1.5059e-13
8.19232e-14
4.89978e-14
8.20878e-14
1.19729e-14
-7.32503e-14
1.01918e-14
-1.25936e-14
6.79202e-14
-2.35188e-14
7.43845e-14
3.51272e-15
3.82377e-14
7.82383e-14
8.2255e-14
5.98593e-14
1.07655e-13
-2.57587e-14
7.84658e-14
-9.06595e-14
2.18527e-15
-8.35747e-14
-4.82999e-14
2.23237e-14
-6.93994e-14
2.9065e-14
-2.44004e-14
3.77168e-14
-2.39822e-15
-1.75664e-16
-2.33657e-14
-6.34836e-14
-6.14423e-14
-7.7672e-14
-9.85168e-14
-3.48737e-14
-1.0413e-13
4.41666e-14
-6.05206e-14
1.0675e-13
2.13288e-14
8.21964e-14
9.34484e-15
-2.85329e-15
-2.64109e-14
-2.28321e-14
5.59627e-14
1.16157e-13
9.05359e-14
-5.07082e-16
-8.43988e-14
-6.1986e-14
-3.27593e-14
5.03697e-15
4.75885e-15
-5.90149e-14
-1.37017e-13
-1.72108e-13
-1.28028e-13
-2.13318e-14
)
;

boundaryField
{
    floor
    {
        type            calculated;
        value           uniform 0;
    }
    ceiling
    {
        type            calculated;
        value           uniform 0;
    }
    fixedWalls
    {
        type            calculated;
        value           uniform 0;
    }
    frontAndBack
    {
        type            empty;
        value           nonuniform 0();
    }
}


// ************************************************************************* //
