/*--------------------------------*- C++ -*----------------------------------*\
| =========                 |                                                 |
| \\      /  F ield         | OpenFOAM: The Open Source CFD Toolbox           |
|  \\    /   O peration     | Version:  4.1                                   |
|   \\  /    A nd           | Web:      www.OpenFOAM.org                      |
|    \\/     M anipulation  |                                                 |
\*---------------------------------------------------------------------------*/
FoamFile
{
    version     2.0;
    format      ascii;
    class       volScalarField;
    location    "1260";
    object      mag(U);
}
// * * * * * * * * * * * * * * * * * * * * * * * * * * * * * * * * * * * * * //

dimensions      [0 1 -1 0 0 0 0];

internalField   nonuniform List<scalar> 
5000
(
0.00541186
0.00631703
0.00770562
0.00843641
0.0088727
0.00915525
0.00933466
0.00942406
0.00942047
0.00931183
0.00908256
0.00871805
0.00820883
0.00755077
0.00674586
0.00580335
0.00474035
0.00358258
0.0023774
0.00127297
0.00094613
0.0020045
0.00317465
0.00430971
0.00535986
0.00630216
0.00713077
0.00785047
0.00847127
0.00900469
0.00946197
0.0098536
0.0101891
0.0104769
0.0107244
0.010938
0.0111233
0.0112849
0.011427
0.0115532
0.0116664
0.0117693
0.0118641
0.0119528
0.0120368
0.0121173
0.0121951
0.0122707
0.0123443
0.0124157
0.0124846
0.0125504
0.0126123
0.0126698
0.012722
0.0127687
0.0128093
0.0128433
0.0128699
0.0128869
0.0128918
0.0128792
0.0128405
0.0127654
0.0126424
0.012459
0.0122024
0.0118603
0.0114222
0.0108814
0.0102373
0.00949819
0.00868451
0.00783002
0.00698109
0.00619194
0.00551593
0.00499469
0.00464862
0.00447124
0.00445098
0.00452171
0.00462496
0.0047287
0.00481602
0.00488128
0.00492505
0.00494977
0.00495983
0.00495932
0.00495408
0.0049508
0.00495602
0.00497602
0.00501364
0.00506434
0.00511262
0.00511268
0.00473733
0.00468242
0.00757404
0.00613357
0.0070569
0.00782249
0.00837621
0.00876447
0.00902122
0.00915864
0.00917751
0.00907456
0.00885045
0.0084949
0.00800366
0.00737717
0.00662208
0.00575357
0.00479857
0.00380305
0.00286023
0.00218836
0.00210377
0.00269483
0.0035116
0.00441234
0.00530635
0.00614577
0.00690972
0.00759276
0.00819783
0.0087316
0.00920199
0.009617
0.0099842
0.0103105
0.010602
0.0108641
0.0111014
0.0113181
0.0115175
0.011703
0.0118772
0.0120426
0.012201
0.0123543
0.0125036
0.0126497
0.0127932
0.012934
0.0130718
0.013206
0.0133355
0.0134591
0.0135758
0.0136843
0.0137837
0.0138731
0.013952
0.01402
0.0140763
0.0141191
0.0141439
0.0141457
0.0141214
0.0140671
0.0139787
0.013852
0.0136832
0.0134694
0.0132097
0.0129058
0.012564
0.0121947
0.0118138
0.0114407
0.0110967
0.0108014
0.0105686
0.0104022
0.0102943
0.010228
0.0101656
0.0100968
0.0100262
0.00995254
0.00986999
0.00977206
0.00965494
0.00951819
0.00936254
0.00919202
0.00901052
0.00882098
0.00862503
0.00841993
0.00819675
0.00793391
0.00758247
0.00701516
0.00594431
0.00734802
0.0105334
0.00656877
0.00604884
0.00650009
0.00708183
0.00757275
0.0079383
0.00817198
0.00827174
0.0082333
0.0080738
0.00779741
0.00740731
0.00690945
0.00631617
0.00564994
0.00494737
0.00426538
0.00369317
0.00335578
0.00332735
0.00358216
0.00400035
0.00455311
0.00517212
0.00580044
0.00640278
0.00696122
0.00746928
0.00792699
0.00833753
0.00870544
0.00903568
0.00933312
0.00960232
0.00984742
0.0100722
0.0102799
0.0104737
0.0106564
0.0108305
0.0109983
0.0111617
0.0113224
0.0114817
0.0116403
0.0117988
0.0119572
0.0121149
0.0122711
0.0124246
0.0125738
0.0127169
0.0128518
0.0129761
0.0130873
0.0131829
0.0132602
0.0133171
0.0133524
0.0133658
0.0133579
0.0133308
0.013287
0.0132288
0.0131584
0.0130786
0.0129918
0.012901
0.012809
0.0127188
0.0126329
0.0125526
0.0124773
0.0124037
0.0123256
0.0122339
0.0121184
0.0119699
0.0117844
0.0115679
0.0113339
0.0110952
0.0108581
0.0106246
0.0103939
0.0101628
0.00992695
0.0096817
0.00942209
0.00914341
0.00884137
0.00851161
0.00814847
0.00774187
0.00727076
0.00668994
0.00597024
0.0057283
0.0105954
0.0131632
0.00756087
0.0057617
0.00570314
0.00612313
0.00656478
0.00692168
0.00716655
0.00729755
0.0073167
0.00723507
0.00706761
0.00681866
0.00649747
0.0061193
0.00570699
0.00529116
0.00490977
0.00460784
0.00443174
0.00438537
0.00442482
0.00453375
0.00475121
0.0050624
0.00543299
0.00582884
0.00622506
0.00660679
0.00696664
0.00730181
0.00761205
0.00789861
0.00816347
0.00840892
0.00863731
0.00885097
0.00905223
0.00924337
0.00942665
0.00960422
0.00977812
0.00995017
0.010122
0.0102947
0.0104692
0.010646
0.0108248
0.0110052
0.0111861
0.011366
0.0115431
0.0117153
0.0118803
0.0120354
0.0121778
0.0123049
0.0124139
0.0125025
0.012569
0.0126136
0.0126355
0.0126363
0.012619
0.0125878
0.0125476
0.0125039
0.0124628
0.0124296
0.0124083
0.0124001
0.0124027
0.0124096
0.0124102
0.0123918
0.0123412
0.012248
0.012107
0.0119198
0.0116953
0.0114474
0.011191
0.0109374
0.0106911
0.0104519
0.010216
0.00997767
0.00973017
0.00946631
0.00917851
0.00885917
0.008501
0.00809711
0.00764089
0.00712596
0.00654787
0.00592155
0.00545431
0.00646883
0.0135978
0.0152565
0.00854785
0.00591499
0.00534576
0.0054666
0.00572933
0.00598457
0.00618564
0.00632238
0.00639767
0.00640914
0.00637418
0.00629677
0.00618579
0.00605237
0.00590768
0.00576095
0.00561981
0.00549252
0.00538859
0.00530079
0.00518583
0.0050595
0.00498443
0.00498822
0.00507369
0.00522504
0.00542224
0.00564744
0.0058871
0.00613175
0.00637505
0.00661319
0.00684423
0.00706734
0.00728241
0.00748986
0.00769059
0.00788579
0.00807696
0.00826572
0.00845374
0.00864263
0.00883383
0.00902848
0.0092273
0.00943058
0.00963806
0.00984894
0.0100619
0.0102752
0.0104866
0.0106936
0.0108936
0.0110838
0.0112612
0.0114231
0.0115671
0.0116911
0.0117935
0.0118742
0.0119352
0.0119744
0.0119947
0.0119999
0.0119941
0.0119825
0.0119705
0.0119631
0.0119635
0.0119724
0.0119865
0.0119988
0.011999
0.0119757
0.0119185
0.011821
0.011682
0.0115057
0.0113007
0.0110776
0.0108466
0.0106148
0.0103854
0.0101579
0.00992898
0.00969364
0.00944538
0.0091767
0.00887933
0.00854462
0.00816405
0.00773011
0.00723787
0.0066888
0.006103
0.00556572
0.00549549
0.00749941
0.0160526
0.0169538
0.0094082
0.00624495
0.00527422
0.00506399
0.00507809
0.0051679
0.00528115
0.0054013
0.00552658
0.00563861
0.00574911
0.00585953
0.00597255
0.00608641
0.00619115
0.00627042
0.00630741
0.00629051
0.00621534
0.00607905
0.0058548
0.00555453
0.00524668
0.00497866
0.004785
0.00467436
0.00464389
0.00468324
0.00477819
0.0049144
0.00507899
0.0052619
0.00545605
0.00565653
0.00585986
0.00606399
0.00626798
0.0064717
0.0066757
0.00688098
0.00708881
0.00730054
0.00751744
0.00774051
0.00797033
0.00820699
0.00844994
0.00869804
0.00894956
0.00920224
0.00945344
0.00970022
0.0099395
0.0101682
0.0103832
0.0105819
0.0107617
0.0109208
0.011058
0.0111726
0.0112667
0.0113414
0.0113965
0.0114353
0.0114613
0.0114784
0.0114906
0.0115015
0.0115132
0.0115258
0.0115367
0.0115404
0.0115295
0.0114963
0.0114339
0.0113387
0.0112105
0.0110529
0.010872
0.0106751
0.0104693
0.0102593
0.0100475
0.00983362
0.00961491
0.00938701
0.00914414
0.00887939
0.00858506
0.00825305
0.00787569
0.00744726
0.00696714
0.00644728
0.00593261
0.00556339
0.00587666
0.00854728
0.0181084
0.0183818
0.0101482
0.0066197
0.00536347
0.00486351
0.00461881
0.00451088
0.00450202
0.00457993
0.00474217
0.00495536
0.0052121
0.00551066
0.00584187
0.00618421
0.00650364
0.00676245
0.00692912
0.00698387
0.00691915
0.00673618
0.00643733
0.0060259
0.00555539
0.00508402
0.00466167
0.0043153
0.00405724
0.0038937
0.00381999
0.00382388
0.00388967
0.00400217
0.0041488
0.00431967
0.00450686
0.00470508
0.00491098
0.00512274
0.00533975
0.00556229
0.00579118
0.00602747
0.00627224
0.0065263
0.00679004
0.0070632
0.00734485
0.00763333
0.00792632
0.00822097
0.00851401
0.00880199
0.00908136
0.00934869
0.00960079
0.00983483
0.0100485
0.01024
0.0104083
0.010553
0.0106743
0.0107769
0.0108594
0.0109244
0.0109747
0.0110134
0.0110434
0.011067
0.0110858
0.0110995
0.0111062
0.0111021
0.0110824
0.0110422
0.0109773
0.0108857
0.010768
0.0106267
0.0104664
0.0102921
0.0101085
0.00991884
0.00972467
0.0095254
0.00931877
0.00910106
0.00886745
0.00861225
0.00832932
0.00801253
0.00765684
0.00726031
0.00682834
0.00638336
0.00598959
0.0058174
0.00644621
0.0095708
0.0199072
0.0196108
0.0107829
0.00698177
0.00553013
0.00480968
0.00434182
0.00404228
0.00389981
0.00391503
0.00408716
0.00438625
0.00477333
0.00524332
0.00577078
0.00631049
0.00680596
0.00720438
0.00746696
0.00757213
0.00751432
0.0073004
0.00694606
0.00647687
0.00593363
0.00535034
0.0047821
0.00427794
0.00384712
0.00350546
0.00326169
0.00311338
0.00304977
0.00305966
0.00312961
0.00324636
0.00339752
0.00357408
0.0037694
0.00397916
0.00420104
0.00443416
0.00467859
0.00493489
0.00520378
0.00548577
0.00578088
0.0060884
0.0064068
0.00673374
0.00706615
0.00740044
0.00773268
0.00805881
0.00837486
0.00867708
0.00896212
0.00922714
0.00946984
0.0096886
0.0098825
0.0100513
0.0101955
0.0103161
0.0104184
0.0105013
0.0105678
0.0106203
0.0106611
0.0106919
0.0107139
0.0107269
0.0107295
0.0107196
0.010694
0.0106499
0.010585
0.0104986
0.0103913
0.0102654
0.0101239
0.00997031
0.00980746
0.00963728
0.00946032
0.0092757
0.00908136
0.00887432
0.00865097
0.00840744
0.00813998
0.0078456
0.00752323
0.00717592
0.00681553
0.00647277
0.00622261
0.00624347
0.00711794
0.0105659
0.0215259
0.0206849
0.0113278
0.00731152
0.00572852
0.00485345
0.0042171
0.00376297
0.00350577
0.00345822
0.00361116
0.00395516
0.00443872
0.00504829
0.00573909
0.00644012
0.00707542
0.00758211
0.00791835
0.00806408
0.00801837
0.00779525
0.00741979
0.00692568
0.00635529
0.00575145
0.00515302
0.00458873
0.00407949
0.00363684
0.00326791
0.00298743
0.00278562
0.00266097
0.00261171
0.00262798
0.00269985
0.00281757
0.0029715
0.00315424
0.00336066
0.00358769
0.00383377
0.00409832
0.00438126
0.00468242
0.00500118
0.00533609
0.00568477
0.00604394
0.00640964
0.00677738
0.00714249
0.00750035
0.00784658
0.00817722
0.00848882
0.00877855
0.00904422
0.00928433
0.00949805
0.00968525
0.00984646
0.00998256
0.0100964
0.0101907
0.0102666
0.0103265
0.0103726
0.0104063
0.0104286
0.0104397
0.0104391
0.0104254
0.0103972
0.010353
0.0102917
0.0102133
0.0101185
0.0100088
0.00988623
0.00975254
0.00960912
0.00945655
0.00929449
0.00912178
0.00893667
0.00873715
0.00852126
0.00828754
0.00803541
0.00776586
0.00748258
0.00719401
0.00691758
0.00668879
0.00658503
0.00677883
0.00784251
0.0115325
0.0230081
0.0216379
0.0118011
0.0076099
0.00594031
0.00496111
0.00420755
0.00364744
0.00331481
0.00322196
0.00334399
0.00367668
0.00420905
0.00491642
0.00573216
0.00655839
0.00730218
0.0078935
0.00828956
0.0084733
0.00844943
0.00823909
0.00787455
0.00739489
0.00684209
0.00625574
0.00567008
0.00511103
0.00459418
0.004128
0.00371566
0.00335977
0.00306192
0.00281897
0.00264248
0.00253268
0.00248739
0.00250409
0.0025757
0.00269537
0.0028561
0.00305206
0.00327919
0.00353487
0.00381753
0.00412579
0.00445785
0.00481102
0.00518163
0.00556511
0.00595625
0.00634953
0.0067395
0.00712098
0.00748933
0.00784052
0.0081712
0.00847873
0.00876111
0.00901702
0.00924576
0.00944721
0.00962182
0.00977053
0.00989451
0.00999744
0.0100805
0.0101459
0.0101955
0.0102312
0.0102541
0.0102648
0.0102635
0.0102499
0.0102234
0.0101834
0.0101297
0.0100623
0.00998169
0.00988848
0.00978336
0.00966678
0.00953873
0.00939874
0.00924588
0.00907898
0.00889696
0.00869916
0.00848572
0.00825801
0.00801913
0.00777447
0.00753265
0.00730705
0.00711902
0.00700509
0.00703902
0.00738141
0.00859302
0.0124737
0.0243849
0.0224969
0.0122215
0.00788731
0.00616274
0.00511391
0.00428208
0.00366073
0.00329528
0.00317785
0.00325786
0.00354116
0.00407427
0.00483707
0.00573957
0.00665798
0.00748441
0.00814305
0.00859093
0.00881445
0.00882374
0.00864565
0.00831683
0.00787799
0.0073692
0.006826
0.00627695
0.0057425
0.00523534
0.00476246
0.00432761
0.00393411
0.00358422
0.00327915
0.00302145
0.00281357
0.0026563
0.00256512
0.00253621
0.00256895
0.00265906
0.002801
0.00298933
0.00321955
0.0034884
0.00379286
0.00412933
0.00449317
0.00487871
0.00527946
0.00568858
0.00609931
0.00650535
0.00690116
0.00728206
0.00764426
0.00798486
0.00830168
0.00859324
0.0088586
0.00909732
0.0093094
0.0094952
0.00965546
0.00979119
0.00990404
0.00999649
0.01007
0.0101265
0.0101679
0.0101955
0.0102105
0.0102136
0.0102051
0.0101852
0.0101536
0.0101103
0.0100552
0.00998807
0.00990867
0.00981655
0.00971102
0.00959116
0.00945591
0.00930425
0.0091355
0.00894965
0.00874774
0.0085323
0.00830777
0.00808096
0.00786161
0.00766283
0.00750192
0.00740215
0.00739809
0.00755648
0.00802504
0.00935585
0.0133947
0.0256802
0.0232828
0.012605
0.00815629
0.00639919
0.00530234
0.00441913
0.00377164
0.00340642
0.00327765
0.00330628
0.0035186
0.00401542
0.0047974
0.00575282
0.00673532
0.00762392
0.00833754
0.0088331
0.00910009
0.009153
0.00902229
0.00874608
0.00836369
0.00791141
0.00741977
0.00691242
0.00640625
0.0059124
0.00543808
0.0049882
0.00456688
0.00417773
0.00382424
0.00351112
0.00324338
0.00302307
0.00285059
0.00273396
0.00268305
0.00269812
0.00277735
0.00291731
0.00311337
0.0033616
0.00365734
0.00399464
0.00436602
0.0047629
0.00517618
0.00559699
0.00601719
0.00642981
0.00682922
0.0072111
0.00757235
0.00791093
0.00822561
0.00851577
0.00878125
0.00902217
0.00923886
0.0094318
0.00960159
0.00974895
0.0098748
0.00998054
0.0100675
0.0101369
0.0101905
0.0102298
0.0102559
0.0102699
0.0102723
0.0102635
0.0102433
0.0102116
0.0101678
0.0101111
0.0100405
0.00995476
0.00985255
0.00973262
0.00959392
0.00943592
0.00925889
0.00906425
0.00885502
0.00863616
0.00841509
0.00820212
0.00801072
0.00785764
0.00776271
0.00774925
0.00784787
0.00811724
0.00869364
0.0101241
0.0143004
0.0269119
0.024011
0.0129644
0.00842792
0.00665376
0.00552112
0.00460486
0.00395645
0.00361004
0.00347261
0.00344285
0.00357332
0.00401099
0.00478364
0.00576398
0.0067879
0.00772292
0.00848289
0.00902418
0.00933848
0.00944307
0.00936995
0.00915635
0.00883839
0.00844769
0.00800994
0.00754491
0.00706723
0.00658753
0.00611371
0.00565204
0.00520801
0.00478682
0.00439381
0.00403497
0.00371645
0.00344385
0.00322253
0.00305524
0.0029407
0.00289379
0.00291743
0.00301246
0.00317669
0.00340745
0.0036983
0.0040401
0.00442143
0.0048299
0.00525328
0.00568055
0.00610242
0.0065116
0.00690284
0.00727269
0.00761922
0.00794169
0.00824024
0.00851552
0.00876849
0.00900019
0.00921162
0.00940363
0.00957693
0.0097321
0.0098696
0.00999
0.0100937
0.0101811
0.0102531
0.0103105
0.0103543
0.0103852
0.0104036
0.0104095
0.0104027
0.0103826
0.0103481
0.010298
0.0102309
0.0101453
0.0100397
0.00991323
0.00976532
0.00959643
0.00940816
0.00920364
0.00898792
0.00876834
0.00855501
0.00836114
0.00820312
0.00810013
0.00807305
0.0081438
0.00833804
0.00870662
0.00937675
0.0108936
0.0151942
0.0280931
0.0246931
0.0133094
0.00871077
0.00692929
0.00576678
0.00483044
0.0041973
0.00387481
0.00372389
0.00363237
0.00367649
0.00404215
0.00478269
0.0057651
0.00681241
0.00778193
0.00858217
0.00916818
0.00953265
0.00969414
0.00968448
0.0095387
0.00928902
0.0089624
0.00858033
0.00815954
0.00771297
0.00725085
0.00678148
0.00631203
0.00584912
0.00539943
0.00497022
0.0045695
0.00420574
0.00388711
0.00362097
0.00341332
0.00326688
0.00318148
0.00316586
0.00322817
0.00337087
0.00359539
0.00389283
0.004249
0.00464697
0.00506983
0.00550225
0.00593139
0.00634739
0.00674327
0.00711473
0.00745968
0.0077778
0.00807006
0.00833822
0.0085845
0.00881124
0.00902061
0.00921454
0.00939453
0.00956165
0.00971653
0.00985942
0.00999042
0.0101092
0.0102149
0.0103071
0.0103858
0.0104509
0.0105022
0.0105394
0.0105621
0.0105695
0.0105603
0.0105334
0.0104871
0.01042
0.0103307
0.0102182
0.0100822
0.00992331
0.00974324
0.00954516
0.00933404
0.0091169
0.00890324
0.00870539
0.00853876
0.00842169
0.00837451
0.00841786
0.0085712
0.00885503
0.00931334
0.0100667
0.0116613
0.016078
0.0292335
0.0253377
0.0136474
0.00901111
0.00722721
0.00603702
0.00508999
0.00447999
0.0041765
0.00400405
0.00385048
0.00380886
0.00409354
0.00478266
0.00574774
0.00680384
0.00779866
0.0086347
0.00926458
0.00968073
0.00990172
0.0099583
0.00988284
0.00970369
0.00944374
0.00912083
0.00874901
0.00833954
0.00790171
0.00744349
0.0069721
0.00649471
0.00601924
0.00555496
0.00511274
0.00470442
0.00434165
0.00403454
0.00379086
0.00361567
0.00351196
0.00347986
0.00352647
0.00366185
0.00389496
0.00421386
0.00459658
0.00501877
0.00545882
0.00589883
0.00632504
0.00672774
0.007101
0.00744202
0.00775055
0.00802823
0.00827797
0.00850337
0.00870835
0.0088967
0.00907187
0.00923675
0.00939359
0.00954396
0.00968871
0.00982807
0.00996165
0.0100891
0.0102083
0.0103176
0.0104157
0.0105011
0.0105726
0.0106287
0.010668
0.010689
0.01069
0.0106693
0.0106254
0.0105569
0.010463
0.0103434
0.0101989
0.0100312
0.0098438
0.00964138
0.00943071
0.00922062
0.00902241
0.00885008
0.00872046
0.00865285
0.00866767
0.00878424
0.00901904
0.00938762
0.00992832
0.0107573
0.0124241
0.0169526
0.0303403
0.0259516
0.0139844
0.00933348
0.00754825
0.00633058
0.00537917
0.00479239
0.0044967
0.00429432
0.00408059
0.00395635
0.00415171
0.00477184
0.0057026
0.00675509
0.00776779
0.00863608
0.00930882
0.00977691
0.0100581
0.0101818
0.0101778
0.0100712
0.0098815
0.00962319
0.00930768
0.00894411
0.0085401
0.00810231
0.00763706
0.00715129
0.00665365
0.00615546
0.00567098
0.00521652
0.00480845
0.00446083
0.0041839
0.0039842
0.00386572
0.00383081
0.00387923
0.00402478
0.0042821
0.00463615
0.00505516
0.00550623
0.00596348
0.0064075
0.00682458
0.00720602
0.00754751
0.00784824
0.00811017
0.00833716
0.00853425
0.00870704
0.00886116
0.0090019
0.00913388
0.00926095
0.00938604
0.00951113
0.00963731
0.00976477
0.0098929
0.0100206
0.0101463
0.0102664
0.0103784
0.0104797
0.0105676
0.0106395
0.010693
0.0107256
0.0107351
0.0107197
0.0106777
0.0106082
0.010511
0.0103868
0.0102376
0.0100666
0.00987869
0.0096803
0.00947972
0.00928728
0.00911556
0.00897963
0.00889702
0.00888711
0.00896956
0.00916177
0.00947704
0.00992651
0.010544
0.0114431
0.0131788
0.0178176
0.0314189
0.02654
0.0143257
0.00968139
0.00789306
0.00664722
0.00569434
0.00512405
0.00482158
0.00458141
0.00431028
0.0041074
0.00420479
0.00473991
0.00562
0.00665732
0.00768133
0.00857882
0.00929323
0.00981268
0.0101536
0.010344
0.0104121
0.0103804
0.0102653
0.0100785
0.00982835
0.00952148
0.00916299
0.00875724
0.00830866
0.00782307
0.00730915
0.00677995
0.00625334
0.00575093
0.0052951
0.00490529
0.00459544
0.00437388
0.00424526
0.00421228
0.00427563
0.00444357
0.00474104
0.00514014
0.00559944
0.00607868
0.00654887
0.00699022
0.00738996
0.00774101
0.0080411
0.0082918
0.00849753
0.00866464
0.00880049
0.00891273
0.00900877
0.00909533
0.00917816
0.00926188
0.00934991
0.00944453
0.00954684
0.00965692
0.00977386
0.00989579
0.0100212
0.0101455
0.010265
0.0103762
0.0104751
0.0105581
0.0106216
0.0106627
0.0106785
0.0106671
0.010627
0.0105577
0.01046
0.0103356
0.0101877
0.0100209
0.00984152
0.00965725
0.00947764
0.00931406
0.00917988
0.00909064
0.00906393
0.00911861
0.00927305
0.00954244
0.00993702
0.0104641
0.011154
0.0121194
0.0139223
0.0186721
0.0324728
0.0271076
0.0146761
0.0100578
0.0082628
0.00698761
0.00603231
0.00546633
0.00514099
0.00485553
0.00452945
0.00425258
0.00424584
0.00467926
0.0054909
0.00650049
0.00752929
0.0084532
0.00920811
0.00977799
0.0101774
0.0104338
0.0105742
0.0106195
0.0105838
0.0104758
0.010301
0.0100627
0.0097628
0.00940259
0.00898366
0.00850971
0.0079886
0.00743439
0.00686832
0.00631765
0.00581186
0.00537735
0.00503325
0.00479076
0.00465548
0.00463011
0.00471547
0.00491434
0.00526169
0.00571022
0.00620727
0.00670835
0.00718308
0.00761221
0.00798443
0.00829464
0.0085429
0.00873337
0.00887325
0.00897158
0.00903826
0.00908311
0.00911534
0.00914306
0.00917302
0.00921046
0.00925909
0.00932117
0.00939762
0.00948812
0.00959122
0.00970449
0.009825
0.00994942
0.0100716
0.0101874
0.0102921
0.0103812
0.0104505
0.0104965
0.0105162
0.0105078
0.0104701
0.0104034
0.0103092
0.0101904
0.0100512
0.00989758
0.00973666
0.00957717
0.00942939
0.0093052
0.00921831
0.00918426
0.00922027
0.00934437
0.0095734
0.00992035
0.0103927
0.0109944
0.0117532
0.012782
0.0146515
0.0195146
0.0335047
0.0276582
0.0150407
0.0104655
0.00865932
0.00735316
0.00639052
0.0058129
0.00544813
0.00510956
0.00472966
0.00438383
0.00426957
0.00458238
0.00530667
0.00627378
0.00730027
0.00824804
0.00904267
0.00966216
0.0101188
0.0104396
0.010652
0.010776
0.0108239
0.0108019
0.0107122
0.0105545
0.0103271
0.0100272
0.00965296
0.00920499
0.00868932
0.00812002
0.00752088
0.00692459
0.00636835
0.00588697
0.00550664
0.00524294
0.00510322
0.00508998
0.00520233
0.00543916
0.00583682
0.00633212
0.00685868
0.00737098
0.00783885
0.00824418
0.0085773
0.00883517
0.00902032
0.00913979
0.00920381
0.00922444
0.0092143
0.00918554
0.0091492
0.00911473
0.00908973
0.00907988
0.00908893
0.00911886
0.00917005
0.00924149
0.00933095
0.00943518
0.00954989
0.00967209
0.00979411
0.00991095
0.0100176
0.010109
0.0101808
0.0102292
0.0102516
0.0102463
0.0102129
0.0101524
0.0100673
0.00996124
0.00983948
0.00970853
0.0095762
0.00945163
0.00934533
0.00926929
0.00923716
0.00926425
0.00936728
0.00956328
0.00986766
0.0102913
0.0108392
0.0115127
0.0123372
0.0134271
0.0153635
0.0203432
0.0345163
0.0281957
0.0154245
0.010907
0.00908505
0.00774578
0.00676736
0.00616012
0.00573958
0.00533917
0.00490427
0.00449448
0.00427397
0.00444352
0.00505919
0.00596655
0.00698238
0.00795147
0.00878566
0.00945457
0.00996717
0.0103507
0.0106338
0.010837
0.0109717
0.0110416
0.0110458
0.0109803
0.0108389
0.0106148
0.0103017
0.00989653
0.00940233
0.00883198
0.00821057
0.00757528
0.006971
0.00644209
0.00602377
0.00573796
0.00559485
0.00559657
0.00573933
0.00601653
0.00645945
0.00699182
0.00753548
0.00804583
0.0084939
0.00886285
0.00914457
0.00933799
0.00944825
0.00948552
0.00946348
0.00939756
0.00930335
0.00919546
0.00908677
0.00898795
0.00890734
0.00885077
0.00882176
0.00882168
0.00885001
0.00890472
0.00898245
0.00907889
0.00918876
0.0093074
0.00942861
0.00954503
0.00965168
0.00974359
0.00981643
0.00986687
0.00989267
0.00989287
0.00986784
0.00981931
0.00975037
0.00966543
0.00957012
0.00947122
0.00937664
0.00929549
0.00923813
0.00921642
0.00924377
0.00933522
0.00950698
0.00977523
0.0101541
0.0106525
0.0112733
0.0120154
0.0129027
0.0140517
0.0160554
0.021156
0.0355084
0.0287237
0.0158324
0.0113842
0.00954239
0.00816726
0.00716206
0.00650702
0.00601542
0.00554357
0.00504946
0.00457897
0.00425858
0.00427443
0.00474745
0.00557144
0.00656419
0.00755134
0.00842584
0.00914511
0.00971307
0.0101572
0.0105085
0.0107897
0.0110123
0.0111784
0.0112837
0.0113203
0.0112779
0.0111449
0.0109103
0.0105665
0.0101127
0.00955922
0.0089309
0.00826787
0.00762185
0.00704724
0.00659016
0.00628115
0.00613462
0.00615228
0.00632604
0.00664175
0.00712023
0.00767553
0.00822158
0.00871583
0.00913078
0.00945069
0.00966865
0.00978546
0.00980901
0.00975301
0.00963505
0.00947435
0.00928977
0.00909847
0.00891509
0.0087514
0.00861615
0.00851507
0.00845104
0.00842441
0.00843342
0.00847461
0.00854325
0.00863374
0.00873997
0.00885517
0.00897562
0.00909143
0.00919782
0.00929047
0.00936547
0.00942014
0.00945297
0.00946369
0.00945331
0.00942411
0.00937955
0.00932423
0.0092638
0.00920489
0.00915517
0.00912343
0.00911975
0.00915572
0.00924457
0.00940111
0.00964118
0.00998032
0.0104314
0.0110019
0.0116924
0.0124998
0.0134468
0.0146529
0.0167247
0.0219511
0.0364816
0.0292452
0.0162681
0.0118972
0.0100325
0.0086182
0.00757397
0.00685441
0.00627865
0.00572585
0.00516561
0.00463368
0.00422165
0.00408264
0.00437911
0.00508512
0.00603524
0.00703541
0.007952
0.00872445
0.0093484
0.00985088
0.0102667
0.0106227
0.0109319
0.0111956
0.0114069
0.0115538
0.0116217
0.0115943
0.0114555
0.0111927
0.0108005
0.0102853
0.00966984
0.00899524
0.00831843
0.00770341
0.00720854
0.00687529
0.00672411
0.0067564
0.00695857
0.00730694
0.00780785
0.00837003
0.0089032
0.00936745
0.00973658
0.00999543
0.0101379
0.0101665
0.0100922
0.00993273
0.00971019
0.00944807
0.00916875
0.00889193
0.00863384
0.00840702
0.00822026
0.00807869
0.00798411
0.00793539
0.00792908
0.00796002
0.00802198
0.00810812
0.00821146
0.00832473
0.00844348
0.00855955
0.00866725
0.00876297
0.00884359
0.00890713
0.00895275
0.00898068
0.00899231
0.00899007
0.00897746
0.00895891
0.0089398
0.00892639
0.00892593
0.00894683
0.00899886
0.0090934
0.00924358
0.00946415
0.00977074
0.0101783
0.0106987
0.0113379
0.0120945
0.0129636
0.0139671
0.0152283
0.0173688
0.0227264
0.0374357
0.0297626
0.0167328
0.012443
0.0105534
0.00909618
0.00800056
0.00720249
0.00653274
0.00589169
0.00525847
0.00466174
0.00416535
0.00387896
0.00396109
0.00451052
0.00538759
0.00639183
0.00735301
0.008184
0.0088669
0.00942639
0.00990198
0.0103269
0.0107184
0.0110783
0.0113973
0.0116602
0.0118477
0.0119388
0.0119125
0.0117507
0.0114426
0.0109897
0.0104109
0.00974584
0.00905433
0.00840852
0.00787927
0.00752104
0.00736245
0.00740543
0.00763011
0.00800236
0.00850995
0.00906326
0.0095691
0.00999056
0.0103024
0.0104894
0.0105459
0.0104761
0.0102944
0.0100232
0.0096898
0.00932248
0.00894724
0.00858615
0.00825665
0.00797148
0.00773884
0.00756267
0.00744308
0.00737699
0.00735897
0.00738209
0.00743869
0.007521
0.00762152
0.00773319
0.00784979
0.00796841
0.00808006
0.00818247
0.00827347
0.00835147
0.00841597
0.00846744
0.0085073
0.00853791
0.00856254
0.00858532
0.00861124
0.00864612
0.00869679
0.00877127
0.00887909
0.00903153
0.00924171
0.00952438
0.00989506
0.0103682
0.0109547
0.0116589
0.0124778
0.0134047
0.0144612
0.0157752
0.0179852
0.0234795
0.0383703
0.0302765
0.0172236
0.0130136
0.011098
0.00959342
0.00843461
0.0075468
0.0067764
0.00604325
0.00533445
0.004673
0.00410158
0.00368918
0.00355755
0.00387241
0.00462343
0.00561104
0.00661783
0.00751572
0.00826425
0.00888155
0.00941182
0.00989759
0.0103636
0.0108144
0.0112399
0.0116211
0.0119347
0.0121551
0.0122563
0.0122147
0.0120138
0.0116491
0.0111339
0.0105043
0.00981969
0.00915774
0.00860078
0.00821745
0.00804706
0.00809388
0.00833212
0.0087171
0.0092149
0.00974488
0.0102105
0.0105779
0.0108226
0.0109288
0.0108907
0.0107145
0.0104185
0.0100306
0.00958401
0.00911206
0.00864431
0.00820473
0.0078112
0.00747581
0.00720528
0.00700154
0.00686244
0.00678264
0.00675477
0.0067704
0.00682098
0.00689836
0.00699512
0.0071047
0.00722072
0.00734192
0.00745995
0.00757232
0.00767738
0.00777378
0.00786117
0.00793999
0.00801157
0.00807808
0.00814252
0.00820869
0.00828114
0.00836526
0.00846744
0.00859539
0.00875841
0.00896771
0.00923644
0.0095794
0.0100119
0.010548
0.0111974
0.011963
0.0128401
0.0138205
0.0149262
0.0162908
0.018571
0.0242081
0.0392842
0.0307851
0.0177318
0.0135946
0.0116521
0.0100948
0.00886123
0.00787356
0.00699575
0.00616628
0.00538202
0.00466423
0.00403762
0.00353139
0.0032123
0.00323811
0.00376599
0.00468939
0.005736
0.00671143
0.00753752
0.00821777
0.00879901
0.00933578
0.00986488
0.0103974
0.0109237
0.011422
0.0118649
0.0122223
0.0124633
0.0125594
0.0124879
0.012238
0.011816
0.0112517
0.010601
0.00994326
0.00936946
0.00896233
0.00877441
0.00881545
0.00905554
0.00943982
0.00991361
0.0104064
0.0108207
0.0111248
0.0112944
0.0113128
0.0111742
0.0108867
0.0104734
0.00996837
0.00941148
0.00884115
0.00828997
0.00778279
0.00733674
0.00696193
0.00666249
0.00643752
0.00628223
0.00618924
0.00614974
0.00615466
0.00619536
0.00626404
0.00635383
0.00645884
0.00657347
0.0066957
0.00682059
0.00694353
0.0070634
0.00717917
0.00729046
0.00739769
0.00750207
0.00760557
0.0077109
0.00782146
0.00794134
0.00807542
0.00822965
0.00841135
0.0086296
0.00889553
0.0092223
0.00962465
0.0101176
0.0107146
0.0114241
0.0122475
0.0131786
0.0142081
0.0153589
0.0167715
0.019123
0.0249094
0.0401762
0.0312839
0.0182424
0.0141648
0.0121942
0.0105776
0.00925765
0.00815925
0.00716324
0.00622495
0.005356
0.00458876
0.00394294
0.00340672
0.00297083
0.00272802
0.00289733
0.00364198
0.00469991
0.00576203
0.00668375
0.00743934
0.008072
0.00864969
0.00922707
0.00982757
0.0104447
0.0110545
0.0116257
0.0121239
0.0125137
0.0127617
0.0128398
0.0127304
0.0124319
0.0119658
0.0113808
0.0107533
0.0101788
0.00975201
0.00954055
0.00956399
0.00979189
0.0101606
0.0105988
0.0110413
0.011395
0.0116281
0.0117165
0.0116426
0.0114006
0.0110011
0.0104724
0.00985566
0.00919762
0.00854148
0.00792166
0.00736226
0.00687782
0.00647493
0.0061539
0.00591049
0.00573758
0.00562653
0.00556832
0.00555434
0.00557679
0.00562882
0.00570447
0.00579862
0.00590677
0.00602445
0.00615365
0.00628454
0.00641722
0.00655108
0.00668569
0.00682144
0.00695937
0.00710115
0.00724905
0.00740593
0.00757529
0.00776139
0.00796964
0.00820694
0.00848209
0.00880605
0.00919185
0.00965403
0.0102072
0.0108637
0.011631
0.0125089
0.0134896
0.0145636
0.0157553
0.0172135
0.0196375
0.0255803
0.0410442
0.0317653
0.0187353
0.0146981
0.0126981
0.0110156
0.0095978
0.00837768
0.00724963
0.00618022
0.00519608
0.00435726
0.0037153
0.0032421
0.00283368
0.00245893
0.00221185
0.00254233
0.00351264
0.00465727
0.00569748
0.006551
0.00724399
0.00785549
0.00846389
0.00911382
0.00980696
0.0105182
0.0112122
0.0118503
0.012393
0.0128027
0.0130466
0.0131004
0.0129547
0.0126206
0.0121367
0.0115713
0.0110184
0.0105807
0.0103413
0.0103343
0.0105343
0.0108721
0.0112645
0.0116444
0.0119299
0.012086
0.0120891
0.011921
0.011576
0.0110683
0.0104317
0.00971493
0.00897124
0.00824747
0.00757797
0.00698376
0.00647471
0.00605229
0.00571232
0.00544747
0.00524922
0.00510912
0.00501932
0.00497282
0.00496345
0.00498582
0.00503524
0.00510762
0.00519941
0.00530657
0.00543161
0.00556576
0.00570825
0.00585867
0.00601664
0.00618232
0.00635625
0.00653955
0.00673377
0.00694102
0.00716399
0.00740623
0.0076725
0.0079692
0.00830477
0.00868989
0.00913728
0.00966104
0.010275
0.0109906
0.0118137
0.0127426
0.0137685
0.014882
0.0161103
0.0176119
0.0201102
0.0262174
0.041886
0.0322198
0.0191876
0.0151662
0.0131368
0.0113841
0.00986072
0.00851176
0.00724288
0.00602455
0.00488836
0.00391651
0.00322995
0.00287495
0.00265694
0.00240336
0.00194297
0.00163447
0.0022208
0.0033895
0.00456789
0.00555372
0.00632972
0.00697653
0.00759885
0.00827523
0.00902447
0.00982228
0.0106288
0.0114006
0.0120947
0.01267
0.0130898
0.0133247
0.0133573
0.0131879
0.0128419
0.0123749
0.0118726
0.0114395
0.0111718
0.0111222
0.0112777
0.0115689
0.0119054
0.0122119
0.0124231
0.0124977
0.0124131
0.012151
0.0117073
0.0110996
0.0103682
0.00956882
0.00875992