/*--------------------------------*- C++ -*----------------------------------*\
| =========                 |                                                 |
| \\      /  F ield         | OpenFOAM: The Open Source CFD Toolbox           |
|  \\    /   O peration     | Version:  4.1                                   |
|   \\  /    A nd           | Web:      www.OpenFOAM.org                      |
|    \\/     M anipulation  |                                                 |
\*---------------------------------------------------------------------------*/
FoamFile
{
    version     2.0;
    format      ascii;
    class       volScalarField;
    location    "1260";
    object      T;
}
// * * * * * * * * * * * * * * * * * * * * * * * * * * * * * * * * * * * * * //

dimensions      [0 0 0 1 0 0 0];

internalField   nonuniform List<scalar> 
5000
(
286.926
286.612
286.4
286.217
286.045
285.879
285.716
285.553
285.387
285.226
285.082
284.957
284.85
284.758
284.68
284.615
284.563
284.521
284.49
284.467
284.45
284.441
284.449
284.472
284.506
284.548
284.596
284.649
284.705
284.766
284.829
284.895
284.963
285.033
285.105
285.178
285.252
285.328
285.405
285.483
285.561
285.641
285.721
285.801
285.883
285.965
286.047
286.13
286.215
286.301
286.388
286.479
286.572
286.668
286.77
286.876
286.987
287.103
287.225
287.349
287.472
287.594
287.715
287.836
287.958
288.079
288.2
288.319
288.436
288.547
288.651
288.742
288.817
288.871
288.901
288.908
288.893
288.864
288.826
288.785
288.728
288.68
288.661
288.666
288.686
288.714
288.746
288.782
288.82
288.864
288.915
288.973
289.037
289.106
289.182
289.267
289.366
289.473
289.598
289.789
286.052
284.95
284.3
283.954
283.754
283.626
283.541
283.488
283.463
283.458
283.454
283.451
283.448
283.445
283.442
283.44
283.439
283.439
283.439
283.441
283.444
283.448
283.453
283.459
283.463
283.468
283.472
283.475
283.479
283.482
283.484
283.487
283.489
283.491
283.493
283.495
283.497
283.498
283.5
283.501
283.503
283.504
283.505
283.506
283.507
283.508
283.509
283.51
283.511
283.512
283.513
283.514
283.514
283.516
283.517
283.52
283.524
283.531
283.543
283.566
283.605
283.663
283.743
283.845
283.969
284.115
284.277
284.453
284.633
284.81
284.97
285.102
285.19
285.222
285.19
285.091
284.931
284.724
284.492
284.261
284.07
283.926
283.82
283.746
283.699
283.676
283.676
283.696
283.735
283.786
283.846
283.913
283.988
284.074
284.177
284.3
284.458
284.735
285.562
287.617
285.643
284.397
283.827
283.609
283.519
283.479
283.461
283.453
283.45
283.448
283.446
283.443
283.44
283.436
283.434
283.432
283.431
283.432
283.434
283.438
283.443
283.452
283.46
283.468
283.475
283.482
283.488
283.492
283.496
283.5
283.503
283.505
283.507
283.508
283.509
283.51
283.511
283.511
283.511
283.512
283.511
283.511
283.511
283.51
283.509
283.508
283.507
283.506
283.505
283.503
283.502
283.5
283.498
283.495
283.493
283.491
283.488
283.485
283.483
283.481
283.48
283.482
283.488
283.499
283.519
283.548
283.587
283.637
283.694
283.756
283.816
283.866
283.899
283.907
283.888
283.843
283.779
283.706
283.635
283.574
283.527
283.492
283.468
283.452
283.442
283.436
283.433
283.435
283.44
283.448
283.462
283.482
283.508
283.545
283.597
283.671
283.789
284.015
284.692
286.817
285.401
284.144
283.671
283.529
283.484
283.469
283.464
283.461
283.459
283.456
283.452
283.447
283.442
283.437
283.433
283.43
283.43
283.431
283.436
283.442
283.451
283.463
283.475
283.486
283.496
283.506
283.514
283.52
283.526
283.53
283.534
283.537
283.539
283.541
283.542
283.543
283.543
283.544
283.544
283.543
283.543
283.542
283.542
283.541
283.54
283.538
283.537
283.535
283.533
283.531
283.529
283.527
283.524
283.521
283.518
283.515
283.511
283.508
283.504
283.5
283.496
283.492
283.488
283.485
283.483
283.483
283.486
283.492
283.501
283.512
283.524
283.534
283.54
283.54
283.533
283.52
283.503
283.485
283.468
283.454
283.443
283.434
283.427
283.421
283.416
283.412
283.409
283.406
283.404
283.403
283.404
283.409
283.417
283.432
283.457
283.501
283.583
283.762
284.331
286.377
285.24
284.006
283.606
283.507
283.482
283.476
283.474
283.473
283.47
283.465
283.459
283.452
283.445
283.438
283.432
283.429
283.429
283.432
283.439
283.448
283.461
283.476
283.491
283.506
283.52
283.532
283.542
283.55
283.557
283.563
283.567
283.571
283.573
283.575
283.576
283.577
283.577
283.577
283.577
283.577
283.576
283.575
283.574
283.572
283.571
283.569
283.568
283.566
283.563
283.561
283.558
283.555
283.552
283.548
283.545
283.541
283.536
283.532
283.527
283.522
283.517
283.512
283.506
283.501
283.496
283.491
283.486
283.482
283.48
283.477
283.476
283.474
283.472
283.469
283.465
283.459
283.454
283.447
283.441
283.436
283.431
283.426
283.421
283.416
283.412
283.407
283.403
283.399
283.395
283.392
283.389
283.388
283.389
283.395
283.408
283.436
283.495
283.64
284.136
286.093
285.126
283.922
283.574
283.501
283.487
283.486
283.486
283.485
283.481
283.475
283.466
283.457
283.447
283.438
283.431
283.428
283.429
283.434
283.444
283.456
283.472
283.49
283.509
283.527
283.543
283.558
283.57
283.581
283.589
283.595
283.6
283.604
283.607
283.609
283.61
283.61
283.611
283.61
283.61
283.609
283.608
283.606
283.605
283.603
283.601
283.599
283.597
283.595
283.592
283.589
283.586
283.583
283.579
283.575
283.571
283.566
283.561
283.556
283.551
283.545
283.539
283.533
283.527
283.52
283.514
283.507
283.501
283.495
283.489
283.484
283.479
283.474
283.469
283.465
283.46
283.456
283.451
283.446
283.441
283.436
283.431
283.426
283.421
283.416
283.411
283.406
283.401
283.396
283.391
283.387
283.382
283.379
283.377
283.378
283.385
283.404
283.449
283.571
284.014
285.893
285.042
283.867
283.558
283.501
283.493
283.495
283.497
283.496
283.492
283.483
283.472
283.46
283.448
283.437
283.43
283.427
283.429
283.437
283.449
283.465
283.484
283.504
283.525
283.546
283.566
283.582
283.597
283.608
283.618
283.625
283.63
283.634
283.637
283.639
283.64
283.64
283.64
283.639
283.638
283.637
283.635
283.634
283.632
283.63
283.628
283.626
283.623
283.62
283.617
283.614
283.611
283.607
283.603
283.599
283.595
283.59
283.585
283.579
283.573
283.567
283.561
283.554
283.547
283.54
283.533
283.525
283.518
283.511
283.504
283.498
283.491
283.485
283.479
283.474
283.468
283.463
283.458
283.452
283.447
283.441
283.436
283.43
283.425
283.419
283.413
283.407
283.401
283.395
283.389
283.384
283.378
283.374
283.37
283.369
283.372
283.385
283.421
283.527
283.931
285.743
284.976
283.829
283.548
283.502
283.499
283.503
283.505
283.504
283.498
283.489
283.476
283.461
283.447
283.436
283.428
283.426
283.43
283.44
283.455
283.473
283.495
283.518
283.541
283.563
283.584
283.603
283.619
283.631
283.642
283.649
283.655
283.659
283.661
283.663
283.664
283.664
283.663
283.662
283.661
283.659
283.658
283.656
283.653
283.651
283.649
283.646
283.643
283.64
283.637
283.633
283.63
283.626
283.622
283.618
283.613
283.608
283.603
283.598
283.592
283.586
283.58
283.573
283.567
283.559
283.552
283.544
283.536
283.529
283.521
283.513
283.506
283.499
283.492
283.486
283.48
283.473
283.467
283.461
283.455
283.448
283.442
283.435
283.429
283.422
283.415
283.408
283.401
283.394
283.388
283.381
283.375
283.37
283.365
283.362
283.363
283.372
283.402
283.497
283.871
285.625
284.923
283.8
283.542
283.504
283.503
283.507
283.509
283.506
283.499
283.489
283.476
283.46
283.446
283.434
283.426
283.426
283.431
283.443
283.46
283.481
283.505
283.529
283.554
283.578
283.6
283.619
283.635
283.648
283.659
283.667
283.672
283.676
283.679
283.68
283.681
283.681
283.68
283.679
283.677
283.675
283.673
283.671
283.668
283.665
283.662
283.659
283.656
283.653
283.649
283.645
283.641
283.637
283.633
283.629
283.624
283.619
283.615
283.61
283.604
283.599
283.593
283.587
283.581
283.574
283.567
283.56
283.552
283.544
283.537
283.529
283.521
283.513
283.506
283.498
283.491
283.484
283.477
283.469
283.462
283.454
283.447
283.439
283.431
283.423
283.415
283.407
283.4
283.392
283.385
283.378
283.371
283.365
283.36
283.357
283.356
283.363
283.388
283.474
283.826
285.529
284.879
283.778
283.538
283.505
283.505
283.509
283.508
283.503
283.496
283.486
283.473
283.458
283.443
283.431
283.425
283.425
283.432
283.446
283.465
283.487
283.512
283.538
283.563
283.588
283.61
283.629
283.646
283.659
283.669
283.677
283.683
283.687
283.69
283.691
283.692
283.692
283.691
283.69
283.688
283.686
283.683
283.68
283.677
283.674
283.671
283.667
283.663
283.659
283.654
283.65
283.645
283.641
283.636
283.631
283.627
283.622
283.617
283.613
283.608
283.603
283.598
283.593
283.588
283.582
283.576
283.57
283.563
283.555
283.548
283.54
283.532
283.524
283.516
283.508
283.5
283.492
283.483
283.475
283.466
283.457
283.448
283.439
283.43
283.421
283.412
283.404
283.395
283.387
283.38
283.373
283.366
283.36
283.355
283.351
283.35
283.355
283.378
283.457
283.79
285.448
284.842
283.76
283.534
283.506
283.506
283.507
283.504
283.497
283.49
283.48
283.469
283.454
283.44
283.429
283.423
283.425
283.433
283.448
283.467
283.491
283.516
283.542
283.568
283.592
283.614
283.634
283.65
283.664
283.674
283.682
283.688
283.693
283.696
283.698
283.699
283.699
283.698
283.697
283.695
283.693
283.69
283.686
283.683
283.679
283.675
283.67
283.665
283.66
283.655
283.649
283.644
283.638
283.632
283.627
283.622
283.617
283.612
283.607
283.603
283.599
283.594
283.59
283.586
283.581
283.576
283.571
283.565
283.559
283.552
283.545
283.537
283.529
283.521
283.512
283.503
283.494
283.485
283.475
283.465
283.455
283.445
283.435
283.425
283.415
283.406
283.397
283.388
283.38
283.372
283.366
283.36
283.354
283.349
283.346
283.344
283.349
283.369
283.444
283.761
285.38
284.809
283.745
283.531
283.505
283.505
283.503
283.497
283.49
283.483
283.475
283.464
283.45
283.436
283.426
283.422
283.424
283.433
283.448
283.468
283.492
283.517
283.542
283.568
283.591
283.613
283.632
283.649
283.662
283.674
283.682
283.689
283.695
283.698
283.701
283.703
283.704
283.704
283.703
283.701
283.698
283.695
283.691
283.687
283.682
283.677
283.671
283.665
283.659
283.652
283.645
283.638
283.631
283.624
283.618
283.612
283.606
283.601
283.596
283.591
283.587
283.583
283.579
283.575
283.572
283.568
283.563
283.559
283.553
283.547
283.541
283.534
283.526
283.518
283.509
283.5
283.49
283.48
283.469
283.459
283.448
283.437
283.426
283.415
283.405
283.395
283.386
283.378
283.37
283.363
283.357
283.352
283.347
283.343
283.34
283.339
283.343
283.362
283.432
283.738
285.32
284.78
283.731
283.528
283.504
283.502
283.497
283.489
283.482
283.477
283.47
283.46
283.446
283.433
283.424
283.42
283.423
283.432
283.448
283.467
283.49
283.514
283.539
283.563
283.586
283.607
283.626
283.642
283.656
283.668
283.678
283.686
283.693
283.698
283.702
283.705
283.707
283.708
283.707
283.706
283.703
283.7
283.696
283.691
283.685
283.678
283.671
283.664
283.655
283.647
283.638
283.629
283.621
283.613
283.605
283.598
283.591
283.585
283.58
283.575
283.571
283.567
283.563
283.559
283.556
283.552
283.548
283.544
283.54
283.535
283.529
283.522
283.515
283.507
283.498
283.489
283.479
283.468
283.457
283.446
283.435
283.424
283.412
283.402
283.392
283.382
283.373
283.365
283.358
283.352
283.347
283.343
283.339
283.336
283.334
283.333
283.338
283.356
283.423
283.718
285.267
284.754
283.719
283.525
283.503
283.498
283.49
283.481
283.475
283.472
283.466
283.456
283.443
283.431
283.422
283.419
283.422
283.431
283.445
283.464
283.486
283.509
283.532
283.555
283.576
283.596
283.615
283.631
283.646
283.658
283.67
283.68
283.688
283.695
283.701
283.706
283.709
283.711
283.711
283.71
283.708
283.705
283.7
283.694
283.687
283.679
283.67
283.66
283.65
283.639
283.629
283.618
283.608
283.598
283.589
283.581
283.574
283.567
283.561
283.556
283.551
283.547
283.543
283.539
283.536
283.532
283.529
283.525
283.521
283.516
283.51
283.504
283.497
283.489
283.481
283.471
283.461
283.451
283.44
283.429
283.418
283.407
283.396
283.385
283.376
283.367
283.359
283.352
283.345
283.34
283.336
283.333
283.331
283.329
283.328
283.328
283.332
283.35
283.415
283.701
285.221
284.73
283.707
283.522
283.5
283.493
283.483
283.474
283.469
283.467
283.462
283.452
283.441
283.429
283.421
283.418
283.42
283.428
283.442
283.46
283.48
283.501
283.523
283.543
283.564
283.582
283.6
283.616
283.631
283.645
283.658
283.67
283.681
283.69
283.698
283.705
283.71
283.713
283.714
283.714
283.712
283.708
283.703
283.696
283.688
283.678
283.667
283.655
283.642
283.629
283.616
283.604
283.592
283.581
283.571
283.561
283.553
283.546
283.539
283.534
283.529
283.524
283.52
283.517
283.513
283.509
283.506
283.502
283.498
283.493
283.488
283.482
283.475
283.467
283.459
283.449
283.44
283.43
283.419
283.408
283.398
283.387
283.377
283.368
283.359
283.351
283.344
283.338
283.333
283.328
283.325
283.323
283.322
283.321
283.321
283.323
283.327
283.345
283.408
283.687
285.179
284.707
283.696
283.518
283.497
283.487
283.475
283.467
283.465
283.463
283.459
283.45
283.439
283.428
283.42
283.416
283.418
283.425
283.437
283.454
283.472
283.492
283.511
283.53
283.549
283.566
283.583
283.599
283.614
283.629
283.644
283.657
283.67
283.683
283.693
283.702
283.709
283.714
283.716
283.716
283.714
283.711
283.705
283.697
283.686
283.674
283.661
283.646
283.631
283.616
283.601
283.587
283.573
283.561
283.55
283.54
283.531
283.523
283.516
283.51
283.505
283.5
283.496
283.492
283.488
283.485
283.481
283.477
283.472
283.468
283.462
283.456
283.449
283.442
283.433
283.425
283.415
283.406
283.396
283.386
283.376
283.367
283.358
283.349
283.342
283.335
283.329
283.324
283.32
283.317
283.315
283.314
283.314
283.314
283.315
283.317
283.323
283.34
283.402
283.675
285.142
284.686
283.685
283.514
283.493
283.481
283.468
283.461
283.46
283.46
283.456
283.448
283.438
283.428
283.42
283.415
283.416
283.421
283.432
283.447
283.464
283.481
283.499
283.517
283.533
283.55
283.565
283.581
283.596
283.612
283.627
283.643
283.658
283.673
283.686
283.698
283.707
283.713
283.716
283.717
283.715
283.711
283.704
283.695
283.683
283.668
283.652
283.635
283.618
283.601
283.584
283.568
283.553
283.539
283.527
283.516
283.506
283.498
283.491
283.485
283.479
283.474
283.47
283.466
283.462
283.458
283.454
283.45
283.445
283.44
283.435
283.429
283.422
283.414
283.407
283.398
283.39
283.381
283.372
283.363
283.354
283.346
283.339
283.332
283.325
283.32
283.315
283.311
283.308
283.306
283.305
283.305
283.306
283.307
283.309
283.312
283.318
283.336
283.397
283.664
285.108
284.666
283.674
283.511
283.489
283.475
283.462
283.456
283.457
283.457
283.454
283.447
283.438
283.429
283.42
283.415
283.414
283.418
283.427
283.44
283.455
283.471
283.487
283.503
283.518
283.533
283.548
283.563
283.578
283.594
283.611
283.628
283.645
283.662
283.677
283.691
283.703
283.711
283.715
283.716
283.714
283.709
283.701
283.691
283.677
283.66
283.641
283.622
283.603
283.583
283.565
283.547
283.531
283.516
283.503
283.491
283.481
283.472
283.465
283.458
283.453
283.448
283.443
283.439
283.435
283.431
283.427
283.422
283.417
283.412
283.406
283.4
283.394
283.387
283.379
283.371
283.364
283.356
283.348
283.341
283.334
283.327
283.321
283.315
283.31
283.306
283.302
283.299
283.297
283.296
283.296
283.296
283.298
283.3
283.303
283.307
283.314
283.332
283.392
283.655
285.077
284.646
283.664
283.507
283.484
283.468
283.456
283.452
283.453
283.454
283.453
283.447
283.439
283.43
283.422
283.415
283.412
283.414
283.421
283.433
283.447
283.462
283.477
283.491
283.505
283.519
283.533
283.547
283.562
283.578
283.595
283.612
283.631
283.65
283.667
283.683
283.697
283.706
283.712
283.713
283.711
283.705
283.696
283.685
283.669
283.65
283.629
283.608
283.587
283.566
283.545
283.526
283.508
283.492
283.478
283.466
283.455
283.446
283.438
283.432
283.426
283.421
283.416
283.412
283.408
283.403
283.399
283.394
283.389
283.383
283.378
283.372
283.365
283.359
283.352
283.346
283.339
283.332
283.326
283.32
283.315
283.31
283.305
283.301
283.297
283.293
283.291
283.289
283.287
283.287
283.287
283.289
283.291
283.294
283.298
283.302
283.31
283.328
283.388
283.648
285.05
284.627
283.653
283.502
283.479
283.462
283.45
283.448
283.45
283.452
283.451
283.448
283.442
283.433
283.424
283.416
283.412
283.412
283.417
283.426
283.439
283.453
283.467
283.481
283.494
283.507
283.52
283.533
283.548
283.563
283.58
283.598
283.617
283.637
283.657
283.674
283.69
283.701
283.707
283.709
283.706
283.7
283.69
283.677
283.659
283.639
283.617
283.594
283.571
283.548
283.526
283.505
283.486
283.469
283.454
283.441
283.43
283.421
283.413
283.406
283.4
283.395
283.39
283.385
283.38
283.376
283.371
283.366
283.36
283.355
283.349
283.344
283.338
283.333
283.327
283.321
283.316
283.311
283.307
283.302
283.298
283.294
283.291
283.288
283.285
283.282
283.28
283.279
283.278
283.278
283.279
283.281
283.284
283.288
283.293
283.298
283.306
283.324
283.385
283.641
285.025
284.608
283.643
283.498
283.474
283.456
283.445
283.444
283.447
283.449
283.45
283.448
283.444
283.437
283.429
283.42
283.413
283.41
283.413
283.421
283.433
283.446
283.46
283.473
283.486
283.498
283.51
283.523
283.536
283.551
283.567
283.585
283.604
283.625
283.645
283.665
283.681
283.694
283.701
283.703
283.701
283.693
283.683
283.669
283.65
283.628
283.605
283.581
283.556
283.531
283.507
283.485
283.464
283.446
283.43
283.417
283.406
283.396
283.388
283.381
283.375
283.369
283.364
283.359
283.354
283.349
283.344
283.339
283.334
283.328
283.323
283.318
283.314
283.309
283.305
283.301
283.297
283.293
283.29
283.287
283.284
283.281
283.279
283.276
283.274
283.272
283.271
283.27
283.27
283.27
283.272
283.274
283.278
283.282
283.288
283.294
283.302
283.321
283.382
283.636
285.003
284.59
283.633
283.494
283.468
283.45
283.441
283.44
283.443
283.446
283.448
283.448
283.447
283.442
283.434
283.425
283.416
283.411
283.411
283.417
283.427
283.44
283.454
283.467
283.48
283.492
283.503
283.515
283.528
283.541
283.557
283.574
283.593
283.613
283.634
283.654
283.672
283.685
283.694
283.697
283.694
283.687
283.676
283.661
283.642
283.62
283.595
283.57
283.543
283.516
283.49
283.466
283.444
283.425
283.408
283.395
283.383
283.373
283.365
283.358
283.352
283.346
283.34
283.335
283.33
283.325
283.32
283.315
283.31
283.305
283.301
283.297
283.293
283.29
283.287
283.284
283.281
283.279
283.276
283.274
283.272
283.27
283.268
283.266
283.264
283.263
283.262
283.261
283.262
283.263
283.265
283.268
283.272
283.277
283.283
283.29
283.299
283.318
283.379
283.632
284.983
284.571
283.623
283.49
283.463
283.445
283.436
283.436
283.439
283.442
283.445
283.447
283.448
283.447
283.442
283.433
283.422
283.413
283.41
283.413
283.423
283.435
283.45
283.463
283.476
283.488
283.499
283.511
283.522
283.535
283.549
283.564
283.582
283.602
283.622
283.643
283.661
283.676
283.686
283.69
283.688
283.681
283.67
283.656
283.637
283.614
283.589
283.562
283.534
283.504
283.476
283.449
283.425
283.405
283.388
283.374
283.362
283.352
283.344
283.337
283.331
283.325
283.319
283.314
283.309
283.304
283.299
283.295
283.29
283.287
283.283
283.28
283.277
283.275
283.273
283.271
283.269
283.267
283.265
283.263
283.261
283.259
283.258
283.256
283.255
283.254
283.253
283.253
283.253
283.255
283.258
283.261
283.266
283.272
283.279
283.286
283.296
283.316
283.377
283.629
284.966
284.553
283.614
283.486
283.459
283.44
283.432
283.432
283.435
283.438
283.441
283.443
283.446
283.449
283.448
283.442
283.431
283.419
283.412
283.412
283.419
283.431
283.446
283.461
283.475
283.487
283.499
283.509
283.52
283.531
283.543
283.557
283.573
283.591
283.611
283.631
283.65
283.667
283.678
283.684
283.683
283.677
283.667
283.653
283.635
283.613
283.587
283.559
283.528
283.495
283.464
283.434
283.409
283.387
283.37
283.355
283.344
283.334
283.326
283.319
283.313
283.307
283.301
283.296
283.292
283.287
283.283
283.28
283.276
283.273
283.271
283.268
283.266
283.264
283.262
283.26
283.258
283.256
283.254
283.252
283.251
283.249
283.247
283.246
283.244
283.243
283.243
283.243
283.245
283.247
283.25
283.255
283.261
283.267
283.274
283.282
283.293
283.313
283.375
283.627
284.951
284.536
283.605
283.482
283.455
283.436
283.428
283.428
283.431
283.433
283.435
283.438
283.441
283.446
283.451
283.452
283.443
283.429
283.417
283.412
283.416
283.427
283.443
283.459
283.475
283.488
283.5
283.51
283.52
283.53
283.541
283.552
283.566
283.582
283.6
283.619
283.638
283.656
283.67
283.678
283.679
283.675
283.667
283.654
283.638
283.616
283.59
283.559
283.525
283.489
283.454
283.422
283.394
283.372
283.354
283.339
283.328
283.319
283.311
283.304
283.298
283.293
283.288
283.283
283.279
283.276
283.273
283.27
283.267
283.264
283.262
283.26
283.257
283.255
283.253
283.251
283.248
283.246
283.244
283.241
283.239
283.237
283.235
283.234
283.233
283.232
283.233
283.234
283.236
283.239
283.243
283.249
283.255
283.263
283.27
283.279
283.29
283.311
283.374
283.626
284.938
284.519
283.597
283.479
283.451
283.433
283.425
283.425
283.427
283.429
283.43
283.432
283.434
283.439
283.447
283.456
283.457
283.444
283.427
283.416
283.415
283.424
283.439
283.457
283.475
283.49
283.503
283.514
283.523
283.532
283.541
283.55
283.561
283.575
283.59
283.608
283.627
283.645
283.661
283.672
283.677
283.676
283.67
283.66
283.645
283.625
283.598
283.565
283.527
283.487
283.448
283.412
283.382
283.359
283.34
283.326
283.315
283.307
283.299
283.293
283.288
283.283
283.279
283.275
283.272
283.269
283.266
283.264
283.261
283.258
283.255
283.253
283.25
283.247
283.244
283.241
283.238
283.235
283.232
283.229
283.227
283.224
283.223
283.221
283.221
283.221
283.221
283.223
283.226
283.23
283.236
283.242
283.25
283.258
283.267
283.276
283.288
283.31
283.373
283.625
284.927
284.504
283.591
283.476
283.449
283.43
283.423
283.422
283.424
283.427
283.428
283.428
283.428
283.429
283.436
283.449
283.464
283.462
283.442
283.424
283.416
283.42
283.435
283.455
283.475
283.493
283.507
283.519
283.528
283.536
283.543
283.551
283.559
283.57
283.583
283.598
283.615
283.634
283.651
283.666
283.675
283.679
283.677
283.67
283.658
283.639
283.611
283.576
283.533
283.488
283.444
283.406
283.374
283.349
283.33
283.317
283.306
283.298
283.292
283.286
283.282
283.278
283.274
283.271
283.268
283.265
283.263
283.26
283.257
283.253
283.25
283.246
283.242
283.238
283.234
283.23
283.226
283.223
283.219
283.216
283.213
283.211
283.209
283.208
283.208
283.208
283.21
283.212
283.216
283.222
283.229
283.236
283.245
283.254
283.264
283.273
283.286
283.308
283.373
283.626
284.918
284.49
283.586
283.474
283.447
283.429
283.421
283.42
283.423
283.426
283.429
283.43
283.428
283.425
283.426
283.436
283.457
283.476
283.463
283.438
283.421
283.419
283.43
283.45
283.474
283.495
283.512
283.525
283.535
283.542
283.549
283.554
283.561
283.568
283.578
283.59
283.605
283.623
283.642
283.66
283.674
283.683
283.686
283.684
283.675
283.658
283.63
283.591
283.544
283.494
283.445
283.402
283.368
283.342
283.324
283.311
283.301
283.294
283.288
283.283
283.279
283.276
283.273
283.27
283.267
283.264
283.261
283.257
283.253
283.249
283.245
283.24
283.235
283.23
283.225
283.22
283.215
283.211
283.207
283.203
283.2
283.197
283.195
283.194
283.194
283.196
283.198
283.202
283.207
283.214
283.222
283.231
283.24
283.251
283.261
283.271
283.284
283.307
283.373
283.628
284.912
284.478
283.582
283.474
283.447
283.428
283.42
283.419
283.422
283.426
283.431
283.435
283.435
283.429
283.423
283.425
283.442
283.472
283.485
283.461
283.433
283.42
283.425
283.444
283.47
283.495
283.516
283.531
283.542
283.55
283.556
283.56
283.565
283.57
283.576
283.585
283.598
283.614
283.633
283.653
283.673
283.688
283.699
283.702
283.698
283.682
283.654
283.611
283.56
283.503
283.45
283.403
283.367
283.34
283.322
283.309
283.3
283.293
283.288
283.284
283.281
283.278
283.275
283.272
283.268
283.265
283.261
283.256
283.251
283.246
283.241
283.235
283.229
283.223
283.217
283.211
283.206
283.2
283.195
283.191
283.187
283.184
283.183
283.182
283.182
283.184
283.187
283.192
283.198
283.206
283.215
283.226
283.236
283.247
283.258
283.269
283.282
283.306
283.373
283.63
284.907
284.467
283.579
283.473
283.447
283.429
283.42
283.418
283.421
283.426
283.432
283.438
283.441
283.438
283.427
283.42
283.429
283.456
283.486
283.49
283.456
283.428
283.423
283.437
283.464
283.494
283.519
283.537
283.549
283.558
283.564
283.568
283.571
283.575
283.579
283.584
283.593
283.606
283.624
283.646
283.67
283.694
283.713
283.724
283.724
283.711
283.682
283.637
283.58
283.518
283.459
283.409
283.37
283.342
283.324
283.311
283.303
283.297
283.292
283.288
283.285
283.282
283.279
283.275
283.271
283.267
283.262
283.256
283.251
283.244
283.238
283.231
283.224
283.217
283.211
283.204
283.197
283.191
283.186
283.181
283.176
283.173
283.171
283.17
283.171
283.173
283.177
283.183
283.19
283.199
283.21
283.221
283.233
283.245
283.256
283.267
283.281
283.306
283.374
283.634
284.905
284.458
283.578
283.474
283.449
283.431
283.421
283.419
283.421
283.426
283.433
283.439
283.443
283.442
283.434
283.423
283.423
283.443
283.471
283.49
283.493
283.448
283.427
283.43
283.455
283.489
283.519
283.541
283.555
283.565
283.571
283.576
283.579
283.582
283.585
283.587
283.592
283.601
283.616
283.638
283.667
283.698
283.727
283.748
283.755
283.745
283.715
283.667
283.605
283.538
283.474
283.42
283.378
283.35
283.33
283.318
283.31
283.304
283.299
283.296
283.292
283.289
283.285
283.281
283.276
283.271
283.265
283.258
283.251
283.244
283.237
283.229
283.221
283.213
283.206
283.198
283.191
283.184
283.178
283.172
283.167
283.164
283.161
283.161
283.162
283.164
283.169
283.176
283.184
283.195
283.206
283.218
283.231
283.243
283.255
283.266
283.28
283.306
283.376
283.638
284.905
284.451
283.577
283.475
283.452
283.434
283.424
283.421
283.423
283.427
283.433
283.439
283.442
283.442
283.437
283.427
283.424
283.435
283.458
283.48
283.492
283.487
283.444
283.428
283.445
283.482
283.517
283.543
283.559
283.57
283.577
283.582
283.587
283.591
283.593
283.594
283.596
283.6
283.611
283.631
283.662
283.701
283.742
283.774
283.789
283.782
283.752
283.701
283.635
283.563
283.495
283.437
283.393
283.363
283.343
283.33
283.321
283.315
283.311
283.307
283.303
283.299
283.294
283.289
283.283
283.277
283.269
283.262
283.254
283.246
283.237
283.228
283.219
283.211
283.202
283.194
283.186
283.178
283.172
283.166
283.16
283.157
283.154
283.154
283.155
283.158
283.163
283.171
283.18
283.192
283.204
283.217
283.23
283.242
283.254
283.265
283.28
283.306
283.379
283.644
284.907
284.445
283.578
283.476
283.455
283.439
283.429
283.425
283.426
283.43
283.435
283.439
283.442
283.442
283.438
283.43
283.424
283.43
283.449
283.471
283.487
283.492
283.475
283.437
283.436
283.471
283.513
283.543
283.562
283.573
283.58
283.586
283.592
283.598
283.603
283.605
283.604
283.604
283.61
283.626
283.656
283.702
283.755
283.801
283.826
283.823
283.794
283.74
283.67
283.594
283.522
283.461
283.415
283.383
283.361
283.348
283.338
283.332
283.327
283.322
283.317
283.312
283.306
283.3
283.293
283.285
283.276
283.267
283.257
283.248
283.238
283.228
283.218
283.209
283.2
283.191
283.183
283.175
283.168
283.162
283.156
283.152
283.15
283.149
283.151
283.155
283.161
283.169
283.179
283.191
283.203
283.217
283.23
283.242
283.253
283.265
283.28
283.307
283.382
283.651
284.911
284.44
283.579
283.477
283.458
283.444
283.435
283.431
283.431
283.434
283.438
283.441
283.443
283.442
283.437
283.43
283.424
283.427
283.443
283.464
283.482
283.491
283.486
283.459
283.434
283.459
283.505
283.541
283.562
283.573
283.58
283.585
283.593
283.602
283.611
283.616
283.616
283.613
283.613
283.622
283.65
283.701
283.767
283.828
283.864
283.867
283.839
283.783
283.711
283.631
283.556
283.493
283.444
283.41
283.387
283.372
283.362
283.354
283.348
283.343
283.337
283.33
283.323
283.315
283.305
283.295
283.285
283.274
283.262
283.251
283.24
283.229
283.218
283.208
283.199
283.19
283.182
283.174
283.167
283.16
283.155
283.151
283.149
283.149
283.151
283.155
283.161
283.17
283.18
283.192
283.205
283.218
283.23
283.242
283.254
283.265
283.28
283.309
283.386
283.659
284.917
284.436
283.58
283.478
283.461
283.449
283.441
283.437
283.437
283.438
283.44
283.442
283.442
283.44
283.435
283.428
283.422
283.424
283.437
283.458
283.478
283.49
283.488
283.47
283.445
283.449
283.494
283.537
283.561
283.571
283.576
283.58
283.588
283.6
283.615
283.626
283.63
283.627
283.621
283.623
283.645
283.698
283.776
283.854
283.904
283.913
283.886
283.83
283.756
283.675
283.597
283.532
283.481
283.445
283.42
283.404
283.392
283.384
283.376
283.369
283.362
283.353
283.344
283.333
283.322
283.309
283.296
283.282
283.269
283.256
283.243
283.231
283.22
283.209
283.2
283.19
283.182
283.174
283.167
283.161
283.157
283.153
283.152
283.152
283.154
283.159
283.165
283.174
283.184
283.195
283.208
283.22
283.232
283.243
283.254
283.266
283.281
283.311
283.39
283.668
284.925
284.432
283.581
283.479
283.463
283.453
283.446
283.443
283.442
283.442
283.442
283.442
283.441
283.437
283.432
283.424
283.419
283.42
283.432
283.453
283.475
283.488
283.489
283.476
283.457
283.452
283.482
283.529
283.558
283.569
283.571
283.572
283.578
283.592
283.612
283.632
283.644
283.644
283.636
283.629
283.642
283.693
283.783
283.88
283.944
283.961
283.936
283.88
283.805
283.724
283.646
283.579
283.527
283.489
283.462
283.444
283.431
283.421
283.412
283.403
283.393
283.383
283.37
283.357
283.342
283.326
283.31
283.293
283.277
283.262
283.248
283.235
283.223
283.212
283.202
283.193
283.185
283.177
283.171
283.165
283.161
283.158
283.157
283.158
283.161
283.165
283.172
283.18
283.19
283.2
283.212
283.223
283.234
283.245
283.256
283.267
283.283
283.314
283.395
283.678
284.936
284.429
283.582
283.48
283.465
283.456
283.45
283.446
283.444
283.443
283.442
283.44
283.437
283.432
283.426
283.419
283.413
283.415
283.426
283.447
283.47
283.486
283.49
283.481
283.467
283.463
283.482
283.52
283.553
283.566
283.565
283.562
283.564
283.578
283.602
283.632
283.655
283.663
283.655
283.641
283.643
283.689
283.788
283.905
283.984
284.008
283.986
283.932
283.858
283.777
283.7
283.634
283.581
283.542
283.514
283.494
283.479
283.467
283.456
283.445
283.433
283.419
283.403
283.386
283.367
283.347
283.327
283.307
283.288
283.27
283.254
283.24
283.227
283.216
283.206
283.197
283.189
283.182
283.176
283.171
283.168
283.166
283.166
283.167
283.17
283.174
283.18
283.188
283.197
283.207
283.217
283.227
283.237
283.247
283.257