/*--------------------------------*- C++ -*----------------------------------*\
| =========                 |                                                 |
| \\      /  F ield         | OpenFOAM: The Open Source CFD Toolbox           |
|  \\    /   O peration     | Version:  4.1                                   |
|   \\  /    A nd           | Web:      www.OpenFOAM.org                      |
|    \\/     M anipulation  |                                                 |
\*---------------------------------------------------------------------------*/
FoamFile
{
    version     2.0;
    format      ascii;
    class       volVectorField;
    location    "1260";
    object      U;
}
// * * * * * * * * * * * * * * * * * * * * * * * * * * * * * * * * * * * * * //

dimensions      [0 1 -1 0 0 0 0];

internalField   nonuniform List<vector> 
5000
(
(-0.00447179 0.00304817 0)
(-0.00619954 0.00121268 0)
(-0.00768812 0.000519034 0)
(-0.00843212 0.000269015 0)
(-0.0088712 0.000163274 0)
(-0.00915465 0.000105505 0)
(-0.00933446 6.12236e-05 0)
(-0.00942404 1.73197e-05 0)
(-0.00942041 -3.22153e-05 0)
(-0.00931138 -9.14906e-05 0)
(-0.00908112 -0.00016198 0)
(-0.0087147 -0.000241515 0)
(-0.0082023 -0.00032744 0)
(-0.00753926 -0.000416861 0)
(-0.00672682 -0.000506417 0)
(-0.00577305 -0.000592324 0)
(-0.00469265 -0.000670778 0)
(-0.00350558 -0.000738764 0)
(-0.00224047 -0.000795212 0)
(-0.000955902 -0.00084066 0)
(0.000362311 -0.00087401 0)
(0.00180262 -0.000876667 0)
(0.00306552 -0.000825202 0)
(0.0042448 -0.000745165 0)
(0.00531952 -0.000656411 0)
(0.00627631 -0.000570175 0)
(0.00711387 -0.000490758 0)
(0.00783925 -0.000419404 0)
(0.00846377 -0.000356325 0)
(0.00899964 -0.000301306 0)
(0.00945857 -0.000253843 0)
(0.00985129 -0.000213242 0)
(0.0101875 -0.000178728 0)
(0.0104758 -0.000149523 0)
(0.0107236 -0.0001249 0)
(0.0109375 -0.000104205 0)
(0.0111229 -8.68727e-05 0)
(0.0112847 -7.24198e-05 0)
(0.0114269 -6.04362e-05 0)
(0.0115531 -5.05741e-05 0)
(0.0116663 -4.25356e-05 0)
(0.0117692 -3.60607e-05 0)
(0.0118641 -3.09181e-05 0)
(0.0119528 -2.68971e-05 0)
(0.0120368 -2.38022e-05 0)
(0.0121173 -2.14484e-05 0)
(0.0121951 -1.96583e-05 0)
(0.0122707 -1.82611e-05 0)
(0.0123443 -1.70917e-05 0)
(0.0124157 -1.59934e-05 0)
(0.0124846 -1.48223e-05 0)
(0.0125504 -1.34539e-05 0)
(0.0126123 -1.17913e-05 0)
(0.0126698 -9.77013e-06 0)
(0.012722 -7.35598e-06 0)
(0.0127687 -4.52933e-06 0)
(0.0128093 -1.25691e-06 0)
(0.0128433 2.5424e-06 0)
(0.0128699 7.03511e-06 0)
(0.0128869 1.26587e-05 0)
(0.0128918 2.09705e-05 0)
(0.0128792 3.3122e-05 0)
(0.0128404 5.05381e-05 0)
(0.0127652 7.453e-05 0)
(0.012642 0.000106041 0)
(0.0124582 0.000145694 0)
(0.0122009 0.000193677 0)
(0.0118577 0.000249487 0)
(0.011418 0.000311552 0)
(0.0108749 0.000376713 0)
(0.0102278 0.000439719 0)
(0.00948539 0.000493005 0)
(0.00866849 0.000527203 0)
(0.00781187 0.000532823 0)
(0.00696293 0.000503131 0)
(0.00617647 0.000437367 0)
(0.00550528 0.000342514 0)
(0.0049893 0.000232075 0)
(0.00464702 0.000121967 0)
(0.00447117 2.51143e-05 0)
(0.00445076 -4.44644e-05 0)
(0.00452106 -7.68427e-05 0)
(0.00462426 -8.05218e-05 0)
(0.00472816 -7.10664e-05 0)
(0.00481567 -5.85969e-05 0)
(0.00488105 -4.74811e-05 0)
(0.0049249 -3.87505e-05 0)
(0.00494967 -3.20566e-05 0)
(0.00495976 -2.67032e-05 0)
(0.00495926 -2.44574e-05 0)
(0.00495401 -2.73286e-05 0)
(0.00495067 -3.58895e-05 0)
(0.00495577 -4.95509e-05 0)
(0.00497558 -6.58842e-05 0)
(0.00501296 -8.24482e-05 0)
(0.00506334 -0.000100689 0)
(0.00511118 -0.000121293 0)
(0.00511192 -8.79031e-05 0)
(0.00471827 0.000424483 0)
(0.00391222 0.00257285 0)
(-0.00371496 0.0066004 0)
(-0.00519057 0.00326782 0)
(-0.00687723 0.00158227 0)
(-0.00777295 0.000879008 0)
(-0.00835791 0.000553434 0)
(-0.00875697 0.000362384 0)
(-0.00901871 0.000212775 0)
(-0.00915838 6.90522e-05 0)
(-0.00917713 -8.32272e-05 0)
(-0.00907102 -0.000253453 0)
(-0.00883913 -0.000447558 0)
(-0.00846933 -0.000658718 0)
(-0.00795519 -0.000879503 0)
(-0.00729432 -0.00110255 0)
(-0.00648932 -0.00131935 0)
(-0.00554908 -0.00152028 0)
(-0.00448894 -0.00169578 0)
(-0.00332923 -0.00183833 0)
(-0.00209703 -0.0019451 0)
(-0.000845865 -0.00201828 0)
(0.000447356 -0.00205566 0)
(0.00179552 -0.00200954 0)
(0.00297271 -0.0018693 0)
(0.00407657 -0.00168828 0)
(0.00509056 -0.00149785 0)
(0.00600353 -0.00131462 0)
(0.00681417 -0.00114514 0)
(0.0075277 -0.000991842 0)
(0.00815306 -0.000855594 0)
(0.0087005 -0.000736357 0)
(0.00918017 -0.000633325 0)
(0.00960154 -0.000545164 0)
(0.00997312 -0.000470276 0)
(0.0103025 -0.000407007 0)
(0.0105961 -0.000353784 0)
(0.0108597 -0.000309204 0)
(0.0110981 -0.00027205 0)
(0.0113155 -0.000241294 0)
(0.0115155 -0.000216062 0)
(0.0117014 -0.000195601 0)
(0.0118759 -0.000179249 0)
(0.0120414 -0.000166401 0)
(0.0122 -0.000156488 0)
(0.0123534 -0.000148957 0)
(0.0125027 -0.000143266 0)
(0.0126489 -0.00013888 0)
(0.0127925 -0.000135273 0)
(0.0129333 -0.000131943 0)
(0.0130712 -0.000128424 0)
(0.0132054 -0.000124311 0)
(0.0133349 -0.000119292 0)
(0.0134587 -0.00011318 0)
(0.0135754 -0.000105943 0)
(0.013684 -9.7709e-05 0)
(0.0137834 -8.87387e-05 0)
(0.0138728 -7.93173e-05 0)
(0.0139518 -6.95634e-05 0)
(0.0140199 -5.91429e-05 0)
(0.0140762 -4.69306e-05 0)
(0.014119 -3.06769e-05 0)
(0.0141439 -6.90675e-06 0)
(0.0141457 2.70951e-05 0)
(0.0141212 7.36306e-05 0)
(0.0140665 0.000134663 0)
(0.0139771 0.000211552 0)
(0.0138487 0.000304866 0)
(0.013677 0.000414081 0)
(0.0134587 0.000537072 0)
(0.0131927 0.000669462 0)
(0.0128808 0.000803938 0)
(0.0125295 0.000929778 0)
(0.0121509 0.00103302 0)
(0.0117627 0.00109775 0)
(0.0113869 0.00110886 0)
(0.0110463 0.001056 0)
(0.0107606 0.000937718 0)
(0.0105409 0.000763961 0)
(0.0103873 0.000555533 0)
(0.0102887 0.000339857 0)
(0.010227 0.000144587 0)
(0.0101656 -2.9013e-06 0)
(0.0100964 -8.61253e-05 0)
(0.0100256 -0.000112643 0)
(0.009952 -0.000103419 0)
(0.00986969 -7.76606e-05 0)
(0.00977195 -4.68505e-05 0)
(0.00965493 -1.64547e-05 0)
(0.00951818 1.09674e-05 0)
(0.00936248 3.393e-05 0)
(0.00919189 4.95984e-05 0)
(0.00901034 5.55351e-05 0)
(0.00882083 5.13174e-05 0)
(0.00862494 3.87922e-05 0)
(0.0084199 2.34674e-05 0)
(0.00819673 1.47366e-05 0)
(0.00793386 2.70447e-05 0)
(0.00758188 9.4959e-05 0)
(0.00700445 0.000387481 0)
(0.00566532 0.00179972 0)
(0.00406193 0.00612325 0)
(-0.00294552 0.0101132 0)
(-0.00385479 0.00531877 0)
(-0.00537816 0.00276838 0)
(-0.00628345 0.00166417 0)
(-0.00699402 0.00111174 0)
(-0.007535 0.000755144 0)
(-0.00792494 0.000460357 0)
(-0.00817005 0.000177321 0)
(-0.00827098 -0.000112121 0)
(-0.00822266 -0.000418453 0)
(-0.00803885 -0.000750392 0)
(-0.00771897 -0.00110321 0)
(-0.00726033 -0.00146828 0)
(-0.00666132 -0.00183501 0)
(-0.00592453 -0.00218951 0)
(-0.00505916 -0.00251531 0)
(-0.0040816 -0.0027959 0)
(-0.00301388 -0.00301827 0)
(-0.00188389 -0.00317655 0)
(-0.000740234 -0.00327312 0)
(0.000426726 -0.00329987 0)
(0.0016081 -0.00320091 0)
(0.00265703 -0.00299048 0)
(0.00364507 -0.00272842 0)
(0.00455519 -0.00244972 0)
(0.005377 -0.00217554 0)
(0.00610929 -0.0019163 0)
(0.00675594 -0.00167801 0)
(0.0073244 -0.00146401 0)
(0.00782372 -0.00127535 0)
(0.00826313 -0.00111135 0)
(0.0086512 -0.00097028 0)
(0.00899562 -0.000849836 0)
(0.00930313 -0.000747567 0)
(0.00957953 -0.000661104 0)
(0.00982983 -0.000588318 0)
(0.0100583 -0.000527375 0)
(0.0102688 -0.000476725 0)
(0.0104647 -0.000435048 0)
(0.0106489 -0.000401201 0)
(0.0108241 -0.000374153 0)
(0.0109926 -0.000352939 0)
(0.0111566 -0.000336614 0)
(0.0113178 -0.000324233 0)
(0.0114773 -0.000314833 0)
(0.0116363 -0.00030744 0)
(0.011795 -0.00030108 0)
(0.0119535 -0.00029481 0)
(0.0121114 -0.000287748 0)
(0.0122679 -0.000279123 0)
(0.0124217 -0.000268323 0)
(0.0125712 -0.000254938 0)
(0.0127147 -0.000238801 0)
(0.0128499 -0.000219986 0)
(0.0129745 -0.000198765 0)
(0.0130861 -0.000175484 0)
(0.013182 -0.000150325 0)
(0.0132597 -0.000122947 0)
(0.0133168 -9.20143e-05 0)
(0.0133523 -5.4923e-05 0)
(0.0133658 -8.84301e-06 0)
(0.0133578 4.85371e-05 0)
(0.0133303 0.000118884 0)
(0.0132855 0.000203934 0)
(0.0132252 0.000305192 0)
(0.0131516 0.0004233 0)
(0.0130667 0.000557492 0)
(0.0129727 0.000704802 0)
(0.0128723 0.000859195 0)
(0.012769 0.00101083 0)
(0.0126671 0.00114589 0)
(0.0125712 0.00124736 0)
(0.0124854 0.00129748 0)
(0.0124113 0.00128157 0)
(0.0123462 0.00119294 0)
(0.0122819 0.00103684 0)
(0.0122056 0.000831827 0)
(0.0121032 0.000606746 0)
(0.0119634 0.000394085 0)
(0.0117823 0.000222575 0)
(0.0115674 0.000111725 0)
(0.0113338 6.15038e-05 0)
(0.011095 5.7254e-05 0)
(0.0108578 8.14511e-05 0)
(0.0106239 0.000119859 0)
(0.0103926 0.000163793 0)
(0.0101606 0.000208351 0)
(0.0099238 0.000250015 0)
(0.00967749 0.000285555 0)
(0.00941689 0.000312861 0)
(0.00913741 0.000331331 0)
(0.00883476 0.00034178 0)
(0.00850451 0.000347652 0)
(0.00814062 0.000357633 0)
(0.00773202 0.000390433 0)
(0.00725452 0.00048577 0)
(0.00664934 0.000735929 0)
(0.00579517 0.00143517 0)
(0.00430047 0.00378408 0)
(0.00334921 0.0100521 0)
(-0.00239741 0.012943 0)
(-0.00294104 0.00696541 0)
(-0.00429297 0.00384285 0)
(-0.00512907 0.00249367 0)
(-0.00586123 0.00177162 0)
(-0.00644223 0.00126255 0)
(-0.00687299 0.00081951 0)
(-0.00715598 0.000388958 0)
(-0.0072974 -4.74515e-05 0)
(-0.00729988 -0.000495835 0)
(-0.00717089 -0.000961566 0)
(-0.00691775 -0.0014477 0)
(-0.0065343 -0.0019486 0)
(-0.00601711 -0.00245184 0)
(-0.00536795 -0.00293785 0)
(-0.00459657 -0.00338249 0)
(-0.00372086 -0.00376186 0)
(-0.0027648 -0.00405731 0)
(-0.00175722 -0.00425962 0)
(-0.000739532 -0.0043696 0)
(0.000275105 -0.00437673 0)
(0.00129698 -0.00423047 0)
(0.00221469 -0.00395601 0)
(0.00307928 -0.00361829 0)
(0.00387638 -0.003256 0)
(0.00459639 -0.00289665 0)
(0.00523937 -0.00255428 0)
(0.00580865 -0.00223852 0)
(0.00631089 -0.00195508 0)
(0.00675458 -0.00170581 0)
(0.00714822 -0.00148974 0)
(0.00749946 -0.00130437 0)
(0.00781496 -0.00114649 0)
(0.0081004 -0.00101276 0)
(0.00836062 -0.000899966 0)
(0.00859969 -0.000805274 0)
(0.00882112 -0.000726305 0)
(0.00902806 -0.00066108 0)
(0.00922336 -0.000607937 0)
(0.00940968 -0.00056544 0)
(0.00958946 -0.00053228 0)
(0.00976496 -0.000507199 0)
(0.00993815 -0.00048893 0)
(0.0101107 -0.000476165 0)
(0.0102841 -0.000467539 0)
(0.0104591 -0.000461638 0)
(0.0106362 -0.00045703 0)
(0.0108154 -0.000452301 0)
(0.0109962 -0.000446114 0)
(0.0111775 -0.000437264 0)
(0.011358 -0.000424739 0)
(0.0115359 -0.000407761 0)
(0.011709 -0.000385819 0)
(0.0118749 -0.000358662 0)
(0.0120309 -0.000326266 0)
(0.0121744 -0.00028875 0)
(0.0123024 -0.000246234 0)
(0.0124123 -0.000198654 0)
(0.0125016 -0.000145515 0)
(0.0125687 -8.56665e-05 0)
(0.0126136 -1.75349e-05 0)
(0.0126354 5.98384e-05 0)
(0.0126354 0.000147236 0)
(0.0126166 0.000245836 0)
(0.0125828 0.000356841 0)
(0.0125384 0.000480703 0)
(0.0124887 0.000616488 0)
(0.0124395 0.000761154 0)
(0.0123964 0.000908797 0)
(0.0123638 0.0010501 0)
(0.0123446 0.00117248 0)
(0.0123384 0.00126132 0)
(0.012341 0.00130259 0)
(0.0123433 0.00128659 0)
(0.0123324 0.00121167 0)
(0.0122933 0.00108641 0)
(0.0122128 0.000928677 0)
(0.012083 0.00076156 0)
(0.0119043 0.000607577 0)
(0.0116853 0.000483786 0)
(0.0114404 0.000399125 0)
(0.0111855 0.000352645 0)
(0.0109321 0.000337433 0)
(0.0106855 0.000345481 0)
(0.0104454 0.000370202 0)
(0.010208 0.000406303 0)
(0.00996753 0.000449818 0)
(0.00971743 0.000497721 0)
(0.00945047 0.000547348 0)
(0.0091591 0.000596504 0)
(0.00883574 0.000643831 0)
(0.00847299 0.000689572 0)
(0.00806346 0.000737372 0)
(0.00759912 0.000797911 0)
(0.00706937 0.000896313 0)
(0.00645672 0.0010887 0)
(0.00572661 0.00150692 0)
(0.00483578 0.00252284 0)
(0.00336628 0.00552394 0)
(0.00278662 0.0133092 0)
(-0.0020042 0.0151243 0)
(-0.00232054 0.00822683 0)
(-0.00351743 0.00475551 0)
(-0.00423322 0.0032645 0)
(-0.00490661 0.00241016 0)
(-0.00545192 0.00176118 0)
(-0.00586791 0.0011759 0)
(-0.00615591 0.000605744 0)
(-0.00632228 3.58659e-05 0)
(-0.00637519 -0.000535903 0)
(-0.00631054 -0.00111984 0)
(-0.00613584 -0.00172673 0)
(-0.0058402 -0.00235402 0)
(-0.00541719 -0.00298629 0)
(-0.00486788 -0.00359652 0)
(-0.00420309 -0.00415147 0)
(-0.00344249 -0.00461929 0)
(-0.00261171 -0.00497607 0)
(-0.00173996 -0.00520963 0)
(-0.000861747 -0.00531923 0)
(-8.69963e-06 -0.00530079 0)
(0.000849539 -0.00511577 0)
(0.00163169 -0.00478916 0)
(0.00236394 -0.00438821 0)
(0.00303951 -0.00395521 0)
(0.00364913 -0.00352508 0)
(0.00419531 -0.00311455 0)
(0.00468135 -0.00273599 0)
(0.00511338 -0.00239726 0)
(0.00549953 -0.00210076 0)
(0.00584762 -0.00184492 0)
(0.00616416 -0.00162616 0)
(0.00645444 -0.00144029 0)
(0.00672288 -0.00128308 0)
(0.00697306 -0.00115054 0)
(0.00720787 -0.00103929 0)
(0.00742981 -0.000946572 0)
(0.0076412 -0.000870185 0)
(0.00784426 -0.000808316 0)
(0.00804118 -0.000759408 0)
(0.00823412 -0.000722022 0)
(0.00842514 -0.000694725 0)
(0.00861616 -0.000676013 0)
(0.00880882 -0.000664272 0)
(0.00900448 -0.000657761 0)
(0.00920405 -0.000654626 0)
(0.00940795 -0.000652945 0)
(0.00961606 -0.000650794 0)
(0.00982771 -0.000646329 0)
(0.0100417 -0.000637867 0)
(0.0102562 -0.00062397 0)
(0.0104692 -0.000603504 0)
(0.0106781 -0.00057568 0)
(0.0108802 -0.000540056 0)
(0.0110726 -0.000496499 0)
(0.0112524 -0.000445104 0)
(0.0114166 -0.000386076 0)
(0.0115627 -0.000319591 0)
(0.0116885 -0.000245652 0)
(0.0117924 -0.000163944 0)
(0.011874 -7.35472e-05 0)
(0.0119352 2.63841e-05 0)
(0.0119736 0.00013536 0)
(0.011992 0.000252804 0)
(0.0119939 0.000378442 0)
(0.0119832 0.000511659 0)
(0.0119648 0.00065076 0)
(0.0119443 0.000792526 0)
(0.0119268 0.000931725 0)
(0.0119164 0.00106085 0)
(0.0119151 0.00117038 0)
(0.0119212 0.00124987 0)
(0.0119292 0.00128994 0)
(0.01193 0.00128489 0)
(0.0119118 0.00123488 0)
(0.0118632 0.00114691 0)
(0.0117757 0.00103377 0)
(0.0116464 0.000911325 0)
(0.0114782 0.000795158 0)
(0.0112792 0.000697742 0)
(0.0110599 0.000626744 0)
(0.0108308 0.000584348 0)
(0.0105996 0.000568526 0)
(0.0103695 0.000575415 0)
(0.0101401 0.000601128 0)
(0.00990818 0.000642384 0)
(0.00966857 0.00069668 0)
(0.00941459 0.00076201 0)
(0.00913849 0.000836537 0)
(0.00883169 0.000918606 0)
(0.00848506 0.0010071 0)
(0.00808929 0.0011023 0)
(0.00763516 0.00120792 0)
(0.00711365 0.00133516 0)
(0.00651582 0.00151135 0)
(0.00583176 0.00179922 0)
(0.00504605 0.00234831 0)
(0.00417948 0.00356823 0)
(0.00276343 0.0069717 0)
(0.00237342 0.0158762 0)
(-0.00170685 0.0168677 0)
(-0.00186932 0.00922062 0)
(-0.00292863 0.00551566 0)
(-0.00350981 0.00393683 0)
(-0.00409138 0.00298405 0)
(-0.00456524 0.00222387 0)
(-0.00493772 0.00152518 0)
(-0.00521305 0.00084539 0)
(-0.00539864 0.000169421 0)
(-0.00550322 -0.000507625 0)
(-0.00551052 -0.00119503 0)
(-0.0054219 -0.00191188 0)
(-0.00522145 -0.00265905 0)
(-0.00489925 -0.00341594 0)
(-0.00445647 -0.00414539 0)
(-0.00390577 -0.00480367 0)
(-0.00326856 -0.00535114 0)
(-0.00257126 -0.00575952 0)
(-0.00184252 -0.00601462 0)
(-0.00111213 -0.00611503 0)
(-0.000412288 -0.00606505 0)
(0.000267471 -0.00584869 0)
(0.000911663 -0.0054792 0)
(0.00150708 -0.00502557 0)
(0.00205821 -0.0045333 0)
(0.00255581 -0.00404525 0)
(0.00300488 -0.00358055 0)
(0.00340958 -0.00315286 0)
(0.00377488 -0.00277182 0)
(0.00410804 -0.00244032 0)
(0.00441624 -0.00215596 0)
(0.0047047 -0.00191363 0)
(0.00497691 -0.0017082 0)
(0.00523575 -0.00153474 0)
(0.00548346 -0.00138849 0)
(0.00572155 -0.00126563 0)
(0.00595137 -0.00116326 0)
(0.00617438 -0.00107913 0)
(0.00639217 -0.00101147 0)
(0.00660649 -0.000958782 0)
(0.00681924 -0.000919639 0)
(0.00703239 -0.000892541 0)
(0.00724782 -0.000875822 0)
(0.00746721 -0.000867599 0)
(0.00769194 -0.000865751 0)
(0.00792293 -0.000867949 0)
(0.00816056 -0.000871723 0)
(0.00840456 -0.000874558 0)
(0.00865402 -0.000874016 0)
(0.00890738 -0.000867852 0)
(0.00916252 -0.000854132 0)
(0.00941682 -0.000831313 0)
(0.00966732 -0.000798302 0)
(0.00991083 -0.000754468 0)
(0.0101441 -0.000699613 0)
(0.0103638 -0.000633898 0)
(0.0105671 -0.000557745 0)
(0.0107513 -0.00047172 0)
(0.0109143 -0.00037643 0)
(0.0110546 -0.000272451 0)
(0.0111714 -0.000160164 0)
(0.0112666 -3.90956e-05 0)
(0.011341 9.0237e-05 0)
(0.0113943 0.000226138 0)
(0.0114294 0.000367061 0)
(0.0114499 0.000511463 0)
(0.0114596 0.000657136 0)
(0.0114627 0.000800789 0)
(0.0114632 0.00093782 0)
(0.0114641 0.00106228 0)
(0.0114665 0.00116722 0)
(0.0114692 0.00124546 0)
(0.0114679 0.00129102 0)
(0.0114559 0.00130063 0)
(0.0114253 0.00127505 0)
(0.0113687 0.00121952 0)
(0.0112809 0.00114307 0)
(0.0111606 0.00105684 0)
(0.01101 0.000972018 0)
(0.0108348 0.000898082 0)
(0.0106419 0.000841648 0)
(0.0104382 0.000806169 0)
(0.0102286 0.000792516 0)
(0.0100156 0.000800181 0)
(0.00979868 0.000828281 0)
(0.00957492 0.000876008 0)
(0.00933956 0.000942719 0)
(0.00908619 0.00102782 0)
(0.00880712 0.00113061 0)
(0.00849353 0.00125026 0)
(0.00813581 0.00138613 0)
(0.00772395 0.00153857 0)
(0.00724808 0.00171087 0)
(0.00669925 0.00191339 0)
(0.00607029 0.0021723 0)
(0.0053567 0.00254983 0)
(0.00455123 0.00319964 0)
(0.00371835 0.00455071 0)
(0.00234654 0.00821886 0)
(0.0020557 0.0179913 0)
(-0.00147624 0.0183224 0)
(-0.0015323 0.0100318 0)
(-0.00247023 0.00614153 0)
(-0.00292322 0.00449684 0)
(-0.00340998 0.00346781 0)
(-0.00380277 0.00262152 0)
(-0.00411909 0.00183878 0)
(-0.00436964 0.0010837 0)
(-0.0045675 0.000337149 0)
(-0.00472387 -0.000416187 0)
(-0.00481097 -0.00118748 0)
(-0.00481208 -0.00200248 0)
(-0.00470834 -0.00286336 0)
(-0.00448771 -0.00374004 0)
(-0.00415302 -0.00458223 0)
(-0.00371935 -0.00533515 0)
(-0.0032093 -0.0059524 0)
(-0.00264898 -0.00640278 0)
(-0.00206538 -0.00667149 0)
(-0.00148459 -0.006758 0)
(-0.000929994 -0.00667168 0)
(-0.000415768 -0.00642389 0)
(7.63806e-05 -0.00602542 0)
(0.00053888 -0.00552919 0)
(0.000969384 -0.00499074 0)
(0.00136359 -0.00445778 0)
(0.001725 -0.00395552 0)
(0.00206015 -0.00349528 0)
(0.00237209 -0.00308773 0)
(0.00266559 -0.00273623 0)
(0.00294672 -0.00243698 0)
(0.00321961 -0.00218257 0)
(0.00348536 -0.00196714 0)
(0.00374494 -0.00178549 0)
(0.00399948 -0.0016321 0)
(0.00424888 -0.00150294 0)
(0.00449345 -0.00139526 0)
(0.00473388 -0.00130697 0)
(0.00497125 -0.00123657 0)
(0.00520709 -0.00118284 0)
(0.00544327 -0.00114451 0)
(0.00568182 -0.00112012 0)
(0.00592478 -0.00110789 0)
(0.00617401 -0.00110569 0)
(0.00643104 -0.00111101 0)
(0.00669687 -0.00112097 0)
(0.00697183 -0.00113246 0)
(0.00725548 -0.00114228 0)
(0.00754662 -0.00114729 0)
(0.00784325 -0.00114459 0)
(0.0081427 -0.00113171 0)
(0.00844179 -0.00110665 0)
(0.00873695 -0.00106807 0)
(0.00902443 -0.0010152 0)
(0.00930051 -0.000947896 0)
(0.0095616 -0.000866519 0)
(0.0098045 -0.000771844 0)
(0.0100264 -0.000664934 0)
(0.0102253 -0.000547027 0)
(0.0103998 -0.000419449 0)
(0.0105492 -0.00028357 0)
(0.0106734 -0.000140406 0)
(0.0107769 1.01059e-05 0)
(0.0108582 0.00016579 0)
(0.0109196 0.000324195 0)
(0.0109641 0.000482829 0)
(0.0109948 0.000639075 0)
(0.0110151 0.00078969 0)
(0.0110278 0.000930664 0)
(0.0110353 0.00105728 0)
(0.0110383 0.00116444 0)
(0.0110359 0.00124721 0)
(0.0110255 0.00130176 0)
(0.0110028 0.00132628 0)
(0.0109628 0.00132173 0)
(0.010901 0.00129208 0)
(0.0108144 0.00124389 0)
(0.0107025 0.00118528 0)
(0.010567 0.00112473 0)
(0.0104115 0.00106995 0)
(0.0102407 0.00102711 0)
(0.0100588 0.00100059 0)
(0.00986899 0.000993192 0)
(0.00967242 0.00100671 0)
(0.00946819 0.00104244 0)
(0.00925343 0.00110153 0)
(0.00902358 0.00118499 0)
(0.00877257 0.00129369 0)
(0.008493 0.00142821 0)
(0.00817639 0.00158875 0)
(0.00781337 0.00177533 0)
(0.00739415 0.00198843 0)
(0.00690914 0.00223068 0)
(0.00635 0.00251072 0)
(0.00571098 0.00285168 0)
(0.00499081 0.00331165 0)
(0.00418323 0.00404262 0)
(0.00338437 0.00548632 0)
(0.00205128 0.0093484 0)
(0.00180606 0.0198252 0)
(-0.00129564 0.019568 0)
(-0.00128129 0.0107065 0)
(-0.00211525 0.00665364 0)
(-0.00245883 0.00495343 0)
(-0.00286524 0.00386309 0)
(-0.00318558 0.00295016 0)
(-0.00344841 0.00210914 0)
(-0.00367193 0.00131356 0)
(-0.00387792 0.00053771 0)
(-0.00407908 -0.000256848 0)
(-0.00424756 -0.00109428 0)
(-0.00433448 -0.00199924 0)
(-0.00432126 -0.0029697 0)
(-0.00419675 -0.00396095 0)
(-0.00396698 -0.00490768 0)
(-0.00364909 -0.00574501 0)
(-0.00326575 -0.00642168 0)
(-0.00284157 -0.00690514 0)
(-0.0024008 -0.00718146 0)
(-0.00196526 -0.00725278 0)
(-0.00155213 -0.00713349 0)
(-0.00117092 -0.00684666 0)
(-0.000819404 -0.00642483 0)
(-0.000490368 -0.00591333 0)
(-0.000168861 -0.00534767 0)
(0.000141177 -0.00478001 0)
(0.000433895 -0.00425588 0)
(0.000719023 -0.00377933 0)
(0.000998597 -0.00336021 0)
(0.00127436 -0.00300244 0)
(0.0015479 -0.00270132 0)
(0.00182253 -0.0024453 0)
(0.00209711 -0.00222792 0)
(0.00236946 -0.00204454 0)
(0.0026405 -0.00188854 0)
(0.00290847 -0.00175611 0)
(0.00317283 -0.00164537 0)
(0.00343391 -0.00155456 0)
(0.00369255 -0.00148285 0)
(0.00395036 -0.00142948 0)
(0.0042095 -0.00139351 0)
(0.0044724 -0.00137361 0)
(0.00474151 -0.00136793 0)
(0.00501908 -0.00137409 0)
(0.00530699 -0.00138908 0)
(0.00560645 -0.00140937 0)
(0.00591783 -0.00143107 0)
(0.00624054 -0.0014501 0)
(0.006573 -0.00146249 0)
(0.00691271 -0.00146455 0)
(0.00725636 -0.00145318 0)
(0.00760007 -0.00142594 0)
(0.00793957 -0.00138121 0)
(0.00827047 -0.00131817 0)
(0.00858848 -0.00123682 0)
(0.0088896 -0.00113783 0)
(0.00917031 -0.00102246 0)
(0.0094277 -0.000892383 0)
(0.00965956 -0.000749551 0)
(0.00986451 -0.000596073 0)
(0.010042 -0.000434126 0)
(0.0101921 -0.000265877 0)
(0.0103157 -9.28584e-05 0)
(0.010418 8.40798e-05 0)
(0.0104981 0.000261595 0)
(0.0105587 0.000436809 0)
(0.0106029 0.000606732 0)
(0.0106333 0.000768206 0)
(0.0106525 0.000917723 0)
(0.0106622 0.0010515 0)
(0.0106633 0.00116571 0)
(0.0106557 0.00125691 0)
(0.0106377 0.00132262 0)
(0.0106069 0.00136188 0)
(0.0105606 0.00137571 0)
(0.0104963 0.00136722 0)
(0.0104125 0.0013414 0)
(0.0103091 0.00130453 0)
(0.0101874 0.00126339 0)
(0.0100496 0.00122466 0)
(0.00989851 0.00119432 0)
(0.00973652 0.00117747 0)
(0.00956498 0.00117832 0)
(0.00938385 0.00120041 0)
(0.00919152 0.00124683 0)
(0.00898486 0.00132037 0)
(0.00875939 0.00142356 0)
(0.00850941 0.0015586 0)
(0.00822812 0.0017272 0)
(0.00790774 0.00193055 0)
(0.00753974 0.0021693 0)
(0.00711519 0.00244399 0)
(0.00662541 0.00275641 0)
(0.00606301 0.00311308 0)
(0.00542332 0.00353332 0)
(0.00470714 0.00406985 0)
(0.00390559 0.00487107 0)
(0.00313902 0.0063884 0)
(0.00184353 0.0104039 0)
(0.00160834 0.0214657 0)
(-0.00115262 0.0206528 0)
(-0.00109518 0.0112747 0)
(-0.0018444 0.00707506 0)
(-0.00210476 0.00532784 0)
(-0.00245409 0.00418729 0)
(-0.00272178 0.00322116 0)
(-0.00294679 0.00234015 0)
(-0.00315412 0.00153034 0)
(-0.00337371 0.000759851 0)
(-0.00361095 -3.89333e-05 0)
(-0.00384517 -0.000926273 0)
(-0.00400457 -0.00191459 0)
(-0.00406814 -0.00298923 0)
(-0.00402954 -0.00408655 0)
(-0.00389802 -0.00512646 0)
(-0.00369128 -0.00603622 0)
(-0.00343045 -0.00676169 0)
(-0.00313745 -0.00727026 0)
(-0.0028328 -0.00755014 0)
(-0.00253344 -0.00760762 0)
(-0.0022506 -0.00746329 0)
(-0.00198833 -0.00714842 0)
(-0.00174327 -0.00670269 0)
(-0.00150833 -0.00617371 0)
(-0.00127475 -0.00560841 0)
(-0.00103518 -0.00504797 0)
(-0.000787154 -0.00452071 0)
(-0.000530107 -0.0040449 0)
(-0.000261947 -0.00362739 0)
(2.08465e-05 -0.00326784 0)
(0.000307193 -0.0029716 0)
(0.000599111 -0.00272044 0)
(0.000896901 -0.00250526 0)
(0.0011928 -0.00232341 0)
(0.0014876 -0.00216641 0)
(0.00177864 -0.00203116 0)
(0.00206442 -0.00191751 0)
(0.00234584 -0.00182398 0)
(0.00262367 -0.00175088 0)
(0.00290002 -0.00169821 0)
(0.00317774 -0.00166539 0)
(0.00345991 -0.00165131 0)
(0.00374971 -0.00165406 0)
(0.00405011 -0.00167093 0)
(0.00436357 -0.00169833 0)
(0.00469173 -0.0017319 0)
(0.00503514 -0.0017667 0)
(0.00539307 -0.00179759 0)
(0.00576356 -0.00181952 0)
(0.00614347 -0.0018279 0)
(0.00652875 -0.00181887 0)
(0.00691468 -0.00178952 0)
(0.00729621 -0.001738 0)
(0.00766822 -0.00166351 0)
(0.00802581 -0.00156631 0)
(0.00836449 -0.00144752 0)
(0.0086804 -0.00130901 0)
(0.0089704 -0.00115316 0)
(0.00923217 -0.000982741 0)
(0.00946424 -0.000800688 0)
(0.00966602 -0.000610011 0)
(0.00983777 -0.000413675 0)
(0.00998026 -0.000214469 0)
(0.0100964 -1.4138e-05 0)
(0.010189 0.000184802 0)
(0.0102596 0.000379035 0)
(0.010311 0.000565438 0)
(0.0103461 0.000740911 0)
(0.0103671 0.000902345 0)
(0.0103759 0.00104664 0)
(0.0103739 0.00117086 0)
(0.0103612 0.00127253 0)
(0.0103377 0.00135001 0)
(0.0103022 0.00140285 0)
(0.0102535 0.00143208 0)
(0.0101904 0.00144033 0)
(0.0101125 0.00143169 0)
(0.0100196 0.0014114 0)
(0.00991249 0.00138543 0)
(0.00979224 0.00136002 0)
(0.00965986 0.00134132 0)
(0.00951592 0.00133509 0)
(0.00936018 0.00134664 0)
(0.00919135 0.00138082 0)
(0.00900708 0.00144201 0)
(0.00880399 0.00153422 0)
(0.0085778 0.00166107 0)
(0.00832338 0.00182573 0)
(0.00803486 0.00203085 0)
(0.00770563 0.00227838 0)
(0.00732845 0.00256953 0)
(0.00689569 0.00290491 0)
(0.00639994 0.00328552 0)
(0.00583492 0.00371574 0)
(0.00519679 0.00421109 0)
(0.0044879 0.00481885 0)
(0.00369496 0.00568329 0)
(0.00295656 0.00726387 0)
(0.00169764 0.0114068 0)
(0.00145006 0.0229623 0)
(-0.00103766 0.021613 0)
(-0.000957168 0.0117622 0)
(-0.00164089 0.00743088 0)
(-0.00184616 0.00564614 0)
(-0.00216272 0.00446489 0)
(-0.00239998 0.00345596 0)
(-0.002608 0.00254994 0)
(-0.00281727 0.00174669 0)
(-0.00306164 0.00100366 0)
(-0.00333683 0.000218755 0)
(-0.00360866 -0.000703953 0)
(-0.00381952 -0.00176843 0)
(-0.00394265 -0.00293712 0)
(-0.00397814 -0.00412699 0)
(-0.00393665 -0.0052455 0)
(-0.00383411 -0.00621462 0)
(-0.00368851 -0.0069787 0)
(-0.00351795 -0.00750605 0)
(-0.00333837 -0.00778794 0)
(-0.00316125 -0.00783578 0)
(-0.00299198 -0.00767663 0)
(-0.00282957 -0.00734861 0)
(-0.00266784 -0.00689688 0)
(-0.0024982 -0.00636971 0)
(-0.00231233 -0.00581269 0)
(-0.00210442 -0.0052651 0)
(-0.00187248 -0.00475568 0)
(-0.00161714 -0.00430016 0)
(-0.00134057 -0.00390426 0)
(-0.00104552 -0.00356553 0)
(-0.000736907 -0.00327796 0)
(-0.000420792 -0.00303287 0)
(-9.29157e-05 -0.00281744 0)
(0.000234676 -0.00263204 0)
(0.000554492 -0.00247123 0)
(0.000870341 -0.00233015 0)
(0.00117553 -0.00221101 0)
(0.00147403 -0.00211221 0)
(0.00176632 -0.00203596 0)
(0.00205542 -0.00198306 0)
(0.00234514 -0.00195331 0)
(0.00263949 -0.0019458 0)
(0.00294267 -0.00195857 0)
(0.00325869 -0.00198859 0)
(0.00359098 -0.00203152 0)
(0.00394186 -0.00208186 0)
(0.00431216 -0.00213335 0)
(0.00470101 -0.0021794 0)
(0.0051059 -0.00221365 0)
(0.00552289 -0.00223037 0)
(0.00594698 -0.00222486 0)
(0.00637248 -0.00219371 0)
(0.00679342 -0.0021349 0)
(0.00720394 -0.00204778 0)
(0.00759851 -0.00193298 0)
(0.00797224 -0.00179222 0)
(0.00832095 -0.00162808 0)
(0.00864132 -0.0014438 0)
(0.00893094 -0.00124299 0)
(0.00918827 -0.00102949 0)
(0.00941267 -0.000807176 0)
(0.00960434 -0.000579826 0)
(0.00976422 -0.000351046 0)
(0.00989374 -0.00012398 0)
(0.00999694 9.94194e-05 0)
(0.0100756 0.000315305 0)
(0.0101325 0.000520671 0)
(0.0101706 0.000712513 0)
(0.0101926 0.00088805 0)
(0.0102007 0.00104471 0)
(0.0101967 0.0011802 0)
(0.0101818 0.00129274 0)
(0.0101564 0.00138125 0)
(0.0101206 0.00144566 0)
(0.0100742 0.00148712 0)
(0.0100168 0.00150811 0)
(0.00994801 0.0015124 0)
(0.0098676 0.00150487 0)
(0.00977538 0.00149128 0)
(0.00967109 0.00147792 0)
(0.00955416 0.00147127 0)
(0.00942357 0.00147774 0)
(0.00927772 0.00150342 0)
(0.00911435 0.00155399 0)
(0.00893061 0.00163468 0)
(0.00872312 0.0017502 0)
(0.00848805 0.00190482 0)
(0.00822117 0.00210234 0)
(0.00791777 0.002346 0)
(0.00757269 0.00263834 0)
(0.00718024 0.00298103 0)
(0.00673436 0.00337479 0)
(0.00622901 0.00382 0)
(0.00565906 0.0043192 0)
(0.00502129 0.00488447 0)
(0.0043193 0.00555801 0)
(0.00353453 0.00648015 0)
(0.00281872 0.00811757 0)
(0.00159436 0.0123713 0)
(0.00132154 0.0243491 0)
(-0.00094379 0.0224771 0)
(-0.000854634 0.0121916 0)
(-0.00149024 0.00774524 0)
(-0.00166597 0.00593329 0)
(-0.00196986 0.00471929 0)
(-0.00219528 0.00367654 0)
(-0.00240492 0.00275994 0)
(-0.00263311 0.00198131 0)
(-0.00290988 0.00127724 0)
(-0.00321816 0.000507063 0)
(-0.0035129 -0.00044649 0)
(-0.00375567 -0.00157943 0)
(-0.003925 -0.00282696 0)
(-0.00402505 -0.00409166 0)
(-0.00406565 -0.00527249 0)
(-0.00405913 -0.00628807 0)
(-0.0040192 -0.00708204 0)
(-0.00395935 -0.00762415 0)
(-0.00389032 -0.00790949 0)
(-0.00381791 -0.007955 0)
(-0.00374203 -0.00779387 0)
(-0.00365732 -0.00746952 0)
(-0.00355508 -0.00703023 0)
(-0.00342602 -0.00652438 0)
(-0.00326268 -0.00599577 0)
(-0.00306107 -0.00547996 0)
(-0.00282117 -0.00500173 0)
(-0.00254622 -0.00457444 0)
(-0.00224173 -0.00420187 0)
(-0.00191464 -0.00388103 0)
(-0.00157311 -0.0036059 0)
(-0.0012256 -0.00336817 0)
(-0.000878132 -0.00315939 0)
(-0.00053483 -0.00297374 0)
(-0.000197323 -0.00280664 0)
(0.000144502 -0.00265237 0)
(0.00046412 -0.00252278 0)
(0.000775524 -0.00241473 0)
(0.001077 -0.00233229 0)
(0.00137297 -0.00227718 0)
(0.00166859 -0.00224975 0)
(0.00196886 -0.00224937 0)
(0.00227922 -0.00227391 0)
(0.00260507 -0.00232003 0)
(0.00295124 -0.00238243 0)
(0.00332097 -0.00245408 0)
(0.00371533 -0.00252684 0)
(0.00413306 -0.00259223 0)
(0.00457074 -0.00264217 0)
(0.00502328 -0.00266958 0)
(0.00548439 -0.00266889 0)
(0.00594726 -0.00263622 0)
(0.00640495 -0.00256956 0)
(0.00685088 -0.00246857 0)
(0.00727908 -0.00233446 0)
(0.00768441 -0.00216972 0)
(0.00806264 -0.00197779 0)
(0.00841048 -0.00176281 0)
(0.00872559 -0.00152932 0)
(0.00900654 -0.00128204 0)
(0.00925272 -0.00102571 0)
(0.00946434 -0.000764888 0)
(0.00964231 -0.000503888 0)
(0.00978808 -0.000246666 0)
(0.00990404 3.72793e-06 0)
(0.00999351 0.000243991 0)
(0.010059 0.000470685 0)
(0.0101036 0.000680981 0)
(0.0101304 0.000872301 0)
(0.010142 0.00104244 0)
(0.010141 0.00118963 0)
(0.0101289 0.00131262 0)
(0.0101071 0.00141087 0)
(0.0100764 0.00148476 0)
(0.0100368 0.00153577 0)
(0.00998822 0.00156659 0)
(0.00993011 0.00158114 0)
(0.0098616 0.00158448 0)
(0.00978147 0.00158256 0)
(0.00968824 0.00158198 0)
(0.00958004 0.0015896 0)
(0.00945468 0.00161228 0)
(0.00930967 0.00165656 0)
(0.00914227 0.00172855 0)
(0.00894956 0.00183379 0)
(0.00872849 0.00197727 0)
(0.00847598 0.00216351 0)
(0.00818881 0.00239658 0)
(0.0078636 0.00268006 0)
(0.00749667 0.00301693 0)