/*--------------------------------*- C++ -*----------------------------------*\
| =========                 |                                                 |
| \\      /  F ield         | OpenFOAM: The Open Source CFD Toolbox           |
|  \\    /   O peration     | Version:  4.1                                   |
|   \\  /    A nd           | Web:      www.OpenFOAM.org                      |
|    \\/     M anipulation  |                                                 |
\*---------------------------------------------------------------------------*/
FoamFile
{
    version     2.0;
    format      ascii;
    class       volScalarField;
    location    "1740";
    object      T;
}
// * * * * * * * * * * * * * * * * * * * * * * * * * * * * * * * * * * * * * //

dimensions      [0 0 0 1 0 0 0];

internalField   nonuniform List<scalar> 
5000
(
288.656
288.51
288.387
288.366
288.268
288.168
288.057
287.929
287.777
287.6
287.403
287.189
286.962
286.724
286.475
286.252
286.064
285.909
285.782
285.682
285.607
285.559
285.548
285.572
285.599
285.624
285.649
285.673
285.699
285.725
285.754
285.784
285.816
285.85
285.887
285.926
285.968
286.013
286.061
286.113
286.168
286.229
286.294
286.365
286.441
286.517
286.593
286.671
286.749
286.828
286.909
286.992
287.077
287.164
287.255
287.349
287.447
287.55
287.659
287.774
287.897
288.031
288.177
288.341
288.534
288.783
288.5
287.568
287.25
287.041
286.866
286.71
286.57
286.441
286.323
286.212
286.107
286.008
285.913
285.82
285.729
285.639
285.551
285.473
285.406
285.346
285.293
285.246
285.204
285.165
285.129
285.094
285.06
285.027
284.985
285.037
285.167
285.389
285.614
285.931
287.198
285.521
285.076
285.196
285.303
285.42
285.516
285.537
285.471
285.338
285.172
285.007
284.873
284.791
284.769
284.768
284.769
284.771
284.773
284.776
284.778
284.779
284.779
284.779
284.779
284.778
284.778
284.777
284.776
284.775
284.774
284.773
284.772
284.771
284.77
284.769
284.768
284.767
284.766
284.765
284.765
284.764
284.763
284.763
284.763
284.769
284.782
284.8
284.826
284.858
284.898
284.945
285.001
285.064
285.136
285.218
285.31
285.413
285.529
285.659
285.808
285.982
286.189
286.452
286.814
287.384
287.986
287.03
285.998
285.601
285.387
285.231
285.101
284.99
284.892
284.806
284.732
284.67
284.62
284.583
284.558
284.546
284.545
284.543
284.541
284.538
284.535
284.531
284.526
284.521
284.515
284.509
284.502
284.496
284.489
284.49
284.498
284.517
284.82
285.462
286.658
285.033
284.803
284.838
284.87
284.906
284.937
284.941
284.914
284.866
284.815
284.778
284.759
284.756
284.759
284.764
284.768
284.772
284.776
284.78
284.783
284.785
284.786
284.786
284.786
284.785
284.785
284.784
284.783
284.781
284.78
284.778
284.777
284.775
284.773
284.771
284.769
284.767
284.765
284.763
284.762
284.76
284.758
284.756
284.754
284.753
284.751
284.75
284.751
284.752
284.756
284.763
284.773
284.787
284.808
284.835
284.871
284.918
284.976
285.051
285.145
285.266
285.427
285.649
285.98
286.534
287.358
287.15
285.752
285.204
284.978
284.846
284.755
284.69
284.643
284.609
284.587
284.573
284.566
284.564
284.563
284.563
284.563
284.561
284.559
284.555
284.55
284.543
284.536
284.528
284.519
284.51
284.501
284.491
284.484
284.485
284.497
284.503
284.657
285.268
286.361
284.89
284.757
284.766
284.774
284.783
284.79
284.79
284.781
284.769
284.759
284.755
284.757
284.76
284.764
284.768
284.773
284.777
284.782
284.787
284.79
284.792
284.793
284.793
284.793
284.793
284.792
284.791
284.79
284.788
284.786
284.784
284.782
284.78
284.778
284.775
284.773
284.771
284.768
284.766
284.764
284.761
284.759
284.757
284.755
284.753
284.752
284.75
284.748
284.747
284.746
284.745
284.745
284.747
284.751
284.759
284.77
284.788
284.813
284.85
284.902
284.976
285.084
285.247
285.51
285.974
286.785
287.092
286.002
285.083
284.834
284.719
284.654
284.617
284.596
284.586
284.582
284.582
284.583
284.585
284.587
284.587
284.586
284.584
284.58
284.575
284.568
284.559
284.55
284.539
284.527
284.515
284.502
284.491
284.482
284.483
284.501
284.507
284.601
285.158
286.17
284.831
284.742
284.745
284.748
284.751
284.753
284.753
284.753
284.752
284.753
284.756
284.76
284.764
284.767
284.771
284.775
284.781
284.787
284.792
284.795
284.797
284.798
284.799
284.799
284.799
284.798
284.797
284.796
284.793
284.791
284.789
284.786
284.783
284.78
284.777
284.774
284.771
284.768
284.765
284.762
284.76
284.757
284.755
284.753
284.751
284.749
284.747
284.745
284.744
284.742
284.741
284.74
284.739
284.739
284.74
284.743
284.749
284.76
284.777
284.804
284.848
284.917
285.031
285.226
285.592
286.303
286.871
286.312
285.167
284.783
284.672
284.623
284.601
284.593
284.593
284.596
284.6
284.605
284.608
284.61
284.61
284.609
284.606
284.601
284.594
284.585
284.575
284.564
284.551
284.536
284.521
284.506
284.492
284.482
284.482
284.504
284.511
284.576
285.09
286.036
284.801
284.735
284.738
284.74
284.741
284.744
284.746
284.749
284.752
284.755
284.759
284.763
284.765
284.768
284.771
284.777
284.785
284.792
284.797
284.8
284.802
284.804
284.805
284.805
284.805
284.804
284.802
284.8
284.797
284.794
284.791
284.787
284.783
284.779
284.775
284.772
284.768
284.764
284.761
284.758
284.755
284.752
284.749
284.747
284.745
284.743
284.741
284.74
284.738
284.737
284.736
284.734
284.733
284.733
284.733
284.733
284.735
284.739
284.748
284.762
284.787
284.831
284.908
285.05
285.328
285.915
286.584
286.428
285.486
284.785
284.656
284.614
284.601
284.6
284.605
284.612
284.619
284.625
284.629
284.632
284.632
284.63
284.626
284.62
284.611
284.601
284.59
284.577
284.562
284.546
284.529
284.511
284.495
284.483
284.482
284.506
284.517
284.565
285.046
285.936
284.784
284.732
284.735
284.737
284.739
284.742
284.746
284.75
284.754
284.758
284.762
284.764
284.766
284.768
284.771
284.779
284.789
284.797
284.801
284.805
284.807
284.809
284.81
284.81
284.81
284.809
284.807
284.804
284.8
284.796
284.791
284.787
284.782
284.777
284.772
284.767
284.762
284.758
284.754
284.75
284.746
284.743
284.74
284.738
284.736
284.734
284.733
284.731
284.73
284.729
284.728
284.727
284.727
284.726
284.726
284.726
284.727
284.729
284.733
284.741
284.756
284.784
284.836
284.937
285.145
285.611
286.284
286.413
285.775
284.937
284.656
284.614
284.605
284.609
284.617
284.627
284.636
284.644
284.649
284.652
284.652
284.65
284.644
284.637
284.627
284.615
284.603
284.589
284.574
284.556
284.537
284.518
284.5
284.487
284.484
284.506
284.529
284.562
285.018
285.858
284.773
284.729
284.734
284.736
284.739
284.743
284.747
284.752
284.757
284.761
284.764
284.766
284.767
284.768
284.771
284.782
284.794
284.801
284.806
284.809
284.812
284.814
284.815
284.816
284.815
284.813
284.81
284.806
284.802
284.796
284.79
284.784
284.778
284.772
284.765
284.759
284.754
284.748
284.744
284.739
284.735
284.732
284.729
284.726
284.724
284.722
284.721
284.72
284.719
284.719
284.718
284.718
284.718
284.718
284.719
284.719
284.72
284.721
284.724
284.729
284.739
284.757
284.792
284.864
285.017
285.378
285.998
286.312
285.949
285.209
284.685
284.617
284.61
284.617
284.628
284.64
284.651
284.661
284.667
284.671
284.671
284.667
284.661
284.651
284.64
284.628
284.615
284.6
284.585
284.567
284.547
284.526
284.506
284.492
284.488
284.507
284.549
284.563
284.999
285.794
284.765
284.728
284.733
284.736
284.74
284.745
284.75
284.755
284.76
284.763
284.766
284.767
284.767
284.768
284.772
284.786
284.799
284.806
284.81
284.814
284.817
284.819
284.82
284.82
284.819
284.817
284.813
284.808
284.802
284.795
284.788
284.78
284.773
284.765
284.757
284.75
284.743
284.737
284.731
284.726
284.722
284.718
284.714
284.712
284.71
284.708
284.707
284.706
284.706
284.706
284.706
284.707
284.708
284.709
284.71
284.711
284.712
284.714
284.717
284.721
284.727
284.74
284.764
284.815
284.928
285.202
285.742
286.161
286.027
285.447
284.832
284.624
284.615
284.623
284.637
284.651
284.664
284.676
284.684
284.688
284.688
284.684
284.675
284.664
284.651
284.638
284.625
284.611
284.595
284.577
284.557
284.535
284.514
284.498
284.492
284.508
284.566
284.565
284.983
285.74
284.759
284.726
284.732
284.737
284.741
284.746
284.752
284.758
284.763
284.766
284.769
284.77
284.769
284.768
284.774
284.792
284.803
284.81
284.815
284.818
284.822
284.824
284.825
284.825
284.824
284.82
284.815
284.809
284.802
284.793
284.784
284.775
284.766
284.757
284.748
284.739
284.731
284.724
284.717
284.712
284.706
284.702
284.698
284.696
284.693
284.692
284.691
284.691
284.691
284.692
284.693
284.694
284.696
284.697
284.699
284.702
284.704
284.706
284.709
284.713
284.719
284.728
284.746
284.782
284.865
285.071
285.523
285.986
286.03
285.621
285.042
284.666
284.619
284.629
284.644
284.66
284.676
284.689
284.698
284.704
284.704
284.698
284.688
284.675
284.66
284.646
284.634
284.621
284.606
284.588
284.567
284.545
284.523
284.506
284.499
284.51
284.57
284.566
284.968
285.694
284.754
284.725
284.732
284.737
284.742
284.748
284.755
284.761
284.766
284.77
284.773
284.773
284.77
284.77
284.778
284.797
284.808
284.814
284.819
284.823
284.826
284.829
284.83
284.83
284.828
284.823
284.817
284.81
284.801
284.791
284.78
284.769
284.758
284.747
284.737
284.727
284.718
284.71
284.703
284.696
284.69
284.686
284.682
284.679
284.676
284.675
284.674
284.674
284.675
284.676
284.678
284.68
284.682
284.685
284.688
284.691
284.694
284.698
284.701
284.706
284.711
284.719
284.732
284.76
284.82
284.974
285.34
285.805
285.98
285.731
285.235
284.787
284.628
284.633
284.649
284.667
284.685
284.7
284.711
284.718
284.718
284.712
284.7
284.684
284.668
284.653
284.642
284.63
284.616
284.599
284.578
284.556
284.534
284.515
284.506
284.514
284.569
284.567
284.952
285.655
284.75
284.723
284.732
284.738
284.744
284.75
284.757
284.764
284.77
284.774
284.777
284.775
284.772
284.772
284.782
284.802
284.812
284.818
284.823
284.827
284.831
284.834
284.835
284.835
284.832
284.826
284.819
284.81
284.799
284.787
284.775
284.762
284.75
284.738
284.726
284.715
284.705
284.696
284.688
284.681
284.674
284.669
284.665
284.662
284.659
284.658
284.657
284.658
284.659
284.66
284.663
284.665
284.669
284.672
284.676
284.68
284.684
284.689
284.693
284.698
284.704
284.711
284.722
284.743
284.788
284.903
285.193
285.63
285.893
285.786
285.392
284.944
284.671
284.637
284.653
284.673
284.692
284.709
284.723
284.731
284.732
284.725
284.71
284.692
284.674
284.66
284.649
284.639
284.626
284.61
284.59
284.568
284.545
284.526
284.516
284.521
284.568
284.567
284.937
285.62
284.747
284.722
284.732
284.738
284.745
284.752
284.76
284.767
284.774
284.779
284.781
284.778
284.773
284.775
284.788
284.807
284.816
284.822
284.827
284.832
284.836
284.839
284.84
284.839
284.835
284.829
284.82
284.81
284.797
284.784
284.77
284.756
284.742
284.728
284.715
284.703
284.692
284.682
284.673
284.665
284.659
284.653
284.648
284.645
284.643
284.641
284.641
284.641
284.642
284.644
284.647
284.65
284.654
284.659
284.663
284.668
284.674
284.679
284.684
284.69
284.696
284.704
284.713
284.73
284.765
284.851
285.077
285.469
285.785
285.795
285.509
285.097
284.765
284.645
284.656
284.677
284.698
284.717
284.732
284.742
284.744
284.736
284.719
284.698
284.678
284.665
284.656
284.647
284.636
284.621
284.602
284.58
284.557
284.537
284.526
284.529
284.568
284.567
284.924
285.589
284.744
284.721
284.732
284.739
284.746
284.754
284.763
284.771
284.778
284.784
284.785
284.78
284.774
284.778
284.794
284.811
284.82
284.826
284.831
284.836
284.841
284.844
284.845
284.844
284.839
284.832
284.822
284.81
284.796
284.781
284.765
284.75
284.734
284.719
284.705
284.691
284.679
284.668
284.659
284.65
284.643
284.637
284.633
284.629
284.626
284.625
284.625
284.625
284.627
284.629
284.632
284.636
284.64
284.645
284.651
284.656
284.663
284.669
284.675
284.682
284.689
284.696
284.706
284.72
284.747
284.812
284.987
285.327
285.665
285.768
285.585
285.232
284.883
284.683
284.659
284.68
284.702
284.723
284.74
284.752
284.755
284.746
284.727
284.703
284.682
284.67
284.663
284.656
284.646
284.632
284.614
284.592
284.569
284.55
284.539
284.54
284.57
284.568
284.914
285.562
284.741
284.72
284.732
284.74
284.748
284.757
284.766
284.775
284.783
284.789
284.789
284.781
284.775
284.783
284.8
284.815
284.824
284.83
284.835
284.841
284.846
284.849
284.85
284.848
284.843
284.835
284.824
284.81
284.795
284.778
284.761
284.744
284.727
284.71
284.695
284.681
284.667
284.656
284.645
284.637
284.629
284.623
284.618
284.614
284.611
284.61
284.609
284.61
284.612
284.614
284.617
284.621
284.626
284.632
284.638
284.644
284.651
284.659
284.666
284.674
284.681
284.689
284.699
284.711
284.734
284.783
284.918
285.204
285.543
285.716
285.627
285.342
285.004
284.754
284.668
284.682
284.705
284.727
284.747
284.76
284.764
284.754
284.733
284.706
284.685
284.674
284.67
284.665
284.656
284.643
284.625
284.604
284.581
284.562
284.552
284.553
284.574
284.569
284.907
285.537
284.739
284.72
284.732
284.741
284.749
284.759
284.769
284.78
284.789
284.794
284.791
284.782
284.777
284.787
284.805
284.819
284.827
284.833
284.839
284.845
284.85
284.854
284.855
284.853
284.847
284.838
284.826
284.811
284.795
284.777
284.758
284.739
284.721
284.703
284.686
284.671
284.657
284.644
284.633
284.624
284.616
284.609
284.604
284.6
284.597
284.596
284.595
284.596
284.598
284.6
284.604
284.608
284.613
284.619
284.626
284.633
284.64
284.648
284.657
284.665
284.673
284.682
284.692
284.704
284.723
284.762
284.865
285.102
285.426
285.646
285.638
285.424
285.116
284.842
284.698
284.685
284.708
284.731
284.752
284.767
284.772
284.761
284.737
284.708
284.687
284.679
284.677
284.673
284.666
284.654
284.637
284.616
284.594
284.575
284.566
284.567
284.581
284.572
284.903
285.514
284.737
284.719
284.732
284.742
284.751
284.761
284.773
284.784
284.794
284.798
284.793
284.782
284.779
284.792
284.81
284.822
284.83
284.836
284.843
284.849
284.855
284.859
284.86
284.858
284.852
284.842
284.829
284.813
284.795
284.776
284.756
284.735
284.715
284.696
284.678
284.662
284.647
284.633
284.622
284.612
284.603
284.596
284.591
284.587
284.584
284.582
284.582
284.583
284.585
284.587
284.591
284.596
284.601
284.607
284.614
284.622
284.63
284.638
284.647
284.656
284.665
284.675
284.685
284.697
284.713
284.745
284.825
285.018
285.317
285.566
285.626
285.481
285.213
284.937
284.749
284.692
284.71
284.734
284.756
284.773
284.778
284.766
284.739
284.709
284.689
284.684
284.684
284.682
284.676
284.666
284.649
284.628
284.606
284.588
284.58
284.583
284.591
284.579
284.901
285.493
284.735
284.718
284.732
284.742
284.753
284.764
284.776
284.789
284.799
284.802
284.794
284.782
284.782
284.797
284.814
284.825
284.833
284.84
284.847
284.853
284.86
284.864
284.865
284.863
284.857
284.847
284.833
284.816
284.797
284.776
284.755
284.733
284.711
284.691
284.671
284.654
284.638
284.624
284.612
284.601
284.592
284.585
284.579
284.575
284.572
284.57
284.57
284.571
284.573
284.576
284.579
284.584
284.59
284.596
284.603
284.611
284.619
284.628
284.638
284.648
284.658
284.668
284.678
284.69
284.705
284.732
284.794
284.951
285.219
285.482
285.595
285.515
285.293
285.028
284.815
284.713
284.712
284.737
284.76
284.777
284.783
284.77
284.741
284.709
284.691
284.688
284.691
284.691
284.686
284.676
284.661
284.64
284.617
284.6
284.595
284.6
284.603
284.589
284.901
285.474
284.733
284.717
284.732
284.743
284.754
284.767
284.78
284.793
284.804
284.805
284.794
284.782
284.784
284.801
284.817
284.828
284.835
284.843
284.85
284.857
284.864
284.868
284.87
284.868
284.862
284.852
284.838
284.82
284.8
284.778
284.755
284.731
284.708
284.686
284.666
284.647
284.631
284.616
284.603
284.592
284.583
284.575
284.568
284.564
284.56
284.558
284.558
284.559
284.561
284.564
284.569
284.573
284.579
284.586
284.593
284.601
284.61
284.619
284.629
284.639
284.65
284.661
284.672
284.684
284.698
284.721
284.771
284.897
285.132
285.397
285.552
285.529
285.355
285.111
284.886
284.749
284.718
284.739
284.763
284.781
284.787
284.773
284.741
284.708
284.693
284.693
284.698
284.699
284.696
284.687
284.672
284.651
284.629
284.612
284.61
284.618
284.619
284.604
284.901
285.457
284.732
284.717
284.732
284.744
284.756
284.769
284.784
284.798
284.808
284.807
284.794
284.781
284.787
284.804
284.819
284.83
284.838
284.845
284.853
284.861
284.868
284.873
284.875
284.874
284.868
284.858
284.843
284.825
284.804
284.781
284.756
284.732
284.707
284.684
284.662
284.642
284.625
284.609
284.596
284.584
284.574
284.566
284.559
284.554
284.55
284.548
284.547
284.548
284.551
284.554
284.558
284.564
284.57
284.576
284.584
284.592
284.601
284.61
284.621
284.631
284.642
284.654
284.665
284.677
284.691
284.711
284.752
284.854
285.058
285.315
285.499
285.527
285.4
285.183
284.958
284.795
284.73
284.742
284.766
284.785
284.79
284.774
284.74
284.707
284.695
284.698
284.704
284.707
284.705
284.698
284.683
284.662
284.639
284.624
284.624
284.637
284.638
284.624
284.903
285.441
284.73
284.716
284.732
284.745
284.757
284.772
284.787
284.802
284.812
284.808
284.792
284.782
284.789
284.807
284.821
284.832
284.84
284.848
284.856
284.864
284.872
284.877
284.88
284.879
284.874
284.864
284.85
284.831
284.81
284.785
284.76
284.733
284.708
284.683
284.66
284.639
284.62
284.604
284.59
284.578
284.567
284.558
284.551
284.545
284.54
284.537
284.536
284.538
284.54
284.544
284.549
284.554
284.561
284.568
284.575
284.583
284.592
284.602
284.613
284.624
284.635
284.647
284.659
284.671
284.685
284.704
284.738
284.82
284.995
285.238
285.442
285.511
285.43
285.243
285.026
284.847
284.751
284.745
284.768
284.788
284.793
284.774
284.738
284.706
284.697
284.703
284.711
284.715
284.714
284.708
284.694
284.673
284.65
284.636
284.639
284.655
284.658
284.647
284.904
285.425
284.729
284.716
284.732
284.746
284.759
284.774
284.791
284.807
284.815
284.808
284.791
284.782
284.792
284.809
284.823
284.833
284.842
284.85
284.859
284.867
284.875
284.882
284.885
284.885
284.881
284.871
284.857
284.839
284.817
284.791
284.765
284.737
284.71
284.684
284.659
284.637
284.618
284.6
284.585
284.573
284.561
284.552
284.544
284.537
284.531
284.528
284.526
284.527
284.53
284.534
284.54
284.546
284.552
284.56
284.567
284.576
284.585
284.595
284.605
284.616
284.628
284.64
284.653
284.665
284.679
284.697
284.726
284.793
284.942
285.168
285.383
285.487
285.447
285.292
285.087
284.9
284.781
284.75
284.771
284.791
284.795
284.774
284.736
284.706
284.7
284.708
284.716
284.722
284.723
284.718
284.704
284.683
284.66
284.647
284.653
284.674
284.681
284.67
284.907
285.411
284.728
284.715
284.732
284.746
284.76
284.777
284.794
284.81
284.817
284.808
284.789
284.782
284.793
284.81
284.824
284.834
284.843
284.852
284.861
284.87
284.879
284.886
284.891
284.891
284.888
284.879
284.865
284.847
284.824
284.799
284.771
284.742
284.714
284.686
284.661
284.637
284.616
284.598
284.583
284.569
284.557
284.547
284.538
284.53
284.523
284.519
284.516
284.517
284.52
284.525
284.531
284.538
284.545
284.552
284.56
284.569
284.578
284.588
284.599
284.61
284.622
284.634
284.647
284.66
284.674
284.69
284.716
284.772
284.898
285.106
285.324
285.455
285.453
285.33
285.142
284.952
284.815
284.76
284.773
284.793
284.796
284.773
284.734
284.706
284.703
284.712
284.722
284.728
284.731
284.727
284.714
284.693
284.67
284.657
284.666
284.692
284.705
284.693
284.909
285.398
284.727
284.714
284.732
284.747
284.762
284.779
284.797
284.814
284.819
284.807
284.787
284.782
284.794
284.81
284.824
284.834
284.843
284.852
284.862
284.872
284.881
284.89
284.895
284.898
284.895
284.888
284.874
284.856
284.833
284.807
284.779
284.75
284.72
284.691
284.664
284.639
284.617
284.598
284.581
284.567
284.554
284.543
284.534
284.525
284.517
284.51
284.507
284.507
284.51
284.516
284.522
284.53
284.538
284.546
284.554
284.563
284.572
284.582
284.593
284.604
284.616
284.628
284.641
284.655
284.669
284.685
284.708
284.755
284.862
285.05
285.267
285.42
285.45
285.358
285.189
285.002
284.852
284.774
284.775
284.795
284.797
284.772
284.731
284.705
284.705
284.716
284.726
284.734
284.739
284.737
284.725
284.704
284.68
284.668
284.678
284.709
284.729
284.717
284.911
285.386
284.726
284.713
284.732
284.747
284.763
284.78
284.8
284.816
284.82
284.806
284.786
284.781
284.793
284.81
284.823
284.834
284.843
284.853
284.863
284.873
284.883
284.893
284.9
284.904
284.903
284.897
284.884
284.867
284.844
284.817
284.788
284.758
284.727
284.697
284.669
284.643
284.619
284.599
284.581
284.566
284.553
284.541
284.531
284.521
284.511
284.503
284.497
284.497
284.5
284.507
284.514
284.523
284.531
284.54
284.549
284.557
284.567
284.577
284.587
284.599
284.611
284.623
284.636
284.65
284.664
284.68
284.701
284.741
284.833
285.002
285.213
285.382
285.44
285.378
285.228
285.047
284.889
284.792
284.777
284.797
284.798
284.771
284.729
284.705
284.707
284.719
284.73
284.74
284.746
284.746
284.736
284.715
284.69
284.677
284.689
284.724
284.753
284.744
284.912
285.375
284.725
284.712
284.732
284.747
284.763
284.782
284.802
284.819
284.821
284.805
284.784
284.78
284.792
284.808
284.822
284.833
284.843
284.852
284.863
284.874
284.885
284.895
284.904
284.909
284.91
284.906
284.895
284.878
284.856
284.829
284.8
284.768
284.736
284.705
284.675
284.648
284.623
284.602
284.583
284.567
284.553
284.541
284.53
284.519
284.508
284.498
284.489
284.487
284.491
284.498
284.507
284.517
284.526
284.535
284.544
284.553
284.562
284.572
284.583
284.594
284.606
284.618
284.632
284.645
284.659
284.675
284.695
284.73
284.808
284.96
285.164
285.343
285.426
285.39
285.261
285.088
284.924
284.812
284.781
284.799
284.799
284.77
284.728
284.705
284.709
284.721
284.733
284.745
284.754
284.756
284.747
284.726
284.7
284.685
284.697
284.736
284.776
284.775
284.914
285.365
284.724
284.711
284.731
284.747
284.764
284.783
284.803
284.82
284.822
284.804
284.782
284.778
284.79
284.806
284.82
284.831
284.841
284.851
284.862
284.873
284.885
284.897
284.907
284.914
284.918
284.915
284.906
284.891
284.869
284.843
284.813
284.78
284.747
284.715
284.683
284.655
284.629
284.606
284.586
284.57
284.555
284.542
284.53
284.519
284.507
284.496
284.484
284.477
284.483
284.492
284.502
284.512
284.522
284.532
284.541
284.55
284.559
284.568
284.579
284.59
284.602
284.614
284.628
284.641
284.655
284.671
284.69
284.721
284.789
284.924
285.119
285.305
285.408
285.397
285.287
285.123
284.958
284.833
284.785
284.8
284.8
284.769
284.726
284.704
284.709
284.723
284.736
284.749
284.761
284.766
284.759
284.739
284.711
284.693
284.702
284.744
284.796
284.811
284.916
285.355
284.723
284.71
284.73
284.747
284.763
284.783
284.804
284.822
284.823
284.803
284.781
284.775
284.786
284.802
284.816
284.828
284.838
284.849
284.86
284.872
284.884
284.897
284.909
284.919
284.924
284.924
284.918
284.904
284.884
284.858
284.828
284.795
284.761
284.727
284.694
284.663
284.636
284.612
284.591
284.573
284.558
284.545
284.532
284.521
284.51
284.498
284.487
284.477
284.48
284.49
284.5
284.51
284.52
284.529
284.538
284.547
284.556
284.565
284.576
284.587
284.598
284.611
284.624
284.638
284.652
284.667
284.685
284.713
284.772
284.894
285.078
285.268
285.388
285.399
285.309
285.155
284.988
284.854
284.791
284.801
284.801
284.768
284.724
284.703
284.71
284.724
284.738
284.753
284.767
284.776
284.772
284.753
284.723
284.701
284.705
284.746
284.809
284.848
284.918
285.347
284.722
284.709
284.729
284.746
284.763
284.782
284.804
284.823
284.825
284.804
284.779
284.772
284.781
284.797
284.811
284.823
284.835
284.846
284.857
284.87
284.883
284.896
284.909
284.921
284.93
284.933
284.929
284.918
284.899
284.874
284.844
284.811
284.776
284.741
284.706
284.674
284.645
284.62
284.597
284.579
284.563
284.549
284.536
284.525
284.514
284.504
284.494
284.487
284.486
284.492
284.501
284.51
284.519
284.528
284.537
284.545
284.554
284.563
284.573
284.584
284.596
284.608
284.621
284.634
284.649
284.664
284.681
284.707
284.759
284.868
285.042
285.233
285.367
285.398
285.325
285.182
285.016
284.874
284.797
284.802
284.802
284.768
284.723
284.702
284.709
284.724
284.739
284.756
284.774
284.786
284.786
284.768
284.738
284.709
284.705
284.74
284.81
284.88
284.92
285.339
284.721
284.707
284.728
284.745
284.762
284.781
284.803
284.823
284.827
284.806
284.779
284.769
284.776
284.79
284.805
284.818
284.83
284.842
284.854
284.866
284.88
284.894
284.909
284.922
284.934
284.94
284.94
284.932
284.915
284.892
284.863
284.829
284.794
284.757
284.721
284.688
284.657
284.629
284.606
284.586
284.569
284.554
284.542
284.531
284.52
284.511
284.503
284.497
284.495
284.498
284.505
284.512
284.52
284.528
284.536
284.545
284.553
284.562
284.572
284.582
284.593
284.606
284.618
284.632
284.646
284.661
284.678
284.702
284.749
284.847
285.011
285.201
285.346
285.394
285.338
285.205
285.041
284.893
284.804
284.803
284.803
284.769
284.722
284.702
284.709
284.724
284.741
284.759
284.78
284.797
284.801
284.787
284.755
284.72
284.704
284.726
284.793
284.878
284.923
285.331
284.721
284.706
284.727
284.744
284.76
284.779
284.8
284.821
284.829
284.809
284.779
284.766
284.769
284.782
284.796
284.81
284.823
284.836
284.849
284.862
284.876
284.89
284.906
284.922
284.936
284.946
284.95
284.945
284.932
284.91
284.882
284.849
284.813
284.776
284.739
284.703
284.67
284.641
284.616
284.594
284.576
284.561
284.549
284.537
284.528
284.519
284.512
284.507
284.505
284.506
284.51
284.516
284.523
284.53
284.537
284.545
284.553
284.561
284.571
284.581
284.592
284.604
284.617
284.63
284.644
284.658
284.675
284.698
284.74
284.829
284.983
285.172
285.325
285.389
285.348
285.224
285.063
284.91
284.811
284.804
284.805
284.771
284.724
284.701
284.708
284.725
284.742
284.762
284.785
284.807
284.817
284.807
284.776
284.736
284.705
284.708
284.761
284.852
284.927
285.325
284.72
284.704
284.725
284.743
284.759
284.776
284.797
284.817
284.829
284.817
284.783
284.764
284.763
284.772
284.786
284.801
284.815
284.829
284.843
284.857
284.871
284.886
284.902
284.919
284.936
284.95
284.958
284.958
284.948
284.93
284.903
284.871
284.835
284.797
284.759
284.722
284.687
284.656
284.628
284.605
284.586
284.57
284.557
284.545
284.536
284.528
284.522
284.517
284.514
284.514
284.517
284.521
284.526
284.533
284.539
284.546
284.554
284.562
284.571
284.58
284.591
284.603
284.615
284.629
284.642
284.657
284.673
284.694
284.733
284.814
284.96
285.145
285.306
285.383
285.355
285.241
285.082
284.925
284.818
284.804
284.807
284.777
284.727
284.701
284.708
284.726
284.743
284.764
284.79
284.817
284.833
284.83
284.803
284.758
284.714
284.693
284.718
284.801
284.927
285.318
284.72
284.702
284.723
284.741
284.757
284.774
284.793
284.812
284.826
284.822
284.799
284.766
284.758
284.762
284.774
284.789
284.804
284.82
284.835
284.85
284.865
284.88
284.897
284.915
284.933
284.951
284.963
284.968
284.964
284.949
284.925
284.894
284.859
284.821
284.781
284.743
284.706
284.673
284.643
284.618
284.597
284.58
284.566
284.554
284.545
284.537
284.531
284.526
284.524
284.523
284.524
284.527
284.531
284.536
284.542
284.548
284.555
284.563
284.571
284.581
284.591
284.602
284.614
284.627
284.641
284.655
284.671
284.692
284.727
284.802
284.939
285.122
285.288
285.376
285.361
285.255
285.099
284.938
284.824
284.805
284.808
284.784
284.738
284.7
284.71
284.728
284.745
284.767
284.795
284.826
284.85
284.854
284.833
284.79
284.735
284.689
284.675
284.715
284.814
285.313
284.719
284.7
284.721
284.739
284.755
284.771
284.788
284.807
284.821
284.822
284.809
284.784
284.759
284.754
284.762
284.775
284.791
284.808
284.825
284.842
284.858
284.873
284.89
284.908
284.929
284.949
284.966
284.977
284.977
284.967
284.947
284.919
284.884
284.846
284.807
284.767
284.728
284.693
284.661
284.634
284.611
284.592
284.577
284.564
284.555
284.547
284.54
284.536
284.533
284.531
284.532
284.534
284.537
284.541
284.546
284.552
284.558
284.565
284.573
284.582
284.592
284.603
284.615
284.627
284.64
284.655
284.67
284.69
284.723
284.792
284.922
285.101
285.271
285.369
285.365
285.267
285.113
284.95
284.831
284.806
284.809
284.79
284.751
284.718
284.717
284.732
284.748
284.769
284.8
284.836
284.866
284.878
284.866
284.828
284.77
284.706
284.656
284.641
284.679
285.307
284.719
284.699
284.719
284.737
284.752
284.767
284.784
284.8
284.814
284.818
284.812
284.801
284.774
284.752
284.751
284.76
284.775
284.793
284.812
284.832
284.85
284.866
284.883
284.901
284.921
284.944
284.966
284.982
284.989
284.985
284.969
284.944
284.911
284.874
284.834
284.794
284.754
284.716
284.682
284.653
284.627
284.606
284.59
284.576
284.565
284.557
284.551
284.546
284.542
284.54
284.54
284.541
284.544
284.547
284.551
284.556
284.562
284.569
284.576
284.585
284.594
284.604
284.615
284.628
284.64
284.654
284.67
284.689
284.72
284.785
284.909
285.084
285.257
285.363
285.368
285.277
285.126
284.96
284.837
284.808
284.809
284.795
284.763
284.736
284.73
284.738
284.752
284.773
284.806
284.846
284.881
284.902
284.9
284.871
284.816
284.744
284.671
284.618
284.61
285.302
284.719
284.697
284.717
284.735
284.75
284.764
284.779
284.794
284.806
284.812
284.809
284.803
284.789
284.764
284.747
284.746
284.757
284.775
284.796
284.819
284.84
284.858
284.875
284.892
284.912
284.936
284.961
284.984
284.998
285
284.99
284.969
284.939
284.904
284.865
284.824
284.783
284.744
284.707
284.675
284.647
284.624
284.605
284.59
284.578
284.569
284.562
284.556
284.552
284.55
284.549
284.55
284.551
284.554
284.557
284.562
284.567
284.573
284.58
284.588
284.597
284.607
284.617
284.629
284.641
284.655
284.669
284.688
284.718
284.779
284.898
285.07
285.245
285.358
285.371
285.286
285.137
284.968
284.843
284.809
284.81
284.799
284.774
284.752
284.745
284.747
284.757
284.778
284.813
284.856
284.897
284.925
284.932
284.912
284.865
284.792
284.705
284.625
284.582
285.298
284.718
284.695
284.714
284.732
284.747
284.76
284.773
284.787
284.798
284.804
284.804
284.8
284.792
284.775
284.753
284.739
284.74
284.754
284.776
284.802
284.827
284.849
284.867
284.883
284.902
284.925
284.953
284.98
285.002
285.012
285.009
284.993
284.968
284.935
284.897
284.857
284.815
284.775
284.737
284.702
284.671
284.645
284.623
284.606
284.593
284.582
284.574
284.568
284.564
284.561
284.559
284.559
284.56
284.562
284.565
284.569
284.574
284.579
284.586
284.593
284.601
284.61
284.62
284.631
284.643
284.656
284.67
284.688
284.717
284.775
284.889
285.059
285.235
285.354
285.374
285.294
285.146
284.977
284.85
284.811
284.81
284.802
284.782
284.766
284.758
284.758
284.766
284.786
284.822
284.868
284.913
284.947
284.962
284.952
284.913