/*--------------------------------*- C++ -*----------------------------------*\
| =========                 |                                                 |
| \\      /  F ield         | OpenFOAM: The Open Source CFD Toolbox           |
|  \\    /   O peration     | Version:  4.1                                   |
|   \\  /    A nd           | Web:      www.OpenFOAM.org                      |
|    \\/     M anipulation  |                                                 |
\*---------------------------------------------------------------------------*/
FoamFile
{
    version     2.0;
    format      ascii;
    class       volScalarField;
    location    "540";
    object      mag(U);
}
// * * * * * * * * * * * * * * * * * * * * * * * * * * * * * * * * * * * * * //

dimensions      [0 1 -1 0 0 0 0];

internalField   nonuniform List<scalar> 
5000
(
0.00439082
0.00369294
0.00266345
0.00114856
0.0012338
0.00195989
0.00265528
0.00324915
0.00375688
0.00419954
0.00459548
0.00495903
0.00530113
0.00563068
0.00595533
0.00628188
0.00661629
0.00696354
0.00732724
0.00770942
0.00811035
0.00852847
0.00896046
0.00940139
0.00984503
0.0102844
0.0107124
0.0111228
0.0115108
0.0118742
0.0122126
0.0125281
0.0128237
0.0131024
0.0133656
0.0136107
0.0138293
0.0140062
0.0141208
0.0141543
0.0140915
0.0139206
0.0136382
0.0132493
0.0127657
0.0122031
0.0115766
0.0108948
0.0101511
0.00931235
0.00830101
0.00697231
0.00513751
0.00379588
0.00618121
0.00955922
0.0114512
0.0123605
0.012807
0.013123
0.0134358
0.0137763
0.0141446
0.0145345
0.0149375
0.0153449
0.0157484
0.0161397
0.0165097
0.0168484
0.0171465
0.0173949
0.0175843
0.0177055
0.0177487
0.0177055
0.0175639
0.0173163
0.0169575
0.0164844
0.0158957
0.0151919
0.0143752
0.013449
0.0124181
0.0112884
0.0100664
0.00875979
0.00737632
0.00592326
0.00441396
0.00290708
0.00162783
0.00144428
0.00274031
0.00400425
0.00496278
0.00542488
0.00496421
0.00455846
0.00571568
0.00226798
0.00309549
0.00234178
0.00201087
0.00238546
0.00299475
0.00359687
0.00414171
0.00462754
0.0050617
0.00545301
0.00581075
0.00614467
0.00646456
0.00677979
0.00709872
0.00742833
0.00777383
0.00813848
0.00852366
0.00892887
0.00935174
0.00978829
0.0102331
0.0106795
0.0111204
0.0115492
0.0119605
0.0123509
0.0127192
0.0130667
0.0133961
0.0137117
0.0140171
0.0143145
0.0146016
0.0148693
0.0150993
0.0152602
0.0153019
0.015204
0.0149618
0.0145796
0.0140698
0.0134494
0.012734
0.0119327
0.0110412
0.0100366
0.00887885
0.00755338
0.00627741
0.00678919
0.00846827
0.00923754
0.0108608
0.0122935
0.0132048
0.0138306
0.0143463
0.0148261
0.015293
0.0157523
0.0162023
0.0166383
0.0170542
0.017443
0.0177971
0.0181085
0.018369
0.0185703
0.0187042
0.0187626
0.0187375
0.018621
0.0184107
0.0181003
0.0176851
0.017162
0.0165299
0.0157891
0.014942
0.0139924
0.0129456
0.0118085
0.0105894
0.00929907
0.00795092
0.00656462
0.00517905
0.00389598
0.00295801
0.00264304
0.00305641
0.00361403
0.00406098
0.0041825
0.00392488
0.00604969
0.00750621
0.00157209
0.00392223
0.00341985
0.00293551
0.00289548
0.00315351
0.00352798
0.00392084
0.00429325
0.00463215
0.00493548
0.00520704
0.00545411
0.00568569
0.0059112
0.00613954
0.00637848
0.00663425
0.00691134
0.00721278
0.00753979
0.00789149
0.00826495
0.00865497
0.00905408
0.00945328
0.00984358
0.0102174
0.0105698
0.0108985
0.0112048
0.0114928
0.0117694
0.0120431
0.0123227
0.0126143
0.0129168
0.0132163
0.0134855
0.0136769
0.0137252
0.0136137
0.0133415
0.0129163
0.0123554
0.0116788
0.0109052
0.0100507
0.00913505
0.00821361
0.00748803
0.00751939
0.00961477
0.0122308
0.010663
0.00987068
0.0106557
0.0116256
0.0124345
0.0131156
0.0137288
0.0143034
0.0148506
0.0153733
0.0158702
0.0163381
0.016773
0.0171693
0.0175207
0.01782
0.0180602
0.0182338
0.0183336
0.0183521
0.0182824
0.0181189
0.0178561
0.0174904
0.0170195
0.0164431
0.0157627
0.0149818
0.0141058
0.0131418
0.0120992
0.0109897
0.00982892
0.00863751
0.00744632
0.00630668
0.00530934
0.00458744
0.00421001
0.00401343
0.00376309
0.00341688
0.00321758
0.00375704
0.00813028
0.00883123
0.00162486
0.0047779
0.0042627
0.0036
0.00326978
0.00321461
0.0033281
0.00351442
0.00371365
0.00389581
0.00404937
0.00417377
0.00427486
0.00436167
0.00444452
0.00453393
0.00464013
0.00477237
0.00493868
0.00514668
0.00540069
0.00570075
0.00604295
0.0064181
0.00681246
0.00721011
0.00759623
0.00795927
0.00829206
0.00859205
0.00886121
0.00910576
0.00933577
0.00956444
0.00980662
0.0100759
0.0103803
0.0107159
0.0110611
0.0114003
0.0116337
0.0117088
0.0116109
0.0113408
0.0109121
0.0103501
0.00968735
0.0089678
0.00826531
0.00773354
0.00770652
0.00874005
0.0116215
0.0152872
0.0135334
0.0102843
0.00951033
0.0101382
0.010975
0.0117528
0.0124707
0.0131436
0.0137801
0.0143836
0.0149543
0.0154906
0.0159896
0.0164469
0.0168566
0.0172122
0.0175068
0.0177333
0.0178848
0.0179547
0.017936
0.0178255
0.017618
0.0173105
0.016902
0.0163932
0.0157868
0.0150877
0.0143026
0.0134406
0.0125132
0.0115348
0.0105236
0.00950327
0.00850541
0.00757349
0.00676381
0.0061314
0.00567921
0.0052115
0.00436889
0.00302268
0.00270117
0.00417813
0.00986885
0.00981177
0.00198849
0.00547326
0.0048467
0.00404708
0.00351586
0.00320942
0.0030579
0.00298626
0.00293936
0.00288662
0.00281557
0.00272565
0.00262373
0.00252044
0.00242964
0.00236846
0.00235657
0.0024111
0.00254484
0.00276813
0.00307545
0.00345474
0.00389217
0.00436257
0.00483991
0.00530086
0.00572788
0.0061096
0.00644057
0.00672078
0.00695526
0.00715354
0.00732919
0.00749908
0.00768202
0.00789607
0.00815397
0.00845805
0.00879582
0.00914925
0.00949785
0.00972501
0.00980302
0.00972028
0.00947993
0.009105
0.00863659
0.00814094
0.00773168
0.00761191
0.00811759
0.00967787
0.01281
0.0170654
0.0165909
0.0120541
0.00925987
0.00907827
0.00977011
0.0105657
0.0113413
0.0120808
0.0127838
0.0134508
0.014082
0.0146759
0.0152301
0.0157406
0.0162018
0.0166075
0.016951
0.0172256
0.0174252
0.0175439
0.0175747
0.0175172
0.0173673
0.0171227
0.0167834
0.016351
0.0158295
0.0152246
0.0145444
0.013799
0.013001
0.0121657
0.0113113
0.0104599
0.00963751
0.00887309
0.00819329
0.00760744
0.00707917
0.00647961
0.00530682
0.00304275
0.00231629
0.00462415
0.0112217
0.0105898
0.00257469
0.00591815
0.00516547
0.00428912
0.00363878
0.00314905
0.00275332
0.00239705
0.00205111
0.00170772
0.00137392
0.00107278
0.000848353
0.000759882
0.000823852
0.00096702
0.00111841
0.00126877
0.00145002
0.00170859
0.00204964
0.00247369
0.00296366
0.0034731
0.00397294
0.00444078
0.00486107
0.00522387
0.0055238
0.00576009
0.00593704
0.00606432
0.00615662
0.00623274
0.00631434
0.006423
0.00657543
0.00677803
0.00702448
0.00730009
0.00762659
0.00791192
0.00811619
0.00821241
0.00818631
0.00804695
0.00783256
0.0076164
0.00752321
0.00775139
0.00858099
0.0103434
0.013433
0.0178137
0.0189397
0.0147639
0.0100288
0.00857537
0.00890427
0.0096231
0.0103979
0.0111608
0.0118959
0.0125987
0.0132673
0.0138993
0.0144918
0.0150406
0.01554
0.0159837
0.0163656
0.0166793
0.0169197
0.0170818
0.0171615
0.017156
0.0170652
0.0168873
0.0166232
0.0162753
0.0158483
0.0153485
0.0147843
0.0141661
0.0135064
0.0128195
0.0121217
0.0114306
0.0107644
0.0101384
0.00955837
0.00900762
0.00842684
0.0076779
0.00641159
0.0036474
0.00195732
0.00496781
0.0123088
0.011222
0.00327414
0.00608014
0.00524363
0.00435143
0.00365564
0.00306202
0.0025185
0.00202442
0.00164975
0.00151245
0.00166486
0.00199813
0.00236814
0.00267383
0.00285659
0.00289898
0.00282561
0.00269563
0.00258407
0.00256031
0.0026648
0.00290479
0.00323887
0.00360669
0.00398665
0.00435753
0.00470188
0.00500585
0.00525756
0.00544715
0.00556942
0.00562659
0.00562933
0.00559584
0.00555029
0.00551945
0.00552669
0.00558362
0.00568609
0.0058247
0.00603214
0.00631106
0.00660166
0.00687005
0.00707469
0.00719922
0.00726694
0.00734278
0.00753966
0.00802601
0.00902566
0.0108098
0.0137084
0.0178783
0.020191
0.0178437
0.0117607
0.00872131
0.00843586
0.00896621
0.00967287
0.0104083
0.0111344
0.0118389
0.0125158
0.0131608
0.0137694
0.0143366
0.0148565
0.0153229
0.0157299
0.0160721
0.016345
0.0165448
0.0166688
0.0167138
0.0166834
0.0165758
0.0163925
0.0161367
0.0158129
0.0154275
0.0149886
0.0145055
0.0139894
0.0134525
0.0129075
0.0123671
0.0118413
0.0113348
0.0108396
0.0103244
0.00971567
0.00885909
0.00744503
0.00476962
0.00152867
0.00516688
0.0131909
0.0117405
0.00391286
0.0059825
0.00510108
0.00426565
0.00359939
0.0030414
0.00264349
0.00252697
0.0027447
0.00319039
0.00369833
0.00413365
0.00441212
0.00450289
0.004424
0.00422669
0.00397719
0.00374115
0.00357204
0.00350325
0.00354475
0.00368289
0.00388733
0.00410737
0.00432699
0.00455208
0.00477934
0.0050007
0.00520298
0.00536671
0.00547131
0.0055023
0.00545623
0.00534249
0.00518294
0.00500889
0.00485522
0.00474737
0.00468671
0.00465818
0.00470321
0.00491521
0.00526831
0.00571098
0.00615558
0.00654925
0.00689307
0.00723653
0.007673
0.00833934
0.00941625
0.0111316
0.0137707
0.0175394
0.0205225
0.0203758
0.0144767
0.00953811
0.00840481
0.00862966
0.00919532
0.00984787
0.0105194
0.0111867
0.0118384
0.0124668
0.0130652
0.0136272
0.0141464
0.0146168
0.0150329
0.0153901
0.0156846
0.0159141
0.0160774
0.0161697
0.0161994
0.0161647
0.0160674
0.0159105
0.0156982
0.0154358
0.0151298
0.0147878
0.0144185
0.0140312
0.0136346
0.0132361
0.0128396
0.0124414
0.0120248
0.0115497
0.0109323
0.0100061
0.00847005
0.0058933
0.00132048
0.00524977
0.013903
0.0121701
0.00432635
0.005669
0.00479868
0.00408334
0.00356785
0.00330104
0.00338218
0.00379393
0.00437628
0.00495358
0.00539069
0.00561348
0.00563819
0.0055058
0.00527602
0.00501231
0.00476683
0.00457581
0.00445844
0.00441873
0.00444964
0.00453738
0.00465613
0.00476866
0.00484039
0.00489438
0.00495717
0.00504442
0.00515851
0.00528357
0.0053902
0.00544458
0.00541798
0.00529519
0.00507998
0.00479641
0.00448662
0.00419967
0.00396546
0.00376783
0.00362989
0.00372256
0.00411836
0.00473687
0.00541715
0.00606067
0.00664799
0.0072151
0.00783806
0.00862792
0.00973181
0.0113398
0.0136975
0.0169974
0.0202129
0.0219799
0.0177132
0.0109913
0.00881518
0.00862612
0.00898312
0.00949952
0.0100705
0.0106601
0.0112504
0.0118293
0.0123874
0.0129166
0.0134102
0.0138623
0.014268
0.0146237
0.0149266
0.0151757
0.0153712
0.0155055
0.0155938
0.0156338
0.0156271
0.0155761
0.0154834
0.0153522
0.0151863
0.0149905
0.0147701
0.0145309
0.0142783
0.0140152
0.0137406
0.0134453
0.0131073
0.0126806
0.0120756
0.0111209
0.0095136
0.00668917
0.00070468
0.00522399
0.0145139
0.0125358
0.004413
0.00517978
0.00438555
0.00388611
0.00370972
0.00391794
0.00444765
0.00511606
0.00574677
0.00618688
0.00639891
0.00642302
0.00630895
0.00611159
0.00589134
0.00569013
0.00553312
0.00543071
0.00538234
0.00538033
0.00541286
0.00546613
0.00552433
0.00556264
0.0055385
0.00544218
0.00531573
0.00520789
0.00515527
0.00516772
0.00523096
0.0053076
0.00534601
0.00529588
0.00512244
0.00481692
0.00440282
0.00393617
0.00349238
0.00310525
0.00278148
0.00271726
0.00314527
0.00393919
0.00483335
0.00568787
0.00647243
0.0072151
0.00797861
0.0088534
0.00995873
0.0114503
0.0135332
0.0163759
0.0195086
0.0227205
0.0206821
0.0132942
0.00960618
0.00892388
0.00902922
0.00936895
0.00980032
0.0102749
0.0107684
0.0112642
0.0117499
0.0122158
0.0126546
0.013061
0.0134314
0.0137636
0.0140565
0.0143111
0.0145287
0.0147038
0.0148475
0.0149638
0.0150526
0.0151149
0.0151507
0.0151597
0.0151416
0.0150968
0.0150269
0.0149344
0.0148215
0.0146885
0.0145311
0.0143373
0.0140817
0.0137159
0.0131484
0.0122084
0.0105924
0.00773441
0.00191437
0.00522378
0.0150868
0.012864
0.00415078
0.00454796
0.003931
0.0037935
0.00408696
0.00471284
0.00546995
0.00616795
0.00664711
0.00690782
0.00698723
0.00693365
0.00680771
0.00665787
0.00652412
0.00642536
0.00636776
0.00634903
0.00636185
0.00639587
0.0064387
0.00647636
0.00649368
0.00647431
0.00639667
0.00621754
0.0059384
0.00562017
0.00533715
0.00513938
0.005058
0.00508318
0.00516036
0.0052141
0.00516917
0.00496628
0.00457556
0.00401003
0.00334079
0.00268119
0.00212358
0.00188924
0.00236845
0.00332556
0.00438716
0.00539745
0.00632642
0.00719773
0.00806288
0.00899484
0.0100887
0.0114695
0.0133018
0.0157381
0.0186095
0.0227575
0.0229611
0.0162785
0.0107279
0.00947206
0.00930214
0.0094422
0.00970807
0.0100393
0.0104061
0.0107884
0.0111708
0.0115425
0.0118959
0.0122268
0.0125335
0.012816
0.0130757
0.0133153
0.0135384
0.0137483
0.0139423
0.0141358
0.0143253
0.0145095
0.0146844
0.0148442
0.0149828
0.015095
0.0151776
0.0152301
0.0152527
0.0152446
0.0152008
0.0151081
0.0149404
0.0146493
0.0141449
0.0132592
0.011681
0.00882863
0.00348362
0.00516896
0.0156159
0.0131849
0.00356712
0.00382512
0.00354334
0.00389943
0.00462991
0.00550356
0.00629933
0.00686542
0.00721805
0.00739061
0.00742777
0.00738578
0.00731826
0.00725966
0.00722718
0.00722553
0.00725259
0.00730263
0.00736769
0.00743767
0.00750008
0.00754009
0.00754102
0.00748564
0.00735778
0.00714206
0.0067963
0.00631894
0.00580268
0.00533527
0.00501155
0.00488138
0.0049105
0.0050176
0.00510757
0.0050884
0.00487887
0.00442058
0.00368093
0.002727
0.00181144
0.00138436
0.00188361
0.00293456
0.00408355
0.00517806
0.00619244
0.00714586
0.00807762
0.0090441
0.0101189
0.0114002
0.0130148
0.0151069
0.0176497
0.022252
0.0245371
0.0194583
0.0122653
0.0102013
0.00974849
0.00968572
0.00977688
0.00994936
0.0101697
0.010415
0.010668
0.0109166
0.0111538
0.0113771
0.0115876
0.0117889
0.0119863
0.0121863
0.012396
0.0126233
0.0128602
0.0131304
0.0134265
0.0137431
0.01407
0.0143939
0.0147005
0.0149772
0.0152155
0.0154117
0.0155653
0.0156763
0.015741
0.0157477
0.0156713
0.0154653
0.0150436
0.0142425
0.0127448
0.00995962
0.00494902
0.00510684
0.0160443
0.0135247
0.00273081
0.0031238
0.00337828
0.00423581
0.0052617
0.00617989
0.00686559
0.00734009
0.00763158
0.0077808
0.00783894
0.00785808
0.00787728
0.00791166
0.00796703
0.00804276
0.00813578
0.0082416
0.00835372
0.00846267
0.00855537
0.00861519
0.00862282
0.00855804
0.0084025
0.00814316
0.00777277
0.00724137
0.00654966
0.00581622
0.00519934
0.00483189
0.0047192
0.00478921
0.0049393
0.00507222
0.00509788
0.0049367
0.0045071
0.00375088
0.00270681
0.00182245
0.00190702
0.00282817
0.00394755
0.0050393
0.00607192
0.00705921
0.00802413
0.00900416
0.010053
0.0112455
0.0126763
0.0144827
0.0167007
0.0213569
0.0254907
0.0222196
0.0145959
0.0110633
0.0103079
0.0100538
0.00997611
0.00998841
0.0100545
0.0101498
0.0102554
0.010358
0.0104511
0.0105343
0.0106124
0.0106947
0.0107926
0.0109189
0.0110875
0.0113133
0.0115821
0.0119283
0.0123385
0.0128004
0.0132952
0.0137991
0.0142877
0.0147392
0.0151382
0.0154777
0.0157575
0.0159804
0.0161464
0.0162472
0.0162606
0.0161429
0.0158123
0.0151106
0.0137232
0.0110498
0.00599424
0.00434734
0.016344
0.0139107
0.00174393
0.00267314
0.00358276
0.00478871
0.00583112
0.00665302
0.00726893
0.00769823
0.00797508
0.00814633
0.00826055
0.00835622
0.00845639
0.00856534
0.00868517
0.00881652
0.00895937
0.00911223
0.00927041
0.00942458
0.0095602
0.00965793
0.00969483
0.00964658
0.0094907
0.0092106
0.00879959
0.00825857
0.00751216
0.00657385
0.00566525
0.00501297
0.00468007
0.00462914
0.00475509
0.00494566
0.00511297
0.00518305
0.00508914
0.00475765
0.00412985
0.00327824
0.00274165
0.00312076
0.00402976
0.00501911
0.00599135
0.00695451
0.00791655
0.00888868
0.00990283
0.0110134
0.0122897
0.013858
0.0157883
0.0202112
0.0259004
0.0244684
0.0174373
0.0120812
0.010929
0.0105002
0.0102682
0.0101297
0.0100453
0.00998908
0.00994025
0.00988384
0.0098124
0.00972674
0.00963566
0.00955531
0.00950722
0.00951586
0.00960685
0.00980581
0.0100921
0.0105142
0.0110489
0.0116722
0.0123526
0.0130543
0.0137407
0.0143794
0.0149465
0.0154308
0.0158327
0.0161592
0.0164166
0.0166024
0.0166989
0.0166656
0.0164242
0.015824
0.0145633
0.0120441
0.00708788
0.0030967
0.0165349
0.0143348
0.000828329
0.00278293
0.0041223
0.00528157
0.00624667
0.00701455
0.00759193
0.00800566
0.00829715
0.0085122
0.00868916
0.00885113
0.00900518
0.00916134
0.00931996
0.00948706
0.00966733
0.00986252
0.0100692
0.0102772
0.0104699
0.0106243
0.0107132
0.0107073
0.0105787
0.0103058
0.00987736
0.00929598
0.00856613
0.00755839
0.00640776
0.00545655
0.00483333
0.00457402
0.00460566
0.004796
0.00502789
0.00522233
0.00533263
0.00530249
0.00506439
0.00459358
0.00408108
0.00398374
0.0044598
0.00520649
0.00602067
0.00687891
0.00778506
0.00872196
0.00968899
0.0107193
0.0118622
0.013228
0.0149138
0.0189296
0.02584
0.0261767
0.0202526
0.0137021
0.0115836
0.0109839
0.0106154
0.0103415
0.0101183
0.0099189
0.00972043
0.00950483
0.00926157
0.00898968
0.00869897
0.0084109
0.0081589
0.00798635
0.00794431
0.00808207
0.00838337
0.0088855
0.00956222
0.0103659
0.0112489
0.0121632
0.0130616
0.0139002
0.0146448
0.0152776
0.015799
0.016221
0.0165581
0.0168167
0.0169856
0.0170285
0.0168702
0.0163684
0.0152421
0.0129119
0.00820623
0.00158576
0.0166823
0.0148387
0.00162155
0.00326571
0.00456362
0.00569277
0.00661595
0.00734114
0.00789105
0.00830191
0.00861578
0.00887028
0.00909057
0.00928865
0.00946719
0.00963983
0.00981284
0.00999884
0.0102076
0.0104433
0.0107028
0.0109743
0.0112382
0.0114679
0.0116312
0.0116935
0.0116206
0.0113844
0.0109679
0.0103697
0.00960279
0.00865903
0.00739069
0.00616739
0.00521342
0.00464722
0.00448416
0.00461996
0.00490152
0.00519471
0.00544639
0.00562905
0.00569798
0.00559955
0.00536029
0.00518685
0.0053141
0.00572526
0.00628091
0.0069342
0.007696
0.00854546
0.00944246
0.0103872
0.0114088
0.0125961
0.0140714
0.0175997
0.0253725
0.0273398
0.0228012
0.0159974
0.0123077
0.0114759
0.0109849
0.0105923
0.0102454
0.00991714
0.00958291
0.00922099
0.00881563
0.00836022
0.00785994
0.00733512
0.00682612
0.00639792
0.00613877
0.00614616
0.00647499
0.00707427
0.00792341
0.00892699
0.0100199
0.0111498
0.0122643
0.0133099
0.0142404
0.0150273
0.0156679
0.016179
0.0165845
0.0169021
0.0171308
0.0172408
0.0171608
0.0167576
0.0157744
0.0136688
0.00932316
0.00066977
0.0168224
0.0154168
0.00292087
0.00405667
0.00518025
0.00618672
0.00702045
0.00768407
0.00819951
0.00860106
0.00892324
0.00919173
0.00942079
0.00961747
0.00978708
0.00994586
0.0101115
0.010303
0.0105343
0.0108108
0.0111278
0.0114712
0.0118187
0.01214
0.0123987
0.0125543
0.012566
0.012398
0.0120259
0.0114423
0.0106593
0.00970154
0.00852694
0.00712056
0.00585508
0.00492434
0.00443854
0.00440079
0.00467829
0.00507879
0.00546942
0.00582185
0.00611763
0.00631446
0.00637827
0.00636336
0.00640526
0.00658111
0.00686868
0.0072546
0.00777395
0.00844326
0.00921649
0.0100542
0.0109548
0.0119773
0.0132625
0.016286
0.0245492
0.0279724
0.0249431
0.0185633
0.0135319
0.0119693
0.011351
0.0108544
0.0103988
0.00995718
0.00950527
0.00901859
0.00847584
0.00786249
0.00717384
0.00641881
0.00562853
0.00487362
0.00429005
0.00408494
0.00442474
0.00519465
0.00626641
0.0074757
0.00875678
0.0100743
0.0113847
0.0126287
0.0137464
0.0146922
0.0154539
0.0160502
0.0165144
0.0168775
0.0171526
0.0173209
0.0173177
0.017019
0.0161946
0.0143548
0.0104588
0.0022913
0.0169856
0.0160569
0.00429296
0.00505697
0.00594513
0.00677727
0.00748626
0.00806526
0.00852751
0.00889752
0.00919752
0.00944147
0.00963688
0.00979109
0.0099168
0.010034
0.0101749
0.0103635
0.0106153
0.0109338
0.0113114
0.0117315
0.0121697
0.0125941
0.012965
0.0132369
0.0133618
0.013295
0.013003
0.0124698
0.0117029
0.0107321
0.00959309
0.00824665
0.00675061
0.00547969
0.00459869
0.0042296
0.00436104
0.00482799
0.0053675
0.00588775
0.00636819
0.00678916
0.00711237
0.00732368
0.00746585
0.00759467
0.00773231
0.00789751
0.0081473
0.00855005
0.00911048
0.00978579
0.0105435
0.0114015
0.012502
0.0150349
0.0234115
0.0280925
0.0266189
0.0211288
0.0154194
0.0125735
0.0117009
0.0111066
0.0105539
0.0100123
0.00945975
0.00887181
0.00822362
0.00749414
0.00666894
0.005741
0.00471586
0.00362538
0.00258013
0.00196405
0.002423
0.00355886
0.00488664
0.0062435
0.00762552
0.0090482
0.0104937
0.0118975
0.0131858
0.0142886
0.0151728
0.0158528
0.0163687
0.0167653
0.017073
0.0172896
0.0173622
0.0171765
0.016528
0.0149812
0.0115313
0.00362663
0.017187
0.0167425
0.0056476
0.00614161
0.00679945
0.00744304
0.00800918
0.00848338
0.00886776
0.00917401
0.00941167
0.00958585
0.00970214
0.00977281
0.00982167
0.00987698
0.00998506
0.0101707
0.0104459
0.0108083
0.0112455
0.0117394
0.0122661
0.0127951
0.0132867
0.013692
0.013956
0.0140239
0.0138503
0.0134076
0.0126939
0.011738
0.0105963
0.00932953
0.00783422
0.00630256
0.00505809
0.0042695
0.00407671
0.00444077
0.00509766
0.0057921
0.00645194
0.00705925
0.00759069
0.0080176
0.00833301
0.00855163
0.00868872
0.00876402
0.00882867
0.00896987
0.00925428
0.00968963
0.0102502
0.0109204
0.0118237
0.0138862
0.022
0.0277307
0.0277926
0.0234864
0.0177402
0.013688
0.0120565
0.0113349
0.0106916
0.0100591
0.00941877
0.00874956
0.00802763
0.00722982
0.00633709
0.00533589
0.00421862
0.00298527
0.00165163
0.000251543
0.00134704
0.00282348
0.00421068
0.00552385
0.00683794
0.00821943
0.00968811
0.0111789
0.0125957
0.0138403
0.0148431
0.0156048
0.0161677
0.016588
0.0169141
0.0171659
0.0173089
0.0172408
0.0167792
0.0155365
0.0125168
0.00490172
0.0173923
0.0174616
0.0069658
0.00724928
0.00769965
0.0081584
0.00857342
0.00892496
0.00920403
0.00940971
0.0095412
0.00959915
0.00959259
0.00954378
0.00949176
0.00948069
0.009564
0.00975991
0.0100685
0.0104765
0.0109656
0.011518
0.0121153
0.0127339
0.0133393
0.0138831
0.0143046
0.014538
0.0145229
0.0142149
0.0135968
0.0126888
0.0115569
0.0103039
0.00893086
0.00730709
0.00578743
0.00461573
0.00399452
0.00406175
0.00470851
0.00553848
0.00636827
0.00714389
0.00784696
0.00845604
0.00894989
0.00931714
0.00955428
0.00966666
0.00968264
0.00966931
0.00971256
0.00987491
0.0101789
0.0106154
0.0112873
0.0128868
0.0203682
0.0269278
0.0284582
0.0254976
0.0202391
0.0154044
0.012694
0.0115441
0.0107972
0.0100799
0.0093609
0.00862356
0.00784382
0.00700371
0.00609737
0.005112
0.00405686
0.00297804
0.0020343
0.00172095
0.00230728
0.00327718
0.00435166
0.00541952
0.00651048
0.00770379
0.00906771
0.0105506
0.0120253
0.013374
0.0144846
0.0153232
0.0159294
0.0163655
0.0166962
0.016966
0.0171661
0.0172106
0.0169356
0.0159902
0.0133707
0.00604386
0.0175725
0.0182047
0.0082435
0.00835171
0.00861642
0.00889935
0.00915936
0.00937215
0.00951852
0.00958702
0.00957031
0.00947005
0.00930495
0.00911407
0.00895684
0.00890064
0.00899018
0.00922556
0.00958523
0.0100398
0.0105649
0.0111458
0.0117751
0.012444
0.013132
0.0137982
0.0143802
0.0148011
0.0149825
0.0148575
0.014384
0.0135615
0.0124575
0.0112248
0.0098798
0.0083823
0.00668388
0.00522938
0.00420146
0.00385562
0.00427889
0.00515436
0.0061227
0.00705204
0.00790544
0.00866659
0.00931769
0.00984016
0.0102185
0.0104441
0.010523
0.0104897
0.0104097
0.0103597
0.0104051
0.010575
0.0109743
0.0121029
0.018601
0.0257417
0.0286293
0.0270753
0.0226648
0.0176131
0.0138565
0.0119042
0.0108806
0.0100562
0.00925702
0.00845395
0.00763189
0.00678375
0.00590626
0.00500704
0.00412555
0.00336
0.00289809
0.00297862
0.00352144
0.004238
0.0050115
0.0058034
0.00664031
0.00759237
0.00873247
0.0100732
0.0115242
0.0129252
0.0141194
0.015024
0.0156679
0.0161125
0.0164353
0.016703
0.0169379
0.0170774
0.016975
0.0163075
0.0140603
0.00701166
0.0177302
0.0189628
0.00947641
0.00943188
0.00952838
0.00964458
0.00974741
0.00980757
0.0097969
0.00969634
0.0094967
0.00920699
0.00886336
0.00853067
0.0082945
0.00824344
0.00839136
0.00870748
0.00914106
0.00964427
0.010186
0.0107562
0.0113616
0.012016
0.0127238
0.0134641
0.0141822
0.014794
0.0152011
0.0153078
0.0150358
0.014345
0.0132858
0.0120842
0.0107635
0.00934588
0.00763706
0.00600397
0.0046659
0.00389681
0.00394636
0.00472639
0.00576243
0.00681156
0.00779265
0.00868048
0.00946199
0.0101218
0.0106424
0.0110078
0.0112093
0.0112548
0.0111779
0.0110361
0.0109019
0.0108341
0.0109518
0.0116123
0.0168345
0.0242507
0.028337
0.0281721
0.0248198
0.0200454
0.0156303
0.0126749
0.0110504
0.0100044
0.00910425
0.00823617
0.00737914
0.00653372
0.00570886
0.00493265
0.00426721
0.00381782
0.00369869
0.00396228
0.00446758
0.00506849
0.00569219
0.00631506
0.0069652
0.00771797
0.008664
0.00984392
0.0111938
0.012559
0.0137687
0.0147198
0.0153932
0.0158398
0.0161438
0.0163883
0.0166282
0.0168325
0.0168739
0.0164539
0.0145546
0.00767226
0.0177288
0.0197266
0.0106587
0.0104768
0.0104186
0.0103758
0.0103204
0.0102174
0.0100312
0.00973847
0.00933318
0.00883878
0.00831788
0.00787084
0.00761241
0.00763285
0.00789663
0.00833456
0.00886548
0.00942394
0.00997173
0.0105005
0.0110287
0.011593
0.0122317
0.0129605
0.0137508
0.0145239
0.0151649
0.015545
0.0155379
0.015038
0.014041
0.0128768
0.0115863
0.010185
0.00855824
0.00683469
0.00529383
0.00416785
0.00381484
0.00434042
0.00534868
0.00646534
0.00754173
0.00853048
0.00941617
0.0101879
0.010832
0.0113321
0.0116727
0.0118457
0.0118582
0.0117396
0.011543
0.0113289
0.0112176
0.0114629
0.0152557
0.0225578
0.0276281
0.0287698
0.0265702
0.0224212
0.0178415
0.0140567
0.0115601
0.0100285
0.0089257
0.00796584
0.00706946
0.00623097
0.0054712
0.0048343
0.00438919
0.00421131
0.00433058
0.00471484
0.00522894
0.00578129
0.0063221
0.00683998
0.00736499
0.00797109
0.00875576
0.00978214
0.0110141
0.0123112
0.0134982
0.0144495
0.0151249
0.0155581
0.015829
0.0160319
0.0162445
0.0164731
0.0166167
0.0164037
0.0148383
0.00824698
0.0175462
0.0204863
0.0117835
0.0114755
0.011273
0.0110778
0.0108647
0.0105927
0.0102204
0.00972354
0.00910415
0.00840686
0.0077294
0.00721443
0.00700032
0.00714865
0.00757081
0.00815961
0.00880762
0.00943482
0.00999572
0.0104795
0.0109075
0.0113293
0.0118129
0.0124217
0.0131782
0.0140362
0.0148816
0.0155561
0.015877
0.0156434
0.0147311
0.0136062
0.0123475
0.0109558
0.00936166
0.00764306
0.00598812
0.00459762
0.00385523
0.00404621
0.00494452
0.00606844
0.00719729
0.00825527
0.00921738
0.0100739
0.0108155
0.0114296
0.0119
0.0122111
0.0123537
0.012333
0.012176
0.011926
0.0116835
0.0116245
0.0140508
0.020789
0.0265659
0.0288758
0.0278367
0.0245213
0.0201951
0.0159862
0.0126496
0.0103654
0.00883633
0.00768524
0.00671397
0.0058732
0.00518162
0.00469022
0.00445729
0.0045097
0.00481178
0.00529498
0.00583728
0.00637363
0.0068715
0.00732806
0.00777577
0.00828683
0.00895875
0.00986297
0.01098
0.0121861
0.0133132
0.014229
0.0148776
0.0152779
0.0155015
0.0156455
0.0158009
0.0160071
0.0162014
0.0161472
0.0149039
0.00874182
0.0172451
0.021232
0.0128434
0.0124181
0.0120799
0.0117386
0.0113704
0.0109288
0.0103685
0.00966684
0.00883755
0.00795108
0.00714568
0.00660712
0.0064835
0.00678928
0.00739203
0.00814891
0.0089296
0.00964228
0.0102359
0.0106962
0.011041
0.0113188
0.011608
0.0120084
0.0126065
0.0134256
0.014392
0.0153412
0.0160384
0.0161611
0.015366
0.0142791
0.0130484
0.0116484
0.0100667
0.0083806
0.00667127
0.00510271
0.00402706
0.00386732
0.00458489
0.005666
0.00680643
0.00789811
0.00890566
0.00981826
0.0106297
0.0113313
0.0119097
0.0123476
0.0126277
0.0127392
0.0126864
0.01249
0.0122189
0.0119909
0.0133147
0.0190816
0.0252302
0.0285209
0.028586
0.026204
0.0224165
0.018199
0.0143258
0.0112576
0.0090663
0.00752723
0.00637925
0.00549316
0.00485703
0.00451036
0.00448018
0.00473345
0.00519394
0.00575986
0.00633589
0.00687254
0.00734914
0.00777068
0.00817369
0.00863057
0.00923545
0.0100565
0.0110777
0.0121871
0.0132294
0.0140762
0.0146662
0.0150077
0.015164
0.0152309
0.0153082
0.0154564
0.0156438
0.0156933
0.0147541
0.00913122
0.0168845
0.0219542
0.0138308
0.0132956
0.0128295
0.0123485
0.0118304
0.0112241
0.0104816
0.00958329
0.00855582
0.00749573
0.00658145
0.00603926
0.00601835
0.00649375
0.00729321
0.00823313
0.00915941
0.00997118
0.0106155
0.0110787
0.0113763
0.0115493
0.0116686
0.0118393
0.0121905
0.0128313
0.0137819
0.0149256
0.0160101
0.0165816
0.0159497
0.0149008
0.0136879
0.0122598
0.010689
0.00902336
0.0072908
0.00560797
0.00427095
0.00375548
0.00425456
0.00527557
0.0064052
0.0075004
0.00852199
0.00946069
0.0103131
0.0110743
0.0117344
0.0122776
0.0126838
0.0129334
0.0130145
0.0129275
0.0127086
0.0124329
0.0130079
0.0175642
0.0237134
0.0277572
0.0288235
0.0273967
0.0243135
0.0203993
0.0163598
0.0127334
0.00983493
0.0077122
0.00621611
0.005186
0.00456146
0.00434339
0.0044988
0.00492703
0.00552006
0.00615693
0.00676428
0.00730624
0.00777178
0.00817426
0.00855649
0.00899281
0.00957109
0.0103468
0.0112956
0.0123108
0.0132516
0.0140018
0.0145028
0.0147584
0.014825
0.0147946
0.0147721
0.0148347
0.0149762
0.0150656
0.0143956
0.00939763
0.016507
0.0226434
0.0147376
0.0140995
0.013513
0.0128996
0.0122395
0.0114778
0.0105646
0.00948295
0.00826992
0.00704281
0.00601459
0.00545564
0.00553141
0.00619822
0.00722196
0.00836334
0.00944416
0.0103603
0.0110623
0.0115429
0.0118207
0.011933
0.0119377
0.0119258
0.0120268
0.012399
0.0131762
0.014373
0.0157946
0.016886
0.016475
0.0154685
0.0142522
0.0127994
0.0112291
0.00956456
0.00781482
0.00605613
0.00452388
0.00367728
0.00392466
0.00488371
0.00600509
0.00709142
0.00810289
0.00903897
0.00990336
0.0106959
0.0114105
0.0120339
0.0125462
0.0129237
0.0131444
0.0131938
0.0130801
0.0128471
0.0130022
0.0163334
0.0221155
0.0266561
0.0285868
0.0280831
0.0257805
0.0223645
0.0184548
0.0145794
0.011149
0.00841104
0.00642089
0.00511037
0.00441334
0.00427773
0.00458001
0.00515224
0.00584108
0.00652824
0.00715568
0.00769894
0.00815656
0.00855123
0.00893395
0.00938091
0.00996892
0.0107317
0.0116281
0.0125524
0.0133796
0.0140102
0.014395
0.0145385
0.0144925
0.014345
0.0142027
0.0141557
0.0142223
0.0142938
0.0138422
0.00952177
0.0161492
0.0232905
0.0155558
0.0148218
0.0141227
0.0133849
0.0125928
0.0116883
0.0106193
0.00936921
0.00797931
0.00657703
0.00540179
0.00478899
0.00497
0.00588425
0.00717437
0.00853226
0.00976692
0.0107812
0.0115349
0.0120334
0.0123003
0.0123739
0.0123074
0.0121791
0.0120964
0.0122079
0.0127113
0.0137873
0.0154199
0.0170535
0.01692
0.015964
0.0147334
0.0132704
0.0116802
0.00999733
0.00822406
0.00640818
0.00473061
0.00359706
0.00356565
0.00445987
0.00559394
0.00668191
0.00767425
0.0085855
0.00943463
0.0102309
0.0109732
0.0116512
0.0122466
0.0127341
0.0130866
0.0132793
0.0133
0.0131689
0.0131515
0.0154301
0.0205391
0.0253057
0.0279401
0.0282895
0.026782
0.0239662
0.0203771
0.0165072
0.0127926
0.00958051
0.00708914
0.00540567
0.00453806
0.00440687
0.00479264
0.00545794
0.00619695
0.00690461
0.00753382
0.00806912
0.00851943
0.00891853
0.0093262
0.00981652
0.0104465
0.01122
0.0120751
0.0129074
0.0136089
0.0141002
0.0143452
0.0143528
0.014173
0.0138901
0.0136103
0.0134335
0.0133996
0.0134199
0.013107
0.0094844
0.0158409