/*--------------------------------*- C++ -*----------------------------------*\
| =========                 |                                                 |
| \\      /  F ield         | OpenFOAM: The Open Source CFD Toolbox           |
|  \\    /   O peration     | Version:  4.1                                   |
|   \\  /    A nd           | Web:      www.OpenFOAM.org                      |
|    \\/     M anipulation  |                                                 |
\*---------------------------------------------------------------------------*/
FoamFile
{
    version     2.0;
    format      ascii;
    class       volScalarField;
    location    "540";
    object      p;
}
// * * * * * * * * * * * * * * * * * * * * * * * * * * * * * * * * * * * * * //

dimensions      [0 2 -2 0 0 0 0];

internalField   nonuniform List<scalar> 
5000
(
0
4.50788e-06
1.06867e-05
9.85195e-06
5.72893e-06
1.1188e-06
-4.05287e-06
-9.21218e-06
-1.40277e-05
-1.83458e-05
-2.21094e-05
-2.53195e-05
-2.80178e-05
-3.02775e-05
-3.21954e-05
-3.38829e-05
-3.54603e-05
-3.70501e-05
-3.877e-05
-4.07261e-05
-4.30084e-05
-4.56865e-05
-4.88058e-05
-5.2383e-05
-5.64031e-05
-6.08172e-05
-6.55444e-05
-7.0479e-05
-7.55029e-05
-8.05005e-05
-8.5371e-05
-9.00385e-05
-9.44559e-05
-9.86046e-05
-0.000102486
-0.00010611
-0.00010947
-0.000112523
-0.000115172
-0.000117265
-0.000118627
-0.000119129
-0.000118734
-0.000117503
-0.000115567
-0.000113107
-0.000110304
-0.000107291
-0.000104084
-0.000100512
-9.61001e-05
-8.99116e-05
-8.04053e-05
-6.6762e-05
-6.61834e-05
-7.64691e-05
-8.33436e-05
-8.63062e-05
-8.7826e-05
-8.91863e-05
-9.07615e-05
-9.26693e-05
-9.4946e-05
-9.75606e-05
-0.000100454
-0.000103541
-0.000106688
-0.000109732
-0.000112503
-0.000114826
-0.000116495
-0.000117281
-0.000116958
-0.00011532
-0.000112188
-0.000107456
-0.000100991
-9.27241e-05
-8.26658e-05
-7.09107e-05
-5.76402e-05
-4.31153e-05
-2.76646e-05
-1.16707e-05
4.44413e-06
2.02304e-05
3.52231e-05
4.89567e-05
6.09876e-05
7.09047e-05
7.82722e-05
8.2533e-05
8.33048e-05
8.18017e-05
7.81084e-05
7.1539e-05
6.36099e-05
5.7676e-05
5.55198e-05
6.04715e-05
-0.0984738
-0.0984742
-0.0984714
-0.0984712
-0.0984728
-0.0984758
-0.0984799
-0.0984842
-0.0984884
-0.0984922
-0.0984956
-0.0984985
-0.0985009
-0.0985029
-0.0985045
-0.0985059
-0.0985072
-0.0985085
-0.09851
-0.0985117
-0.0985138
-0.0985162
-0.0985192
-0.0985226
-0.0985264
-0.0985307
-0.0985352
-0.09854
-0.0985447
-0.0985495
-0.0985541
-0.0985584
-0.0985625
-0.0985662
-0.0985697
-0.0985729
-0.0985757
-0.0985781
-0.09858
-0.098581
-0.098581
-0.0985797
-0.0985773
-0.0985736
-0.098569
-0.0985635
-0.0985575
-0.0985511
-0.0985444
-0.0985371
-0.098529
-0.0985192
-0.0985069
-0.0984904
-0.0984904
-0.0985088
-0.0985233
-0.0985315
-0.0985368
-0.0985411
-0.0985453
-0.0985496
-0.0985542
-0.098559
-0.0985641
-0.0985692
-0.0985744
-0.0985793
-0.0985839
-0.098588
-0.0985913
-0.0985936
-0.0985947
-0.0985944
-0.0985926
-0.098589
-0.0985836
-0.0985763
-0.0985671
-0.0985562
-0.0985436
-0.0985298
-0.0985149
-0.0984995
-0.0984839
-0.0984686
-0.098454
-0.0984407
-0.098429
-0.0984195
-0.0984125
-0.0984086
-0.098408
-0.0984101
-0.0984141
-0.0984198
-0.0984259
-0.0984293
-0.0984284
-0.0984197
-0.196968
-0.19697
-0.196968
-0.196968
-0.196969
-0.196972
-0.196976
-0.19698
-0.196984
-0.196987
-0.19699
-0.196992
-0.196994
-0.196996
-0.196997
-0.196998
-0.196998
-0.196999
-0.197
-0.197002
-0.197004
-0.197006
-0.197009
-0.197012
-0.197016
-0.19702
-0.197024
-0.197029
-0.197034
-0.197039
-0.197044
-0.197048
-0.197052
-0.197056
-0.197059
-0.197062
-0.197065
-0.197068
-0.19707
-0.197071
-0.197071
-0.19707
-0.197066
-0.197061
-0.197055
-0.197047
-0.197038
-0.197029
-0.197019
-0.197009
-0.196998
-0.196987
-0.196974
-0.196959
-0.196959
-0.19698
-0.196999
-0.197011
-0.197019
-0.197025
-0.19703
-0.197036
-0.197042
-0.197048
-0.197055
-0.197061
-0.197067
-0.197073
-0.197079
-0.197084
-0.197088
-0.197091
-0.197093
-0.197093
-0.197092
-0.197089
-0.197084
-0.197077
-0.197068
-0.197057
-0.197045
-0.197031
-0.197016
-0.197001
-0.196986
-0.19697
-0.196956
-0.196943
-0.196931
-0.196922
-0.196915
-0.196911
-0.19691
-0.196913
-0.196917
-0.196922
-0.196928
-0.19693
-0.196929
-0.19692
-0.295463
-0.295465
-0.295463
-0.295464
-0.295466
-0.295468
-0.295472
-0.295475
-0.295478
-0.295481
-0.295484
-0.295485
-0.295487
-0.295487
-0.295488
-0.295488
-0.295488
-0.295488
-0.295489
-0.29549
-0.295491
-0.295493
-0.295496
-0.295499
-0.295503
-0.295507
-0.295512
-0.295517
-0.295522
-0.295527
-0.295531
-0.295536
-0.29554
-0.295543
-0.295547
-0.29555
-0.295553
-0.295555
-0.295558
-0.29556
-0.295561
-0.29556
-0.295557
-0.295552
-0.295545
-0.295537
-0.295527
-0.295517
-0.295506
-0.295495
-0.295483
-0.295471
-0.29546
-0.29545
-0.295448
-0.295469
-0.295489
-0.295502
-0.29551
-0.295516
-0.295522
-0.295529
-0.295535
-0.295542
-0.29555
-0.295557
-0.295564
-0.29557
-0.295577
-0.295582
-0.295587
-0.295591
-0.295593
-0.295594
-0.295593
-0.29559
-0.295586
-0.295579
-0.295571
-0.29556
-0.295548
-0.295535
-0.29552
-0.295505
-0.29549
-0.295475
-0.29546
-0.295447
-0.295436
-0.295426
-0.295419
-0.295415
-0.295414
-0.295416
-0.29542
-0.295425
-0.29543
-0.295433
-0.295432
-0.295426
-0.393957
-0.393958
-0.393957
-0.393959
-0.393961
-0.393963
-0.393966
-0.393969
-0.393972
-0.393974
-0.393976
-0.393977
-0.393977
-0.393977
-0.393977
-0.393976
-0.393976
-0.393976
-0.393976
-0.393976
-0.393977
-0.393979
-0.393981
-0.393984
-0.393988
-0.393993
-0.393997
-0.394002
-0.394008
-0.394013
-0.394018
-0.394022
-0.394026
-0.39403
-0.394033
-0.394036
-0.394039
-0.394042
-0.394045
-0.394047
-0.394049
-0.394049
-0.394047
-0.394043
-0.394036
-0.394028
-0.394019
-0.394008
-0.393997
-0.393986
-0.393975
-0.393964
-0.393954
-0.393947
-0.393946
-0.393963
-0.393984
-0.393996
-0.394004
-0.39401
-0.394017
-0.394023
-0.394031
-0.394038
-0.394046
-0.394053
-0.394061
-0.394068
-0.394075
-0.394081
-0.394087
-0.394091
-0.394094
-0.394095
-0.394095
-0.394093
-0.394089
-0.394083
-0.394075
-0.394065
-0.394053
-0.39404
-0.394026
-0.394011
-0.393995
-0.393981
-0.393966
-0.393953
-0.393941
-0.393932
-0.393925
-0.39392
-0.393919
-0.39392
-0.393924
-0.393929
-0.393934
-0.393937
-0.393936
-0.393931
-0.492449
-0.49245
-0.49245
-0.492452
-0.492454
-0.492457
-0.492459
-0.492462
-0.492464
-0.492466
-0.492467
-0.492467
-0.492466
-0.492466
-0.492464
-0.492463
-0.492462
-0.492461
-0.492461
-0.492461
-0.492462
-0.492464
-0.492466
-0.492469
-0.492473
-0.492478
-0.492482
-0.492488
-0.492493
-0.492498
-0.492503
-0.492508
-0.492512
-0.492516
-0.49252
-0.492523
-0.492526
-0.492529
-0.492531
-0.492534
-0.492536
-0.492537
-0.492536
-0.492533
-0.492527
-0.49252
-0.492511
-0.492501
-0.49249
-0.49248
-0.492469
-0.49246
-0.492451
-0.492445
-0.492444
-0.492457
-0.49248
-0.492492
-0.4925
-0.492506
-0.492512
-0.492519
-0.492527
-0.492534
-0.492542
-0.492551
-0.492559
-0.492567
-0.492574
-0.492581
-0.492587
-0.492592
-0.492596
-0.492598
-0.492598
-0.492597
-0.492594
-0.492588
-0.49258
-0.492571
-0.492559
-0.492546
-0.492532
-0.492518
-0.492503
-0.492488
-0.492473
-0.49246
-0.492448
-0.492439
-0.492431
-0.492426
-0.492424
-0.492425
-0.492428
-0.492432
-0.492436
-0.49244
-0.49244
-0.492435
-0.59094
-0.590941
-0.590941
-0.590943
-0.590946
-0.590948
-0.590951
-0.590953
-0.590955
-0.590955
-0.590956
-0.590955
-0.590954
-0.590952
-0.590951
-0.590949
-0.590948
-0.590947
-0.590946
-0.590947
-0.590948
-0.590949
-0.590952
-0.590955
-0.590959
-0.590963
-0.590968
-0.590973
-0.590979
-0.590984
-0.590989
-0.590994
-0.590999
-0.591003
-0.591006
-0.59101
-0.591013
-0.591015
-0.591018
-0.591021
-0.591023
-0.591025
-0.591025
-0.591022
-0.591018
-0.591011
-0.591003
-0.590994
-0.590985
-0.590975
-0.590965
-0.590956
-0.590949
-0.590943
-0.590943
-0.590952
-0.590973
-0.590988
-0.590996
-0.591002
-0.591008
-0.591015
-0.591023
-0.591031
-0.59104
-0.591048
-0.591057
-0.591065
-0.591074
-0.591081
-0.591088
-0.591094
-0.591098
-0.591101
-0.591102
-0.591102
-0.591099
-0.591094
-0.591087
-0.591078
-0.591067
-0.591054
-0.59104
-0.591026
-0.591011
-0.590996
-0.590981
-0.590968
-0.590956
-0.590946
-0.590938
-0.590932
-0.590929
-0.590929
-0.590931
-0.590934
-0.590939
-0.590942
-0.590941
-0.590938
-0.689429
-0.68943
-0.68943
-0.689433
-0.689435
-0.689438
-0.68944
-0.689442
-0.689443
-0.689443
-0.689443
-0.689442
-0.68944
-0.689439
-0.689437
-0.689435
-0.689434
-0.689433
-0.689433
-0.689433
-0.689434
-0.689436
-0.689438
-0.689442
-0.689445
-0.68945
-0.689455
-0.68946
-0.689465
-0.689471
-0.689476
-0.689481
-0.689485
-0.68949
-0.689493
-0.689497
-0.6895
-0.689502
-0.689505
-0.689508
-0.68951
-0.689512
-0.689513
-0.689511
-0.689508
-0.689502
-0.689495
-0.689487
-0.689479
-0.68947
-0.689461
-0.689453
-0.689446
-0.689442
-0.689441
-0.689448
-0.689466
-0.689484
-0.689492
-0.689498
-0.689505
-0.689512
-0.68952
-0.689529
-0.689537
-0.689546
-0.689556
-0.689565
-0.689573
-0.689582
-0.689589
-0.689596
-0.689601
-0.689605
-0.689607
-0.689607
-0.689605
-0.6896
-0.689594
-0.689585
-0.689575
-0.689562
-0.689549
-0.689534
-0.689519
-0.689504
-0.68949
-0.689476
-0.689464
-0.689453
-0.689445
-0.689438
-0.689434
-0.689433
-0.689433
-0.689436
-0.68944
-0.689441
-0.689441
-0.689438
-0.787916
-0.787917
-0.787918
-0.787921
-0.787923
-0.787925
-0.787928
-0.787929
-0.78793
-0.78793
-0.787929
-0.787928
-0.787927
-0.787925
-0.787924
-0.787922
-0.787921
-0.787921
-0.78792
-0.787921
-0.787922
-0.787924
-0.787926
-0.78793
-0.787933
-0.787938
-0.787942
-0.787947
-0.787953
-0.787958
-0.787963
-0.787968
-0.787973
-0.787977
-0.78798
-0.787984
-0.787987
-0.787989
-0.787992
-0.787994
-0.787997
-0.787999
-0.788
-0.788
-0.787997
-0.787993
-0.787987
-0.78798
-0.787973
-0.787965
-0.787957
-0.78795
-0.787944
-0.787939
-0.787938
-0.787944
-0.787959
-0.787979
-0.787988
-0.787995
-0.788002
-0.78801
-0.788018
-0.788026
-0.788035
-0.788045
-0.788054
-0.788064
-0.788073
-0.788082
-0.78809
-0.788098
-0.788104
-0.788108
-0.788111
-0.788112
-0.788111
-0.788107
-0.788101
-0.788093
-0.788083
-0.788071
-0.788058
-0.788043
-0.788028
-0.788013
-0.787999
-0.787985
-0.787972
-0.787961
-0.787951
-0.787944
-0.787939
-0.787936
-0.787935
-0.787936
-0.787939
-0.787937
-0.787939
-0.787938
-0.886402
-0.886404
-0.886405
-0.886407
-0.88641
-0.886412
-0.886414
-0.886415
-0.886416
-0.886416
-0.886416
-0.886415
-0.886414
-0.886413
-0.886412
-0.886411
-0.88641
-0.88641
-0.88641
-0.886411
-0.886412
-0.886414
-0.886416
-0.886419
-0.886423
-0.886427
-0.886431
-0.886436
-0.886441
-0.886446
-0.886451
-0.886456
-0.88646
-0.886464
-0.886468
-0.886471
-0.886474
-0.886476
-0.886479
-0.886481
-0.886484
-0.886486
-0.886488
-0.886488
-0.886486
-0.886483
-0.886478
-0.886472
-0.886466
-0.88646
-0.886453
-0.886447
-0.886441
-0.886437
-0.886435
-0.88644
-0.886452
-0.886471
-0.886485
-0.886492
-0.886499
-0.886507
-0.886516
-0.886525
-0.886534
-0.886544
-0.886553
-0.886563
-0.886573
-0.886583
-0.886592
-0.8866
-0.886606
-0.886612
-0.886615
-0.886617
-0.886617
-0.886614
-0.886609
-0.886601
-0.886591
-0.88658
-0.886566
-0.886552
-0.886537
-0.886522
-0.886507
-0.886493
-0.88648
-0.886468
-0.886457
-0.886449
-0.886443
-0.886439
-0.886437
-0.886437
-0.886438
-0.886436
-0.88644
-0.886437
-0.984887
-0.98489
-0.98489
-0.984893
-0.984895
-0.984898
-0.9849
-0.984901
-0.984903
-0.984903
-0.984903
-0.984903
-0.984903
-0.984902
-0.984902
-0.984901
-0.984901
-0.984901
-0.984902
-0.984902
-0.984903
-0.984905
-0.984907
-0.98491
-0.984913
-0.984917
-0.984921
-0.984926
-0.984931
-0.984935
-0.98494
-0.984945
-0.984949
-0.984952
-0.984956
-0.984959
-0.984961
-0.984964
-0.984966
-0.984968
-0.98497
-0.984972
-0.984974
-0.984975
-0.984974
-0.984972
-0.984969
-0.984964
-0.984959
-0.984954
-0.984948
-0.984943
-0.984938
-0.984934
-0.984933
-0.984936
-0.984947
-0.984964
-0.984982
-0.984989
-0.984997
-0.985005
-0.985014
-0.985023
-0.985032
-0.985042
-0.985053
-0.985063
-0.985073
-0.985083
-0.985093
-0.985101
-0.985109
-0.985115
-0.985119
-0.985122
-0.985122
-0.98512
-0.985115
-0.985108
-0.985099
-0.985088
-0.985075
-0.98506
-0.985045
-0.98503
-0.985015
-0.985
-0.984986
-0.984974
-0.984963
-0.984954
-0.984946
-0.984941
-0.984938
-0.984937
-0.984937
-0.984937
-0.984941
-0.984937
-1.08337
-1.08337
-1.08338
-1.08338
-1.08338
-1.08338
-1.08339
-1.08339
-1.08339
-1.08339
-1.08339
-1.08339
-1.08339
-1.08339
-1.08339
-1.08339
-1.08339
-1.08339
-1.08339
-1.0834
-1.0834
-1.0834
-1.0834
-1.0834
-1.0834
-1.08341
-1.08341
-1.08342
-1.08342
-1.08343
-1.08343
-1.08343
-1.08344
-1.08344
-1.08344
-1.08345
-1.08345
-1.08345
-1.08345
-1.08346
-1.08346
-1.08346
-1.08346
-1.08346
-1.08346
-1.08346
-1.08346
-1.08346
-1.08345
-1.08345
-1.08344
-1.08344
-1.08343
-1.08343
-1.08343
-1.08343
-1.08344
-1.08346
-1.08348
-1.08349
-1.0835
-1.0835
-1.08351
-1.08352
-1.08353
-1.08354
-1.08355
-1.08356
-1.08357
-1.08358
-1.08359
-1.0836
-1.08361
-1.08362
-1.08362
-1.08363
-1.08363
-1.08363
-1.08362
-1.08361
-1.08361
-1.08359
-1.08358
-1.08357
-1.08355
-1.08354
-1.08352
-1.08351
-1.08349
-1.08348
-1.08347
-1.08346
-1.08345
-1.08344
-1.08344
-1.08344
-1.08344
-1.08344
-1.08344
-1.08343
-1.18186
-1.18186
-1.18186
-1.18186
-1.18187
-1.18187
-1.18187
-1.18188
-1.18188
-1.18188
-1.18188
-1.18188
-1.18189
-1.18189
-1.18189
-1.18189
-1.18189
-1.18189
-1.18189
-1.18189
-1.18189
-1.18189
-1.18189
-1.1819
-1.1819
-1.1819
-1.1819
-1.18191
-1.18191
-1.18192
-1.18192
-1.18192
-1.18193
-1.18193
-1.18193
-1.18194
-1.18194
-1.18194
-1.18194
-1.18194
-1.18194
-1.18195
-1.18195
-1.18195
-1.18195
-1.18195
-1.18195
-1.18195
-1.18194
-1.18194
-1.18194
-1.18193
-1.18193
-1.18193
-1.18193
-1.18193
-1.18194
-1.18195
-1.18197
-1.18199
-1.18199
-1.182
-1.18201
-1.18202
-1.18203
-1.18204
-1.18205
-1.18206
-1.18207
-1.18208
-1.18209
-1.1821
-1.18211
-1.18212
-1.18212
-1.18213
-1.18213
-1.18213
-1.18213
-1.18212
-1.18211
-1.1821
-1.18209
-1.18207
-1.18206
-1.18204
-1.18203
-1.18201
-1.182
-1.18198
-1.18197
-1.18196
-1.18195
-1.18194
-1.18194
-1.18193
-1.18193
-1.18193
-1.18193
-1.18193
-1.28034
-1.28035
-1.28035
-1.28035
-1.28035
-1.28036
-1.28036
-1.28037
-1.28037
-1.28037
-1.28038
-1.28038
-1.28038
-1.28038
-1.28038
-1.28038
-1.28038
-1.28039
-1.28039
-1.28039
-1.28039
-1.28039
-1.28039
-1.28039
-1.28039
-1.28039
-1.2804
-1.2804
-1.2804
-1.28041
-1.28041
-1.28041
-1.28042
-1.28042
-1.28042
-1.28043
-1.28043
-1.28043
-1.28043
-1.28043
-1.28043
-1.28043
-1.28043
-1.28043
-1.28044
-1.28044
-1.28044
-1.28044
-1.28043
-1.28043
-1.28043
-1.28043
-1.28042
-1.28042
-1.28042
-1.28043
-1.28043
-1.28045
-1.28047
-1.28048
-1.28049
-1.2805
-1.28051
-1.28052
-1.28053
-1.28054
-1.28055
-1.28056
-1.28057
-1.28058
-1.28059
-1.2806
-1.28061
-1.28062
-1.28062
-1.28063
-1.28063
-1.28063
-1.28063
-1.28062
-1.28061
-1.2806
-1.28059
-1.28058
-1.28056
-1.28055
-1.28053
-1.28051
-1.2805
-1.28049
-1.28047
-1.28046
-1.28045
-1.28044
-1.28043
-1.28043
-1.28042
-1.28042
-1.28042
-1.28042
-1.37883
-1.37883
-1.37884
-1.37884
-1.37884
-1.37885
-1.37885
-1.37886
-1.37886
-1.37887
-1.37887
-1.37887
-1.37888
-1.37888
-1.37888
-1.37888
-1.37888
-1.37888
-1.37888
-1.37888
-1.37888
-1.37888
-1.37888
-1.37888
-1.37889
-1.37889
-1.37889
-1.37889
-1.3789
-1.3789
-1.3789
-1.37891
-1.37891
-1.37891
-1.37891
-1.37892
-1.37892
-1.37892
-1.37892
-1.37892
-1.37892
-1.37892
-1.37892
-1.37892
-1.37892
-1.37892
-1.37892
-1.37892
-1.37892
-1.37892
-1.37892
-1.37892
-1.37892
-1.37892
-1.37892
-1.37892
-1.37893
-1.37894
-1.37896
-1.37898
-1.37899
-1.379
-1.37901
-1.37902
-1.37903
-1.37904
-1.37905
-1.37906
-1.37907
-1.37908
-1.37909
-1.3791
-1.37911
-1.37912
-1.37912
-1.37913
-1.37913
-1.37913
-1.37913
-1.37912
-1.37911
-1.3791
-1.37909
-1.37908
-1.37906
-1.37905
-1.37903
-1.37902
-1.379
-1.37899
-1.37897
-1.37896
-1.37895
-1.37894
-1.37893
-1.37892
-1.37891
-1.37891
-1.37891
-1.37891
-1.47732
-1.47732
-1.47732
-1.47733
-1.47733
-1.47734
-1.47735
-1.47735
-1.47736
-1.47736
-1.47737
-1.47737
-1.47737
-1.47738
-1.47738
-1.47738
-1.47738
-1.47738
-1.47738
-1.47738
-1.47738
-1.47738
-1.47738
-1.47738
-1.47738
-1.47738
-1.47738
-1.47739
-1.47739
-1.47739
-1.47739
-1.4774
-1.4774
-1.4774
-1.47741
-1.47741
-1.47741
-1.47741
-1.47741
-1.47741
-1.47741
-1.47741
-1.47741
-1.47741
-1.47741
-1.47741
-1.47741
-1.47741
-1.47741
-1.47742
-1.47741
-1.47741
-1.47741
-1.47741
-1.47741
-1.47742
-1.47742
-1.47744
-1.47745
-1.47747
-1.47749
-1.4775
-1.47751
-1.47751
-1.47752
-1.47753
-1.47754
-1.47755
-1.47756
-1.47757
-1.47758
-1.47759
-1.4776
-1.47761
-1.47762
-1.47762
-1.47763
-1.47763
-1.47762
-1.47762
-1.47761
-1.4776
-1.47759
-1.47758
-1.47756
-1.47755
-1.47753
-1.47751
-1.4775
-1.47748
-1.47747
-1.47746
-1.47744
-1.47743
-1.47742
-1.47741
-1.4774
-1.4774
-1.47739
-1.4774
-1.57581
-1.57581
-1.57582
-1.57582
-1.57583
-1.57583
-1.57584
-1.57585
-1.57585
-1.57586
-1.57586
-1.57587
-1.57587
-1.57587
-1.57588
-1.57588
-1.57588
-1.57588
-1.57588
-1.57588
-1.57588
-1.57588
-1.57588
-1.57588
-1.57588
-1.57588
-1.57588
-1.57588
-1.57588
-1.57588
-1.57589
-1.57589
-1.57589
-1.57589
-1.5759
-1.5759
-1.5759
-1.5759
-1.5759
-1.5759
-1.5759
-1.5759
-1.5759
-1.5759
-1.5759
-1.5759
-1.5759
-1.5759
-1.57591
-1.57591
-1.57591
-1.57591
-1.57591
-1.57591
-1.57591
-1.57591
-1.57592
-1.57593
-1.57595
-1.57597
-1.57599
-1.576
-1.576
-1.57601
-1.57602
-1.57603
-1.57604
-1.57605
-1.57606
-1.57607
-1.57608
-1.57608
-1.57609
-1.5761
-1.57611
-1.57611
-1.57612
-1.57612
-1.57612
-1.57611
-1.57611
-1.5761
-1.57609
-1.57607
-1.57606
-1.57604
-1.57603
-1.57601
-1.576
-1.57598
-1.57597
-1.57595
-1.57594
-1.57593
-1.57591
-1.5759
-1.5759
-1.57589
-1.57588
-1.57589
-1.6743
-1.67431
-1.67431
-1.67431
-1.67432
-1.67433
-1.67433
-1.67434
-1.67435
-1.67436
-1.67436
-1.67437
-1.67437
-1.67437
-1.67438
-1.67438
-1.67438
-1.67438
-1.67438
-1.67438
-1.67438
-1.67438
-1.67438
-1.67438
-1.67438
-1.67438
-1.67438
-1.67438
-1.67438
-1.67438
-1.67438
-1.67438
-1.67438
-1.67438
-1.67439
-1.67439
-1.67439
-1.67439
-1.67439
-1.67439
-1.67439
-1.67439
-1.67439
-1.67439
-1.67439
-1.67439
-1.67439
-1.6744
-1.6744
-1.6744
-1.6744
-1.6744
-1.6744
-1.6744
-1.67441
-1.67441
-1.67441
-1.67442
-1.67444
-1.67446
-1.67448
-1.67449
-1.6745
-1.67451
-1.67452
-1.67452
-1.67453
-1.67454
-1.67455
-1.67456
-1.67457
-1.67457
-1.67458
-1.67459
-1.6746
-1.6746
-1.67461
-1.67461
-1.6746
-1.6746
-1.67459
-1.67459
-1.67458
-1.67456
-1.67455
-1.67454
-1.67452
-1.6745
-1.67449
-1.67447
-1.67446
-1.67444
-1.67443
-1.67442
-1.67441
-1.6744
-1.67439
-1.67438
-1.67438
-1.67438
-1.7728
-1.7728
-1.7728
-1.77281
-1.77282
-1.77282
-1.77283
-1.77284
-1.77285
-1.77285
-1.77286
-1.77287
-1.77287
-1.77287
-1.77288
-1.77288
-1.77288
-1.77288
-1.77288
-1.77288
-1.77288
-1.77288
-1.77288
-1.77288
-1.77287
-1.77287
-1.77287
-1.77287
-1.77287
-1.77287
-1.77287
-1.77287
-1.77287
-1.77288
-1.77288
-1.77288
-1.77288
-1.77289
-1.77289
-1.77289
-1.77289
-1.77289
-1.77289
-1.77289
-1.77289
-1.77289
-1.77289
-1.77289
-1.77289
-1.77289
-1.77289
-1.77289
-1.7729
-1.7729
-1.7729
-1.7729
-1.77291
-1.77291
-1.77293
-1.77295
-1.77297
-1.77299
-1.773
-1.773
-1.77301
-1.77302
-1.77302
-1.77303
-1.77304
-1.77305
-1.77305
-1.77306
-1.77307
-1.77308
-1.77308
-1.77309
-1.77309
-1.77309
-1.77309
-1.77308
-1.77308
-1.77307
-1.77306
-1.77305
-1.77304
-1.77303
-1.77301
-1.773
-1.77298
-1.77297
-1.77295
-1.77294
-1.77292
-1.77291
-1.7729
-1.77289
-1.77288
-1.77287
-1.77287
-1.77287
-1.87129
-1.8713
-1.8713
-1.87131
-1.87131
-1.87132
-1.87133
-1.87134
-1.87135
-1.87135
-1.87136
-1.87137
-1.87137
-1.87138
-1.87138
-1.87138
-1.87138
-1.87138
-1.87138
-1.87138
-1.87138
-1.87138
-1.87138
-1.87137
-1.87137
-1.87137
-1.87137
-1.87137
-1.87136
-1.87136
-1.87136
-1.87136
-1.87136
-1.87137
-1.87137
-1.87137
-1.87137
-1.87138
-1.87138
-1.87138
-1.87138
-1.87138
-1.87138
-1.87138
-1.87138
-1.87138
-1.87138
-1.87138
-1.87138
-1.87138
-1.87138
-1.87139
-1.87139
-1.87139
-1.87139
-1.8714
-1.8714
-1.8714
-1.87142
-1.87144
-1.87146
-1.87148
-1.87149
-1.8715
-1.8715
-1.87151
-1.87152
-1.87152
-1.87153
-1.87154
-1.87154
-1.87155
-1.87155
-1.87156
-1.87156
-1.87157
-1.87157
-1.87157
-1.87157
-1.87156
-1.87156
-1.87155
-1.87155
-1.87154
-1.87153
-1.87151
-1.8715
-1.87149
-1.87147
-1.87145
-1.87144
-1.87143
-1.87141
-1.8714
-1.87139
-1.87138
-1.87137
-1.87136
-1.87136
-1.87137
-1.96979
-1.9698
-1.9698
-1.9698
-1.96981
-1.96982
-1.96983
-1.96984
-1.96985
-1.96985
-1.96986
-1.96987
-1.96987
-1.96988
-1.96988
-1.96988
-1.96988
-1.96988
-1.96988
-1.96988
-1.96988
-1.96988
-1.96987
-1.96987
-1.96987
-1.96987
-1.96986
-1.96986
-1.96986
-1.96986
-1.96986
-1.96986
-1.96986
-1.96986
-1.96986
-1.96986
-1.96986
-1.96987
-1.96987
-1.96987
-1.96987
-1.96988
-1.96988
-1.96987
-1.96987
-1.96987
-1.96987
-1.96987
-1.96987
-1.96988
-1.96988
-1.96988
-1.96988
-1.96988
-1.96989
-1.96989
-1.96989
-1.9699
-1.96991
-1.96993
-1.96995
-1.96997
-1.96998
-1.96999
-1.97
-1.97
-1.97001
-1.97001
-1.97002
-1.97002
-1.97003
-1.97003
-1.97004
-1.97004
-1.97005
-1.97005
-1.97005
-1.97005
-1.97005
-1.97004
-1.97004
-1.97003
-1.97003
-1.97002
-1.97001
-1.97
-1.96999
-1.96997
-1.96996
-1.96994
-1.96993
-1.96991
-1.9699
-1.96989
-1.96988
-1.96987
-1.96986
-1.96986
-1.96986
-1.96986
-2.06829
-2.06829
-2.0683
-2.0683
-2.06831
-2.06832
-2.06833
-2.06834
-2.06835
-2.06835
-2.06836
-2.06837
-2.06837
-2.06838
-2.06838
-2.06838
-2.06838
-2.06838
-2.06838
-2.06837
-2.06837
-2.06837
-2.06837
-2.06837
-2.06837
-2.06836
-2.06836
-2.06836
-2.06835
-2.06835
-2.06835
-2.06835
-2.06835
-2.06835
-2.06835
-2.06835
-2.06836
-2.06836
-2.06836
-2.06837
-2.06837
-2.06837
-2.06837
-2.06837
-2.06837
-2.06837
-2.06837
-2.06837
-2.06837
-2.06837
-2.06837
-2.06837
-2.06837
-2.06838
-2.06838
-2.06838
-2.06838
-2.06839
-2.0684
-2.06842
-2.06844
-2.06846
-2.06847
-2.06848
-2.06849
-2.0685
-2.0685
-2.0685
-2.06851
-2.06851
-2.06851
-2.06852
-2.06852
-2.06852
-2.06853
-2.06853
-2.06853
-2.06853
-2.06852
-2.06852
-2.06852
-2.06851
-2.06851
-2.0685
-2.06849
-2.06848
-2.06847
-2.06846
-2.06844
-2.06843
-2.06841
-2.0684
-2.06839
-2.06838
-2.06837
-2.06836
-2.06835
-2.06834
-2.06835
-2.06835
-2.16679
-2.16679
-2.1668
-2.1668
-2.16681
-2.16682
-2.16683
-2.16684
-2.16685
-2.16685
-2.16686
-2.16687
-2.16687
-2.16687
-2.16688
-2.16688
-2.16687
-2.16687
-2.16687
-2.16687
-2.16687
-2.16687
-2.16686
-2.16686
-2.16686
-2.16686
-2.16686
-2.16685
-2.16685
-2.16685
-2.16684
-2.16684
-2.16684
-2.16684
-2.16684
-2.16684
-2.16685
-2.16685
-2.16685
-2.16686
-2.16686
-2.16686
-2.16686
-2.16686
-2.16686
-2.16686
-2.16686
-2.16686
-2.16686
-2.16686
-2.16686
-2.16686
-2.16687
-2.16687
-2.16687
-2.16687
-2.16688
-2.16688
-2.16689
-2.1669
-2.16692
-2.16694
-2.16696
-2.16698
-2.16698
-2.16699
-2.16699
-2.16699
-2.167
-2.167
-2.167
-2.167
-2.167
-2.167
-2.167
-2.16701
-2.167
-2.167
-2.167
-2.167
-2.167
-2.16699
-2.16699
-2.16698
-2.16697
-2.16696
-2.16695
-2.16694
-2.16693
-2.16691
-2.1669
-2.16688
-2.16687
-2.16686
-2.16685
-2.16684
-2.16683
-2.16683
-2.16683
-2.16683
-2.26529
-2.26529
-2.2653
-2.2653
-2.26531
-2.26532
-2.26533
-2.26534
-2.26535
-2.26536
-2.26536
-2.26537
-2.26537
-2.26537
-2.26537
-2.26537
-2.26537
-2.26537
-2.26537
-2.26536
-2.26536
-2.26536
-2.26536
-2.26536
-2.26535
-2.26535
-2.26535
-2.26535
-2.26534
-2.26534
-2.26534
-2.26533
-2.26533
-2.26533
-2.26533
-2.26534
-2.26534
-2.26534
-2.26535
-2.26535
-2.26535
-2.26536
-2.26536
-2.26536
-2.26536
-2.26536
-2.26536
-2.26536
-2.26536
-2.26535
-2.26536
-2.26536
-2.26536
-2.26536
-2.26536
-2.26536
-2.26537
-2.26537
-2.26537
-2.26539
-2.26541
-2.26543
-2.26545
-2.26546
-2.26547
-2.26548
-2.26548
-2.26548
-2.26548
-2.26548
-2.26548
-2.26548
-2.26548
-2.26548
-2.26548
-2.26548
-2.26548
-2.26548
-2.26548
-2.26548
-2.26547
-2.26547
-2.26546
-2.26546
-2.26545
-2.26544
-2.26543
-2.26542
-2.26541
-2.26539
-2.26538
-2.26537
-2.26535
-2.26534
-2.26533
-2.26532
-2.26532
-2.26531
-2.26531
-2.26531
-2.36379
-2.3638
-2.3638
-2.36381
-2.36381
-2.36382
-2.36383
-2.36384
-2.36385
-2.36386
-2.36386
-2.36387
-2.36387
-2.36387
-2.36387
-2.36387
-2.36387
-2.36386
-2.36386
-2.36386
-2.36385
-2.36385
-2.36385
-2.36385
-2.36385
-2.36384
-2.36384
-2.36384
-2.36384
-2.36383
-2.36383
-2.36383
-2.36382
-2.36382
-2.36383
-2.36383
-2.36383
-2.36383
-2.36384
-2.36384
-2.36385
-2.36385
-2.36385
-2.36385
-2.36385
-2.36385
-2.36385
-2.36385
-2.36385
-2.36385
-2.36385
-2.36385
-2.36385
-2.36385
-2.36385
-2.36385
-2.36386
-2.36386
-2.36386
-2.36388
-2.36389
-2.36391
-2.36393
-2.36395
-2.36396
-2.36397
-2.36397
-2.36397
-2.36397
-2.36397
-2.36397
-2.36397
-2.36397
-2.36397
-2.36396
-2.36396
-2.36396
-2.36396
-2.36396
-2.36396
-2.36395
-2.36395
-2.36394
-2.36394
-2.36393
-2.36392
-2.36391
-2.3639
-2.36389
-2.36387
-2.36386
-2.36385
-2.36384
-2.36382
-2.36381
-2.36381
-2.3638
-2.36379
-2.36379
-2.36379
-2.46229
-2.4623
-2.4623
-2.46231
-2.46231
-2.46232
-2.46233
-2.46234
-2.46235
-2.46236
-2.46236
-2.46237
-2.46237
-2.46237
-2.46237
-2.46237
-2.46236
-2.46236
-2.46235
-2.46235
-2.46235
-2.46234
-2.46234
-2.46234
-2.46234
-2.46233
-2.46233
-2.46233
-2.46233
-2.46233
-2.46232
-2.46232
-2.46232
-2.46232
-2.46232
-2.46232
-2.46232
-2.46233
-2.46233
-2.46234
-2.46234
-2.46235
-2.46235
-2.46235
-2.46235
-2.46235
-2.46235
-2.46235
-2.46234
-2.46234
-2.46234
-2.46234
-2.46234
-2.46234
-2.46234
-2.46234
-2.46235
-2.46235
-2.46235
-2.46236
-2.46238
-2.4624
-2.46242
-2.46243
-2.46245
-2.46245
-2.46246
-2.46246
-2.46246
-2.46246
-2.46245
-2.46245
-2.46245
-2.46245
-2.46244
-2.46244
-2.46244
-2.46244
-2.46244
-2.46243
-2.46243
-2.46243
-2.46242
-2.46242
-2.46241
-2.4624
-2.46239
-2.46238
-2.46237
-2.46235
-2.46234
-2.46233
-2.46232
-2.4623
-2.46229
-2.46229
-2.46228
-2.46227
-2.46227
-2.46227
-2.56079
-2.5608
-2.5608
-2.56081
-2.56081
-2.56082
-2.56083
-2.56084
-2.56085
-2.56086
-2.56086
-2.56087
-2.56087
-2.56087
-2.56087
-2.56086
-2.56086
-2.56085
-2.56085
-2.56084
-2.56084
-2.56083
-2.56083
-2.56083
-2.56083
-2.56082
-2.56082
-2.56082
-2.56082
-2.56082
-2.56082
-2.56081
-2.56081
-2.56081
-2.56081
-2.56082
-2.56082
-2.56082
-2.56083
-2.56083
-2.56084
-2.56084
-2.56084
-2.56084
-2.56084
-2.56084
-2.56084
-2.56084
-2.56084
-2.56083
-2.56083
-2.56083
-2.56083
-2.56083
-2.56083
-2.56083
-2.56084
-2.56084
-2.56084
-2.56085
-2.56086
-2.56088
-2.5609
-2.56091
-2.56093
-2.56094
-2.56094
-2.56095
-2.56095
-2.56094
-2.56094
-2.56094
-2.56093
-2.56093
-2.56093
-2.56092
-2.56092
-2.56092
-2.56092
-2.56091
-2.56091
-2.56091
-2.5609
-2.5609
-2.56089
-2.56088
-2.56087
-2.56086
-2.56085
-2.56083
-2.56082
-2.56081
-2.5608
-2.56078
-2.56077
-2.56077
-2.56076
-2.56075
-2.56075
-2.56075
-2.65929
-2.6593
-2.6593
-2.65931
-2.65931
-2.65932
-2.65933
-2.65934
-2.65935
-2.65935
-2.65936
-2.65936
-2.65937
-2.65937
-2.65936
-2.65936
-2.65936
-2.65935
-2.65934
-2.65933
-2.65933
-2.65932
-2.65932
-2.65932
-2.65931
-2.65931
-2.65931
-2.65931
-2.65931
-2.65931
-2.65931
-2.6593
-2.6593
-2.6593
-2.65931
-2.65931
-2.65931
-2.65932
-2.65932
-2.65933
-2.65933
-2.65933
-2.65934
-2.65934
-2.65934
-2.65934
-2.65933
-2.65933
-2.65933
-2.65933
-2.65932
-2.65932
-2.65932
-2.65932
-2.65932
-2.65932
-2.65932
-2.65933
-2.65933
-2.65934
-2.65935
-2.65936
-2.65937
-2.65939
-2.6594
-2.65942
-2.65942
-2.65943
-2.65943
-2.65943
-2.65942
-2.65942
-2.65941
-2.65941
-2.65941
-2.6594
-2.6594
-2.6594
-2.65939
-2.65939
-2.65939
-2.65938
-2.65938
-2.65937
-2.65937
-2.65936
-2.65935
-2.65934
-2.65933
-2.65931
-2.6593
-2.65929
-2.65927
-2.65926
-2.65925
-2.65924
-2.65924
-2.65923
-2.65923
-2.65923
-2.75779
-2.75779
-2.7578
-2.7578
-2.75781
-2.75782
-2.75783
-2.75784
-2.75785
-2.75785
-2.75786
-2.75786
-2.75786
-2.75786
-2.75786
-2.75786
-2.75785
-2.75784
-2.75783
-2.75783
-2.75782
-2.75781
-2.75781
-2.7578
-2.7578
-2.7578
-2.7578
-2.7578
-2.7578
-2.7578
-2.7578
-2.7578
-2.7578
-2.7578
-2.7578
-2.7578
-2.75781
-2.75781
-2.75782
-2.75782
-2.75783
-2.75783
-2.75783
-2.75783
-2.75783
-2.75783
-2.75783
-2.75782
-2.75782
-2.75782
-2.75781
-2.75781
-2.75781
-2.75781
-2.75781
-2.75781
-2.75781
-2.75781
-2.75782
-2.75782
-2.75783
-2.75784
-2.75785
-2.75787
-2.75788
-2.75789
-2.7579
-2.7579
-2.75791
-2.75791
-2.7579
-2.7579
-2.75789
-2.75789
-2.75789
-2.75788
-2.75788
-2.75788
-2.75787
-2.75787
-2.75787
-2.75786
-2.75786
-2.75785
-2.75785
-2.75784
-2.75783
-2.75782
-2.75781
-2.75779
-2.75778
-2.75776
-2.75775
-2.75774
-2.75773
-2.75772
-2.75772
-2.75771
-2.75771
-2.7577
-2.85629
-2.85629
-2.85629
-2.8563
-2.85631
-2.85632
-2.85632
-2.85633
-2.85634
-2.85635
-2.85636
-2.85636
-2.85636
-2.85636
-2.85636
-2.85635
-2.85634
-2.85633
-2.85633
-2.85632
-2.85631
-2.8563
-2.8563
-2.85629
-2.85629
-2.85629
-2.85629
-2.85629
-2.85629
-2.85629
-2.85629
-2.85629
-2.85629
-2.85629
-2.85629
-2.8563
-2.8563
-2.85631
-2.85631
-2.85632
-2.85632
-2.85632
-2.85633
-2.85633
-2.85632
-2.85632
-2.85632
-2.85632
-2.85631
-2.85631
-2.85631
-2.8563
-2.8563
-2.8563
-2.8563
-2.8563
-2.8563
-2.8563
-2.8563
-2.85631
-2.85631
-2.85632
-2.85633
-2.85634
-2.85635
-2.85636
-2.85637
-2.85638
-2.85638
-2.85638
-2.85638
-2.85638
-2.85637
-2.85637
-2.85637
-2.85636
-2.85636
-2.85636
-2.85635
-2.85635
-2.85635
-2.85634
-2.85634
-2.85633
-2.85633
-2.85632
-2.85631
-2.8563
-2.85628
-2.85627
-2.85626
-2.85624
-2.85623
-2.85622
-2.85621
-2.8562
-2.8562
-2.85619
-2.85619
-2.85618
-2.95478
-2.95479
-2.95479
-2.95479
-2.9548
-2.95481
-2.95482
-2.95483
-2.95484
-2.95484
-2.95485
-2.95485
-2.95486
-2.95485
-2.95485
-2.95484
-2.95483
-2.95482
-2.95482
-2.95481
-2.9548
-2.95479
-2.95478
-2.95478
-2.95477
-2.95477
-2.95477
-2.95477
-2.95477
-2.95477
-2.95478
-2.95478
-2.95478
-2.95478
-2.95479
-2.95479
-2.9548
-2.9548
-2.95481
-2.95481
-2.95482
-2.95482
-2.95482
-2.95482
-2.95482
-2.95481
-2.95481
-2.95481
-2.9548
-2.9548
-2.95479
-2.95479
-2.95479
-2.95479
-2.95479
-2.95479
-2.95479
-2.95479
-2.95479
-2.95479
-2.95479
-2.9548
-2.95481
-2.95482
-2.95483
-2.95484
-2.95484
-2.95485
-2.95485
-2.95486
-2.95486
-2.95485
-2.95485
-2.95485
-2.95484
-2.95484
-2.95484
-2.95483
-2.95483
-2.95483
-2.95482
-2.95482
-2.95482
-2.95481
-2.95481
-2.9548
-2.95479
-2.95478
-2.95476
-2.95475
-2.95474
-2.95472
-2.95471
-2.9547
-2.95469
-2.95468
-2.95468
-2.95467
-2.95467
-2.95467
-3.05328
-3.05328
-3.05328
-3.05329
-3.05329
-3.0533
-3.05331
-3.05332
-3.05333
-3.05334
-3.05334
-3.05335
-3.05335
-3.05335
-3.05334
-3.05333