/*--------------------------------*- C++ -*----------------------------------*\
| =========                 |                                                 |
| \\      /  F ield         | OpenFOAM: The Open Source CFD Toolbox           |
|  \\    /   O peration     | Version:  4.1                                   |
|   \\  /    A nd           | Web:      www.OpenFOAM.org                      |
|    \\/     M anipulation  |                                                 |
\*---------------------------------------------------------------------------*/
FoamFile
{
    version     2.0;
    format      ascii;
    class       volScalarField;
    location    "540";
    object      p_rgh;
}
// * * * * * * * * * * * * * * * * * * * * * * * * * * * * * * * * * * * * * //

dimensions      [0 2 -2 0 0 0 0];

internalField   nonuniform List<scalar> 
5000
(
0.0492221
0.049233
0.0492442
0.0492417
0.049235
0.0492289
0.049223
0.0492173
0.0492121
0.0492076
0.0492037
0.0492004
0.0491977
0.0491954
0.0491935
0.0491918
0.0491901
0.0491885
0.0491867
0.0491846
0.0491822
0.0491795
0.0491762
0.0491725
0.0491683
0.0491637
0.0491588
0.0491536
0.0491484
0.0491431
0.0491379
0.049133
0.0491282
0.0491237
0.0491195
0.0491154
0.0491115
0.0491077
0.0491042
0.0491011
0.0490987
0.0490971
0.0490964
0.0490965
0.0490972
0.0490984
0.0490998
0.0491013
0.049103
0.0491048
0.0491073
0.0491112
0.049118
0.049128
0.0491302
0.0491268
0.049124
0.0491234
0.0491237
0.0491241
0.0491241
0.0491237
0.0491228
0.0491215
0.0491199
0.049118
0.049116
0.049114
0.0491123
0.049111
0.0491104
0.0491105
0.0491118
0.0491144
0.0491184
0.0491241
0.0491314
0.0491404
0.0491511
0.0491635
0.0491773
0.0491924
0.0492082
0.0492246
0.0492411
0.0492572
0.0492725
0.0492865
0.0492988
0.049309
0.0493166
0.0493211
0.0493222
0.0493211
0.0493176
0.0493104
0.0493011
0.0492926
0.0492878
0.049289
0.0492186
0.0492659
0.049271
0.0492709
0.0492689
0.0492655
0.0492611
0.0492564
0.0492519
0.0492477
0.0492439
0.0492406
0.0492378
0.0492355
0.0492335
0.0492317
0.0492301
0.0492285
0.0492267
0.0492247
0.0492223
0.0492196
0.0492164
0.0492128
0.0492087
0.0492043
0.0491996
0.0491947
0.0491898
0.0491849
0.0491802
0.0491758
0.0491717
0.0491679
0.0491644
0.0491612
0.0491583
0.0491559
0.0491541
0.0491527
0.0491516
0.0491508
0.0491505
0.0491506
0.049151
0.0491516
0.0491523
0.0491527
0.0491527
0.0491519
0.0491501
0.0491469
0.0491413
0.0491323
0.049119
0.0491368
0.0491569
0.04917
0.0491751
0.0491758
0.0491749
0.0491733
0.0491712
0.0491688
0.0491661
0.0491632
0.0491601
0.0491571
0.0491542
0.0491516
0.0491496
0.0491484
0.0491481
0.049149
0.0491512
0.0491548
0.0491603
0.0491677
0.049177
0.0491881
0.0492007
0.0492147
0.0492296
0.0492451
0.0492608
0.0492762
0.0492908
0.0493042
0.0493159
0.0493255
0.0493326
0.0493366
0.0493372
0.0493351
0.049331
0.049325
0.0493186
0.0493148
0.0493038
0.0492847
0.0491998
0.0492647
0.0492698
0.0492683
0.0492657
0.0492619
0.0492573
0.0492525
0.0492479
0.0492436
0.0492398
0.0492365
0.0492337
0.0492315
0.0492296
0.0492279
0.0492264
0.0492248
0.0492231
0.0492211
0.0492187
0.0492159
0.0492126
0.0492088
0.0492046
0.0492
0.049195
0.04919
0.0491849
0.0491799
0.0491752
0.0491707
0.0491666
0.0491628
0.0491593
0.0491562
0.0491533
0.0491508
0.0491488
0.0491479
0.0491483
0.0491502
0.0491534
0.0491576
0.0491624
0.0491673
0.0491718
0.0491754
0.0491776
0.0491778
0.0491748
0.0491668
0.0491501
0.0491194
0.0490786
0.0491116
0.0491572
0.0491844
0.0491945
0.0491963
0.0491949
0.0491922
0.0491886
0.0491844
0.0491797
0.0491747
0.0491695
0.0491643
0.0491594
0.0491549
0.0491512
0.0491484
0.0491468
0.0491467
0.0491481
0.0491514
0.0491566
0.0491637
0.0491727
0.0491835
0.049196
0.0492098
0.0492247
0.0492401
0.0492558
0.0492711
0.0492858
0.0492992
0.0493109
0.0493204
0.0493274
0.0493314
0.0493322
0.04933
0.0493258
0.0493199
0.0493136
0.04931
0.0493018
0.0492661
0.0491811
0.0492634
0.0492681
0.0492646
0.0492609
0.0492562
0.0492511
0.0492459
0.049241
0.0492365
0.0492326
0.0492294
0.0492268
0.0492247
0.049223
0.0492215
0.0492202
0.0492187
0.0492171
0.0492151
0.0492127
0.0492099
0.0492066
0.0492027
0.0491984
0.0491937
0.0491887
0.0491835
0.0491783
0.0491732
0.0491685
0.049164
0.0491599
0.0491562
0.0491529
0.0491499
0.0491471
0.0491445
0.0491424
0.0491409
0.0491408
0.0491428
0.049147
0.049153
0.0491603
0.0491682
0.049176
0.0491828
0.0491877
0.0491896
0.0491866
0.0491756
0.0491508
0.0491026
0.0490337
0.0490628
0.0491355
0.0491823
0.0492001
0.0492039
0.0492025
0.049199
0.0491943
0.0491888
0.0491828
0.0491764
0.04917
0.0491637
0.0491577
0.0491523
0.0491477
0.0491442
0.0491419
0.0491412
0.0491421
0.0491448
0.0491495
0.0491563
0.049165
0.0491756
0.0491878
0.0492016
0.0492164
0.0492318
0.0492475
0.049263
0.0492778
0.0492914
0.0493033
0.0493131
0.0493203
0.0493246
0.0493257
0.0493238
0.0493195
0.0493135
0.0493068
0.0493028
0.0492949
0.0492444
0.0491642
0.0492628
0.0492664
0.0492608
0.0492554
0.0492495
0.0492435
0.0492378
0.0492325
0.0492278
0.0492239
0.0492208
0.0492183
0.0492164
0.049215
0.0492137
0.0492125
0.0492113
0.0492098
0.0492081
0.0492061
0.0492036
0.0492007
0.0491973
0.0491932
0.0491887
0.0491837
0.0491785
0.0491733
0.0491682
0.0491633
0.0491589
0.0491549
0.0491514
0.0491483
0.0491456
0.0491431
0.0491408
0.0491387
0.0491369
0.0491359
0.0491369
0.0491406
0.0491467
0.0491547
0.0491641
0.0491739
0.0491829
0.04919
0.0491935
0.0491912
0.0491791
0.0491502
0.0490921
0.0490025
0.0490061
0.0490983
0.0491696
0.0491987
0.0492057
0.0492048
0.0492008
0.0491954
0.0491891
0.0491822
0.049175
0.0491677
0.0491605
0.0491537
0.0491475
0.0491422
0.0491379
0.0491349
0.0491333
0.0491335
0.0491356
0.0491396
0.0491458
0.0491541
0.0491644
0.0491765
0.0491901
0.0492049
0.0492205
0.0492365
0.0492522
0.0492674
0.0492813
0.0492937
0.049304
0.0493117
0.0493165
0.0493183
0.0493169
0.0493128
0.0493068
0.0492995
0.0492946
0.0492868
0.0492236
0.0491489
0.0492636
0.0492652
0.049257
0.0492496
0.0492423
0.0492353
0.0492289
0.0492232
0.0492182
0.0492142
0.0492111
0.0492087
0.049207
0.0492057
0.0492048
0.0492041
0.0492036
0.0492032
0.0492025
0.0492017
0.0492003
0.0491983
0.0491955
0.0491919
0.0491875
0.0491824
0.0491769
0.0491713
0.0491658
0.0491607
0.049156
0.049152
0.0491485
0.0491455
0.0491431
0.049141
0.0491392
0.0491375
0.0491358
0.0491345
0.0491343
0.0491366
0.0491418
0.0491495
0.0491591
0.0491696
0.0491798
0.0491883
0.0491933
0.0491922
0.0491806
0.0491511
0.04909
0.048989
0.0489598
0.0490463
0.0491485
0.0491927
0.0492043
0.0492043
0.0492002
0.0491943
0.0491874
0.0491797
0.0491718
0.0491637
0.0491557
0.049148
0.0491409
0.0491345
0.0491293
0.0491253
0.0491228
0.0491221
0.0491233
0.0491266
0.0491322
0.0491399
0.0491499
0.0491617
0.0491753
0.0491902
0.049206
0.0492223
0.0492386
0.0492543
0.049269
0.0492821
0.0492932
0.0493018
0.0493076
0.0493103
0.0493097
0.0493062
0.0493005
0.0492925
0.0492862
0.0492786
0.0492036
0.0491349
0.049266
0.0492642
0.0492531
0.0492438
0.0492351
0.0492271
0.0492199
0.0492135
0.049208
0.0492037
0.0492004
0.0491982
0.049197
0.0491968
0.0491974
0.0491986
0.0492001
0.0492016
0.0492026
0.0492028
0.0492022
0.0492007
0.0491981
0.0491945
0.0491897
0.0491841
0.0491779
0.0491716
0.0491653
0.0491594
0.0491541
0.0491495
0.0491458
0.0491428
0.0491405
0.0491388
0.0491376
0.0491367
0.0491359
0.0491349
0.0491342
0.0491352
0.049139
0.0491457
0.0491547
0.0491651
0.0491757
0.049185
0.0491911
0.0491914
0.0491815
0.0491538
0.049095
0.0489916
0.0489337
0.0489865
0.049118
0.0491831
0.049201
0.0492023
0.0491982
0.0491918
0.0491843
0.049176
0.0491672
0.0491583
0.0491493
0.0491406
0.0491324
0.0491249
0.0491184
0.0491133
0.0491097
0.0491079
0.0491081
0.0491105
0.0491152
0.0491224
0.0491319
0.0491436
0.0491571
0.0491722
0.0491883
0.0492052
0.0492221
0.0492387
0.0492543
0.0492686
0.0492809
0.0492908
0.049298
0.049302
0.0493026
0.0493001
0.0492948
0.0492863
0.0492776
0.0492714
0.0491847
0.0491222
0.0492693
0.0492632
0.0492493
0.0492382
0.0492283
0.0492192
0.049211
0.0492038
0.0491979
0.0491937
0.0491911
0.0491903
0.0491911
0.0491932
0.0491962
0.0491995
0.0492027
0.0492054
0.0492073
0.049208
0.0492076
0.0492059
0.0492031
0.0491991
0.049194
0.0491878
0.0491809
0.0491735
0.0491661
0.0491591
0.0491527
0.0491471
0.0491427
0.0491392
0.0491369
0.0491355
0.0491349
0.049135
0.0491355
0.0491357
0.0491355
0.0491357
0.0491383
0.0491436
0.0491516
0.0491613
0.0491716
0.0491812
0.0491882
0.0491899
0.0491822
0.0491581
0.0491047
0.0490065
0.0489281
0.0489361
0.04907
0.0491703
0.0491962
0.0491991
0.049195
0.0491883
0.0491801
0.0491711
0.0491615
0.0491515
0.0491415
0.0491316
0.0491221
0.0491133
0.0491055
0.049099
0.0490941
0.049091
0.04909
0.0490913
0.0490952
0.0491016
0.0491107
0.0491221
0.0491356
0.0491509
0.0491675
0.049185
0.0492028
0.0492205
0.0492374
0.0492531
0.0492671
0.0492788
0.0492877
0.0492935
0.0492958
0.0492947
0.0492903
0.0492817
0.0492682
0.049266
0.0491677
0.0491109
0.049273
0.0492621
0.0492462
0.0492336
0.0492224
0.0492122
0.0492031
0.0491956
0.0491901
0.0491871
0.0491864
0.0491879
0.0491912
0.0491956
0.0492005
0.0492052
0.0492093
0.0492123
0.0492142
0.0492147
0.0492139
0.0492118
0.0492085
0.0492041
0.0491987
0.0491923
0.0491849
0.0491769
0.0491686
0.0491604
0.0491526
0.0491457
0.0491399
0.0491355
0.0491324
0.0491308
0.0491305
0.0491315
0.0491335
0.0491359
0.0491373
0.0491378
0.0491393
0.0491433
0.04915
0.0491586
0.0491683
0.0491776
0.049185
0.049188
0.0491828
0.049163
0.049117
0.0490292
0.0489399
0.0489026
0.0490103
0.0491526
0.04919
0.0491951
0.049191
0.0491838
0.0491751
0.0491653
0.0491547
0.0491437
0.0491324
0.0491212
0.0491103
0.0491
0.0490906
0.0490826
0.0490762
0.0490717
0.0490694
0.0490695
0.0490724
0.049078
0.0490865
0.0490977
0.0491112
0.0491267
0.0491438
0.049162
0.0491809
0.0491998
0.0492183
0.0492358
0.0492518
0.0492656
0.0492768
0.0492848
0.0492893
0.04929
0.0492867
0.0492791
0.0492691
0.0492614
0.0491522
0.049101
0.0492765
0.0492614
0.0492439
0.0492301
0.0492178
0.0492068
0.0491974
0.0491906
0.0491867
0.0491859
0.0491876
0.0491914
0.0491968
0.0492028
0.0492085
0.0492134
0.0492171
0.0492194
0.0492203
0.04922
0.0492185
0.0492158
0.0492122
0.0492077
0.0492022
0.0491958
0.0491886
0.0491806
0.049172
0.0491631
0.0491543
0.049146
0.0491386
0.0491326
0.0491281
0.0491254
0.0491247
0.0491259
0.0491291
0.0491337
0.0491378
0.0491398
0.0491412
0.0491442
0.0491496
0.049157
0.0491657
0.0491746
0.049182
0.049186
0.0491832
0.0491678
0.04913
0.0490554
0.0489646
0.0488866
0.0489532
0.0491191
0.0491822
0.0491903
0.0491864
0.0491787
0.0491693
0.0491587
0.0491472
0.049135
0.0491224
0.0491097
0.0490972
0.0490853
0.0490743
0.0490645
0.0490565
0.0490505
0.0490468
0.0490456
0.0490473
0.0490522
0.0490601
0.0490709
0.0490843
0.0491
0.0491176
0.0491366
0.0491566
0.0491769
0.0491971
0.0492166
0.0492349
0.0492513
0.0492652
0.0492759
0.0492829
0.0492856
0.0492836
0.0492773
0.0492692
0.049256
0.0491366
0.0490923
0.0492797
0.0492611
0.0492425
0.0492279
0.049215
0.049204
0.0491957
0.0491908
0.0491893
0.0491907
0.0491944
0.0492
0.0492064
0.0492123
0.0492171
0.0492205
0.0492226
0.0492233
0.049223
0.0492216
0.0492194
0.0492165
0.0492128
0.0492083
0.0492032
0.0491973
0.0491906
0.0491831
0.0491749
0.0491662
0.0491572
0.0491482
0.0491397
0.0491319
0.0491255
0.0491208
0.0491184
0.0491187
0.049122
0.0491281
0.049135
0.0491395
0.0491419
0.0491448
0.0491494
0.0491558
0.0491636
0.0491718
0.0491792
0.0491839
0.0491831
0.049172
0.0491423
0.0490816
0.0489968
0.0488878
0.0489067
0.0490687
0.0491729
0.0491846
0.0491811
0.0491731
0.0491631
0.0491516
0.0491391
0.0491258
0.0491118
0.0490976
0.0490835
0.0490698
0.049057
0.0490454
0.0490356
0.0490279
0.0490227
0.0490203
0.0490209
0.0490248
0.0490321
0.0490425
0.0490558
0.0490717
0.0490897
0.0491094
0.0491304
0.0491521
0.0491741
0.0491958
0.0492166
0.0492359
0.0492528
0.0492666
0.0492764
0.0492813
0.0492806
0.0492744
0.0492649
0.0492496
0.0491205
0.0490844
0.0492827
0.0492612
0.0492421
0.0492272
0.0492148
0.0492053
0.0491994
0.0491968
0.0491972
0.0492002
0.0492051
0.0492107
0.0492159
0.0492197
0.0492222
0.0492233
0.0492233
0.0492224
0.0492209
0.0492189
0.0492165
0.0492135
0.0492101
0.0492061
0.0492016
0.0491964
0.0491905
0.0491838
0.0491764
0.0491684
0.04916
0.0491514
0.0491427
0.0491342
0.0491262
0.0491191
0.0491138
0.0491114
0.049113
0.0491191
0.0491271
0.0491344
0.0491394
0.0491433
0.0491479
0.0491539
0.0491611
0.0491689
0.0491762
0.0491815
0.0491825
0.0491752
0.0491529
0.0491054
0.0490314
0.0489041
0.0488713
0.0490103
0.0491568
0.049178
0.0491754
0.0491671
0.0491565
0.0491444
0.0491309
0.0491164
0.0491012
0.0490854
0.0490696
0.0490542
0.0490395
0.0490261
0.0490144
0.049005
0.0489982
0.0489944
0.0489938
0.0489968
0.0490035
0.0490135
0.0490267
0.0490427
0.049061
0.0490813
0.0491031
0.049126
0.0491497
0.0491735
0.049197
0.0492193
0.0492396
0.0492569
0.04927
0.0492777
0.0492786
0.049272
0.0492591
0.0492452
0.0491056
0.0490769
0.049285
0.0492614
0.0492425
0.0492286
0.0492183
0.0492114
0.0492074
0.0492063
0.0492078
0.0492111
0.0492152
0.0492189
0.0492211
0.049222
0.0492216
0.0492204
0.0492187
0.0492167
0.0492146
0.0492123
0.04921
0.0492075
0.0492047
0.0492015
0.0491977
0.0491934
0.0491884
0.0491825
0.0491759
0.0491687
0.0491613
0.0491539
0.0491464
0.0491386
0.0491304
0.049122
0.049114
0.0491076
0.0491042
0.049105
0.0491113
0.0491222
0.0491318
0.049138
0.0491435
0.0491498
0.0491572
0.0491651
0.0491726
0.0491785
0.0491811
0.0491772
0.0491614
0.0491257
0.0490644
0.0489322
0.0488477
0.0489554
0.0491209
0.0491708
0.0491693
0.049161
0.04915
0.0491372
0.049123
0.0491074
0.0490909
0.0490737
0.0490563
0.0490391
0.0490225
0.0490072
0.0489937
0.0489825
0.0489741
0.0489689
0.0489672
0.0489693
0.0489754
0.0489851
0.0489981
0.049014
0.0490324
0.049053
0.0490755
0.0490994
0.0491245
0.0491503
0.0491763
0.0492017
0.0492256
0.0492468
0.0492639
0.049275
0.0492785
0.0492723
0.0492571
0.0492454
0.049093
0.0490691
0.0492862
0.0492616
0.0492443
0.049233
0.0492249
0.0492194
0.0492166
0.0492162
0.0492175
0.0492195
0.0492212
0.0492216
0.0492205
0.0492183
0.0492156
0.0492126
0.0492097
0.049207
0.0492046
0.0492025
0.0492006
0.0491988
0.0491969
0.0491947
0.049192
0.0491886
0.0491845
0.0491795
0.0491736
0.0491669
0.0491603
0.0491541
0.0491482
0.0491423
0.0491358
0.0491284
0.0491198
0.0491111
0.0491034
0.0490982
0.0490977
0.0491043
0.0491165
0.0491272
0.0491346
0.049142
0.0491505
0.0491594
0.0491678
0.0491746
0.0491787
0.0491777
0.0491674
0.0491417
0.0490933
0.0489677
0.0488355
0.0489051
0.0490703
0.049162
0.0491629
0.0491549
0.0491437
0.0491305
0.0491156
0.0490992
0.0490816
0.0490631
0.0490442
0.0490253
0.0490069
0.0489897
0.0489743
0.0489613
0.0489513
0.0489448
0.048942
0.0489434
0.0489489
0.0489584
0.0489712
0.0489869
0.0490053
0.0490259
0.0490486
0.0490731
0.0490992
0.0491266
0.0491548
0.0491833
0.0492109
0.0492363
0.0492578
0.0492734
0.0492807
0.0492769
0.0492621
0.0492485
0.0490831
0.0490615
0.0492857
0.0492624
0.0492482
0.0492387
0.0492317
0.0492271
0.0492247
0.0492238
0.0492236
0.0492231
0.0492214
0.0492184
0.0492142
0.0492096
0.049205
0.0492008
0.0491972
0.0491942
0.0491919
0.0491901
0.0491889
0.0491879
0.049187
0.049186
0.0491846
0.0491824
0.0491793
0.0491752
0.0491699
0.0491636
0.049157
0.0491513
0.0491465
0.0491424
0.0491384
0.0491337
0.0491274
0.0491191
0.0491098
0.0491007
0.0490945
0.0490942
0.0491011
0.0491117
0.049121
0.0491296
0.0491394
0.0491502
0.0491605
0.049169
0.0491748
0.0491764
0.0491709
0.0491534
0.0491168
0.0490058
0.0488338
0.048862
0.0490147
0.0491395
0.0491566
0.0491491
0.0491379
0.0491245
0.0491092
0.0490922
0.0490738
0.0490542
0.049034
0.0490137
0.0489937
0.0489746
0.0489573
0.0489425
0.0489308
0.048923
0.0489193
0.04892
0.0489253
0.0489345
0.0489471
0.0489626
0.0489806
0.049001
0.0490235
0.0490481
0.0490747
0.0491031
0.0491331
0.0491642
0.0491953
0.0492251
0.0492516
0.0492723
0.0492846
0.0492851
0.049272
0.049252
0.0490746
0.0490532
0.0492865
0.0492647
0.0492518
0.0492434
0.0492373
0.049233
0.0492301
0.0492277
0.0492251
0.0492213
0.0492163
0.0492102
0.0492035
0.049197
0.0491911
0.0491861
0.049182
0.049179
0.0491768
0.0491755
0.0491749
0.0491749
0.0491752
0.0491756
0.0491756
0.049175
0.0491733
0.0491701
0.0491655
0.0491596
0.0491526
0.0491461
0.049141
0.0491375
0.0491353
0.0491336
0.0491312
0.0491261
0.0491182
0.0491083
0.0490984
0.0490918
0.0490913
0.0490968
0.0491047
0.0491132
0.0491234
0.0491358
0.049149
0.0491603
0.0491685
0.049173
0.0491716
0.049161
0.0491346
0.0490425
0.0488414
0.0488274
0.0489585
0.0490998
0.04915
0.0491436
0.0491326
0.0491193
0.0491039
0.0490867
0.0490678
0.0490477
0.0490266
0.0490051
0.0489837
0.0489632
0.0489441
0.0489274
0.0489139
0.0489046
0.0489001
0.0489003
0.0489054
0.0489146
0.048927
0.0489421
0.0489596
0.0489794
0.0490013
0.0490254
0.0490518
0.0490806
0.0491118
0.0491449
0.0491791
0.049213
0.0492445
0.0492708
0.0492888
0.0492945
0.0492837
0.049253
0.0490665
0.049044
0.0492862
0.0492654
0.0492539
0.0492465
0.0492409
0.0492363
0.0492321
0.0492275
0.0492218
0.0492148
0.0492067
0.049198
0.0491894
0.0491816
0.0491748
0.0491693
0.0491651
0.049162
0.04916
0.049159
0.049159
0.0491599
0.0491614
0.0491633
0.0491652
0.0491664
0.0491664
0.0491648
0.0491611
0.0491555
0.0491484
0.0491404
0.0491335
0.0491288
0.0491267
0.0491265
0.0491274
0.0491268
0.049123
0.0491157
0.0491055
0.0490953
0.0490884
0.049087
0.0490901
0.0490959
0.0491044
0.0491165
0.0491315
0.0491464
0.0491583
0.0491663
0.0491691
0.0491644
0.0491469
0.0490747
0.0488569
0.0488025
0.0489055
0.0490504
0.0491338
0.0491386
0.0491281
0.0491151
0.0491
0.0490829
0.0490641
0.0490438
0.0490224
0.0490003
0.0489781
0.0489564
0.0489359
0.0489174
0.048902
0.048891
0.0488854
0.0488853
0.0488905
0.0488997
0.0489118
0.0489263
0.048943
0.0489618
0.0489827
0.0490059
0.0490316
0.04906
0.0490915
0.0491258
0.0491624
0.0492
0.0492362
0.049268
0.0492918
0.049303
0.0492952
0.0492569
0.0490573
0.0490339
0.0492838
0.0492642
0.049254
0.0492476
0.049242
0.0492365
0.0492305
0.0492232
0.0492145
0.0492045
0.0491937
0.0491831
0.0491732
0.0491644
0.0491573
0.0491516
0.0491473
0.0491442
0.0491422
0.0491414
0.0491418
0.0491433
0.0491459
0.0491493
0.049153
0.0491564
0.0491587
0.0491591
0.049157
0.0491522
0.049145
0.0491363
0.0491268
0.0491193
0.0491151
0.0491142
0.0491162
0.0491197
0.0491208
0.0491182
0.0491112
0.0491011
0.0490909
0.0490836
0.0490805
0.0490814
0.0490861
0.0490952
0.0491093
0.0491263
0.0491423
0.0491548
0.0491624
0.0491634
0.0491538
0.0491007
0.0488795
0.0487883
0.0488585
0.0489959
0.0491028
0.0491325
0.0491244
0.0491119
0.0490974
0.0490809
0.0490627
0.0490428
0.0490216
0.0489997
0.0489773
0.0489553
0.048934
0.0489143
0.048897
0.0488835
0.0488763
0.0488764
0.0488819
0.0488909
0.0489024
0.0489159
0.0489314
0.0489489
0.0489684
0.0489902
0.0490146
0.049042
0.049073
0.0491077
0.0491458
0.0491862
0.0492267
0.0492637
0.0492932
0.0493096
0.0493049
0.0492636
0.0490463
0.0490232
0.0492796
0.0492613
0.0492523
0.0492464
0.0492405
0.0492337
0.0492254
0.0492154
0.0492037
0.0491912
0.0491784
0.0491664
0.0491557
0.0491468
0.0491397
0.0491341
0.0491299
0.0491267
0.0491246
0.0491236
0.0491239
0.0491257
0.049129
0.0491336
0.0491391
0.0491449
0.0491498
0.049153
0.0491532
0.0491499
0.0491433
0.0491344
0.0491232
0.0491119
0.0491038
0.0490999
0.0491005
0.049105
0.0491104
0.0491131
0.0491115
0.049105
0.0490952
0.049085
0.049077
0.0490724
0.0490718
0.0490761
0.0490864
0.0491019
0.04912
0.0491369
0.0491501
0.0491572
0.0491553
0.0491195
0.048908
0.0487853
0.04882
0.048941
0.04906
0.0491178
0.049121
0.0491095
0.0490959
0.0490805
0.0490634
0.0490446
0.0490244
0.0490033
0.0489817
0.0489601
0.0489392
0.0489195
0.0489016
0.0488853
0.0488751
0.0488762
0.0488813
0.0488892
0.0488994
0.0489114
0.0489252
0.0489408
0.0489585
0.0489785
0.0490013
0.0490272
0.049057
0.0490911
0.0491297
0.049172
0.0492161
0.0492579
0.0492929
0.0493144
0.0493127
0.0492679
0.0490342
0.0490118
0.049274
0.0492568
0.0492489
0.0492432
0.0492365
0.049228
0.0492173
0.0492046
0.0491905
0.0491759
0.0491619
0.0491492
0.0491386
0.0491301
0.0491236
0.0491186
0.0491145
0.0491111
0.0491085
0.0491069
0.0491065
0.0491079
0.0491112
0.0491165
0.0491235
0.0491315
0.0491394
0.0491458
0.0491493
0.0491485
0.0491433
0.0491348
0.0491234
0.0491091
0.049096
0.0490871
0.0490836
0.0490857
0.0490934
0.0491005
0.0491044
0.0491035
0.0490975
0.0490881
0.0490779
0.0490691
0.0490635
0.0490622
0.0490669
0.049078
0.0490945
0.0491133
0.0491311
0.0491446
0.0491505
0.0491307
0.0489413
0.0487933
0.0487917
0.0488894
0.0490095
0.0490902
0.0491139
0.0491076
0.0490954
0.0490814
0.0490658
0.0490487
0.04903
0.0490102
0.0489899
0.0489696
0.0489499
0.0489315
0.0489149
0.0489008
0.0488913
0.0488885
0.0488906
0.0488958
0.0489034
0.048913
0.0489245
0.0489378
0.0489532
0.0489711
0.0489919
0.0490159
0.0490439
0.0490768
0.049115
0.0491582
0.049205
0.049251
0.0492914
0.0493181
0.0493197
0.0492695
0.0490213
0.049
0.0492672
0.049251
0.0492437
0.0492379
0.0492301
0.0492197
0.0492067
0.0491917
0.0491756
0.0491597
0.0491452
0.0491328
0.049123
0.049116
0.0491108
0.0491065
0.0491027
0.049099
0.0490955
0.0490926
0.0490909
0.049091
0.0490935
0.0490987
0.0491064
0.0491161
0.0491268
0.0491369
0.0491443
0.049147
0.0491442
0.0491372
0.0491262
0.0491115
0.0490936
0.0490789
0.0490694
0.0490664
0.0490715
0.0490809
0.0490897
0.0490947
0.0490945
0.049089
0.04908
0.0490698
0.0490607
0.0490546
0.0490534
0.0490586
0.0490704
0.0490875
0.049107
0.0491254
0.0491389
0.0491335
0.0489772
0.0488117
0.0487746
0.0488443
0.048956
0.0490503
0.049097
0.0491038
0.0490952
0.049083
0.0490693
0.0490541
0.0490375
0.0490198
0.0490015
0.0489832
0.0489655
0.0489491
0.0489347
0.0489233
0.048915
0.0489102
0.0489088
0.0489103
0.0489142
0.0489205
0.048929
0.0489395
0.0489524
0.0489679
0.0489864
0.0490082
0.0490342
0.0490653
0.0491024
0.0491454
0.0491939
0.0492436
0.0492893
0.0493218
0.0493272
0.04927
0.0490086
0.0489878
0.0492594
0.0492439
0.0492371
0.0492308
0.0492217
0.0492094
0.0491943
0.0491773
0.04916
0.0491436
0.0491295
0.0491184
0.0491107
0.0491058
0.0491023
0.0490992
0.0490956
0.0490914
0.0490868
0.0490822
0.0490784
0.0490764
0.0490771
0.049081
0.0490884
0.0490989
0.0491119
0.0491255
0.0491374
0.0491445
0.0491448
0.0491405
0.0491311
0.0491168
0.0490967
0.0490766
0.0490603
0.0490503
0.0490484
0.0490568
0.0490684
0.0490786
0.0490846
0.049085
0.04908
0.0490714
0.0490614
0.0490523
0.0490464
0.0490457
0.0490516
0.049064
0.0490818
0.0491019
0.0491208
0.0491277
0.0490118
0.0488384
0.0487686
0.0488076
0.0489037
0.0490018
0.0490671
0.0490928
0.0490933
0.0490846
0.0490732
0.0490604
0.0490463
0.0490312
0.0490155
0.0489997
0.0489844
0.0489702
0.0489579
0.0489481
0.0489404
0.0489347
0.048931
0.0489292
0.0489296
0.0489324
0.0489376
0.0489453
0.0489555
0.0489685
0.0489845
0.0490041
0.0490279
0.0490569
0.0490923
0.0491344
0.0491837
0.0492363
0.0492872
0.049326
0.0493364
0.0492726
0.0489988
0.0489753
0.0492508
0.0492359
0.0492292
0.0492223
0.0492117
0.0491975
0.0491806
0.0491623
0.0491444
0.0491285
0.0491158
0.0491071
0.0491024
0.0491003
0.0490988
0.0490967
0.0490933
0.0490885
0.0490825
0.049076
0.0490698
0.0490651
0.049063
0.0490645
0.0490703
0.0490806
0.0490947
0.0491113
0.0491278
0.04914
0.0491439
0.0491429
0.0491362
0.0491232
0.0491035
0.0490797
0.0490574
0.0490398
0.0490301
0.049032
0.0490425
0.049056
0.0490676
0.0490744
0.0490754
0.049071
0.0490629
0.0490534
0.0490447
0.0490395
0.0490395
0.0490462
0.0490595
0.0490779
0.0490988
0.0491141
0.0490399
0.0488704
0.048773
0.0487807
0.048856
0.0489496
0.0490257
0.0490696
0.0490851
0.0490841
0.0490767
0.0490669
0.0490557
0.0490435
0.0490307
0.0490176
0.0490049
0.048993
0.0489825
0.0489739
0.0489663
0.0489598
0.0489543
0.04895
0.0489474
0.048947
0.048949
0.0489538
0.0489613
0.0489719
0.0489857
0.0490033
0.0490251
0.049052
0.0490852
0.0491258
0.0491748
0.0492296
0.0492854
0.0493311
0.0493485
0.049283
0.0489928
0.0489627
0.0492418
0.0492271
0.0492204
0.0492126
0.0492005
0.0491847
0.0491663
0.0491473
0.0491296
0.0491151
0.049105
0.0490997
0.0490986
0.0490993
0.0490994
0.049098
0.0490947
0.0490892
0.0490819
0.0490736
0.049065
0.0490575
0.0490522
0.0490505
0.0490535
0.0490619
0.0490758
0.0490943
0.0491151
0.0491329
0.0491405
0.0491431
0.0491399
0.0491292
0.0491108
0.049086
0.0490595
0.0490353
0.0490175
0.0490097
0.0490155
0.049029
0.0490444
0.0490573
0.0490649
0.0490664
0.0490626
0.0490551
0.0490462
0.0490383
0.049034
0.0490351
0.0490429
0.0490571
0.0490766
0.0490957
0.0490571
0.0489037
0.048786
0.0487638
0.0488153
0.048898
0.0489771
0.0490341
0.0490659
0.0490776
0.0490776
0.0490722
0.0490646
0.0490557
0.0490459
0.0490357
0.0490256
0.0490158
0.0490068
0.0489989
0.0489913
0.048984
0.0489771
0.0489708
0.0489658
0.0489626
0.0489619
0.0489639
0.048969
0.0489773
0.0489891
0.0490047
0.0490247
0.0490499
0.0490814
0.0491206
0.0491683
0.0492238
0.0492837
0.0493366
0.0493628
0.0493013
0.0489896
0.04895
0.0492325
0.0492179
0.0492109
0.0492021
0.0491887
0.0491714
0.049152
0.0491329
0.0491163
0.0491041
0.0490974
0.0490961
0.0490986
0.0491013
0.0491024
0.0491014
0.0490978
0.0490917
0.0490833
0.0490735
0.049063
0.0490531
0.0490448
0.0490397
0.0490391
0.0490443
0.0490563
0.0490752
0.0490995
0.0491232
0.0491342
0.04914
0.0491404
0.0491328
0.0491166
0.0490926
0.0490641
0.0490352
0.0490105
0.0489941
0.0489913
0.0490009
0.0490172
0.0490344
0.0490483
0.0490566
0.0490586
0.0490553
0.0490484
0.0490403
0.0490335
0.0490303
0.0490327
0.0490418
0.0490574
0.0490765
0.0490627
0.048935
0.0488054
0.0487567
0.0487833
0.0488506
0.0489262
0.0489901
0.0490347
0.0490606
0.049072
0.0490741
0.0490714
0.0490664
0.04906
0.0490527
0.049045
0.0490371
0.0490296
0.0490221
0.0490142
0.0490062
0.0489982
0.0489904
0.0489835
0.0489782
0.0489751
0.0489749
0.0489777
0.048984
0.048994
0.049008
0.0490265
0.04905
0.04908
0.0491178
0.0491648
0.0492208
0.0492824
0.049342
0.0493784
0.0493251
0.0489883
0.0489375
0.0492234
0.0492086
0.0492012
0.0491914
0.0491766
0.0491581
0.0491382
0.0491196
0.0491048
0.0490958
0.0490932
0.049096
0.049101
0.0491046
0.0491058
0.0491047
0.0491009
0.0490943
0.049085
0.049074
0.0490622
0.0490506
0.0490402
0.0490321
0.0490278
0.049029
0.0490375
0.0490548
0.0490813
0.0491114
0.0491253
0.0491335
0.0491371
0.0491327
0.0491192
0.0490971
0.0490684
0.0490368
0.049007
0.0489838
0.0489718
0.0489746
0.0489886
0.0490079
0.0490268
0.0490414
0.04905
0.0490524
0.0490495
0.0490432
0.049036
0.0490303
0.0490285
0.0490325
0.0490432
0.0490596
0.04906
0.0489618
0.0488292
0.0487585
0.0487606
0.0488099
0.0488773
0.0489423
0.048995
0.0490327
0.0490564
0.0490689
0.0490736
0.0490737
0.0490713
0.0490672
0.0490619
0.0490559
0.0490495
0.0490422
0.0490343
0.0490258
0.0490168
0.0490079
0.0489996
0.0489926
0.0489878
0.0489857
0.0489868
0.0489915
0.049
0.0490126
0.0490298
0.0490521
0.0490807
0.0491172
0.0491633
0.0492195
0.0492833
0.0493467
0.0493938
0.0493525
0.0489883
0.0489254
0.0492147
0.0491996
0.0491916
0.0491807
0.0491647
0.0491454
0.0491254
0.0491078
0.0490955
0.0490904
0.049092
0.049098
0.049104
0.0491071
0.0491079
0.0491067
0.0491029
0.0490958
0.0490858
0.0490739
0.0490611
0.0490485
0.0490368
0.049027
0.0490199
0.0490171
0.049021
0.0490347
0.0490617
0.049098
0.0491146
0.0491241
0.04913
0.0491283
0.0491175
0.0490976
0.0490698
0.0490374
0.0490047
0.0489766
0.0489573
0.0489524
0.0489614
0.04898
0.0490019
0.0490221
0.0490371
0.0490458
0.0490481
0.0490455
0.0490397
0.0490334
0.0490289
0.0490287
0.0490346
0.0490469
0.0490536
0.0489834
0.0488559
0.0487683
0.0487475
0.0487774
0.0488333
0.0488952
0.0489514
0.048997
0.0490311
0.0490543
0.0490683
0.0490755
0.0490781
0.0490777
0.0490752
0.0490711
0.0490656
0.0490588
0.0490509
0.0490421
0.0490326
0.0490228
0.0490135
0.0490053
0.0489992
0.0489957
0.0489955
0.0489989
0.0490064
0.049018
0.0490343
0.0490556
0.0490831
0.0491185
0.0491637
0.0492199
0.0492853
0.0493523
0.0494075
0.0493816
0.048989
0.0489137
0.0492068
0.0491912
0.0491824
0.0491706
0.0491536
0.0491337
0.0491139
0.0490979
0.0490887
0.0490875
0.0490929
0.0491006
0.0491058
0.0491075
0.0491078
0.0491069
0.0491033
0.0490959
0.0490853
0.0490725
0.0490589
0.0490457
0.0490335
0.0490231
0.0490144
0.0490087
0.049008
0.0490167
0.0490419
0.0490839
0.0491029
0.0491127
0.0491197
0.0491196
0.049111
0.0490931
0.0490669
0.0490348
0.0490009
0.04897
0.0489463
0.0489344
0.0489373
0.048953
0.0489758
0.049
0.0490208
0.0490357
0.0490439
0.049046
0.0490433
0.049038
0.0490325
0.0490294
0.0490311
0.0490392
0.0490472
0.049
0.0488842
0.0487852
0.0487438
0.048754
0.0487963
0.048852
0.0489081
0.0489581
0.0489995
0.0490316
0.0490548
0.0490699
0.0490788
0.049083
0.0490838
0.0490817
0.0490774
0.0490714
0.0490638
0.0490549
0.0490451
0.0490348
0.0490247
0.0490158
0.0490088
0.0490044
0.0490033
0.049006
0.0490128
0.0490239
0.0490395
0.0490602
0.0490869
0.0491213
0.0491658
0.0492218
0.0492882
0.0493584
0.0494195
0.0494106
0.0489898
0.0489029
0.0492002
0.0491837
0.0491742
0.0491614
0.0491436
0.0491233
0.0491042
0.0490901
0.0490841
0.0490867
0.0490948
0.0491026
0.0491055
0.0491053
0.0491055
0.0491053
0.0491021
0.0490946
0.0490833
0.0490696
0.0490554
0.0490419
0.0490299
0.0490192
0.04901
0.0490028
0.0489991
0.0490025
0.049024
0.04907
0.0490911
0.0491005
0.0491069
0.0491072
0.0490998
0.0490835
0.0490588
0.0490277
0.0489939
0.0489621
0.0489361
0.0489196
0.0489169
0.0489285
0.0489504
0.0489769
0.0490023
0.049023
0.0490371
0.0490444
0.0490458
0.0490428
0.0490378
0.0490333
0.0490319
0.049036
0.0490428
0.0490125
0.048913
0.0488082
0.0487489
0.0487399
0.0487674
0.0488146
0.0488682
0.0489199
0.0489658
0.0490044
0.0490351
0.0490579
0.0490734
0.0490828
0.0490871
0.0490876
0.0490852
0.0490802
0.0490731
0.0490643
0.0490542
0.0490435
0.0490331
0.0490236
0.0490161
0.0490113
0.0490098
0.0490122
0.0490188
0.0490297
0.0490452
0.0490655
0.0490917
0.0491254
0.0491692
0.0492249
0.0492921
0.0493647
0.0494302
0.0494374
0.0489906
0.0488929
0.0491951
0.0491777
0.0491673
0.0491537
0.0491353
0.0491148
0.0490965
0.0490844
0.0490815
0.0490873
0.0490969
0.0491037
0.0491031
0.0491008
0.0491015
0.0491024
0.0490998
0.0490919
0.0490797
0.0490654
0.049051
0.0490375
0.0490254
0.0490147
0.0490056
0.048998
0.0489928
0.048993
0.0490107
0.0490572
0.0490798
0.0490878
0.0490923
0.0490918
0.0490845
0.0490691
0.0490456
0.0490157
0.0489829
0.0489514
0.048925
0.0489064
0.0488998
0.0489073
0.0489272
0.0489546
0.0489835
0.049009
0.0490286
0.0490411
0.049047