/*--------------------------------*- C++ -*----------------------------------*\
| =========                 |                                                 |
| \\      /  F ield         | OpenFOAM: The Open Source CFD Toolbox           |
|  \\    /   O peration     | Version:  4.1                                   |
|   \\  /    A nd           | Web:      www.OpenFOAM.org                      |
|    \\/     M anipulation  |                                                 |
\*---------------------------------------------------------------------------*/
FoamFile
{
    version     2.0;
    format      ascii;
    class       volVectorField;
    location    "540";
    object      U;
}
// * * * * * * * * * * * * * * * * * * * * * * * * * * * * * * * * * * * * * //

dimensions      [0 1 -1 0 0 0 0];

internalField   nonuniform List<vector> 
5000
(
(-0.00388772 0.00204082 0)
(-0.00364613 -0.000586135 0)
(-0.00225106 -0.00142361 0)
(-0.000465719 -0.0010499 0)
(0.00104358 -0.000658181 0)
(0.00190437 -0.000463199 0)
(0.00263015 -0.000364476 0)
(0.00323528 -0.00029982 0)
(0.00374815 -0.000256036 0)
(0.00419343 -0.000226488 0)
(0.00459082 -0.000206932 0)
(0.00495522 -0.00019449 0)
(0.00529783 -0.0001872 0)
(0.00562768 -0.000183834 0)
(0.0059525 -0.000183657 0)
(0.00627912 -0.000186166 0)
(0.00661354 -0.000190902 0)
(0.00696074 -0.00019733 0)
(0.00732438 -0.000204802 0)
(0.00770649 -0.000212574 0)
(0.00810737 -0.000219821 0)
(0.00852549 -0.00022566 0)
(0.00895753 -0.00022924 0)
(0.00939858 -0.000229833 0)
(0.00984242 -0.000226906 0)
(0.010282 -0.000220258 0)
(0.0107103 -0.000210142 0)
(0.011121 -0.000197286 0)
(0.0115094 -0.000182772 0)
(0.011873 -0.00016783 0)
(0.0122116 -0.000153592 0)
(0.0125273 -0.000140838 0)
(0.012823 -0.000129723 0)
(0.0131019 -0.000119521 0)
(0.0133652 -0.00010842 0)
(0.0136103 -9.35286e-05 0)
(0.0138291 -7.13301e-05 0)
(0.0140062 -3.8995e-05 0)
(0.0141208 3.24323e-06 0)
(0.0141542 5.10054e-05 0)
(0.0140912 0.000101139 0)
(0.0139198 0.000151586 0)
(0.0136368 0.000200228 0)
(0.0132471 0.000244208 0)
(0.0127626 0.000281106 0)
(0.0121991 0.000310239 0)
(0.0115718 0.000333685 0)
(0.0108889 0.000357414 0)
(0.0101435 0.000393226 0)
(0.00930087 0.00046225 0)
(0.00827915 0.000601993 0)
(0.00691603 0.000884061 0)
(0.00492097 0.00147582 0)
(0.0026098 0.00275639 0)
(-0.00501069 0.00361944 0)
(-0.00937206 0.00188234 0)
(-0.0114265 0.000751417 0)
(-0.0123576 0.000266237 0)
(-0.0128064 0.000126312 0)
(-0.0131225 0.000116887 0)
(-0.0134351 0.000140071 0)
(-0.0137753 0.000165164 0)
(-0.0141434 0.000185486 0)
(-0.0145331 0.000200638 0)
(-0.014936 0.000210858 0)
(-0.0153433 0.000215873 0)
(-0.0157469 0.000215443 0)
(-0.0161384 0.000209662 0)
(-0.0165085 0.000198721 0)
(-0.0168474 0.000182648 0)
(-0.0171458 0.000161325 0)
(-0.0173943 0.000134635 0)
(-0.017584 0.000102537 0)
(-0.0177054 6.49236e-05 0)
(-0.0177487 2.11812e-05 0)
(-0.0177055 -2.99266e-05 0)
(-0.0175637 -8.65861e-05 0)
(-0.0173156 -0.00014729 0)
(-0.0169562 -0.000210936 0)
(-0.016482 -0.000276532 0)
(-0.015892 -0.000343139 0)
(-0.0151864 -0.000409888 0)
(-0.0143673 -0.000476018 0)
(-0.0134381 -0.000540912 0)
(-0.0124034 -0.000604135 0)
(-0.0112687 -0.000665466 0)
(-0.0100403 -0.000724919 0)
(-0.00872475 -0.000782739 0)
(-0.00732839 -0.000839495 0)
(-0.00585498 -0.00089676 0)
(-0.00430851 -0.000959046 0)
(-0.00271656 -0.00103511 0)
(-0.00117428 -0.00112734 0)
(0.000771073 -0.00122122 0)
(0.00246578 -0.00119549 0)
(0.00388322 -0.000977054 0)
(0.0049219 -0.000635677 0)
(0.00541773 -0.000278368 0)
(0.00494593 0.000425639 0)
(0.00393476 0.00230156 0)
(-0.00309407 0.0048058 0)
(-0.00212831 -0.000783605 0)
(-0.00144813 -0.00273587 0)
(-0.00022132 -0.0023313 0)
(0.00101826 -0.001734 0)
(0.00197818 -0.00133312 0)
(0.0027967 -0.00107099 0)
(0.00348551 -0.000888078 0)
(0.00407183 -0.000757636 0)
(0.00457973 -0.000663464 0)
(0.00502656 -0.000595346 0)
(0.00542549 -0.000547113 0)
(0.00578788 -0.000515102 0)
(0.00612453 -0.000497075 0)
(0.00644586 -0.000491436 0)
(0.00676157 -0.000496678 0)
(0.00708029 -0.000511089 0)
(0.00740921 -0.000532618 0)
(0.00775371 -0.000558901 0)
(0.00811725 -0.00058739 0)
(0.00850142 -0.000615418 0)
(0.00890589 -0.00064021 0)
(0.00932848 -0.00065918 0)
(0.00976532 -0.000670119 0)
(0.010211 -0.000671313 0)
(0.0106589 -0.000661927 0)
(0.0111019 -0.000642396 0)
(0.0115329 -0.000614486 0)
(0.0119464 -0.000581 0)
(0.0123388 -0.000545258 0)
(0.012709 -0.000510502 0)
(0.0130579 -0.000479268 0)
(0.0133885 -0.000452725 0)
(0.0137049 -0.00042998 0)
(0.0140112 -0.000407408 0)
(0.0143095 -0.000378248 0)
(0.0145978 -0.000332962 0)
(0.014867 -0.000261161 0)
(0.0150985 -0.000155337 0)
(0.0152602 -1.43525e-05 0)
(0.0153011 0.000150682 0)
(0.0152005 0.000326038 0)
(0.0149535 0.000499278 0)
(0.0145647 0.000659671 0)
(0.0140471 0.00079937 0)
(0.0134181 0.00091625 0)
(0.0126934 0.00101611 0)
(0.0118805 0.00111524 0)
(0.0109709 0.00124449 0)
(0.00993029 0.0014569 0)
(0.00868587 0.00184109 0)
(0.00711087 0.00254735 0)
(0.0049573 0.00385111 0)
(0.00280006 0.00618488 0)
(-0.00276506 0.00800413 0)
(-0.00757465 0.00528742 0)
(-0.0105277 0.00266936 0)
(-0.0122326 0.00122151 0)
(-0.0131876 0.000672919 0)
(-0.0138201 0.000538743 0)
(-0.0143362 0.000536107 0)
(-0.0148154 0.00056249 0)
(-0.0152817 0.000588406 0)
(-0.0157406 0.000606016 0)
(-0.0161907 0.000612987 0)
(-0.0166272 0.000608151 0)
(-0.017044 0.000590842 0)
(-0.017434 0.000560725 0)
(-0.0177896 0.000517518 0)
(-0.0181026 0.000460895 0)
(-0.0183648 0.000390584 0)
(-0.0185678 0.000306525 0)
(-0.0187031 0.00020891 0)
(-0.0187624 9.79748e-05 0)
(-0.0187375 -2.64717e-05 0)
(-0.0186203 -0.000164825 0)
(-0.018408 -0.00031533 0)
(-0.0180941 -0.000474784 0)
(-0.0176735 -0.00064038 0)
(-0.0171429 -0.000809422 0)
(-0.0165008 -0.000979306 0)
(-0.0157473 -0.00114758 0)
(-0.0148843 -0.00131205 0)
(-0.0139149 -0.00147084 0)
(-0.0128435 -0.00162248 0)
(-0.0116757 -0.00176593 0)
(-0.0104175 -0.00190055 0)
(-0.00907568 -0.002026 0)
(-0.0076569 -0.00214221 0)
(-0.00616695 -0.00225012 0)
(-0.00461303 -0.00235425 0)
(-0.0030174 -0.00246454 0)
(-0.00144255 -0.00258242 0)
(0.0002442 -0.00263173 0)
(0.00185507 -0.00242906 0)
(0.0030906 -0.00187335 0)
(0.00395022 -0.000941964 0)
(0.00418201 6.3692e-05 0)
(0.00345967 0.00185348 0)
(0.00300365 0.00525136 0)
(-0.00249481 0.00707948 0)
(-0.00113001 -0.00109295 0)
(-0.000887882 -0.00382041 0)
(0.000280584 -0.00340832 0)
(0.00112379 -0.00271188 0)
(0.00191775 -0.00216934 0)
(0.0026044 -0.00177813 0)
(0.00319499 -0.00149621 0)
(0.00370316 -0.00128825 0)
(0.00414156 -0.00113114 0)
(0.00452044 -0.00101115 0)
(0.0048488 -0.000920949 0)
(0.00513605 -0.000856916 0)
(0.00539258 -0.000816995 0)
(0.00562922 -0.000799402 0)
(0.00585655 -0.000801933 0)
(0.0060843 -0.0008217 0)
(0.00632091 -0.000855073 0)
(0.0065732 -0.000897914 0)
(0.0068463 -0.000945943 0)
(0.00714385 -0.000994789 0)
(0.00746776 -0.00103969 0)
(0.00781775 -0.00107632 0)
(0.00819132 -0.00110077 0)
(0.00858355 -0.00110957 0)
(0.00898693 -0.00110058 0)
(0.00939209 -0.00107388 0)
(0.00978934 -0.00103196 0)
(0.0101704 -0.000979276 0)
(0.0105295 -0.000921448 0)
(0.0108642 -0.000864281 0)
(0.0111753 -0.000812836 0)
(0.011467 -0.000770439 0)
(0.0117463 -0.000737597 0)
(0.0120221 -0.000710767 0)
(0.0123038 -0.000681094 0)
(0.0125984 -0.000633624 0)
(0.0129052 -0.00054797 0)
(0.0132102 -0.00040123 0)
(0.0134844 -0.000174151 0)
(0.0136764 0.000123604 0)
(0.0137176 0.000457328 0)
(0.0135906 0.0007923 0)
(0.0132957 0.00110394 0)
(0.0128427 0.00137744 0)
(0.0122502 0.00160902 0)
(0.0115378 0.00180911 0)
(0.0107193 0.00200509 0)
(0.00979654 0.00224616 0)
(0.00875349 0.00261259 0)
(0.00755135 0.00323118 0)
(0.00613003 0.00430038 0)
(0.00434039 0.00614022 0)
(0.00261496 0.00925234 0)
(-0.000662217 0.0122128 0)
(-0.0051508 0.0093364 0)
(-0.00831462 0.00531953 0)
(-0.0103009 0.00272699 0)
(-0.011517 0.00158514 0)
(-0.0123757 0.0012076 0)
(-0.0130685 0.00110989 0)
(-0.013685 0.00109539 0)
(-0.0142611 0.00109871 0)
(-0.01481 0.00109791 0)
(-0.015335 0.0010848 0)
(-0.015835 0.00105585 0)
(-0.0163069 0.00100916 0)
(-0.0167464 0.000943386 0)
(-0.0171479 0.000857331 0)
(-0.0175046 0.000750044 0)
(-0.0178092 0.00062097 0)
(-0.0180541 0.000470054 0)
(-0.0182314 0.000297703 0)
(-0.0183333 0.000104689 0)
(-0.0183518 -0.000107974 0)
(-0.0182793 -0.00033958 0)
(-0.0181093 -0.000590094 0)
(-0.0178356 -0.000855489 0)
(-0.0174538 -0.00113138 0)
(-0.0169607 -0.00141325 0)
(-0.0163553 -0.00169659 0)
(-0.0156382 -0.00197714 0)
(-0.0148118 -0.00225103 0)
(-0.0138798 -0.00251497 0)
(-0.0128474 -0.00276628 0)
(-0.0117206 -0.00300297 0)
(-0.0105063 -0.00322363 0)
(-0.00921206 -0.00342717 0)
(-0.00784571 -0.00361267 0)
(-0.00641586 -0.00377947 0)
(-0.004934 -0.00392809 0)
(-0.00342158 -0.00405979 0)
(-0.00192215 -0.00416532 0)
(-0.000485068 -0.00418197 0)
(0.00105461 -0.00387239 0)
(0.0022432 -0.00302141 0)
(0.0030911 -0.00145608 0)
(0.00321037 0.000215311 0)
(0.00238541 0.00290261 0)
(0.00231994 0.00779226 0)
(-0.00210749 0.00857608 0)
(-0.000697915 -0.00146734 0)
(-0.000481461 -0.00475358 0)
(0.000516536 -0.00423129 0)
(0.00105719 -0.00344127 0)
(0.00167362 -0.002809 0)
(0.00220703 -0.00233725 0)
(0.00267192 -0.0019842 0)
(0.00306953 -0.00171148 0)
(0.00339995 -0.00149383 0)
(0.00366602 -0.0013182 0)
(0.00387381 -0.00117942 0)
(0.00403266 -0.00107611 0)
(0.00415443 -0.00100757 0)
(0.0042519 -0.000972358 0)
(0.00433788 -0.00096778 0)
(0.00442452 -0.000990033 0)
(0.00452346 -0.00103397 0)
(0.00464535 -0.00109373 0)
(0.00479954 -0.00116404 0)
(0.00499508 -0.00123992 0)
(0.00523821 -0.00131479 0)
(0.00553064 -0.00138224 0)
(0.00586996 -0.00143556 0)
(0.00624816 -0.00146716 0)
(0.00665174 -0.00147102 0)
(0.00706374 -0.00144542 0)
(0.00746735 -0.00139336 0)
(0.00784878 -0.00132164 0)
(0.00819892 -0.00123934 0)
(0.00851388 -0.00115632 0)
(0.00879493 -0.00108175 0)
(0.00904813 -0.00102288 0)
(0.00928381 -0.000983603 0)
(0.00951587 -0.000962668 0)
(0.00976037 -0.000951264 0)
(0.0100329 -0.000930447 0)
(0.0103438 -0.000869695 0)
(0.010691 -0.000729246 0)
(0.0110511 -0.000469302 0)
(0.0114 -7.27375e-05 0)
(0.0116263 0.000413818 0)
(0.0116721 0.000926318 0)
(0.0115242 0.00141557 0)
(0.0111884 0.0018526 0)
(0.0106824 0.00222746 0)
(0.0100307 0.00255138 0)
(0.00925596 0.00285865 0)
(0.00837335 0.0032107 0)
(0.00738851 0.00370475 0)
(0.00629764 0.00448858 0)
(0.0050959 0.00578121 0)
(0.0037317 0.00790335 0)
(0.00241023 0.0113688 0)
(0.000829769 0.0152646 0)
(-0.00280412 0.0132397 0)
(-0.00615705 0.00823763 0)
(-0.00838601 0.00448566 0)
(-0.00977389 0.00269327 0)
(-0.0107839 0.00203928 0)
(-0.0116105 0.00182339 0)
(-0.0123475 0.00174821 0)
(-0.0130316 0.00171259 0)
(-0.0136772 0.00168139 0)
(-0.0142898 0.00164062 0)
(-0.0148702 0.00158347 0)
(-0.0154172 0.00150581 0)
(-0.0159278 0.00140474 0)
(-0.0163971 0.00127793 0)
(-0.0168191 0.00112344 0)
(-0.0171866 0.000939833 0)
(-0.0174917 0.000726342 0)
(-0.0177267 0.000482895 0)
(-0.0178836 0.000210119 0)
(-0.0179545 -9.08099e-05 0)
(-0.0179312 -0.000418494 0)
(-0.0178088 -0.000771148 0)
(-0.0175808 -0.00114383 0)
(-0.0172427 -0.00153065 0)
(-0.016792 -0.00192533 0)
(-0.016228 -0.00232154 0)
(-0.0155519 -0.00271323 0)
(-0.0147668 -0.0030949 0)
(-0.0138773 -0.00346185 0)
(-0.0128892 -0.00381029 0)
(-0.0118095 -0.00413731 0)
(-0.0106458 -0.00444075 0)
(-0.00940635 -0.00471884 0)
(-0.00810025 -0.00496971 0)
(-0.00673775 -0.00519082 0)
(-0.00533238 -0.00537806 0)
(-0.00390464 -0.00552294 0)
(-0.00248817 -0.00560384 0)
(-0.00113927 -0.00556376 0)
(0.000188245 -0.0052081 0)
(0.00142667 -0.00412939 0)
(0.002332 -0.00192312 0)
(0.00263659 0.000587116 0)
(0.001802 0.00376956 0)
(0.00188176 0.00968779 0)
(-0.00182901 0.00963979 0)
(-0.000328749 -0.00196112 0)
(-0.000184954 -0.00547013 0)
(0.00053303 -0.0048173 0)
(0.000849899 -0.00395684 0)
(0.00127619 -0.00327606 0)
(0.00164244 -0.00275731 0)
(0.00195683 -0.0023498 0)
(0.00220465 -0.00201427 0)
(0.00237681 -0.00172933 0)
(0.00247354 -0.00148801 0)
(0.00250237 -0.00129058 0)
(0.0024759 -0.00113978 0)
(0.00241024 -0.00103668 0)
(0.00232212 -0.00098 0)
(0.00222907 -0.000966638 0)
(0.00214998 -0.000993584 0)
(0.00210654 -0.00105636 0)
(0.00211963 -0.00114916 0)
(0.00220648 -0.00126793 0)
(0.00238438 -0.00140617 0)
(0.00265639 -0.00154983 0)
(0.00301573 -0.00168541 0)
(0.00345088 -0.00180012 0)
(0.00393821 -0.00187684 0)
(0.00445009 -0.001903 0)
(0.0049577 -0.00187626 0)
(0.00543656 -0.00180346 0)
(0.00586908 -0.00169739 0)
(0.00624533 -0.00157376 0)
(0.00656277 -0.00144877 0)
(0.00682548 -0.00133732 0)
(0.00704318 -0.0012517 0)
(0.00723028 -0.00120004 0)
(0.00740497 -0.00118429 0)
(0.0075882 -0.001197 0)
(0.00780172 -0.00121699 0)
(0.00806434 -0.00120567 0)
(0.00838522 -0.00110762 0)
(0.00875358 -0.000861005 0)
(0.00913967 -0.000418587 0)
(0.00949579 0.00019806 0)
(0.00968384 0.000893912 0)
(0.00967432 0.00158325 0)
(0.00946558 0.00221057 0)
(0.00907116 0.00275376 0)
(0.00851632 0.00322079 0)
(0.0078279 0.00364893 0)
(0.00702971 0.00410585 0)
(0.00614238 0.00469574 0)
(0.00518626 0.0055717 0)
(0.00419003 0.00695262 0)
(0.00317571 0.00914199 0)
(0.00222085 0.012616 0)
(0.00157892 0.0169922 0)
(-0.000604188 0.0165799 0)
(-0.00408869 0.0113395 0)
(-0.0066328 0.00646151 0)
(-0.00817369 0.00395041 0)
(-0.00930045 0.00299277 0)
(-0.010228 0.00264993 0)
(-0.0110608 0.0025064 0)
(-0.0118353 0.00242312 0)
(-0.0125654 0.00235265 0)
(-0.0132569 0.00227574 0)
(-0.0139118 0.00218266 0)
(-0.0145296 0.00206715 0)
(-0.015108 0.00192448 0)
(-0.0156429 0.0017508 0)
(-0.0161282 0.00154299 0)
(-0.0165567 0.00129877 0)
(-0.0169205 0.00101691 0)
(-0.0172115 0.000697301 0)
(-0.0174219 0.000340879 0)
(-0.0175438 -5.05574e-05 0)
(-0.0175682 -0.000474608 0)
(-0.0174925 -0.000929883 0)
(-0.0173099 -0.00141055 0)
(-0.017016 -0.00190882 0)
(-0.0166085 -0.00241644 0)
(-0.0160873 -0.00292507 0)
(-0.0154542 -0.00342672 0)
(-0.0147129 -0.00391416 0)
(-0.0138689 -0.00438123 0)
(-0.0129288 -0.00482293 0)
(-0.0119003 -0.00523547 0)
(-0.0107919 -0.00561596 0)
(-0.00961255 -0.00596191 0)
(-0.00837202 -0.0062705 0)
(-0.00708132 -0.00653731 0)
(-0.00575418 -0.00675434 0)
(-0.00440923 -0.0069057 0)
(-0.00307306 -0.00695912 0)
(-0.00178537 -0.00685033 0)
(-0.000611586 -0.00645068 0)
(0.00062404 -0.00527 0)
(0.00157625 -0.00260265 0)
(0.00218102 0.000779954 0)
(0.0013984 0.00440763 0)
(0.00157295 0.0111109 0)
(-0.0016211 0.010465 0)
(-2.71268e-05 -0.00257454 0)
(-2.63791e-05 -0.00591809 0)
(0.000404067 -0.00514965 0)
(0.000504704 -0.00425932 0)
(0.000737331 -0.00356329 0)
(0.000916121 -0.00301284 0)
(0.00104128 -0.00254883 0)
(0.00108535 -0.00213725 0)
(0.0010392 -0.00176837 0)
(0.000908793 -0.00144583 0)
(0.000708482 -0.00117716 0)
(0.000457961 -0.000970118 0)
(0.000182277 -0.00082854 0)
(-9.42323e-05 -0.000754017 0)
(-0.000340904 -0.000750012 0)
(-0.000511954 -0.000820385 0)
(-0.000567552 -0.000963709 0)
(-0.00048891 -0.00117078 0)
(-0.000266006 -0.00142542 0)
(0.000106836 -0.00170525 0)
(0.000586092 -0.00196406 0)
(0.00115224 -0.00218895 0)
(0.00178544 -0.00236548 0)
(0.00244284 -0.00246879 0)
(0.00309713 -0.00248838 0)
(0.00371889 -0.00242701 0)
(0.00428329 -0.00229857 0)
(0.00477255 -0.00212405 0)
(0.00517665 -0.00192736 0)
(0.0054935 -0.00173207 0)
(0.00572857 -0.00155947 0)
(0.00589402 -0.00142707 0)
(0.00600741 -0.00134718 0)
(0.00609027 -0.00132501 0)
(0.00616718 -0.00135527 0)
(0.00626481 -0.00141671 0)
(0.00640994 -0.00146591 0)
(0.00662463 -0.00143389 0)
(0.00691518 -0.00123433 0)
(0.00725696 -0.000792312 0)
(0.00762602 -9.36517e-05 0)
(0.0078754 0.000759283 0)
(0.00794878 0.00163997 0)
(0.00783588 0.00245817 0)
(0.00754591 0.00317409 0)
(0.00709898 0.00378917 0)
(0.00652002 0.00434032 0)
(0.00583393 0.00489641 0)
(0.00506698 0.00556097 0)
(0.0042513 0.00648156 0)
(0.00343217 0.0078647 0)
(0.00267463 0.0099916 0)
(0.00203906 0.0132773 0)
(0.00185505 0.0177169 0)
(0.00109646 0.0189079 0)
(-0.00196908 0.014632 0)
(-0.00499317 0.00869737 0)
(-0.00670616 0.00534457 0)
(-0.00793521 0.00403963 0)
(-0.00893979 0.0035615 0)
(-0.00984444 0.00334723 0)
(-0.0106882 0.00321322 0)
(-0.0114848 0.00310003 0)
(-0.0122402 0.00298413 0)
(-0.0129568 0.00285321 0)
(-0.0136348 0.00269881 0)
(-0.0142721 0.00251414 0)
(-0.0148647 0.00229349 0)
(-0.0154065 0.00203222 0)
(-0.0158902 0.00172698 0)
(-0.0163076 0.00137586 0)
(-0.0166506 0.000978549 0)
(-0.0169112 0.000536224 0)
(-0.0170817 5.14295e-05 0)
(-0.017155 -0.000472596 0)
(-0.0171249 -0.00103283 0)
(-0.0169878 -0.00162355 0)
(-0.0167388 -0.00223501 0)
(-0.0163759 -0.00285685 0)
(-0.0158993 -0.00347859 0)
(-0.0153114 -0.0040902 0)
(-0.0146167 -0.00468263 0)
(-0.0138214 -0.00524816 0)
(-0.012933 -0.00578065 0)
(-0.01196 -0.00627544 0)
(-0.0109114 -0.00672904 0)
(-0.00979684 -0.00713838 0)
(-0.00862624 -0.00749981 0)
(-0.00741064 -0.0078074 0)
(-0.00616289 -0.00805025 0)
(-0.00489898 -0.00820746 0)
(-0.00364019 -0.00823931 0)
(-0.0024183 -0.00807238 0)
(-0.00127922 -0.00757059 0)
(-0.000172496 -0.00640927 0)
(0.000788404 -0.00356118 0)
(0.00176376 0.000848684 0)
(0.00103074 0.0048597 0)
(0.00133566 0.0122361 0)
(-0.00145973 0.0111266 0)
(0.000182689 -0.00326904 0)
(-3.0765e-05 -0.00608006 0)
(0.000141491 -0.00524172 0)
(3.06714e-05 -0.00435132 0)
(5.48085e-05 -0.00365523 0)
(1.22282e-05 -0.003062 0)
(-0.000103261 -0.00251638 0)
(-0.000320967 -0.00199882 0)
(-0.000637379 -0.00152165 0)
(-0.00103107 -0.00110652 0)
(-0.00147384 -0.000774304 0)
(-0.00192341 -0.000541335 0)
(-0.00233059 -0.000420068 0)
(-0.00264061 -0.000420148 0)
(-0.00280437 -0.000543714 0)
(-0.00279226 -0.000779318 0)
(-0.00260147 -0.0011029 0)
(-0.00225216 -0.00148129 0)
(-0.00177497 -0.001878 0)
(-0.00120092 -0.00226118 0)
(-0.000560996 -0.00260508 0)
(0.000155766 -0.00290061 0)
(0.00091548 -0.00310679 0)
(0.0016645 -0.00319964 0)
(0.00239951 -0.00318367 0)
(0.00309796 -0.00306444 0)
(0.00373351 -0.00285808 0)
(0.00428331 -0.0025907 0)
(0.00473088 -0.00229363 0)
(0.00506727 -0.00199857 0)
(0.00529228 -0.00173498 0)
(0.00541526 -0.00152756 0)
(0.00545401 -0.00139398 0)
(0.00543221 -0.00134334 0)
(0.0053777 -0.00137337 0)
(0.00532144 -0.00146516 0)
(0.00529741 -0.00157534 0)
(0.00534125 -0.0016272 0)
(0.0054818 -0.00151045 0)
(0.0057175 -0.00111231 0)
(0.00601993 -0.000383507 0)
(0.00628378 0.000586118 0)
(0.00639752 0.00162899 0)
(0.0063517 0.00261791 0)
(0.00615273 0.00349216 0)
(0.00581377 0.00424604 0)
(0.00535354 0.00491407 0)
(0.00479275 0.0055629 0)
(0.00415671 0.00629033 0)
(0.00348065 0.00723201 0)
(0.00281658 0.00857493 0)
(0.00224682 0.0105738 0)
(0.00186275 0.0135812 0)
(0.00192016 0.0177748 0)
(0.00208967 0.0200826 0)
(0.000119176 0.0178433 0)
(-0.00336104 0.0112702 0)
(-0.00535754 0.00688172 0)
(-0.0066688 0.00516631 0)
(-0.0077341 0.00453614 0)
(-0.00869026 0.00424779 0)
(-0.00958325 0.00406119 0)
(-0.0104278 0.00390335 0)
(-0.0112304 0.00374674 0)
(-0.0119939 0.00357654 0)
(-0.0127188 0.00338204 0)
(-0.0134033 0.00315418 0)
(-0.0140433 0.00288525 0)
(-0.0146327 0.00256905 0)
(-0.015164 0.00220119 0)
(-0.015629 0.00177926 0)
(-0.0160192 0.00130292 0)
(-0.0163267 0.000773763 0)
(-0.0165437 0.000195216 0)
(-0.0166633 -0.000428503 0)
(-0.016678 -0.00109347 0)
(-0.0165866 -0.001794 0)
(-0.0163833 -0.00251835 0)
(-0.0160663 -0.0032539 0)
(-0.0156361 -0.00398784 0)
(-0.0150958 -0.00470792 0)
(-0.0144505 -0.0054031 0)
(-0.0137071 -0.0060641 0)
(-0.012874 -0.00668362 0)
(-0.0119604 -0.00725628 0)
(-0.0109759 -0.00777815 0)
(-0.00993027 -0.00824587 0)
(-0.00883347 -0.0086553 0)
(-0.00769584 -0.00899952 0)
(-0.00652876 -0.0092657 0)
(-0.00534554 -0.00942985 0)
(-0.0041633 -0.00944778 0)
(-0.00300608 -0.00923892 0)
(-0.0018986 -0.00865326 0)
(-0.000833097 -0.00739827 0)
(-3.04438e-05 -0.00476952 0)
(0.00132 0.000770982 0)
(0.000658073 0.0051248 0)
(0.00115483 0.0131402 0)
(-0.00132152 0.0116659 0)
(0.000293238 -0.00390186 0)
(-0.000202137 -0.00597909 0)
(-0.000260751 -0.00509441 0)
(-0.000562928 -0.00422835 0)
(-0.000784947 -0.00351276 0)
(-0.00109021 -0.00283928 0)
(-0.00149259 -0.00218179 0)
(-0.00199137 -0.00155564 0)
(-0.00255699 -0.000997573 0)
(-0.00314313 -0.000547092 0)
(-0.0036907 -0.000237375 0)
(-0.00413263 -9.20585e-05 0)
(-0.00441045 -0.000121323 0)
(-0.00449198 -0.00031333 0)
(-0.00437763 -0.000638858 0)
(-0.00409209 -0.00105815 0)
(-0.00367102 -0.00153025 0)
(-0.00314943 -0.00201924 0)
(-0.00255535 -0.00249593 0)
(-0.00190848 -0.00293776 0)
(-0.00122291 -0.00332712 0)
(-0.000517396 -0.00364636 0)
(0.000244961 -0.0038796 0)
(0.00102786 -0.00397668 0)
(0.00180002 -0.00393481 0)
(0.00255581 -0.00376687 0)
(0.00326747 -0.00348794 0)
(0.00390425 -0.0031247 0)
(0.00443937 -0.00271348 0)
(0.00485184 -0.00229373 0)
(0.00512872 -0.00190564 0)
(0.00526897 -0.00158533 0)
(0.00528408 -0.00135975 0)
(0.00519556 -0.00124437 0)
(0.0050321 -0.00124131 0)
(0.00482743 -0.00133603 0)
(0.00462084 -0.00149031 0)
(0.00445913 -0.00162901 0)
(0.0043957 -0.00162576 0)
(0.00446667 -0.00132195 0)
(0.0046626 -0.000616739 0)
(0.00489733 0.000418879 0)
(0.00502477 0.0015833 0)
(0.00502734 0.00270945 0)
(0.00490749 0.00371587 0)
(0.00467143 0.00459025 0)
(0.00432954 0.00536372 0)
(0.00389619 0.00609812 0)
(0.00339256 0.00688225 0)
(0.00285237 0.00783636 0)
(0.00232861 0.00912378 0)
(0.00190608 0.0109671 0)
(0.00170066 0.0136652 0)
(0.0019186 0.0174341 0)
(0.00253866 0.0203649 0)
(0.00179018 0.020297 0)
(-0.00157209 0.0143911 0)
(-0.00410415 0.00860997 0)
(-0.00548309 0.00636997 0)
(-0.00660191 0.0055575 0)
(-0.00759149 0.00518876 0)
(-0.00851448 0.00494815 0)
(-0.00938825 0.00474539 0)
(-0.0102204 0.00454828 0)
(-0.0110144 0.00433952 0)
(-0.0117712 0.00410595 0)
(-0.0124893 0.0038361 0)
(-0.0131647 0.00352011 0)
(-0.0137912 0.00315018 0)
(-0.0143614 0.00272082 0)
(-0.0148668 0.00222905 0)
(-0.0152987 0.00167438 0)
(-0.0156488 0.0010587 0)
(-0.0159095 0.000386121 0)
(-0.0160738 -0.000338062 0)
(-0.0161317 -0.00110786 0)
(-0.0160855 -0.00191801 0)
(-0.0159282 -0.002755 0)
(-0.015658 -0.00360378 0)
(-0.0152758 -0.00444898 0)
(-0.014785 -0.00527595 0)
(-0.0141915 -0.00607155 0)
(-0.013503 -0.00682488 0)
(-0.0127285 -0.00752754 0)
(-0.011878 -0.00817358 0)
(-0.0109615 -0.00875893 0)
(-0.00998884 -0.00928032 0)
(-0.0089695 -0.00973364 0)
(-0.0079127 -0.0101116 0)
(-0.00682791 -0.0104004 0)
(-0.00572557 -0.0105742 0)
(-0.00461863 -0.010586 0)
(-0.00352327 -0.010349 0)
(-0.00245121 -0.00970125 0)
(-0.0014177 -0.00835056 0)
(-0.000757085 -0.00584447 0)
(0.000852036 0.00100882 0)
(0.000465678 0.00522908 0)
(0.00103577 0.0138644 0)
(-0.00118853 0.0121119 0)
(0.000294667 -0.0043163 0)
(-0.000508692 -0.00564613 0)
(-0.000779038 -0.00473502 0)
(-0.00127928 -0.00387777 0)
(-0.00176315 -0.00310175 0)
(-0.00233765 -0.00233073 0)
(-0.0029918 -0.00157743 0)
(-0.00368697 -0.00089451 0)
(-0.00436295 -0.000341269 0)
(-0.00495346 3.46137e-05 0)
(-0.00538706 0.000197936 0)
(-0.00561161 0.000144923 0)
(-0.00563742 -9.33262e-05 0)
(-0.00548516 -0.000476369 0)
(-0.00518838 -0.000957641 0)
(-0.0047845 -0.00149394 0)
(-0.00430342 -0.00205018 0)
(-0.00376573 -0.00259948 0)
(-0.00318361 -0.00312128 0)
(-0.0025634 -0.00359919 0)
(-0.00190883 -0.00401941 0)
(-0.00122504 -0.00436888 0)
(-0.000526553 -0.00462626 0)
(0.000249455 -0.00476213 0)
(0.00103986 -0.00472737 0)
(0.0018379 -0.0045362 0)
(0.00262262 -0.00420659 0)
(0.0033592 -0.00376324 0)
(0.00401148 -0.00324319 0)
(0.00454772 -0.00268969 0)
(0.00494155 -0.00215298 0)
(0.005178 -0.00168279 0)
(0.00525496 -0.00131905 0)
(0.00518216 -0.00108822 0)
(0.00498039 -0.00100097 0)
(0.00468 -0.00105028 0)
(0.00432108 -0.0012075 0)
(0.00395612 -0.00140937 0)
(0.00365809 -0.00153077 0)
(0.00350781 -0.00137545 0)
(0.00354776 -0.000767779 0)
(0.00371256 0.000272734 0)
(0.00383008 0.00151375 0)
(0.00386354 0.00274063 0)
(0.00381001 0.00385089 0)
(0.00366688 0.00482553 0)
(0.00343572 0.00569136 0)
(0.00312433 0.00650356 0)
(0.002749 0.00734018 0)
(0.00233971 0.00830462 0)
(0.00194647 0.00953517 0)
(0.0016505 0.011219 0)
(0.00156761 0.0136075 0)
(0.00190666 0.0168901 0)
(0.00267227 0.0200354 0)
(0.00289256 0.0217888 0)
(0.000243122 0.0177115 0)
(-0.00287814 0.0106078 0)
(-0.00440423 0.00763611 0)
(-0.0055436 0.00660897 0)
(-0.00654662 0.00615128 0)
(-0.00748061 0.00585502 0)
(-0.00836487 0.00560754 0)
(-0.00920819 0.00537099 0)
(-0.0100151 0.00512536 0)
(-0.0107872 0.00485485 0)
(-0.0115233 0.00454542 0)
(-0.0122199 0.00418491 0)
(-0.0128712 0.00376372 0)
(-0.0134698 0.00327516 0)
(-0.0140072 0.00271557 0)
(-0.0144744 0.00208429 0)
(-0.0148624 0.00138341 0)
(-0.0151631 0.000617738 0)
(-0.0153698 -0.000206025 0)
(-0.0154679 -0.00107908 0)
(-0.0154654 -0.00199701 0)
(-0.0153538 -0.00294529 0)
(-0.0151311 -0.00390596 0)
(-0.0147982 -0.00486076 0)
(-0.0143591 -0.00579239 0)
(-0.01382 -0.00668553 0)
(-0.0131894 -0.00752759 0)
(-0.0124769 -0.00830911 0)
(-0.0116931 -0.00902372 0)
(-0.0108484 -0.00966755 0)
(-0.00995259 -0.0102379 0)
(-0.0090146 -0.0107314 0)
(-0.00804218 -0.0111412 0)
(-0.00704243 -0.0114534 0)
(-0.00602249 -0.0116417 0)
(-0.00499035 -0.0116574 0)
(-0.00395438 -0.0114097 0)
(-0.0029205 -0.0107306 0)
(-0.00192197 -0.00931744 0)
(-0.00118404 -0.00658355 0)
(0.000380969 -0.000592821 0)
(0.000536564 0.00519636 0)
(0.000951231 0.0144827 0)
(-0.00104987 0.0124917 0)
(0.000202855 -0.00440833 0)
(-0.00089407 -0.00510203 0)
(-0.00136883 -0.00416645 0)
(-0.0020744 -0.00328613 0)
(-0.00279624 -0.00243784 0)
(-0.00357779 -0.00159677 0)
(-0.00437153 -0.000819336 0)
(-0.0051129 -0.000179918 0)
(-0.00574079 0.000262077 0)
(-0.00617034 0.00045214 0)
(-0.00638629 0.000401725 0)
(-0.00642118 0.000153689 0)
(-0.00630398 -0.000250299 0)
(-0.006064 -0.000761211 0)
(-0.00573803 -0.00133526 0)
(-0.00534995 -0.00193794 0)
(-0.00491355 -0.00254409 0)
(-0.00443441 -0.00313506 0)
(-0.00391311 -0.00369557 0)
(-0.00334839 -0.00421144 0)
(-0.00273963 -0.00466836 0)
(-0.00208861 -0.00505137 0)
(-0.0014012 -0.00534367 0)
(-0.000690729 -0.00551959 0)
(0.000108948 -0.00553743 0)
(0.000937058 -0.0053609 0)
(0.00177939 -0.00500907 0)
(0.00260452 -0.00450983 0)
(0.00337103 -0.00390038 0)
(0.00403929 -0.00322327 0)
(0.00457474 -0.00253668 0)
(0.00495517 -0.00190182 0)
(0.00516801 -0.00136805 0)
(0.00520578 -0.000972746 0)
(0.00506876 -0.000739588 0)
(0.00476935 -0.000675282 0)
(0.00433559 -0.000766501 0)
(0.00381462 -0.000970632 0)
(0.00328504 -0.00118545 0)
(0.00286239 -0.00120386 0)
(0.00267321 -0.0007685 0)
(0.00271021 0.000195623 0)
(0.00279151 0.00144922 0)
(0.00284023 0.00272952 0)
(0.00284028 0.00391077 0)
(0.00277803 0.00496331 0)
(0.00264694 0.00590644 0)
(0.00244907 0.00678673 0)
(0.00219585 0.0076705 0)
(0.00191255 0.00864435 0)
(0.00164359 0.00982216 0)
(0.00146445 0.0113562 0)
(0.00147193 0.0134529 0)
(0.00189924 0.0162654 0)
(0.00265978 0.0193264 0)
(0.00351303 0.0224473 0)
(0.00180874 0.0206028 0)
(-0.00150424 0.0132088 0)
(-0.0034459 0.00896686 0)
(-0.00454784 0.00767807 0)
(-0.00555575 0.00711762 0)
(-0.00648346 0.00676328 0)
(-0.00735999 0.00647124 0)
(-0.00819616 0.00619656 0)
(-0.00899761 0.00591621 0)
(-0.00976684 0.0056117 0)
(-0.0105036 0.00526626 0)
(-0.0112051 0.00486533 0)
(-0.011866 0.00439734 0)
(-0.0124794 0.00385424 0)
(-0.0130369 0.0032315 0)
(-0.0135295 0.0025279 0)
(-0.0139477 0.00174546 0)
(-0.0142835 0.000889191 0)
(-0.0145286 -3.25102e-05 0)
(-0.0146691 -0.00100819 0)
(-0.0147078 -0.00203151 0)
(-0.0146415 -0.00308907 0)
(-0.0144665 -0.00415952 0)
(-0.0141844 -0.00522144 0)
(-0.0137993 -0.0062548 0)
(-0.013318 -0.00724205 0)
(-0.012749 -0.00816891 0)
(-0.0121024 -0.0090248 0)
(-0.0113891 -0.00980299 0)
(-0.01062 -0.0105001 0)
(-0.00980524 -0.0111146 0)
(-0.00895301 -0.0116445 0)
(-0.00806963 -0.0120845 0)
(-0.00715971 -0.0124216 0)
(-0.00622666 -0.0126302 0)
(-0.005273 -0.0126619 0)
(-0.0042995 -0.0124256 0)
(-0.00330535 -0.0117524 0)
(-0.00231113 -0.0103372 0)
(-0.00141001 -0.0076048 0)
(0.000240259 -0.00189923 0)
(0.000611615 0.00518785 0)
(0.000858776 0.0150624 0)
(-0.000904423 0.0128322 0)
(4.87965e-05 -0.00415049 0)
(-0.0013036 -0.00435713 0)
(-0.0019795 -0.00339623 0)
(-0.00286851 -0.00248239 0)
(-0.00376326 -0.00159409 0)
(-0.00465165 -0.000756975 0)
(-0.00546976 -4.59063e-05 0)
(-0.00615059 0.000462483 0)
(-0.00661072 0.000694607 0)
(-0.00687447 0.00067799 0)
(-0.00697246 0.000453968 0)
(-0.00693336 6.30351e-05 0)
(-0.0067928 -0.00045035 0)
(-0.00657638 -0.00103849 0)
(-0.00630725 -0.00166818 0)
(-0.00599352 -0.00231579 0)
(-0.00563572 -0.00296431 0)
(-0.00522995 -0.00359969 0)
(-0.00477125 -0.00420811 0)
(-0.00425579 -0.00477445 0)
(-0.00368227 -0.00528183 0)
(-0.00305257 -0.00571183 0)
(-0.00237197 -0.00604496 0)
(-0.00164917 -0.00626074 0)
(-0.000896369 -0.00633355 0)
(-5.85009e-05 -0.00621727 0)
(0.000826386 -0.00588062 0)
(0.00172048 -0.00535035 0)
(0.00258127 -0.00467143 0)
(0.00336357 -0.00388583 0)
(0.00402564 -0.00306229 0)
(0.00454582 -0.00227469 0)
(0.00491469 -0.00157327 0)
(0.00511819 -0.000995497 0)
(0.00513751 -0.00057126 0)
(0.00495582 -0.000322095 0)
(0.00456828 -0.000258018 0)
(0.00399304 -0.000368755 0)
(0.00328716 -0.000596189 0)
(0.00257056 -0.000762206 0)
(0.00205097 -0.000550557 0)
(0.00187303 0.000246963 0)
(0.00189145 0.00142546 0)
(0.00194117 0.00270022 0)
(0.0019791 0.00391539 0)
(0.00198241 0.00502022 0)
(0.00193894 0.00602197 0)
(0.00184508 0.00695722 0)
(0.00170676 0.00788017 0)
(0.00154401 0.00886133 0)
(0.00139447 0.00999191 0)
(0.00132653 0.0113926 0)
(0.00141186 0.0132267 0)
(0.00189719 0.0156233 0)
(0.00260509 0.0184263 0)
(0.00380674 0.0224369 0)
(0.00299385 0.0227651 0)
(-1.9569e-05 0.0162785 0)
(-0.00255322 0.0104196 0)
(-0.00362037 0.00875288 0)
(-0.00462447 0.00807119 0)
(-0.00552746 0.00765522 0)
(-0.00637871 0.00731838 0)
(-0.00718983 0.00700669 0)
(-0.00796753 0.00669375 0)
(-0.00871552 0.0063584 0)
(-0.00943475 0.00598109 0)
(-0.0101235 0.00554464 0)
(-0.0107776 0.00503537 0)
(-0.0113907 0.00444361 0)
(-0.011955 0.00376372 0)
(-0.0124614 0.0029938 0)
(-0.0129001 0.00213557 0)
(-0.0132616 0.00119427 0)
(-0.0135372 0.000179447 0)
(-0.013719 -0.000896882 0)
(-0.0137948 -0.0020231 0)
(-0.0137719 -0.00318695 0)
(-0.0136445 -0.00436377 0)
(-0.0134148 -0.00552898 0)
(-0.0130873 -0.00665997 0)
(-0.0126684 -0.00773717 0)
(-0.0121662 -0.0087446 0)
(-0.0115906 -0.0096704 0)
(-0.0109525 -0.0105073 0)