/*--------------------------------*- C++ -*----------------------------------*\
| =========                 |                                                 |
| \\      /  F ield         | OpenFOAM: The Open Source CFD Toolbox           |
|  \\    /   O peration     | Version:  4.1                                   |
|   \\  /    A nd           | Web:      www.OpenFOAM.org                      |
|    \\/     M anipulation  |                                                 |
\*---------------------------------------------------------------------------*/
FoamFile
{
    version     2.0;
    format      ascii;
    class       volScalarField;
    location    "340";
    object      p_rgh;
}
// * * * * * * * * * * * * * * * * * * * * * * * * * * * * * * * * * * * * * //

dimensions      [0 2 -2 0 0 0 0];

internalField   nonuniform List<scalar> 
5000
(
0.0492304
0.0492388
0.0492319
0.0492207
0.0492187
0.0492278
0.0492401
0.0492472
0.0492481
0.049246
0.0492431
0.0492404
0.0492376
0.0492345
0.0492302
0.0492242
0.049216
0.0492045
0.0491886
0.0491703
0.0491522
0.0491511
0.0491502
0.0491587
0.0491743
0.0491827
0.0491751
0.0491618
0.0491519
0.0491472
0.0491497
0.0491599
0.0491747
0.049189
0.0491989
0.0492048
0.0492094
0.0492146
0.0492208
0.049228
0.0492358
0.049244
0.0492526
0.0492616
0.0492708
0.0492804
0.0492901
0.0493
0.0493101
0.04932
0.0493299
0.0493395
0.0493488
0.0493575
0.0493653
0.0493719
0.0493767
0.04938
0.0493822
0.0493825
0.0493796
0.0493734
0.0493641
0.0493524
0.049339
0.0493249
0.0493106
0.0492967
0.0492834
0.0492709
0.0492595
0.0492489
0.0492393
0.0492307
0.0492228
0.0492159
0.0492099
0.0492049
0.049201
0.0491983
0.0491969
0.049197
0.0491983
0.0492009
0.0492045
0.0492089
0.049214
0.0492195
0.0492254
0.0492317
0.049239
0.049249
0.0492623
0.0492678
0.049272
0.049278
0.0492848
0.0492916
0.0492886
0.0492769
0.0492363
0.0492527
0.0492315
0.0492237
0.0492406
0.0492712
0.0492903
0.0492967
0.0492996
0.0493009
0.0493009
0.0492997
0.0492974
0.0492937
0.0492881
0.04928
0.0492679
0.0492508
0.049228
0.0492055
0.0491653
0.0491324
0.0491402
0.0491732
0.0492082
0.0492165
0.0492024
0.0491797
0.0491631
0.0491622
0.0491791
0.0492098
0.0492422
0.0492631
0.049273
0.0492782
0.0492818
0.049285
0.0492882
0.0492917
0.0492957
0.0493002
0.0493053
0.0493111
0.0493174
0.0493243
0.0493316
0.0493393
0.0493474
0.0493555
0.0493637
0.0493717
0.0493795
0.0493867
0.0493933
0.0493988
0.0494029
0.0494054
0.0494069
0.0494068
0.0494036
0.0493974
0.0493883
0.0493771
0.0493644
0.049351
0.0493375
0.0493242
0.0493116
0.0492998
0.0492889
0.0492788
0.0492697
0.0492615
0.0492543
0.0492481
0.049243
0.0492392
0.0492369
0.049236
0.0492364
0.049238
0.0492405
0.0492439
0.049248
0.0492527
0.0492577
0.0492625
0.0492666
0.0492681
0.0492639
0.0492542
0.0492503
0.0492706
0.0493019
0.0493024
0.0493026
0.0493031
0.049305
0.0492754
0.0492396
0.0492488
0.0492264
0.0492219
0.0492477
0.0492794
0.0492939
0.0492991
0.0493015
0.0493027
0.0493027
0.0493017
0.0492996
0.0492962
0.049291
0.049283
0.0492702
0.0492498
0.0492187
0.049178
0.0491447
0.0491216
0.0491354
0.0491869
0.0492311
0.0492381
0.0492208
0.0491994
0.0491841
0.0491846
0.0492049
0.0492365
0.0492625
0.049275
0.0492794
0.0492813
0.0492828
0.0492847
0.0492871
0.0492902
0.0492938
0.0492981
0.0493031
0.0493088
0.0493151
0.049322
0.0493293
0.049337
0.0493449
0.049353
0.049361
0.0493689
0.0493764
0.0493834
0.0493897
0.049395
0.049399
0.0494013
0.0494026
0.0494025
0.0493995
0.0493932
0.049384
0.0493727
0.0493599
0.0493464
0.0493329
0.0493196
0.0493071
0.0492953
0.0492845
0.0492746
0.0492655
0.0492574
0.0492502
0.049244
0.049239
0.0492352
0.0492328
0.0492321
0.0492332
0.0492361
0.0492406
0.0492466
0.0492537
0.0492616
0.0492697
0.0492774
0.0492833
0.0492847
0.049275
0.0492511
0.0492319
0.0492457
0.0492798
0.0493004
0.0492995
0.0492993
0.049302
0.0492674
0.049239
0.0492435
0.0492202
0.0492202
0.0492511
0.0492825
0.0492957
0.0493003
0.0493025
0.0493034
0.0493035
0.0493028
0.0493011
0.0492985
0.0492943
0.0492875
0.0492759
0.0492562
0.0492266
0.0491913
0.0491586
0.0491395
0.0491564
0.049215
0.0492605
0.0492633
0.049248
0.0492298
0.0492171
0.0492186
0.0492365
0.0492608
0.0492761
0.0492802
0.04928
0.0492796
0.0492801
0.0492814
0.0492836
0.0492866
0.0492903
0.0492948
0.0492999
0.0493057
0.0493121
0.049319
0.0493264
0.049334
0.0493419
0.0493498
0.0493577
0.0493653
0.0493726
0.0493792
0.0493852
0.0493902
0.049394
0.0493962
0.0493972
0.049397
0.049394
0.0493876
0.0493784
0.0493669
0.0493539
0.0493402
0.0493266
0.0493133
0.0493007
0.049289
0.0492782
0.0492684
0.0492594
0.0492514
0.0492442
0.0492381
0.0492331
0.0492293
0.0492269
0.0492262
0.0492274
0.0492303
0.0492352
0.0492419
0.04925
0.0492594
0.0492693
0.049279
0.0492869
0.0492895
0.0492788
0.0492486
0.0492184
0.0492231
0.0492551
0.0492876
0.0492963
0.0492951
0.0492983
0.0492601
0.0492335
0.0492342
0.0492116
0.0492175
0.0492526
0.0492841
0.0492972
0.0493018
0.0493038
0.0493047
0.0493049
0.0493045
0.0493035
0.0493018
0.049299
0.0492946
0.0492867
0.0492733
0.0492528
0.0492268
0.0491998
0.0491856
0.0492036
0.0492556
0.0492882
0.0492849
0.0492719
0.0492585
0.0492507
0.049253
0.049265
0.0492776
0.0492824
0.0492812
0.0492789
0.0492775
0.0492774
0.0492784
0.0492804
0.0492834
0.0492872
0.0492918
0.049297
0.0493028
0.0493092
0.0493161
0.0493234
0.0493309
0.0493386
0.0493463
0.0493539
0.0493612
0.0493681
0.0493744
0.04938
0.0493846
0.049388
0.04939
0.0493907
0.0493902
0.0493871
0.0493807
0.0493714
0.0493597
0.0493466
0.0493328
0.049319
0.0493057
0.0492931
0.0492814
0.0492707
0.0492609
0.0492521
0.0492441
0.0492371
0.0492311
0.0492261
0.0492223
0.04922
0.0492193
0.0492204
0.0492234
0.0492283
0.0492351
0.0492435
0.0492534
0.0492641
0.0492748
0.049284
0.0492883
0.0492793
0.0492481
0.0492108
0.0492052
0.0492335
0.0492703
0.0492898
0.0492907
0.0492943
0.0492535
0.049224
0.0492211
0.0492006
0.049213
0.0492524
0.0492849
0.0492985
0.0493033
0.0493054
0.0493064
0.0493068
0.0493068
0.0493064
0.0493055
0.0493041
0.0493019
0.049298
0.0492913
0.0492807
0.049265
0.0492487
0.0492418
0.0492571
0.0492892
0.0493022
0.0492964
0.0492868
0.0492783
0.049274
0.0492753
0.0492803
0.0492835
0.0492824
0.0492791
0.0492763
0.0492747
0.0492745
0.0492755
0.0492775
0.0492805
0.0492843
0.0492888
0.0492939
0.0492997
0.049306
0.0493128
0.0493199
0.0493272
0.0493347
0.0493421
0.0493494
0.0493564
0.0493629
0.0493687
0.0493738
0.0493779
0.0493809
0.0493825
0.049383
0.049382
0.0493788
0.0493723
0.049363
0.0493513
0.049338
0.0493241
0.0493102
0.0492968
0.0492842
0.0492726
0.049262
0.0492523
0.0492436
0.0492359
0.049229
0.0492231
0.0492182
0.0492146
0.0492123
0.0492116
0.0492127
0.0492156
0.0492204
0.0492272
0.0492357
0.0492457
0.0492567
0.049268
0.0492781
0.049284
0.0492775
0.049248
0.0492069
0.0491917
0.0492141
0.0492533
0.0492799
0.0492856
0.0492902
0.0492476
0.0492121
0.0492064
0.0491884
0.0492073
0.0492509
0.0492851
0.0492997
0.049305
0.0493072
0.0493084
0.049309
0.0493094
0.0493094
0.0493092
0.0493087
0.049308
0.0493065
0.0493039
0.0492993
0.0492925
0.0492856
0.0492842
0.0492931
0.0493056
0.049307
0.0493007
0.0492934
0.0492875
0.0492842
0.0492834
0.0492834
0.0492819
0.0492787
0.0492753
0.0492728
0.0492715
0.0492714
0.0492724
0.0492744
0.0492773
0.049281
0.0492854
0.0492904
0.0492961
0.0493023
0.0493088
0.0493157
0.0493228
0.04933
0.0493371
0.049344
0.0493506
0.0493567
0.0493621
0.0493667
0.0493703
0.0493728
0.049374
0.0493741
0.0493728
0.0493691
0.0493626
0.0493532
0.0493415
0.0493282
0.0493142
0.0493002
0.0492868
0.0492743
0.0492627
0.0492522
0.0492428
0.0492343
0.0492268
0.0492201
0.0492144
0.0492097
0.0492062
0.049204
0.0492033
0.0492043
0.0492072
0.049212
0.0492187
0.0492272
0.0492372
0.0492483
0.0492599
0.0492707
0.049278
0.0492741
0.0492475
0.0492047
0.0491815
0.0491973
0.0492367
0.0492682
0.0492795
0.0492867
0.0492433
0.0491996
0.0491916
0.049176
0.0492008
0.0492487
0.049285
0.049301
0.0493069
0.0493092
0.0493105
0.0493114
0.049312
0.0493124
0.0493126
0.0493126
0.0493124
0.0493119
0.049311
0.0493092
0.0493067
0.0493044
0.0493043
0.0493071
0.0493089
0.0493058
0.0492998
0.0492937
0.0492886
0.049285
0.0492824
0.0492799
0.0492769
0.0492736
0.0492707
0.0492687
0.0492678
0.0492679
0.049269
0.0492709
0.0492736
0.0492771
0.0492814
0.0492863
0.0492917
0.0492977
0.0493041
0.0493107
0.0493176
0.0493244
0.0493312
0.0493377
0.0493439
0.0493495
0.0493545
0.0493586
0.0493618
0.0493638
0.0493647
0.0493644
0.0493626
0.0493585
0.0493518
0.0493423
0.0493305
0.0493172
0.0493032
0.0492892
0.0492759
0.0492634
0.049252
0.0492417
0.0492325
0.0492243
0.049217
0.0492106
0.0492052
0.0492007
0.0491973
0.0491952
0.0491945
0.0491955
0.0491983
0.049203
0.0492097
0.0492181
0.0492282
0.0492394
0.0492513
0.0492628
0.0492713
0.0492698
0.0492463
0.0492035
0.0491741
0.0491831
0.049221
0.0492554
0.0492718
0.0492852
0.0492425
0.0491874
0.0491776
0.049164
0.0491939
0.049246
0.0492848
0.0493024
0.0493089
0.0493114
0.0493128
0.0493138
0.0493146
0.0493151
0.0493155
0.0493156
0.0493155
0.0493151
0.0493144
0.0493133
0.0493119
0.0493104
0.0493094
0.0493084
0.0493059
0.0493013
0.0492955
0.0492898
0.0492849
0.0492808
0.0492773
0.0492741
0.0492709
0.049268
0.0492657
0.0492643
0.0492636
0.0492638
0.0492648
0.0492666
0.0492692
0.0492725
0.0492766
0.0492813
0.0492866
0.0492924
0.0492985
0.0493049
0.0493115
0.049318
0.0493244
0.0493306
0.0493364
0.0493416
0.0493462
0.0493499
0.0493527
0.0493543
0.0493549
0.0493542
0.0493519
0.0493473
0.0493403
0.0493306
0.0493187
0.0493054
0.0492913
0.0492774
0.0492641
0.0492517
0.0492405
0.0492305
0.0492215
0.0492137
0.0492067
0.0492007
0.0491955
0.0491913
0.049188
0.049186
0.0491854
0.0491864
0.0491891
0.0491938
0.0492004
0.0492088
0.049219
0.0492304
0.0492426
0.0492547
0.0492643
0.049265
0.0492446
0.0492026
0.0491686
0.0491715
0.0492071
0.0492435
0.0492636
0.0492868
0.049244
0.0491761
0.0491649
0.0491525
0.0491868
0.049243
0.0492847
0.049304
0.049311
0.0493137
0.0493152
0.0493162
0.049317
0.0493175
0.0493178
0.0493178
0.0493174
0.0493167
0.0493156
0.0493141
0.0493122
0.04931
0.0493076
0.0493045
0.0493003
0.0492951
0.0492894
0.049284
0.0492791
0.0492748
0.0492711
0.0492677
0.0492648
0.0492624
0.0492606
0.0492594
0.0492588
0.049259
0.0492599
0.0492615
0.049264
0.0492672
0.0492711
0.0492757
0.0492808
0.0492864
0.0492923
0.0492984
0.0493046
0.0493108
0.0493169
0.0493227
0.0493282
0.0493331
0.0493373
0.0493407
0.0493432
0.0493446
0.0493449
0.0493438
0.0493409
0.0493358
0.0493283
0.0493184
0.0493063
0.0492928
0.0492788
0.0492649
0.0492516
0.0492395
0.0492285
0.0492187
0.0492102
0.0492027
0.0491961
0.0491904
0.0491855
0.0491815
0.0491784
0.0491765
0.049176
0.049177
0.0491797
0.0491843
0.0491909
0.0491994
0.0492097
0.0492214
0.049234
0.0492467
0.0492574
0.0492599
0.0492423
0.0492016
0.0491642
0.0491619
0.0491952
0.0492333
0.0492564
0.0492904
0.0492457
0.0491657
0.0491534
0.0491417
0.0491798
0.04924
0.0492848
0.0493059
0.0493134
0.0493161
0.0493175
0.0493185
0.0493192
0.0493196
0.0493196
0.0493192
0.0493183
0.0493171
0.0493153
0.049313
0.0493102
0.049307
0.0493032
0.0492989
0.0492939
0.0492884
0.0492828
0.0492775
0.0492726
0.0492684
0.0492647
0.0492616
0.049259
0.0492568
0.0492551
0.049254
0.0492534
0.0492534
0.0492542
0.0492557
0.0492581
0.0492612
0.049265
0.0492695
0.0492744
0.0492798
0.0492855
0.0492913
0.0492972
0.049303
0.0493088
0.0493142
0.0493193
0.049324
0.049328
0.0493312
0.0493334
0.0493347
0.0493347
0.0493332
0.0493297
0.0493241
0.0493161
0.0493057
0.0492934
0.0492798
0.0492657
0.0492518
0.0492388
0.0492268
0.0492161
0.0492067
0.0491985
0.0491914
0.0491852
0.0491799
0.0491753
0.0491715
0.0491686
0.0491668
0.0491664
0.0491674
0.0491701
0.0491747
0.0491814
0.0491901
0.0492007
0.0492127
0.0492258
0.0492391
0.0492507
0.0492549
0.0492395
0.0491999
0.04916
0.0491534
0.0491846
0.049224
0.049251
0.0492938
0.0492463
0.0491564
0.0491431
0.0491317
0.0491731
0.0492372
0.0492853
0.049308
0.0493158
0.0493184
0.0493198
0.0493206
0.0493211
0.0493212
0.0493208
0.0493199
0.0493186
0.0493166
0.0493141
0.0493109
0.0493072
0.0493029
0.0492982
0.049293
0.0492875
0.0492818
0.0492762
0.0492711
0.0492664
0.0492623
0.0492588
0.0492558
0.0492532
0.0492511
0.0492494
0.0492481
0.0492474
0.0492473
0.0492479
0.0492494
0.0492517
0.0492548
0.0492585
0.0492629
0.0492677
0.0492728
0.0492782
0.0492837
0.0492892
0.0492947
0.0493
0.0493051
0.04931
0.0493144
0.0493182
0.0493213
0.0493235
0.0493247
0.0493245
0.0493225
0.0493186
0.0493123
0.0493036
0.0492927
0.0492801
0.0492663
0.0492522
0.0492384
0.0492256
0.0492139
0.0492035
0.0491945
0.0491867
0.04918
0.0491742
0.0491691
0.0491648
0.0491612
0.0491585
0.0491569
0.0491566
0.0491576
0.0491604
0.0491652
0.049172
0.049181
0.0491919
0.0492043
0.049218
0.049232
0.0492445
0.0492499
0.0492362
0.0491973
0.0491552
0.0491449
0.0491742
0.0492144
0.0492456
0.0492968
0.0492458
0.0491482
0.0491338
0.0491225
0.0491668
0.0492349
0.0492863
0.0493104
0.0493183
0.0493208
0.0493219
0.0493225
0.0493226
0.0493223
0.0493215
0.0493202
0.0493183
0.0493156
0.0493123
0.0493083
0.0493037
0.0492987
0.0492932
0.0492874
0.0492815
0.0492757
0.0492702
0.0492652
0.0492606
0.0492566
0.0492532
0.0492501
0.0492475
0.0492452
0.0492432
0.0492418
0.0492409
0.0492406
0.0492412
0.0492427
0.049245
0.0492481
0.0492518
0.049256
0.0492607
0.0492655
0.0492705
0.0492756
0.0492807
0.0492857
0.0492906
0.0492954
0.0493
0.0493043
0.049308
0.0493112
0.0493135
0.0493147
0.0493143
0.0493119
0.0493073
0.0493003
0.0492909
0.0492795
0.0492664
0.0492524
0.0492384
0.0492248
0.0492122
0.0492008
0.0491908
0.0491822
0.0491748
0.0491684
0.0491629
0.0491581
0.049154
0.0491507
0.0491482
0.0491469
0.0491467
0.0491479
0.0491508
0.0491558
0.0491629
0.0491723
0.0491836
0.0491966
0.0492108
0.0492254
0.0492388
0.0492451
0.0492323
0.0491935
0.0491489
0.0491356
0.0491634
0.0492045
0.049241
0.0492995
0.0492454
0.0491409
0.0491254
0.0491141
0.0491612
0.0492332
0.0492877
0.049313
0.0493208
0.049323
0.0493239
0.0493241
0.0493239
0.0493231
0.0493219
0.0493201
0.0493176
0.0493143
0.0493103
0.0493056
0.0493003
0.0492945
0.0492885
0.0492823
0.0492762
0.0492703
0.0492649
0.0492599
0.0492554
0.0492514
0.0492478
0.0492446
0.0492417
0.0492391
0.0492369
0.0492352
0.0492341
0.0492338
0.0492344
0.0492359
0.0492383
0.0492413
0.049245
0.0492491
0.0492534
0.049258
0.0492625
0.0492671
0.0492717
0.0492762
0.0492807
0.0492851
0.0492895
0.0492937
0.0492975
0.0493009
0.0493034
0.0493046
0.049304
0.0493012
0.049296
0.0492882
0.049278
0.0492658
0.0492523
0.0492382
0.0492242
0.0492109
0.0491986
0.0491876
0.0491781
0.0491698
0.0491628
0.0491567
0.0491514
0.0491468
0.049143
0.04914
0.0491379
0.0491368
0.0491369
0.0491383
0.0491415
0.0491468
0.0491543
0.0491641
0.0491759
0.0491895
0.0492043
0.0492196
0.0492336
0.0492404
0.0492278
0.049188
0.0491408
0.0491248
0.0491522
0.0491948
0.049239
0.0493039
0.0492457
0.0491344
0.0491175
0.0491065
0.0491562
0.0492322
0.0492896
0.0493155
0.0493231
0.0493251
0.0493256
0.0493254
0.0493248
0.0493237
0.0493221
0.0493197
0.0493167
0.0493128
0.0493081
0.0493028
0.0492969
0.0492907
0.0492842
0.0492778
0.0492716
0.0492657
0.0492602
0.0492552
0.0492507
0.0492465
0.0492427
0.0492392
0.0492359
0.0492329
0.0492304
0.0492284
0.0492272
0.0492269
0.0492276
0.0492292
0.0492315
0.0492346
0.0492381
0.049242
0.0492461
0.0492502
0.0492543
0.0492583
0.0492623
0.0492662
0.0492702
0.0492743
0.0492785
0.0492827
0.0492867
0.0492904
0.0492932
0.0492944
0.0492937
0.0492905
0.0492845
0.0492758
0.0492647
0.0492518
0.0492379
0.0492237
0.0492098
0.0491967
0.0491849
0.0491743
0.0491652
0.0491573
0.0491505
0.0491447
0.0491396
0.0491353
0.0491317
0.0491291
0.0491274
0.0491269
0.0491274
0.0491292
0.0491327
0.0491384
0.0491464
0.0491567
0.0491691
0.0491832
0.0491986
0.0492145
0.049229
0.0492359
0.0492226
0.0491806
0.0491301
0.0491123
0.0491407
0.0491857
0.0492426
0.0493121
0.0492466
0.0491284
0.04911
0.0490996
0.049152
0.0492317
0.0492916
0.0493178
0.049325
0.0493267
0.0493269
0.0493264
0.0493255
0.049324
0.049322
0.0493192
0.0493156
0.0493112
0.049306
0.0493002
0.0492939
0.0492873
0.0492806
0.049274
0.0492677
0.0492617
0.0492562
0.0492511
0.0492464
0.0492419
0.0492377
0.0492338
0.0492301
0.0492267
0.0492239
0.0492218
0.0492205
0.0492202
0.0492209
0.0492225
0.0492249
0.0492279
0.0492314
0.049235
0.0492388
0.0492424
0.0492459
0.0492492
0.0492525
0.0492559
0.0492594
0.0492631
0.0492671
0.0492714
0.0492758
0.0492798
0.0492829
0.0492843
0.0492834
0.0492797
0.0492729
0.0492631
0.0492511
0.0492375
0.0492232
0.0492088
0.0491951
0.0491824
0.049171
0.0491609
0.0491521
0.0491445
0.049138
0.0491323
0.0491275
0.0491233
0.0491201
0.049118
0.049117
0.0491171
0.0491182
0.0491206
0.0491247
0.0491309
0.0491394
0.0491503
0.0491632
0.0491779
0.0491938
0.0492102
0.0492249
0.0492314
0.0492163
0.0491708
0.0491164
0.0490979
0.0491293
0.0491783
0.0492545
0.0493235
0.0492476
0.0491227
0.0491027
0.0490933
0.0491483
0.0492317
0.0492937
0.0493197
0.0493266
0.0493281
0.049328
0.0493272
0.049326
0.0493242
0.0493218
0.0493186
0.0493145
0.0493097
0.0493041
0.0492979
0.0492913
0.0492844
0.0492775
0.0492708
0.0492644
0.0492583
0.0492527
0.0492474
0.0492424
0.0492376
0.049233
0.0492285
0.0492244
0.0492207
0.0492176
0.0492153
0.0492139
0.0492136
0.0492144
0.049216
0.0492184
0.0492214
0.0492248
0.0492282
0.0492315
0.0492347
0.0492375
0.0492401
0.0492426
0.0492453
0.0492482
0.0492516
0.0492556
0.04926
0.0492648
0.0492693
0.0492727
0.0492742
0.0492731
0.0492688
0.049261
0.0492502
0.0492371
0.0492228
0.0492081
0.0491937
0.0491802
0.0491679
0.0491569
0.0491472
0.0491387
0.0491314
0.049125
0.0491195
0.0491148
0.049111
0.0491082
0.0491068
0.0491068
0.0491078
0.0491097
0.0491129
0.0491177
0.0491245
0.0491336
0.049145
0.0491585
0.0491737
0.04919
0.0492067
0.0492213
0.0492267
0.0492084
0.0491576
0.0490981
0.0490832
0.0491187
0.0491746
0.0492709
0.0493334
0.0492476
0.0491172
0.0490956
0.0490872
0.0491449
0.0492319
0.0492953
0.0493211
0.0493279
0.0493292
0.0493289
0.0493279
0.0493264
0.0493243
0.0493215
0.0493179
0.0493135
0.0493083
0.0493025
0.049296
0.0492891
0.049282
0.049275
0.0492682
0.0492616
0.0492555
0.0492497
0.0492441
0.0492388
0.0492335
0.0492285
0.0492236
0.049219
0.0492149
0.0492116
0.0492091
0.0492076
0.0492073
0.049208
0.0492097
0.0492122
0.0492152
0.0492185
0.0492217
0.0492247
0.0492272
0.0492293
0.0492311
0.0492328
0.0492347
0.0492371
0.0492401
0.0492439
0.0492487
0.0492539
0.0492588
0.0492626
0.0492644
0.049263
0.0492579
0.049249
0.0492369
0.0492228
0.0492078
0.0491928
0.0491784
0.0491651
0.0491532
0.0491425
0.0491331
0.0491249
0.0491177
0.0491114
0.0491061
0.0491016
0.0490982
0.0490961
0.0490956
0.0490967
0.0490991
0.0491023
0.0491064
0.049112
0.0491194
0.0491292
0.0491411
0.049155
0.0491705
0.0491872
0.0492039
0.0492181
0.0492214
0.049198
0.0491362
0.0490779
0.0490691
0.0491103
0.0491759
0.0492865
0.0493373
0.0492466
0.0491118
0.0490888
0.0490812
0.0491414
0.0492316
0.0492962
0.0493218
0.0493286
0.04933
0.0493295
0.0493284
0.0493266
0.0493242
0.0493211
0.0493173
0.0493126
0.0493072
0.049301
0.0492943
0.0492873
0.0492801
0.049273
0.0492661
0.0492594
0.0492531
0.0492471
0.0492412
0.0492355
0.0492298
0.0492243
0.0492189
0.0492139
0.0492095
0.0492059
0.0492032
0.0492017
0.0492012
0.049202
0.0492037
0.0492062
0.0492093
0.0492126
0.0492157
0.0492183
0.0492203
0.0492216
0.0492225
0.0492233
0.0492244
0.0492261
0.0492287
0.0492326
0.0492376
0.0492432
0.0492487
0.0492529
0.0492548
0.049253
0.049247
0.0492368
0.0492234
0.0492083
0.0491927
0.0491774
0.049163
0.0491499
0.0491382
0.0491278
0.0491185
0.0491104
0.0491033
0.0490972
0.049092
0.0490879
0.0490849
0.0490837
0.0490846
0.0490873
0.0490914
0.0490961
0.0491014
0.0491078
0.049116
0.0491262
0.0491386
0.0491528
0.0491685
0.0491852
0.0492018
0.049215
0.0492148
0.0491782
0.0491109
0.0490573
0.0490565
0.0491052
0.0491819
0.0492971
0.0493356
0.0492447
0.0491065
0.0490825
0.0490751
0.049137
0.0492303
0.0492961
0.0493218
0.0493289
0.0493304
0.0493299
0.0493286
0.0493267
0.0493241
0.0493208
0.0493168
0.0493119
0.0493062
0.0492999
0.0492931
0.0492859
0.0492786
0.0492714
0.0492644
0.0492577
0.0492512
0.0492449
0.0492388
0.0492326
0.0492265
0.0492205
0.0492147
0.0492094
0.0492046
0.0492007
0.0491978
0.049196
0.0491955
0.0491962
0.049198
0.0492007
0.0492039
0.0492073
0.0492103
0.0492126
0.049214
0.0492145
0.0492145
0.0492143
0.0492145
0.0492155
0.0492178
0.0492216
0.0492269
0.049233
0.049239
0.0492437
0.0492457
0.0492434
0.0492361
0.0492245
0.0492098
0.0491937
0.0491774
0.0491619
0.0491475
0.0491346
0.0491229
0.0491126
0.0491034
0.0490954
0.0490883
0.0490823
0.0490774
0.0490737
0.0490714
0.0490713
0.0490738
0.0490788
0.049085
0.0490916
0.0490982
0.0491055
0.0491143
0.0491249
0.0491375
0.0491519
0.0491676
0.0491841
0.0492002
0.0492115
0.0492007
0.0491521
0.0490834
0.0490377
0.0490468
0.0491042
0.049191
0.0493045
0.0493315
0.0492419
0.0491017
0.0490771
0.0490685
0.0491309
0.0492273
0.0492945
0.0493208
0.0493286
0.0493304
0.0493301
0.0493288
0.0493268
0.0493241
0.0493206
0.0493164
0.0493114
0.0493056
0.0492991
0.0492922
0.0492849
0.0492776
0.0492703
0.0492632
0.0492564
0.0492497
0.0492432
0.0492367
0.0492302
0.0492237
0.0492173
0.0492111
0.0492053
0.0492002
0.0491959
0.0491927
0.0491908
0.0491901
0.0491907
0.0491926
0.0491956
0.0491991
0.0492027
0.0492058
0.0492078
0.0492086
0.0492083
0.0492073
0.0492061
0.0492053
0.0492056
0.0492075
0.0492113
0.0492168
0.0492233
0.04923
0.0492352
0.0492371
0.049234
0.0492254
0.0492122
0.0491962
0.0491791
0.0491623
0.0491465
0.0491321
0.0491191
0.0491074
0.049097
0.0490878
0.0490798
0.0490729
0.0490671
0.0490625
0.0490592
0.0490579
0.0490592
0.0490637
0.0490714
0.0490803
0.0490888
0.0490968
0.049105
0.0491144
0.0491253
0.0491379
0.0491521
0.0491675
0.0491836
0.0491987
0.0492034
0.0491788
0.0491211
0.0490553
0.0490205
0.0490407
0.0491071
0.0492008
0.0493099
0.0493262
0.049238
0.0490976
0.0490729
0.0490622
0.0491213
0.0492213
0.0492911
0.0493189
0.0493278
0.0493302
0.0493302
0.049329
0.049327
0.0493242
0.0493206
0.0493163
0.0493111
0.0493052
0.0492986
0.0492916
0.0492842
0.0492768
0.0492695
0.0492624
0.0492554
0.0492486
0.0492419
0.0492351
0.0492283
0.0492215
0.0492147
0.0492081
0.049202
0.0491965
0.0491918
0.0491883
0.049186
0.0491851
0.0491857
0.0491877
0.049191
0.049195
0.049199
0.0492022
0.049204
0.0492042
0.049203
0.0492009
0.0491986
0.0491969
0.0491965
0.049198
0.0492017
0.0492075
0.0492146
0.0492219
0.0492275
0.0492293
0.0492252
0.049215
0.0492001
0.0491827
0.0491647
0.0491474
0.0491313
0.0491167
0.0491035
0.0490917
0.0490812
0.049072
0.0490641
0.0490573
0.0490518
0.0490476
0.049045
0.0490445
0.0490475
0.0490549
0.0490658
0.0490775
0.0490879
0.0490973
0.0491065
0.0491163
0.0491273
0.0491396
0.0491533
0.0491681
0.0491835
0.0491946
0.0491876
0.0491495
0.0490873
0.0490287
0.049007
0.0490392
0.0491138
0.0492101
0.0493112
0.0493201
0.049233
0.0490948
0.0490704
0.0490577
0.049109
0.0492067
0.0492844
0.0493156
0.0493264
0.0493298
0.0493302
0.0493293
0.0493273
0.0493245
0.0493209
0.0493164
0.0493111
0.0493051
0.0492984
0.0492913
0.0492839
0.0492764
0.0492691
0.0492619
0.0492548
0.0492479
0.049241
0.0492341
0.049227
0.0492199
0.0492128
0.0492059
0.0491994
0.0491935
0.0491885
0.0491846
0.049182
0.0491808
0.0491813
0.0491835
0.0491873
0.0491919
0.0491963
0.0491996
0.0492012
0.0492008
0.0491987
0.0491956
0.0491922
0.0491895
0.0491884
0.0491896
0.0491932
0.0491992
0.0492069
0.0492148
0.0492209
0.0492222
0.0492169
0.0492049
0.0491882
0.0491694
0.0491506
0.0491328
0.0491164
0.0491014
0.0490879
0.0490759
0.0490654
0.0490564
0.0490487
0.0490424
0.0490372
0.0490334
0.0490314
0.049032
0.0490368
0.0490476
0.0490623
0.0490767
0.0490889
0.0490996
0.0491098
0.0491199
0.0491306
0.0491423
0.0491551
0.0491691
0.0491817
0.049184
0.0491629
0.0491147
0.0490533
0.0490055
0.0489985
0.0490427
0.0491239
0.0492188
0.0493117
0.0493134
0.0492271
0.0490936
0.0490701
0.0490557
0.0490973
0.0491831
0.0492667
0.0493093
0.049324
0.0493291
0.0493303
0.0493297
0.0493279
0.0493251
0.0493214
0.0493168
0.0493114
0.0493053
0.0492985
0.0492913
0.0492838
0.0492763
0.0492689
0.0492617
0.0492546
0.0492476
0.0492406
0.0492335
0.0492263
0.049219
0.0492117
0.0492046
0.0491978
0.0491917
0.0491863
0.049182
0.049179
0.0491775
0.0491779
0.0491803
0.0491846
0.0491898
0.0491947
0.0491982
0.0491995
0.0491985
0.0491954
0.0491912
0.0491867
0.0491832
0.0491815
0.0491822
0.0491858
0.0491921
0.0492004
0.0492091
0.0492154
0.0492162
0.0492092
0.0491952
0.0491767
0.0491567
0.0491371
0.0491187
0.0491017
0.0490862
0.0490724
0.0490604
0.0490502
0.0490417
0.0490346
0.0490288
0.0490241
0.0490207
0.049019
0.0490206
0.049028
0.049043
0.0490614
0.0490778
0.0490916
0.0491037
0.0491148
0.049125
0.049135
0.0491455
0.049157
0.0491684
0.0491743
0.0491642
0.0491305
0.0490773
0.0490215
0.0489872
0.0489956
0.0490513
0.0491368
0.0492267
0.0493122
0.0493066
0.0492206
0.0490945
0.0490721
0.0490563
0.0490875
0.0491587
0.0492342
0.0492914
0.0493183
0.0493277
0.0493304
0.0493304
0.0493289
0.0493262
0.0493224
0.0493177
0.0493121
0.0493058
0.0492989
0.0492916
0.0492841
0.0492765
0.0492691
0.0492618
0.0492547
0.0492477
0.0492407
0.0492336
0.0492263
0.049219
0.0492116
0.0492044
0.0491975
0.0491911
0.0491854
0.0491808
0.0491775
0.0491758
0.049176
0.0491787
0.0491834
0.0491892
0.0491944
0.0491979
0.0491989
0.0491971
0.0491931
0.0491879
0.0491826
0.0491782
0.0491758
0.0491761
0.0491797
0.0491865
0.0491955
0.0492048
0.0492113
0.0492111
0.0492023
0.049186
0.0491657
0.0491445
0.0491241
0.049105
0.0490874
0.0490714
0.0490575
0.0490458
0.0490364
0.0490289
0.0490228
0.0490178
0.0490136
0.0490103
0.0490088
0.0490111
0.0490218
0.049042
0.0490634
0.0490809
0.0490959
0.0491094
0.0491212
0.0491311
0.0491397
0.0491482
0.0491568
0.0491625
0.049158
0.0491354
0.0490932
0.0490403
0.0489939
0.0489749
0.0489986
0.0490644
0.0491515
0.0492331
0.0493129
0.0492998
0.0492134
0.0490978
0.0490763
0.0490599
0.0490809
0.0491363
0.0492003
0.0492554
0.0492991
0.0493227
0.0493302
0.0493315
0.0493303
0.0493277
0.0493239
0.049319
0.0493132
0.0493067
0.0492996
0.0492922
0.0492845
0.0492769
0.0492694
0.0492622
0.0492551
0.0492481
0.0492412
0.0492341
0.049227
0.0492197
0.0492124
0.0492053
0.0491985
0.0491921
0.0491864
0.0491817
0.0491784
0.0491764
0.0491764
0.0491792
0.0491842
0.0491901
0.0491954
0.0491987
0.0491991
0.0491967
0.0491919
0.0491859
0.0491797
0.0491745
0.0491714
0.0491715
0.0491751
0.0491824
0.0491922
0.0492022
0.0492086
0.0492072
0.0491961
0.0491774
0.0491554
0.0491331
0.0491118
0.0490919
0.0490735
0.0490573
0.0490437
0.049033
0.049025
0.0490191
0.0490145
0.0490105
0.0490066
0.049003
0.0490012
0.0490043
0.0490193
0.0490453
0.0490683
0.0490858
0.0491016
0.0491164
0.0491284
0.0491369
0.0491427
0.0491476
0.0491509
0.0491481
0.0491323
0.0491
0.0490542
0.0490061
0.048972
0.0489689
0.0490071
0.0490808
0.0491667
0.0492379
0.0493136
0.049293
0.0492056
0.0491037
0.0490825
0.0490661
0.0490778
0.0491177
0.0491685
0.0492174
0.0492609
0.0492996
0.0493254
0.0493324
0.0493322
0.0493298
0.0493258
0.0493207
0.0493147
0.0493079
0.0493006
0.049293
0.0492852
0.0492775
0.04927
0.0492628
0.0492557
0.0492489
0.049242
0.0492352
0.0492282
0.0492212
0.0492142
0.0492074
0.0492008
0.0491948
0.0491895
0.0491851
0.049182
0.0491799
0.0491799
0.0491825
0.0491872
0.0491928
0.0491978
0.0492007
0.0492006
0.0491975
0.0491919
0.0491849
0.0491779
0.049172
0.0491684
0.0491683
0.0491722
0.0491801
0.0491908
0.0492014
0.0492075
0.0492044
0.0491907
0.0491696
0.0491459
0.0491225
0.0491002
0.0490793
0.0490603
0.0490442
0.0490317
0.0490228
0.0490171
0.0490135
0.0490108
0.0490078
0.0490039
0.0489998
0.048997
0.049001
0.0490221
0.0490538
0.0490757
0.0490921
0.0491089
0.0491241
0.0491346
0.0491391
0.0491405
0.0491403
0.0491365
0.0491243
0.0490992
0.0490613
0.0490166
0.0489767
0.0489565
0.0489692
0.04902
0.0490986
0.0491816
0.0492525
0.0493134
0.0492857
0.049197
0.0491128
0.0490912
0.0490752
0.0490788
0.049104
0.0491411
0.0491813
0.0492209
0.0492597
0.0492971
0.0493268
0.049334
0.0493323
0.0493284
0.049323
0.0493167
0.0493096
0.049302
0.0492941
0.0492862
0.0492784
0.0492709
0.0492636
0.0492566
0.0492499
0.0492433
0.0492367
0.04923
0.0492234
0.0492167
0.0492103
0.0492043
0.0491989
0.0491942
0.0491907
0.0491882
0.0491863
0.0491862
0.0491884
0.0491925
0.0491975
0.0492019
0.0492041
0.0492033
0.0491993
0.0491929
0.0491851
0.0491772
0.0491707
0.0491668
0.0491667
0.0491711
0.0491798
0.0491914
0.0492026
0.0492081
0.0492028
0.0491861
0.0491627
0.0491375
0.0491129
0.0490893
0.0490673
0.0490481
0.0490329
0.0490224
0.0490163
0.0490136
0.0490129
0.0490122
0.0490102
0.0490062
0.0490015
0.0489987
0.0490085
0.0490327
0.0490646
0.0490845
0.0491
0.0491174
0.0491302
0.0491346
0.0491337
0.0491304
0.0491245
0.0491133
0.0490929
0.0490618
0.0490225
0.0489827
0.0489536
0.0489479
0.0489751
0.0490357
0.0491157
0.0491923
0.0492578
0.0493115
0.0492777
0.0491884
0.0491268
0.0491081
0.0490904
0.0490853
0.0490967
0.04912
0.0491499
0.0491832
0.0492187
0.0492563
0.0492947
0.049325
0.0493345
0.0493313
0.0493258
0.0493191
0.0493116
0.0493037
0.0492956
0.0492875
0.0492796
0.049272
0.0492647
0.0492578
0.0492512
0.0492448
0.0492384
0.0492321
0.0492258
0.0492196
0.0492137
0.0492083
0.0492037
0.0492
0.0491975
0.0491956
0.0491943
0.0491943
0.0491961
0.0491996
0.0492038
0.0492074
0.0492088
0.049207
0.0492021
0.0491947
0.0491861
0.0491777
0.0491708
0.0491668
0.0491669
0.0491719
0.0491815
0.0491941
0.0492057
0.0492102
0.0492023
0.0491825
0.0491567
0.04913
0.0491041
0.0490791
0.0490563
0.0490376
0.0490243
0.0490168
0.0490143
0.0490152
0.0490175
0.0490188
0.0490176
0.0490135
0.0490092
0.0490108
0.0490231
0.0490479
0.0490773
0.0490954
0.0491097
0.0491225
0.0491271
0.049125
0.0491196
0.0491119
0.0491006
0.049083
0.0490571
0.0490236
0.0489867
0.0489546
0.0489375
0.0489459
0.0489855
0.0490525
0.0491303
0.0491989
0.0492601
0.0493084
0.0492695
0.0491803
0.0491504
0.0491604
0.0491243
0.0491044
0.0491001
0.0491083
0.0491261
0.0491508
0.0491807
0.0492151
0.0492532
0.049292
0.049322
0.0493324
0.0493288
0.0493219
0.0493142
0.0493059
0.0492976
0.0492893
0.0492812
0.0492735
0.0492662
0.0492593
0.0492528
0.0492465
0.0492404
0.0492344
0.0492285
0.0492228
0.0492175
0.0492127
0.0492088
0.049206
0.0492042
0.049203
0.0492024
0.0492027
0.0492045
0.0492077
0.0492113
0.049214
0.0492143
0.0492114
0.0492055
0.0491973