/*--------------------------------*- C++ -*----------------------------------*\
| =========                 |                                                 |
| \\      /  F ield         | OpenFOAM: The Open Source CFD Toolbox           |
|  \\    /   O peration     | Version:  4.1                                   |
|   \\  /    A nd           | Web:      www.OpenFOAM.org                      |
|    \\/     M anipulation  |                                                 |
\*---------------------------------------------------------------------------*/
FoamFile
{
    version     2.0;
    format      ascii;
    class       volVectorField;
    location    "340";
    object      U;
}
// * * * * * * * * * * * * * * * * * * * * * * * * * * * * * * * * * * * * * //

dimensions      [0 1 -1 0 0 0 0];

internalField   nonuniform List<vector> 
5000
(
(-0.00169299 0.000468456 0)
(-0.00086726 -0.00169271 0)
(-0.000144708 -2.32396e-05 0)
(-0.00446359 0.00236675 0)
(-0.00812231 0.00147641 0)
(-0.00883018 4.16647e-05 0)
(-0.00815216 -0.00065922 0)
(-0.00699438 -0.000799878 0)
(-0.00585509 -0.000666173 0)
(-0.00490764 -0.000494513 0)
(-0.00414585 -0.000383182 0)
(-0.0034859 -0.000345304 0)
(-0.00284001 -0.000359957 0)
(-0.00214169 -0.000407561 0)
(-0.0013359 -0.000487292 0)
(-0.000385801 -0.000613128 0)
(0.000764814 -0.000795177 0)
(0.00214552 -0.000967529 0)
(0.00346319 -0.00101925 0)
(0.00442356 -0.000863977 0)
(0.0043863 -0.000140684 0)
(0.00279712 0.00166462 0)
(-0.00486024 0.00310904 0)
(-0.00766008 0.000645886 0)
(-0.00708233 -0.0010866 0)
(-0.0052543 -0.00185712 0)
(-0.00355218 -0.00167728 0)
(-0.00270831 -0.000686045 0)
(-0.00380588 0.000935898 0)
(-0.00722695 0.00204243 0)
(-0.0105173 0.00162411 0)
(-0.0122017 0.000654159 0)
(-0.0124963 -5.24836e-05 0)
(-0.012046 -0.000351907 0)
(-0.0114479 -0.000345542 0)
(-0.0110186 -0.000208129 0)
(-0.0108204 -8.19431e-05 0)
(-0.0107845 -1.70613e-05 0)
(-0.0108126 -3.13401e-06 0)
(-0.0108355 -1.4737e-05 0)
(-0.0108213 -3.53694e-05 0)
(-0.0107559 -5.92434e-05 0)
(-0.0106325 -8.58258e-05 0)
(-0.0104468 -0.000115405 0)
(-0.0101955 -0.000147892 0)
(-0.00987608 -0.00018292 0)
(-0.00948718 -0.00022006 0)
(-0.00902785 -0.00025899 0)
(-0.00849738 -0.00029959 0)
(-0.00789501 -0.000341985 0)
(-0.00721938 -0.000386591 0)
(-0.00646789 -0.000434208 0)
(-0.00563604 -0.000486221 0)
(-0.00471757 -0.000544622 0)
(-0.0037071 -0.000610764 0)
(-0.00260935 -0.000681632 0)
(-0.00144703 -0.000741282 0)
(-2.45825e-05 -0.000744167 0)
(0.00128483 -0.000772762 0)
(0.00268102 -0.000821144 0)
(0.00416159 -0.000829966 0)
(0.00563435 -0.000798826 0)
(0.00703453 -0.0007397 0)
(0.00832033 -0.000664757 0)
(0.00946998 -0.00058452 0)
(0.0104794 -0.000507253 0)
(0.0113579 -0.000438634 0)
(0.0121239 -0.000381815 0)
(0.0127997 -0.000337736 0)
(0.0134082 -0.000305519 0)
(0.0139695 -0.000282866 0)
(0.0144989 -0.000266455 0)
(0.0150053 -0.000252374 0)
(0.0154901 -0.000236599 0)
(0.0159479 -0.000215505 0)
(0.0163668 -0.000186335 0)
(0.016731 -0.000147575 0)
(0.0170222 -9.92189e-05 0)
(0.0172231 -4.30544e-05 0)
(0.0173197 1.69264e-05 0)
(0.0173077 7.63658e-05 0)
(0.0171832 0.000134165 0)
(0.016945 0.000190267 0)
(0.0165942 0.000244299 0)
(0.0161342 0.000295926 0)
(0.0155688 0.000345878 0)
(0.0148998 0.000397381 0)
(0.0141196 0.000459929 0)
(0.0131956 0.000562298 0)
(0.0120266 0.000801244 0)
(0.0103649 0.00147297 0)
(0.00764322 0.00293848 0)
(0.0011894 0.002698 0)
(-0.00241982 0.000340561 0)
(-0.00273062 -0.000349882 0)
(-0.00240521 -0.000570655 0)
(-0.00173081 -0.000955338 0)
(-0.000173519 -0.00181272 0)
(0.00181464 -0.00128898 0)
(0.00258788 0.0011749 0)
(-0.00114786 0.00209789 0)
(-0.00130728 -0.000729917 0)
(-0.00424667 0.00368877 0)
(-0.00644526 0.00469183 0)
(-0.00824403 0.00266625 0)
(-0.00846185 5.27514e-05 0)
(-0.00794574 -0.00138677 0)
(-0.00726645 -0.00165495 0)
(-0.00656744 -0.00146427 0)
(-0.00585826 -0.00122719 0)
(-0.00515608 -0.00107192 0)
(-0.00446917 -0.00101767 0)
(-0.00379044 -0.00105139 0)
(-0.00309154 -0.00116166 0)
(-0.00233095 -0.00135191 0)
(-0.00147746 -0.0016276 0)
(-0.000545812 -0.0019469 0)
(0.000374184 -0.0021524 0)
(0.000996337 -0.00194385 0)
(0.00118012 -0.00101857 0)
(-0.000662165 0.00267494 0)
(-0.00237411 0.00596941 0)
(-0.00549821 0.00559509 0)
(-0.00676191 0.00178193 0)
(-0.00631353 -0.00151568 0)
(-0.0058049 -0.00251913 0)
(-0.00594612 -0.00133261 0)
(-0.00686303 0.00110588 0)
(-0.00803658 0.00335681 0)
(-0.00933818 0.00402438 0)
(-0.0107092 0.00300205 0)
(-0.011453 0.00122986 0)
(-0.0115689 -0.000194964 0)
(-0.0114189 -0.0007813 0)
(-0.0113056 -0.00070488 0)
(-0.0112805 -0.000398344 0)
(-0.0113114 -0.000131371 0)
(-0.0113732 1.48626e-05 0)
(-0.011442 5.42249e-05 0)
(-0.0114919 2.54293e-05 0)
(-0.0115028 -3.81384e-05 0)
(-0.0114576 -0.000120315 0)
(-0.0113438 -0.000213689 0)
(-0.0111558 -0.000314 0)
(-0.0108915 -0.000418396 0)
(-0.0105511 -0.000524943 0)
(-0.0101352 -0.000632464 0)
(-0.00964504 -0.000740438 0)
(-0.00908131 -0.000848922 0)
(-0.00844448 -0.000958496 0)
(-0.00773441 -0.00107028 0)
(-0.00695014 -0.00118606 0)
(-0.00608963 -0.00130865 0)
(-0.00514979 -0.0014422 0)
(-0.0041285 -0.00159163 0)
(-0.00303063 -0.00175884 0)
(-0.00186757 -0.00192704 0)
(-0.0005186 -0.00201462 0)
(0.000989463 -0.00210286 0)
(0.00243583 -0.00221316 0)
(0.00398648 -0.00223977 0)
(0.00553012 -0.00216764 0)
(0.00699764 -0.00202149 0)
(0.00834777 -0.00183152 0)
(0.00955861 -0.00162516 0)
(0.0106258 -0.00142438 0)
(0.0115587 -0.00124457 0)
(0.0123757 -0.00109462 0)
(0.0130992 -0.000977712 0)
(0.0137525 -0.000892301 0)
(0.0143562 -0.000833107 0)
(0.014927 -0.000792058 0)
(0.0154754 -0.000759307 0)
(0.0160054 -0.000724414 0)
(0.0165141 -0.00067764 0)
(0.0169922 -0.000611178 0)
(0.0174261 -0.000520134 0)
(0.0177995 -0.000403145 0)
(0.0180956 -0.000262751 0)
(0.0182994 -0.000105012 0)
(0.0183905 6.34205e-05 0)
(0.0183556 0.00023722 0)
(0.0181896 0.000412365 0)
(0.0178909 0.000585026 0)
(0.01746 0.000752915 0)
(0.0168988 0.000917488 0)
(0.016206 0.00108759 0)
(0.0153709 0.00128791 0)
(0.0143623 0.00158247 0)
(0.013111 0.00214035 0)
(0.0115236 0.00333248 0)
(0.00948662 0.00539383 0)
(0.0060603 0.00656262 0)
(0.00249093 0.00440142 0)
(-0.000974144 0.000142964 0)
(-0.00122729 -0.000557697 0)
(-0.000976884 -0.00123157 0)
(-0.000382857 -0.00257589 0)
(0.000685073 -0.00235405 0)
(0.00204666 0.00322106 0)
(-0.000690169 0.00335929 0)
(-0.00239106 0.00193505 0)
(-0.00508329 0.00587628 0)
(-0.00651265 0.00622553 0)
(-0.00737819 0.0034493 0)
(-0.00727163 5.49148e-05 0)
(-0.00692948 -0.00180753 0)
(-0.00656992 -0.00220936 0)
(-0.00611026 -0.00207281 0)
(-0.00559494 -0.00185467 0)
(-0.00506966 -0.00169243 0)
(-0.00455983 -0.00161756 0)
(-0.00407527 -0.00163551 0)
(-0.00361325 -0.00175009 0)
(-0.00316707 -0.00196394 0)
(-0.00274466 -0.00225408 0)
(-0.00240389 -0.00250794 0)
(-0.00230051 -0.00241552 0)
(-0.00271394 -0.00139219 0)
(-0.00386183 0.00115596 0)
(-0.00469535 0.0046357 0)
(-0.00492455 0.00746837 0)
(-0.00569316 0.00678263 0)
(-0.00593188 0.00236733 0)
(-0.00577188 -0.00152161 0)
(-0.00651403 -0.00213821 0)
(-0.00771429 -0.000408725 0)
(-0.00876288 0.0021179 0)
(-0.00927721 0.00418916 0)
(-0.00956183 0.00482054 0)
(-0.0097847 0.00367178 0)
(-0.00986981 0.001623 0)
(-0.0100099 -1.06129e-06 0)
(-0.0104352 -0.000595485 0)
(-0.0109668 -0.000472741 0)
(-0.0114107 -0.000171188 0)
(-0.0117328 5.54327e-05 0)
(-0.0119407 0.000150503 0)
(-0.0120603 0.000139725 0)
(-0.0121079 5.71368e-05 0)
(-0.0120855 -7.02326e-05 0)
(-0.0119918 -0.000225047 0)
(-0.0118265 -0.000395069 0)
(-0.01159 -0.000572573 0)
(-0.0112833 -0.000753148 0)
(-0.010907 -0.000934423 0)
(-0.0104617 -0.00111531 0)
(-0.00994763 -0.00129555 0)
(-0.00936505 -0.00147549 0)
(-0.00871389 -0.00165601 0)
(-0.00799394 -0.00183852 0)
(-0.00720474 -0.00202507 0)
(-0.00634554 -0.00221865 0)
(-0.00541541 -0.0024236 0)
(-0.00441403 -0.00264573 0)
(-0.00334238 -0.00288982 0)
(-0.00220591 -0.00314811 0)
(-0.00103863 -0.00338085 0)
(0.000520394 -0.00361092 0)
(0.00197708 -0.00379202 0)
(0.00354054 -0.00383433 0)
(0.00511121 -0.00371321 0)
(0.00660239 -0.00346453 0)
(0.007967 -0.00313878 0)
(0.00917968 -0.00278382 0)
(0.0102344 -0.00243825 0)
(0.0111411 -0.00212898 0)
(0.0119206 -0.00187139 0)
(0.0125988 -0.00167098 0)
(0.0132026 -0.00152528 0)
(0.0137564 -0.00142556 0)
(0.0142801 -0.00135846 0)
(0.0147868 -0.00130755 0)
(0.0152821 -0.00125524 0)
(0.0157637 -0.001185 0)
(0.0162225 -0.00108341 0)
(0.0166441 -0.000941822 0)
(0.0170113 -0.000757141 0)
(0.0173056 -0.000531762 0)
(0.0175093 -0.000272053 0)
(0.0176081 1.46096e-05 0)
(0.0175866 0.00031904 0)
(0.0174372 0.000631493 0)
(0.0171552 0.000943001 0)
(0.0167392 0.00124837 0)
(0.016191 0.00154875 0)
(0.0155129 0.00185693 0)
(0.0147057 0.00220815 0)
(0.0137669 0.00268711 0)
(0.0126935 0.00349707 0)
(0.0114964 0.00504477 0)
(0.0101459 0.00751413 0)
(0.0081142 0.00924984 0)
(0.0057178 0.00800154 0)
(0.00223825 0.00355772 0)
(-0.000678068 -0.000406147 0)
(-0.000760431 -0.00151875 0)
(-0.000300408 -0.00324797 0)
(0.000183588 -0.00362777 0)
(0.0016859 0.0046429 0)
(-0.000524237 0.0046735 0)
(-0.00270327 0.00452703 0)
(-0.00487061 0.0074765 0)
(-0.00595174 0.00713665 0)
(-0.00644608 0.00374244 0)
(-0.00633806 -4.39125e-05 0)
(-0.00616119 -0.00204616 0)
(-0.00595889 -0.00255244 0)
(-0.0056538 -0.0024825 0)
(-0.00529337 -0.00228899 0)
(-0.00492582 -0.0021192 0)
(-0.00458392 -0.00201295 0)
(-0.00429198 -0.00198314 0)
(-0.00407149 -0.00203687 0)
(-0.00394924 -0.00216903 0)
(-0.00396949 -0.00232963 0)
(-0.00420965 -0.00235958 0)
(-0.00477162 -0.00192544 0)
(-0.00564213 -0.000591534 0)
(-0.00645705 0.00182814 0)
(-0.00658527 0.0048941 0)
(-0.0061181 0.00729503 0)
(-0.00564356 0.0066124 0)
(-0.00528106 0.00248627 0)
(-0.00562162 -0.000868851 0)
(-0.00710242 -0.000926327 0)
(-0.00853619 0.000768072 0)
(-0.00935603 0.00275002 0)
(-0.00954615 0.00428124 0)
(-0.0093743 0.00467666 0)
(-0.00916574 0.00359498 0)
(-0.00921833 0.0018138 0)
(-0.00973503 0.00055657 0)
(-0.0105491 0.000166375 0)
(-0.0113048 0.000210449 0)
(-0.0118575 0.000320504 0)
(-0.0122131 0.00036364 0)
(-0.0124222 0.000323609 0)
(-0.0125216 0.000211534 0)
(-0.0125331 4.6488e-05 0)
(-0.0124678 -0.000155088 0)
(-0.0123317 -0.000379308 0)
(-0.0121291 -0.00061612 0)
(-0.0118612 -0.000859339 0)
(-0.0115281 -0.00110541 0)
(-0.0111293 -0.00135243 0)
(-0.0106643 -0.00159951 0)
(-0.0101326 -0.00184643 0)
(-0.009534 -0.00209349 0)
(-0.00886845 -0.00234151 0)
(-0.00813615 -0.00259179 0)
(-0.00733748 -0.00284631 0)
(-0.006473 -0.00310787 0)
(-0.00554354 -0.00338037 0)
(-0.00454999 -0.00366883 0)
(-0.00349246 -0.00397836 0)
(-0.00237583 -0.00431152 0)
(-0.00124131 -0.00466616 0)
(0.000159771 -0.0050562 0)
(0.0016517 -0.00536496 0)
(0.00317498 -0.00542414 0)
(0.00473867 -0.00525414 0)
(0.00623551 -0.00489829 0)
(0.00760831 -0.00442544 0)
(0.00882395 -0.00390602 0)
(0.00987068 -0.00339851 0)
(0.0107561 -0.00294405 0)
(0.0115013 -0.00256646 0)
(0.012135 -0.00227458 0)
(0.0126875 -0.00206528 0)
(0.0131876 -0.00192614 0)
(0.0136585 -0.00183774 0)
(0.0141165 -0.00177602 0)
(0.0145688 -0.00171505 0)
(0.0150138 -0.00163039 0)
(0.0154423 -0.00150225 0)
(0.0158391 -0.00131782 0)
(0.0161864 -0.00107201 0)
(0.0164657 -0.000766957 0)
(0.0166594 -0.000410373 0)
(0.0167533 -1.33331e-05 0)
(0.0167312 0.000411896 0)
(0.0165837 0.000852424 0)
(0.0163039 0.00129541 0)
(0.0158898 0.0017321 0)
(0.015344 0.00216084 0)
(0.014674 0.00259284 0)
(0.0138924 0.00306297 0)
(0.0130183 0.00365573 0)
(0.0120834 0.00457381 0)
(0.0111431 0.00623347 0)
(0.0102126 0.00886265 0)
(0.00895056 0.011031 0)
(0.00720997 0.0104808 0)
(0.00461019 0.00701329 0)
(0.00118894 0.00194285 0)
(-0.000483118 -0.0013387 0)
(-7.62364e-05 -0.00369448 0)
(-2.9467e-05 -0.00452791 0)
(0.00148776 0.00551331 0)
(-0.000467242 0.00609268 0)
(-0.00251099 0.00656317 0)
(-0.00431274 0.00883154 0)
(-0.00520613 0.007809 0)
(-0.00558434 0.00392379 0)
(-0.00556475 -8.13156e-05 0)
(-0.00552426 -0.00217236 0)
(-0.00543336 -0.00277047 0)
(-0.00524808 -0.00275967 0)
(-0.00501675 -0.00258442 0)
(-0.00478561 -0.00239793 0)
(-0.00458939 -0.00224434 0)
(-0.00445924 -0.00213763 0)
(-0.00442818 -0.00208103 0)
(-0.0045363 -0.00205983 0)
(-0.00483325 -0.00201491 0)
(-0.00536833 -0.00180364 0)
(-0.00614487 -0.00118176 0)
(-0.0069968 0.000112588 0)
(-0.00753087 0.002136 0)
(-0.00740579 0.00453753 0)
(-0.00660746 0.00631778 0)
(-0.00559884 0.00568287 0)
(-0.00514663 0.00248375 0)
(-0.0060276 0.000368964 0)
(-0.00762706 0.000646207 0)
(-0.0088767 0.00183482 0)
(-0.0095378 0.0031698 0)
(-0.00964834 0.00418017 0)
(-0.00941366 0.00432859 0)
(-0.00923134 0.00345037 0)
(-0.00947833 0.00217329 0)
(-0.0101814 0.00130929 0)
(-0.0110087 0.000959871 0)
(-0.0117007 0.000833429 0)
(-0.0122003 0.00074503 0)
(-0.0125275 0.000626619 0)
(-0.0127157 0.000460871 0)
(-0.0127939 0.000249606 0)
(-0.0127828 2.14324e-06 0)
(-0.0126954 -0.000271702 0)
(-0.012539 -0.000562421 0)
(-0.0123169 -0.000863532 0)
(-0.0120291 -0.00117092 0)
(-0.0116751 -0.0014819 0)
(-0.0112541 -0.00179473 0)
(-0.0107654 -0.0021083 0)
(-0.010209 -0.00242202 0)
(-0.00958547 -0.00273578 0)
(-0.00889566 -0.00304999 0)
(-0.00814094 -0.00336565 0)
(-0.00732299 -0.00368448 0)
(-0.00644382 -0.00400904 0)
(-0.00550572 -0.00434284 0)
(-0.00451082 -0.00469049 0)
(-0.00346015 -0.00505783 0)
(-0.00235677 -0.00545285 0)
(-0.00123002 -0.00588705 0)
(3.90871e-05 -0.00641974 0)
(0.00149928 -0.00688554 0)
(0.00292532 -0.00697507 0)
(0.00442846 -0.00677846 0)
(0.00589374 -0.00633326 0)
(0.00725427 -0.00572083 0)
(0.00846604 -0.00503497 0)
(0.00950787 -0.00435727 0)
(0.0103811 -0.00374674 0)
(0.0111043 -0.00323849 0)
(0.011706 -0.00284673 0)
(0.0122187 -0.00256877 0)
(0.0126742 -0.00238872 0)
(0.0130991 -0.0022807 0)
(0.0135121 -0.00221206 0)
(0.0139223 -0.00214744 0)
(0.0143287 -0.00205354 0)
(0.0147218 -0.00190366 0)
(0.0150864 -0.00168076 0)
(0.0154045 -0.00137821 0)
(0.0156582 -0.000998655 0)
(0.0158311 -0.000551674 0)
(0.01591 -5.03521e-05 0)
(0.0158803 0.000492244 0)
(0.0157313 0.00106045 0)
(0.0154552 0.00163648 0)
(0.0150493 0.00220604 0)
(0.0145166 0.00276156 0)
(0.0138672 0.00330802 0)
(0.0131189 0.00387261 0)
(0.0122999 0.00452838 0)
(0.0114532 0.00546207 0)
(0.0106527 0.0070886 0)
(0.00995152 0.00972165 0)
(0.00912385 0.0122033 0)
(0.00786037 0.0123584 0)
(0.00581214 0.00963193 0)
(0.00301813 0.00494664 0)
(0.000210871 -0.000286358 0)
(0.00015228 -0.00385552 0)
(-0.0002452 -0.00527581 0)
(0.00139891 0.00612551 0)
(-0.000413306 0.0074852 0)
(-0.00218051 0.0082901 0)
(-0.00369117 0.0100222 0)
(-0.0044773 0.00842993 0)
(-0.00484241 0.00415992 0)
(-0.00492184 -1.04907e-05 0)
(-0.00498283 -0.0022014 0)
(-0.00497658 -0.00288591 0)
(-0.00488864 -0.00292349 0)
(-0.00476533 -0.00275856 0)
(-0.00464925 -0.00254884 0)
(-0.00457326 -0.00234029 0)
(-0.00456804 -0.00214598 0)
(-0.00466573 -0.00196529 0)
(-0.00490172 -0.00177969 0)
(-0.00531147 -0.00153768 0)
(-0.00591367 -0.00113852 0)
(-0.00666201 -0.000433323 0)
(-0.0073782 0.000719478 0)
(-0.00777614 0.00229129 0)
(-0.00761947 0.00405236 0)
(-0.00684032 0.00524275 0)
(-0.00588182 0.00474232 0)
(-0.00570819 0.00273425 0)
(-0.00675367 0.00164165 0)
(-0.00810004 0.00191197 0)
(-0.00913687 0.00269688 0)
(-0.00973708 0.00356237 0)
(-0.00991008 0.00415965 0)
(-0.00983446 0.00416489 0)
(-0.00985065 0.00353702 0)
(-0.0102202 0.00268827 0)
(-0.0108667 0.00205096 0)
(-0.0115367 0.00165981 0)
(-0.0120878 0.00137959 0)
(-0.0124917 0.00112547 0)
(-0.0127594 0.000862585 0)
(-0.0129111 0.000579048 0)
(-0.0129661 0.000272428 0)
(-0.012938 -5.52444e-05 0)
(-0.0128345 -0.000400548 0)
(-0.0126604 -0.000758992 0)
(-0.0124164 -0.00112715 0)
(-0.012102 -0.00150221 0)
(-0.0117169 -0.00188169 0)
(-0.011261 -0.00226351 0)
(-0.0107351 -0.00264594 0)
(-0.0101407 -0.00302773 0)
(-0.00947964 -0.00340817 0)
(-0.00875448 -0.00378718 0)
(-0.00796807 -0.00416537 0)
(-0.00712348 -0.00454416 0)
(-0.00622406 -0.00492588 0)
(-0.00527333 -0.0053139 0)
(-0.00427464 -0.00571282 0)
(-0.00323 -0.00612921 0)
(-0.0021417 -0.00657319 0)
(-0.00103622 -0.00706666 0)
(0.000180272 -0.00771074 0)
(0.00151888 -0.00828131 0)
(0.00281473 -0.00842136 0)
(0.00420545 -0.00823134 0)
(0.00559452 -0.0077282 0)
(0.00691116 -0.00699769 0)
(0.00810118 -0.00615539 0)
(0.0091326 -0.00530804 0)
(0.00999805 -0.00453575 0)
(0.0107101 -0.00388822 0)
(0.0112945 -0.00338773 0)
(0.0117832 -0.00303386 0)
(0.0122089 -0.00280821 0)
(0.0125999 -0.00267848 0)
(0.0129768 -0.00260288 0)
(0.0133497 -0.00253567 0)
(0.0137183 -0.00243391 0)
(0.0140732 -0.00226364 0)
(0.0143996 -0.00200372 0)
(0.0146803 -0.0016464 0)
(0.0148987 -0.00119536 0)
(0.0150404 -0.000662353 0)
(0.0150937 -6.25368e-05 0)
(0.0150462 0.00058987 0)
(0.0148881 0.00127715 0)
(0.0146117 0.00197742 0)
(0.0142146 0.00267099 0)
(0.0137001 0.00334369 0)
(0.013079 0.00399269 0)
(0.0123703 0.00463528 0)
(0.0116034 0.00533069 0)
(0.0108217 0.00624673 0)
(0.0101013 0.00778898 0)
(0.00952167 0.0103514 0)
(0.00893672 0.0130392 0)
(0.00800179 0.0137975 0)
(0.00637848 0.0117572 0)
(0.00409695 0.00748359 0)
(0.00131115 0.00176207 0)
(0.000464009 -0.00351714 0)
(-0.000518747 -0.00586287 0)
(0.00136218 0.00660975 0)
(-0.000358636 0.00872932 0)
(-0.00183588 0.00973355 0)
(-0.00311397 0.0110697 0)
(-0.00383407 0.00903754 0)
(-0.00422326 0.00446609 0)
(-0.00438662 0.000145194 0)
(-0.00451716 -0.00215673 0)
(-0.00457693 -0.00291957 0)
(-0.00457017 -0.00299359 0)
(-0.00453803 -0.00283106 0)
(-0.00451855 -0.00259389 0)
(-0.00454072 -0.00232929 0)
(-0.00463087 -0.00205032 0)
(-0.00481454 -0.00175572 0)
(-0.0051162 -0.00142918 0)
(-0.00555481 -0.00103368 0)
(-0.00612779 -0.000506713 0)
(-0.00677388 0.000231548 0)
(-0.00735388 0.00121552 0)
(-0.0076959 0.00243228 0)
(-0.00762521 0.00368946 0)
(-0.00711409 0.00448581 0)
(-0.0065576 0.00424126 0)
(-0.00670238 0.00325522 0)
(-0.00763196 0.0027891 0)
(-0.00869003 0.00299344 0)
(-0.00954362 0.00347352 0)
(-0.0101016 0.00397971 0)
(-0.010369 0.00428989 0)
(-0.0104779 0.00422259 0)
(-0.0106504 0.00377655 0)
(-0.0110225 0.00317611 0)
(-0.0115248 0.00263651 0)
(-0.0120169 0.00219131 0)
(-0.0124246 0.00179664 0)
(-0.0127293 0.00142047 0)
(-0.0129333 0.00104648 0)
(-0.0130451 0.000666153 0)
(-0.0130728 0.000274624 0)
(-0.0130212 -0.0001306 0)
(-0.0128919 -0.000549827 0)
(-0.0126867 -0.000981206 0)
(-0.0124051 -0.00142248 0)
(-0.0120473 -0.00187084 0)
(-0.0116144 -0.00232326 0)
(-0.0111083 -0.00277685 0)
(-0.010532 -0.00322909 0)
(-0.00988869 -0.00367803 0)
(-0.00918231 -0.00412247 0)
(-0.00841685 -0.004562 0)
(-0.00759641 -0.00499701 0)
(-0.00672512 -0.00542879 0)
(-0.00580715 -0.00585954 0)
(-0.0048468 -0.00629262 0)
(-0.00384818 -0.00673285 0)
(-0.00281394 -0.00718734 0)
(-0.00174804 -0.00766905 0)
(-0.00066887 -0.00821408 0)
(0.000520721 -0.00892445 0)
(0.00169017 -0.00951633 0)
(0.00284767 -0.00972058 0)
(0.00409212 -0.0095677 0)
(0.00536559 -0.00904339 0)
(0.0066036 -0.00822727 0)
(0.00774639 -0.00725138 0)
(0.00875289 -0.00624721 0)
(0.00960653 -0.00531776 0)
(0.0103123 -0.00452985 0)
(0.0108904 -0.00391625 0)
(0.0113693 -0.00348093 0)
(0.0117802 -0.00320435 0)
(0.0121509 -0.00304849 0)
(0.0125019 -0.0029624 0)
(0.0128439 -0.00288975 0)
(0.0131766 -0.00277772 0)
(0.0134915 -0.0025852 0)
(0.0137746 -0.00228739 0)
(0.0140105 -0.00187606 0)
(0.014185 -0.00135641 0)
(0.0142863 -0.000742714 0)
(0.0143044 -5.17765e-05 0)
(0.0142301 0.000702056 0)
(0.0140545 0.00149928 0)
(0.0137712 0.00231406 0)
(0.0133788 0.00312136 0)
(0.0128812 0.00390038 0)
(0.0122894 0.00464049 0)
(0.0116218 0.00534959 0)
(0.010906 0.00607451 0)
(0.0101813 0.00696561 0)
(0.00951662 0.00841306 0)
(0.00900098 0.0108704 0)
(0.00854932 0.0136785 0)
(0.00783518 0.0149229 0)
(0.00654475 0.0134874 0)
(0.00467921 0.00963519 0)
(0.00231261 0.00404911 0)
(0.00092907 -0.00250214 0)
(-0.000781971 -0.00614034 0)
(0.00126597 0.00701988 0)
(-0.000310487 0.00978106 0)
(-0.00152087 0.0109229 0)
(-0.00261144 0.0119886 0)
(-0.0032849 0.00963537 0)
(-0.00370633 0.00482724 0)
(-0.0039335 0.00036186 0)
(-0.00411262 -0.00205477 0)
(-0.00422708 -0.00288483 0)
(-0.00429029 -0.00298383 0)
(-0.00433682 -0.00281714 0)
(-0.00439992 -0.00255037 0)
(-0.00450416 -0.00223216 0)
(-0.00467063 -0.00187709 0)
(-0.00491775 -0.00148619 0)
(-0.00526056 -0.00104908 0)
(-0.00570615 -0.000543332 0)
(-0.00623832 6.45835e-05 0)
(-0.00679808 0.000795676 0)
(-0.00729731 0.00165286 0)
(-0.00763369 0.00261997 0)
(-0.00770739 0.00354924 0)
(-0.0075367 0.0041529 0)
(-0.0074102 0.00417486 0)
(-0.00774469 0.00383452 0)
(-0.00850805 0.00370478 0)
(-0.00934102 0.00386379 0)
(-0.010052 0.00414631 0)
(-0.010572 0.0044147 0)
(-0.0109024 0.00453752 0)
(-0.0111245 0.00441672 0)
(-0.0113616 0.00405577 0)
(-0.0116808 0.00356656 0)
(-0.0120471 0.00305982 0)
(-0.0123946 0.00257169 0)
(-0.0126851 0.00210003 0)
(-0.0129047 0.00163814 0)
(-0.0130488 0.0011796 0)
(-0.0131164 0.000717876 0)
(-0.0131059 0.000246998 0)
(-0.0130145 -0.000237499 0)
(-0.0128403 -0.000736282 0)
(-0.0125839 -0.00124739 0)
(-0.0122456 -0.00176792 0)
(-0.0118277 -0.00229402 0)
(-0.0113337 -0.00282156 0)
(-0.010768 -0.0033467 0)
(-0.0101357 -0.00386624 0)
(-0.00944216 -0.00437787 0)
(-0.00869247 -0.00488028 0)
(-0.00789158 -0.00537311 0)
(-0.00704407 -0.00585691 0)
(-0.00615426 -0.00633302 0)
(-0.00522643 -0.00680369 0)
(-0.00426491 -0.00727224 0)
(-0.00327384 -0.00774361 0)
(-0.00225664 -0.0082257 0)
(-0.00122045 -0.00873714 0)
(-0.000156638 -0.00932769 0)
(0.00096553 -0.0100365 0)
(0.00198197 -0.0105975 0)
(0.00300699 -0.0108594 0)
(0.00409593 -0.0107594 0)
(0.00522932 -0.0102452 0)
(0.00635932 -0.0093788 0)
(0.00742826 -0.0082999 0)
(0.00839015 -0.0071613 0)
(0.00922091 -0.00608872 0)
(0.00991778 -0.00516724 0)
(0.010494 -0.00444176 0)
(0.0109726 -0.00392228 0)
(0.0113802 -0.00358963 0)
(0.0117419 -0.00340116 0)
(0.0120763 -0.00329753 0)
(0.0123929 -0.00321231 0)
(0.0126915 -0.00308335 0)
(0.0129644 -0.00286304 0)
(0.0131996 -0.00252367 0)
(0.0133844 -0.00205705 0)
(0.0135074 -0.00147028 0)
(0.0135609 -0.000780099 0)
(0.013536 -4.32838e-06 0)
(0.0134268 0.000842374 0)
(0.0132258 0.00173887 0)
(0.0129285 0.00265596 0)
(0.012535 0.00356375 0)
(0.0120501 0.00443546 0)
(0.0114848 0.0052535 0)
(0.0108566 0.00601773 0)
(0.0101904 0.00676482 0)
(0.00951947 0.00763043 0)
(0.00890115 0.00898758 0)
(0.00842204 0.011329 0)
(0.00803999 0.0141946 0)
(0.00747368 0.0158147 0)
(0.00643836 0.0148897 0)
(0.00491656 0.0114322 0)
(0.00303782 0.00618484 0)
(0.00147678 -0.000854915 0)
(-0.000849963 -0.0058291 0)
(0.000986322 0.00715163 0)
(-0.000268653 0.0106508 0)
(-0.00124804 0.0119018 0)
(-0.00218618 0.0127996 0)
(-0.00282021 0.0102232 0)
(-0.00326979 0.00522814 0)
(-0.00354298 0.000622308 0)
(-0.00375886 -0.00190639 0)
(-0.00392248 -0.00279002 0)
(-0.004049 -0.00290351 0)
(-0.00416606 -0.00272748 0)
(-0.00430251 -0.00243017 0)
(-0.0044789 -0.00206194 0)
(-0.00471166 -0.00163999 0)
(-0.00501366 -0.00116934 0)
(-0.00539368 -0.00064685 0)
(-0.00584998 -6.28313e-05 0)
(-0.00635838 0.00059181 0)
(-0.00686981 0.00129869 0)
(-0.00734234 0.00207591 0)
(-0.00771488 0.00288768 0)
(-0.00794045 0.00363678 0)
(-0.00805257 0.00417003 0)
(-0.00822347 0.00438099 0)
(-0.00864701 0.00438677 0)
(-0.0092864 0.00443279 0)
(-0.00996265 0.00456793 0)
(-0.0105633 0.00472884 0)
(-0.0110384 0.00484364 0)
(-0.0113847 0.00483905 0)
(-0.0116459 0.00466322 0)
(-0.0118869 0.00431891 0)
(-0.0121444 0.00386312 0)
(-0.0124081 0.00335816 0)
(-0.0126509 0.00283732 0)
(-0.0128528 0.0023129 0)
(-0.0130012 0.00178786 0)
(-0.0130866 0.0012597 0)
(-0.0131009 0.000722847 0)
(-0.0130359 0.000171779 0)
(-0.0128841 -0.00039711 0)
(-0.0126452 -0.000981372 0)
(-0.0123203 -0.00157713 0)
(-0.0119122 -0.00217965 0)
(-0.0114262 -0.00278353 0)
(-0.0108682 -0.00338349 0)
(-0.0102452 -0.00397507 0)
(-0.00956364 -0.00455492 0)
(-0.0088299 -0.00512101 0)
(-0.00804945 -0.00567249 0)
(-0.00722703 -0.00620955 0)
(-0.0063667 -0.0067332 0)
(-0.0054721 -0.00724505 0)
(-0.00454676 -0.00774738 0)
(-0.00359436 -0.00824335 0)
(-0.00261851 -0.00873775 0)
(-0.00162419 -0.00924049 0)
(-0.000615404 -0.0097775 0)
(0.000437399 -0.0103942 0)
(0.0014373 -0.0110313 0)
(0.00235207 -0.0115532 0)
(0.00326126 -0.0118493 0)
(0.00420578 -0.011799 0)
(0.00519279 -0.0113134 0)
(0.00619656 -0.0104274 0)
(0.00716976 -0.00927797 0)
(0.00806718 -0.00803308 0)
(0.00886041 -0.0068388 0)
(0.00954026 -0.00579798 0)
(0.0101129 -0.00496803 0)
(0.0105945 -0.0043658 0)
(0.0110053 -0.00397363 0)
(0.0113652 -0.00374544 0)
(0.0116888 -0.00361485 0)
(0.0119834 -0.00350665 0)
(0.0122482 -0.00335076 0)
(0.0124766 -0.00309438 0)
(0.0126594 -0.00270787 0)
(0.0127872 -0.00218375 0)
(0.0128527 -0.00153113 0)
(0.0128523 -0.000768948 0)
(0.012778 8.51202e-05 0)
(0.0126273 0.00101619 0)
(0.0123944 0.00200138 0)
(0.0120771 0.00300835 0)
(0.0116769 0.00400284 0)
(0.0112 0.00495282 0)
(0.0106574 0.00583488 0)
(0.0100656 0.00664243 0)
(0.00944627 0.00740444 0)
(0.00882646 0.00824532 0)
(0.00825078 0.00952267 0)
(0.00779521 0.0117534 0)
(0.0074454 0.0146368 0)
(0.00697067 0.0165386 0)
(0.00612339 0.0160256 0)
(0.00487843 0.0129024 0)
(0.00337328 0.00789269 0)
(0.00191619 0.00113574 0)
(-0.00062471 -0.00498479 0)
(0.000592888 0.00699394 0)
(-0.000229425 0.0113656 0)
(-0.00101824 0.0127119 0)
(-0.00183276 0.0135214 0)
(-0.00242873 0.0107989 0)
(-0.0028981 0.00565579 0)
(-0.00320327 0.000915548 0)
(-0.00345007 -0.00171644 0)
(-0.00366136 -0.00263908 0)
(-0.00384776 -0.00275789 0)
(-0.0040306 -0.00256842 0)
(-0.004235 -0.00224007 0)
(-0.00447806 -0.00182501 0)
(-0.00477252 -0.00134374 0)
(-0.00512756 -0.000806171 0)
(-0.00554658 -0.000216281 0)
(-0.00602037 0.000426988 0)
(-0.00651476 0.00109003 0)
(-0.00701519 0.00178907 0)
(-0.00749449 0.00251738 0)
(-0.00791833 0.00324313 0)
(-0.0082666 0.00390394 0)
(-0.00856562 0.00441765 0)
(-0.00890361 0.00473545 0)
(-0.00936282 0.00490848 0)
(-0.00991977 0.00503825 0)
(-0.0104867 0.00515387 0)
(-0.0109981 0.00523347 0)
(-0.0114198 0.00524237 0)
(-0.0117467 0.00514283 0)
(-0.0120012 0.00490962 0)
(-0.0122186 0.00454682 0)
(-0.0124221 0.0040871 0)
(-0.012613 0.00356927 0)
(-0.012781 0.0030202 0)
(-0.0129133 0.00245374 0)
(-0.0129971 0.0018743 0)
(-0.0130195 0.00128021 0)
(-0.0129679 0.000666844 0)
(-0.0128314 3.06962e-05 0)
(-0.0126018 -0.000628467 0)
(-0.0122862 -0.00130072 0)
(-0.0118862 -0.00198096 0)
(-0.0114081 -0.00266233 0)
(-0.0108594 -0.00333805 0)
(-0.0102483 -0.00400232 0)
(-0.00958244 -0.00465077 0)
(-0.00886889 -0.00528071 0)
(-0.00811352 -0.00589101 0)
(-0.00732106 -0.00648184 0)
(-0.00649509 -0.0070543 0)
(-0.00563839 -0.00761004 0)
(-0.00475329 -0.00815099 0)
(-0.00384204 -0.00867934 0)
(-0.00290713 -0.00919772 0)
(-0.00195202 -0.00971107 0)
(-0.000982259 -0.010233 0)
(1.43008e-05 -0.0107912 0)
(0.0010115 -0.0113806 0)
(0.00191056 -0.0119334 0)
(0.00275565 -0.0124145 0)
(0.00357375 -0.0127161 0)
(0.00439691 -0.0126973 0)
(0.00524671 -0.0122429 0)
(0.00611906 -0.0113581 0)
(0.006983 -0.0101673 0)
(0.00780003 -0.00884572 0)
(0.00854141 -0.0075554 0)
(0.00919374 -0.00641486 0)
(0.00975692 -0.00549306 0)
(0.0102397 -0.00481353 0)
(0.0106549 -0.0043605 0)
(0.0110153 -0.00408568 0)
(0.0113301 -0.00391726 0)
(0.011603 -0.00377336 0)
(0.0118324 -0.00357812 0)
(0.012013 -0.00327536 0)
(0.0121387 -0.00283486 0)
(0.0122045 -0.00225043 0)
(0.0122073 -0.00153314 0)
(0.0121483 -0.000703412 0)
(0.0120194 0.000222799 0)
(0.0118223 0.00122986 0)
(0.0115527 0.0022929 0)
(0.0112106 0.00337681 0)
(0.0107995 0.00444356 0)
(0.0103268 0.00545675 0)
(0.00980362 0.00638832 0)
(0.00924501 0.0072269 0)
(0.00866955 0.00799618 0)
(0.00809812 0.00881318 0)
(0.00756251 0.010024 0)
(0.00712343 0.0121599 0)
(0.00678089 0.0150422 0)
(0.00635188 0.0171538 0)
(0.00562938 0.0169633 0)
(0.00458677 0.0141058 0)
(0.0033362 0.00925203 0)
(0.00205752 0.00298369 0)
(-0.000214242 -0.00386185 0)
(0.000211791 0.00678301 0)
(-0.000188032 0.0119504 0)
(-0.000829155 0.0133904 0)
(-0.00154483 0.0141686 0)
(-0.00210205 0.0113581 0)
(-0.00258157 0.00609857 0)
(-0.0029077 0.0012344 0)
(-0.0031835 -0.00148595 0)
(-0.00344365 -0.00243301 0)
(-0.00368833 -0.00254968 0)
(-0.00393414 -0.00234366 0)
(-0.00420297 -0.00198391 0)
(-0.00450901 -0.00152473 0)
(-0.0048622 -0.000990716 0)
(-0.00526821 -0.00039656 0)
(-0.00572379 0.000248688 0)
(-0.00620523 0.000911786 0)
(-0.00670274 0.00158994 0)
(-0.00720967 0.00228696 0)
(-0.00770733 0.00298956 0)
(-0.00817597 0.00367071 0)
(-0.00860549 0.00428857 0)
(-0.00900965 0.00479488 0)
(-0.00942809 0.00516087 0)
(-0.00989292 0.00540302 0)
(-0.0103898 0.00556107 0)
(-0.0108749 0.00565101 0)
(-0.0113106 0.00566724 0)
(-0.0116752 0.00559565 0)
(-0.0119646 0.00542002 0)
(-0.0121914 0.00513129 0)
(-0.0123763 0.0047362 0)
(-0.0125351 0.0042565 0)
(-0.012672 0.00371776 0)
(-0.0127813 0.00313913 0)
(-0.0128521 0.00253071 0)
(-0.0128702 0.00189508 0)
(-0.0128212 0.00123042 0)
(-0.0126914 0.000534041 0)
(-0.0124707 -0.000192958 0)
(-0.0121615 -0.000940486 0)
(-0.0117709 -0.00169692 0)
(-0.0113042 -0.00245481 0)
(-0.0107699 -0.00320576 0)
(-0.0101768 -0.00394247 0)
(-0.009533 -0.00465948 0)
(-0.00884596 -0.00535333 0)
(-0.00812171 -0.00602256 0)
(-0.00736488 -0.00666741 0)
(-0.00657869 -0.00728933 0)
(-0.00576519 -0.00789045 0)
(-0.00492557 -0.00847312 0)
(-0.00406066 -0.00903948 0)
(-0.00317114 -0.00959139 0)
(-0.0022585 -0.0101308 0)
(-0.00132695 -0.0106641 0)
(-0.000373916 -0.011207 0)
(0.000607971 -0.011766 0)
(0.00151464 -0.0122839 0)
(0.0023612 -0.0127732 0)
(0.00315719 -0.0132081 0)
(0.00390919 -0.0134888 0)
(0.00463809 -0.0134758 0)
(0.00536975 -0.0130421 0)
(0.00611706 -0.0121671 0)
(0.00686773 -0.010957 0)
(0.0075948 -0.00958616 0)
(0.00827328 -0.00822661 0)
(0.00888812 -0.00700889 0)
(0.0094342 -0.00601133 0)
(0.00991316 -0.0052629 0)
(0.0103297 -0.0047496 0)
(0.0106886 -0.00442172 0)
(0.0109924 -0.004204 0)
(0.0112408 -0.00401047 0)
(0.011431 -0.00376212 0)
(0.0115594 -0.00340171 0)
(0.0116234 -0.00289993 0)
(0.0116226 -0.0022525 0)
(0.0115589 -0.00147222 0)
(0.0114381 -0.000579591 0)
(0.0112509 0.000412719 0)
(0.0110036 0.00148738 0)
(0.0106941 0.00261721 0)
(0.0103243 0.00376484 0)
(0.00989984 0.00488915 0)
(0.00942908 0.00595028 0)
(0.00892306 0.00691674 0)
(0.00839538 0.00777403 0)
(0.0078613 0.00854292 0)