/*--------------------------------*- C++ -*----------------------------------*\
| =========                 |                                                 |
| \\      /  F ield         | OpenFOAM: The Open Source CFD Toolbox           |
|  \\    /   O peration     | Version:  4.1                                   |
|   \\  /    A nd           | Web:      www.OpenFOAM.org                      |
|    \\/     M anipulation  |                                                 |
\*---------------------------------------------------------------------------*/
FoamFile
{
    version     2.0;
    format      ascii;
    class       volScalarField;
    location    "980";
    object      mag(U);
}
// * * * * * * * * * * * * * * * * * * * * * * * * * * * * * * * * * * * * * //

dimensions      [0 1 -1 0 0 0 0];

internalField   nonuniform List<scalar> 
5000
(
0.00224546
0.00274076
0.00247532
0.00265263
0.00212666
0.00591496
0.0102761
0.0117532
0.0121422
0.0118533
0.011333
0.0107687
0.0102127
0.00967658
0.00916152
0.00866855
0.00819751
0.00774342
0.00729398
0.00682929
0.00632397
0.00575123
0.00508884
0.004326
0.00346922
0.00254301
0.00158303
0.000712123
0.000764443
0.00153379
0.00238121
0.00331231
0.00416881
0.00496933
0.00568717
0.00629527
0.00678441
0.00715711
0.00741987
0.00758073
0.00764893
0.00763728
0.00755785
0.00742181
0.00724132
0.00702861
0.00679552
0.00655322
0.00631209
0.00608175
0.00587122
0.00568928
0.00554577
0.00545417
0.0054368
0.00551376
0.00570688
0.00605071
0.00659341
0.00737355
0.00832369
0.00910727
0.00897645
0.00613536
0.0024388
0.00345913
0.0072313
0.00800828
0.0075574
0.00659592
0.00576758
0.00523112
0.00492795
0.00474277
0.00459022
0.0044226
0.00421465
0.00395033
0.00361607
0.00319891
0.00268614
0.00206691
0.00135365
0.000721083
0.000992575
0.0020876
0.0033184
0.00462932
0.00595882
0.00723414
0.00837449
0.00929714
0.00992679
0.0102187
0.0101529
0.00974039
0.0089882
0.00784951
0.00611324
0.00496547
0.00259139
0.00442508
0.00205284
0.00117492
0.00753981
0.0100638
0.01087
0.0108112
0.0109025
0.0108476
0.0106757
0.0104195
0.0100838
0.0096811
0.00923079
0.0087529
0.00826171
0.00776222
0.00724987
0.00671189
0.00612957
0.00548158
0.00474989
0.00393091
0.00305472
0.00221947
0.00167934
0.00190273
0.00257961
0.00345888
0.00439498
0.0052476
0.00595579
0.00655093
0.00705857
0.00748286
0.00782352
0.00808363
0.00826892
0.0083862
0.00844299
0.00844564
0.00840149
0.00831479
0.00819065
0.00803501
0.00785448
0.00765623
0.00744781
0.00723716
0.00703286
0.00684498
0.00668699
0.00657717
0.00652718
0.00654705
0.00664751
0.00684044
0.0071364
0.00752493
0.00792609
0.00810432
0.00802364
0.00728397
0.00433239
0.00705999
0.00689007
0.00620532
0.00596866
0.00551134
0.00503591
0.00467157
0.00443161
0.0042836
0.00418856
0.0041076
0.0040062
0.00385691
0.00363966
0.00334101
0.00295473
0.00248837
0.0019918
0.00163563
0.00169897
0.00230903
0.00321003
0.0042907
0.00545397
0.00661258
0.00767758
0.00856634
0.00919808
0.00951729
0.00946138
0.00903024
0.0082573
0.00720254
0.0060365
0.00695374
0.00254796
0.00474024
0.00145982
0.00750146
0.0110924
0.0119592
0.0108048
0.00956486
0.00941258
0.00959581
0.00968476
0.00959906
0.00936212
0.00901104
0.00858675
0.00812551
0.00765263
0.00717945
0.00670429
0.00621541
0.00569485
0.00512421
0.00449688
0.00384207
0.00325617
0.00290306
0.00293751
0.00328978
0.00389965
0.00465937
0.00546843
0.00623901
0.00691604
0.00749352
0.00798102
0.00838344
0.00870226
0.00894027
0.00910225
0.00919394
0.00922058
0.00918957
0.00910787
0.0089829
0.00882237
0.00863305
0.00842117
0.0081928
0.00795418
0.00771184
0.00747263
0.00724351
0.00703009
0.00683477
0.00666174
0.00652149
0.00642483
0.00638406
0.00640579
0.00646458
0.00640219
0.00589972
0.00706237
0.00899531
0.00644972
0.00960875
0.00700939
0.00378564
0.00396608
0.00422456
0.00424315
0.00429171
0.00437057
0.00445087
0.0045129
0.0045422
0.00452592
0.00445273
0.00431327
0.00410224
0.00382175
0.00348777
0.00314353
0.00287744
0.00280472
0.00298948
0.00344742
0.00411084
0.00490826
0.00576845
0.0065939
0.00731361
0.007852
0.00814919
0.00811364
0.00774854
0.00715521
0.00661388
0.00680746
0.00969054
0.00223493
0.00266571
0.00577566
0.010155
0.0126518
0.0124275
0.0102898
0.00873143
0.00864844
0.00892817
0.00908297
0.00904942
0.00885011
0.00852155
0.00810795
0.00765395
0.0071948
0.00674896
0.00631847
0.0058942
0.00546288
0.0050179
0.00457926
0.00421588
0.00403004
0.00405661
0.00425557
0.00462828
0.00517694
0.00583491
0.00653547
0.00721959
0.00784444
0.00839163
0.00885815
0.00924415
0.00954956
0.00977553
0.00992508
0.0100026
0.0100127
0.0099632
0.00985859
0.00970613
0.00951337
0.00928718
0.00903393
0.00875964
0.00847004
0.00817071
0.00786691
0.00756338
0.00726368
0.00696978
0.00668374
0.00640876
0.00615274
0.00591866
0.00570846
0.00549507
0.00509586
0.00433622
0.0077535
0.0109435
0.00771958
0.010769
0.00740729
0.00217759
0.00260229
0.00333946
0.00379749
0.00418569
0.00450021
0.00474119
0.00491809
0.0050392
0.00510182
0.00510351
0.00504235
0.00491936
0.00474196
0.00452793
0.00431003
0.00413774
0.00406644
0.00412749
0.00431222
0.00461071
0.00496024
0.00536007
0.00575521
0.00612203
0.00643081
0.0066766
0.00676487
0.00665309
0.00648388
0.00666269
0.00801324
0.0121091
0.00241278
0.00210524
0.00786065
0.0115855
0.0131986
0.012137
0.00961918
0.00820615
0.00825108
0.00855222
0.0087273
0.00872919
0.00856493
0.00825594
0.00784191
0.00737541
0.00690631
0.00646546
0.0060623
0.00569438
0.00536064
0.00507842
0.00490167
0.00490493
0.0050926
0.0053452
0.00561171
0.00598794
0.0064728
0.00703366
0.00763101
0.00822524
0.00878345
0.00928491
0.00971956
0.0100825
0.0103708
0.0105834
0.0107212
0.010787
0.0107839
0.0107196
0.0105969
0.0104227
0.0102036
0.00994599
0.00965583
0.00933875
0.00899997
0.00864425
0.00827578
0.00789799
0.00751329
0.00712282
0.00672694
0.00632541
0.00591703
0.00550371
0.00508034
0.00461518
0.00392857
0.00351296
0.00967963
0.0124306
0.00827131
0.0106541
0.00743796
0.00170816
0.00174006
0.00282228
0.00361378
0.00422511
0.0046956
0.00505777
0.00533083
0.00552682
0.00566401
0.00573772
0.00575347
0.00571777
0.00564158
0.0055423
0.00544403
0.00537473
0.00535832
0.00540381
0.00549666
0.00559397
0.00564878
0.0056116
0.00547289
0.0052716
0.00508729
0.00510181
0.0053746
0.00569715
0.00612879
0.00700681
0.0091233
0.0140076
0.00346236
0.00420745
0.00936657
0.01249
0.0132917
0.0116387
0.00908619
0.00795568
0.00807958
0.00837681
0.00857084
0.00861684
0.00849699
0.00821042
0.00778453
0.00727766
0.00676061
0.00628602
0.00587794
0.00554768
0.00531704
0.00523852
0.00538942
0.00579075
0.00628933
0.00667243
0.00699986
0.00736639
0.00778279
0.00824382
0.00873353
0.00922931
0.0097078
0.01015
0.0105424
0.0108761
0.0111446
0.0113438
0.0114718
0.0115289
0.0115168
0.0114413
0.0113045
0.0111124
0.0108709
0.0105859
0.010263
0.00990749
0.00952401
0.00911675
0.00868913
0.00824366
0.00778179
0.00730377
0.00680857
0.00629365
0.00575408
0.00517939
0.00455596
0.00385852
0.00299213
0.00370345
0.0121341
0.0133235
0.00837218
0.00978008
0.00699978
0.00219128
0.00188786
0.00288335
0.00373524
0.00441733
0.00496056
0.00539365
0.0057356
0.00599776
0.00618711
0.00632434
0.00640966
0.0064556
0.00647559
0.00648593
0.00650403
0.00654441
0.00661278
0.00670034
0.00678049
0.00680836
0.00672023
0.00645952
0.00591465
0.00512838
0.00417805
0.00349628
0.00394322
0.0048446
0.00592717
0.00737099
0.0100025
0.0154805
0.00500024
0.00599465
0.0106207
0.0131618
0.0132734
0.0112117
0.00879186
0.00790706
0.0080479
0.00833489
0.00855713
0.00865995
0.00860222
0.00835339
0.00791686
0.00734874
0.0067452
0.00619404
0.00574633
0.00543751
0.00532346
0.0054942
0.00601621
0.00679816
0.00752719
0.00801135
0.00839759
0.0087464
0.00908861
0.00944319
0.00981578
0.0102005
0.0105845
0.0109529
0.0112919
0.0115894
0.0118354
0.0120221
0.0121439
0.0121978
0.0121837
0.0121028
0.0119578
0.0117538
0.0114957
0.011189
0.010839
0.0104507
0.0100287
0.0095767
0.00909788
0.00859428
0.00806683
0.00751526
0.0069379
0.0063313
0.00568922
0.00500096
0.00425151
0.00342189
0.00260687
0.00467856
0.0145485
0.0138893
0.00826929
0.00871101
0.00641907
0.00305843
0.00276874
0.00341342
0.0041235
0.00475832
0.00529868
0.00574999
0.00612106
0.00641977
0.00665213
0.00683502
0.00697835
0.00709606
0.0072037
0.00731632
0.00744615
0.00759863
0.00776806
0.00793406
0.00805985
0.00809196
0.00796184
0.00759442
0.00690857
0.00583452
0.00420993
0.00227692
0.00265996
0.00421426
0.00579926
0.00762385
0.0106338
0.0166223
0.00661109
0.00748771
0.0117368
0.0137833
0.0133261
0.0109819
0.00871722
0.00797
0.00807719
0.00834706
0.00860239
0.00877308
0.00880377
0.00862698
0.00820682
0.00758194
0.00687193
0.006214
0.00570371
0.00541299
0.00543584
0.00588639
0.00677414
0.00787347
0.00873527
0.00933696
0.00977683
0.0101041
0.010368
0.0106093
0.0108541
0.0111133
0.011386
0.011664
0.0119353
0.0121866
0.012405
0.0125788
0.0126981
0.0127558
0.0127482
0.0126718
0.0125286
0.0123222
0.0120567
0.011737
0.0113683
0.0109556
0.0105035
0.010016
0.00949632
0.00894659
0.00836797
0.00776047
0.007123
0.00645326
0.00574728
0.00499914
0.00420426
0.0033822
0.00284973
0.005892
0.0167292
0.0143782
0.00813371
0.00784583
0.00608364
0.00402935
0.00379592
0.00416128
0.00467717
0.0052014
0.00568426
0.00610965
0.00647436
0.00678134
0.00703603
0.00724423
0.00743037
0.00760642
0.00778972
0.00799408
0.00822769
0.00848959
0.00876662
0.00903127
0.00924058
0.00933577
0.00924303
0.00887557
0.00813579
0.00693206
0.00518524
0.00282655
0.000678645
0.00381344
0.00565058
0.00769829
0.011026
0.0174944
0.00807334
0.008642
0.0127182
0.0144373
0.0135493
0.0109894
0.00880581
0.00806906
0.00808881
0.00831754
0.00859937
0.00884491
0.00899793
0.0089489
0.00860477
0.00796585
0.00716509
0.00639924
0.00582738
0.005568
0.00574172
0.00646175
0.00765426
0.0089375
0.00990307
0.0106246
0.0111125
0.0114162
0.0116001
0.0117238
0.0118322
0.0119528
0.0120977
0.0122671
0.0124533
0.0126442
0.0128252
0.0129814
0.0130988
0.0131655
0.013173
0.0131127
0.012984
0.0127882
0.012528
0.0122079
0.0118325
0.0114072
0.0109368
0.0104259
0.00987829
0.00929697
0.00868398
0.00804061
0.00736768
0.00666602
0.00593712
0.00518501
0.00442473
0.00372236
0.00351324
0.0070556
0.0186499
0.0149286
0.00806862
0.0073394
0.00609507
0.00492143
0.00473523
0.00493181
0.00528366
0.00568477
0.00608202
0.00644963
0.00677693
0.00706292
0.00731239
0.00753289
0.00774361
0.00796211
0.0082063
0.00848874
0.00881425
0.00917723
0.00955979
0.00993056
0.0102438
0.0104387
0.0104387
0.0101524
0.00947603
0.00830058
0.00652413
0.00410298
0.00128303
0.00308562
0.00541221
0.00757867
0.0112062
0.0181454
0.00929824
0.00940099
0.0135325
0.0151486
0.0139831
0.0112324
0.00901028
0.00815523
0.00801347
0.00814537
0.00842358
0.0087498
0.00906446
0.00921924
0.00904166
0.00847011
0.00763516
0.00679629
0.00619058
0.00598694
0.00630694
0.00724779
0.00863373
0.00992797
0.0110307
0.0118545
0.012383
0.0126625
0.0127671
0.0127725
0.0127404
0.0127137
0.0127175
0.0127615
0.0128445
0.0129573
0.0130861
0.0132142
0.0133246
0.0134009
0.0134292
0.0133951
0.0132939
0.0131235
0.0128842
0.012579
0.0122124
0.0117895
0.0113158
0.0107966
0.0102368
0.00964059
0.00901177
0.00835367
0.00767008
0.00696623
0.00625057
0.00553853
0.00486349
0.00431784
0.00434047
0.00807523
0.0203322
0.0156059
0.00813162
0.00716867
0.00633813
0.00567744
0.00553693
0.00564037
0.00587135
0.00615943
0.00646125
0.00675159
0.0070183
0.00725954
0.00748097
0.00769283
0.00790865
0.00815253
0.00844145
0.00878607
0.00918799
0.00963807
0.0101157
0.0105884
0.0110109
0.0113235
0.0114506
0.0112994
0.0107615
0.00971908
0.00806213
0.00572701
0.00284904
0.0023472
0.00492431
0.00722446
0.0112311
0.0186113
0.0102641
0.00972124
0.0141283
0.0158972
0.0146355
0.0117032
0.0093149
0.00821672
0.0078134
0.00775187
0.00796044
0.00836376
0.00888283
0.00933499
0.00943773
0.00904243
0.00826061
0.0074125
0.0068186
0.00669633
0.00714868
0.00823917
0.00956137
0.0109161
0.012113
0.0130137
0.013573
0.0138271
0.0138551
0.0137453
0.0135738
0.0133974
0.0132527
0.0131592
0.0131229
0.0131397
0.0131982
0.0132826
0.0133743
0.0134539
0.013503
0.0135011
0.013438
0.0133067
0.0131042
0.0128312
0.0124908
0.012088
0.0116285
0.0111185
0.0105642
0.00997157
0.00934635
0.00869453
0.00802329
0.00734255
0.00666718
0.00602154
0.00544913
0.00504523
0.00520546
0.00894135
0.0218045
0.0164303
0.00834336
0.0072489
0.00669668
0.00631834
0.00621629
0.00626634
0.006408
0.00659689
0.00680202
0.00700371
0.00719258
0.00736895
0.00754138
0.00772407
0.00793214
0.00818628
0.00850471
0.00889502
0.00935537
0.00987361
0.0104279
0.0109868
0.0115085
0.0119387
0.0122068
0.0122232
0.0118784
0.0110474
0.00960515
0.0074592
0.0046303
0.00220741
0.00420655
0.00666611
0.0110733
0.0189109
0.0109856
0.00955284
0.0144258
0.0166297
0.0154921
0.0124124
0.00974457
0.00829109
0.00750983
0.00711249
0.00713342
0.00758438
0.00835357
0.00921229
0.00972175
0.00962211
0.00899373
0.00821437
0.00768519
0.00766373
0.0082303
0.00924512
0.0105258
0.0118988
0.0131461
0.014096
0.0146736
0.0149
0.014855
0.014636
0.0143311
0.0140085
0.0137151
0.0134788
0.0133127
0.0132185
0.0131891
0.0132114
0.0132676
0.0133373
0.0134002
0.0134299
0.0134103
0.0133285
0.0131768
0.0129522
0.0126559
0.0122917
0.0118652
0.0113835
0.0108538
0.0102838
0.00968168
0.00905594
0.00841715
0.00777917
0.0071616
0.00659365
0.00612102
0.00582927
0.00606345
0.00967935
0.0230916
0.0173859
0.00869561
0.00750142
0.00711235
0.00688283
0.00680417
0.00681619
0.00688623
0.00698684
0.00709769
0.00720603
0.00730751
0.00740674
0.00751647
0.00765503
0.00784238
0.0080949
0.00842998
0.00885075
0.00935102
0.00991552
0.0105217
0.0111407
0.0117367
0.0122643
0.0126632
0.0128539
0.0127326
0.0121724
0.0110322
0.00918333
0.00657105
0.00355413
0.0033266
0.00609452
0.0107822
0.0189401
0.0114986
0.00896371
0.0143553
0.0171445
0.0165378
0.0133695
0.0103575
0.00846524
0.00720465
0.0062995
0.00593028
0.00635175
0.00742641
0.00881564
0.00985456
0.0101605
0.00978068
0.00914793
0.0087315
0.00881542
0.0093715
0.0102992
0.011524
0.012874
0.0141316
0.0151021
0.0156826
0.0158772
0.0157625
0.0154419
0.0150129
0.0145531
0.0141172
0.01374
0.0134407
0.0132264
0.0130952
0.013038
0.0130401
0.0130825
0.0131453
0.0131987
0.0132212
0.0131937
0.0131025
0.01294
0.0127039
0.012396
0.0120213
0.0115867
0.0111007
0.0105723
0.0100117
0.00942989
0.00884012
0.00825916
0.00770925
0.007221
0.00683764
0.00663163
0.00690268
0.0103276
0.0242183
0.0184324
0.00916401
0.00787082
0.0075622
0.00740256
0.00732884
0.00730477
0.00731119
0.00733088
0.00735148
0.00736664
0.00737764
0.00739451
0.00743537
0.0075234
0.00768264
0.00792731
0.00827022
0.00870942
0.00923328
0.00982274
0.0104542
0.0111013
0.0117348
0.0123204
0.0128132
0.0131509
0.0132462
0.0129813
0.0122092
0.0107706
0.00854596
0.00560166
0.00327063
0.00557128
0.0104023
0.0185161
0.0118488
0.00805407
0.0138657
0.0172807
0.017472
0.0147936
0.0112247
0.00881568
0.00706178
0.00553826
0.00447563
0.00467558
0.00614654
0.00819426
0.00985078
0.0106367
0.0105773
0.0101515
0.00987775
0.0100277
0.0105352
0.0113926
0.0125412
0.0138379
0.0150725
0.0160362
0.0166029
0.0167595
0.0165774
0.0161631
0.0156212
0.0150363
0.0144689
0.0139589
0.0135298
0.0131933
0.0129524
0.0128028
0.0127341
0.0127309
0.0127758
0.0128394
0.012896
0.0129209
0.0128944
0.012803
0.0126399
0.0124037
0.0120975
0.0117278
0.0113031
0.0108339
0.0103314
0.00980869
0.00928097
0.00876665
0.00828898
0.00787788
0.00757253
0.00743345
0.00772322
0.0109284
0.0252162
0.0195164
0.00971826
0.00831998
0.00803658
0.00789804
0.0078115
0.00774756
0.0076933
0.00763751
0.00757349
0.00750024
0.00742433
0.00736125
0.00733457
0.00737234
0.00750184
0.00773754
0.00808356
0.00853327
0.00906893
0.00966696
0.0103015
0.010947
0.011579
0.0121731
0.0127006
0.013122
0.0133772
0.0133739
0.0129801
0.0120285
0.0103524
0.0078699
0.00507115
0.00523483
0.00978558
0.0174765
0.0120805
0.00682707
0.0129827
0.0170036
0.0180755
0.0161839
0.012773
0.0095947
0.00714455
0.00506088
0.00313194
0.0026944
0.00473931
0.00751376
0.00978689
0.0110606
0.0113514
0.0111607
0.0110434
0.011227
0.0117101
0.0124982
0.0135611
0.0147852
0.0159714
0.016904
0.0174397
0.0175508
0.0173022
0.0168017
0.0161584
0.0154618
0.0147764
0.0141454
0.013595
0.0131404
0.0127884
0.0125396
0.0123886
0.0123246
0.0123339
0.0123912
0.0124693
0.0125393
0.012576
0.0125596
0.0124777
0.0123246
0.0121007
0.0118107
0.0114628
0.0110676
0.0106372
0.0101858
0.00972963
0.00928781
0.00888353
0.00854514
0.008308
0.00822361
0.0085264
0.0115297
0.0261208
0.0205825
0.0103272
0.00882194
0.00852864
0.0083804
0.00826641
0.00815761
0.00804389
0.00791766
0.00777628
0.00762304
0.00746903
0.00733453
0.00724791
0.00724101
0.00734251
0.0075688
0.00791537
0.00837089
0.00891174
0.00950944
0.0101347
0.0107603
0.0113628
0.0119226
0.0124225
0.0128437
0.0131572
0.0133108
0.0132118
0.0127157
0.0116351
0.00978445
0.0072009
0.00552038
0.00879253
0.0157079
0.0122338
0.00534391
0.0117584
0.0163138
0.0182538
0.0172944
0.0144166
0.0110477
0.00797297
0.00522397
0.00245185
0.000646618
0.00373938
0.00703963
0.00977725
0.0114568
0.012075
0.0121269
0.0121614
0.012395
0.0128653
0.0135899
0.0145665
0.015708
0.0168285
0.01771
0.0181987
0.0182558
0.0179403
0.0173597
0.0166256
0.0158304
0.0150411
0.0143022
0.0136419
0.0130773
0.0126184
0.0122698
0.0120311
0.0118968
0.0118571
0.0118929
0.0119783
0.0120829
0.0121768
0.0122345
0.0122373
0.0121745
0.0120426
0.0118436
0.0115844
0.0112749
0.0109274
0.0105561
0.0101777
0.00981116
0.00947904
0.00920793
0.00903011
0.00899072
0.00930041
0.0121534
0.0269871
0.0215829
0.0109614
0.00935502
0.00903105
0.00885414
0.00870221
0.00854465
0.00837286
0.00818159
0.0079712
0.00774824
0.00752728
0.00733223
0.00719503
0.00715032
0.00722713
0.00744176
0.00778628
0.00824429
0.00878736
0.00938244
0.0099963
0.0105985
0.0111629
0.0116691
0.0121023
0.0124533
0.0127154
0.0128755
0.0128971
0.0126979
0.012131
0.0109899
0.0090567
0.00671552
0.00747751
0.0131759
0.0123336
0.00371062
0.010262
0.0152423
0.0179713
0.0179656
0.0158373
0.0127012
0.00937304
0.00620875
0.00323686
0.00151267
0.00381065
0.00699617
0.00989659
0.0118307
0.0127212
0.0130171
0.0132019
0.0135024
0.0139712
0.0146429
0.0155394
0.0165967
0.0176414
0.0184567
0.018884
0.0188781
0.018494
0.0178379
0.0170221
0.01614
0.0152595
0.0144256
0.0136672
0.0130028
0.0124445
0.0120005
0.0116747
0.0114671
0.0113714
0.0113753
0.0114563
0.0115848
0.0117281
0.0118555
0.0119427
0.0119731
0.0119385
0.0118377
0.0116752
0.0114593
0.0112017
0.0109161
0.0106185
0.0103275
0.0100645
0.00985434
0.00972645
0.0097203
0.010021
0.0130371
0.0277565
0.0224832
0.0115966
0.00990149
0.00953605
0.00931967
0.0091234
0.00891522
0.00868767
0.00843729
0.00816659
0.00788437
0.00760738
0.00736166
0.0071812
0.0071025
0.00715537
0.00735482
0.00769321
0.00815036
0.00869416
0.00928769
0.00989407
0.0104793
0.0110136
0.0114721
0.011836
0.0120936
0.0122417
0.0122842
0.012226
0.0120558
0.0117181
0.0110701
0.00984066
0.00781816
0.0064994
0.010052
0.012388
0.00207427
0.00855431
0.0138383
0.0172418
0.0181285
0.0168198
0.0141703
0.0109672
0.00773562
0.00489556
0.00347395
0.00476588
0.00746041
0.0102301
0.0122439
0.0133215
0.0138153
0.0141467
0.0145233
0.0150029
0.015635
0.0164627
0.0174406
0.0184051
0.0191432
0.0194967
0.019419
0.0189633
0.0182344
0.0173439
0.0163847
0.015424
0.0145064
0.0136609
0.0129068
0.0122582
0.011726
0.0113185
0.0110406
0.0108888
0.0108574
0.0109278
0.0110725
0.011258
0.0114499
0.0116182
0.011741
0.0118052
0.0118056
0.0117435
0.0116254
0.0114611
0.0112634
0.0110472
0.01083
0.0106319
0.0104758
0.0103881
0.010403
0.0106785
0.0142279
0.0284091
0.0232596
0.0122143
0.0104475
0.0100363
0.0097753
0.00953179
0.00927319
0.00899325
0.00868995
0.00836727
0.00803511
0.00771099
0.00742143
0.00720106
0.00708776
0.00711306
0.00729248
0.0076195
0.00807231
0.00861579
0.00920973
0.00981414
0.010392
0.0109101
0.0113396
0.0116562
0.0118413
0.0118834
0.0117808
0.0115428
0.0111883
0.0107342
0.0101578
0.00930641
0.00783159
0.00569423
0.00617274
0.0123479
0.00075609
0.00665509
0.0121656
0.016125
0.0177881
0.0172617
0.0151958
0.0123166
0.00924521
0.0065872
0.00527188
0.00592172
0.00814268
0.0107153
0.0126983
0.0138673
0.014512
0.0149806
0.0154396
0.0159414
0.0165482
0.0173215
0.0182289
0.019113
0.0197658
0.0200344
0.0198761
0.0193448
0.0185444
0.0175842
0.0165553
0.0155231
0.0145312
0.0136081
0.0127736
0.0120437
0.0114322
0.0109511
0.0106105
0.0104089
0.0103459
0.0104066
0.0105658
0.0107898
0.0110414
0.0112865
0.0114985
0.0116593
0.0117599
0.0117982
0.0117781
0.0117073
0.0115969
0.0114605
0.011314
0.0111763
0.011068
0.0110129
0.0110423
0.0112974
0.0156552
0.0289589
0.023897
0.0128016
0.0109826
0.0105257
0.0102186
0.00992753
0.00962037
0.00929216
0.00894202
0.00857459
0.00819971
0.0078342
0.00750367
0.00724254
0.00709018
0.00708147
0.0072347
0.00754509
0.00799069
0.00853349
0.00913023
0.0097381
0.0103176
0.0108331
0.0112527
0.0115485
0.0116961
0.0116764
0.0114776
0.0110972
0.0105462
0.00984773
0.00901691
0.00800296
0.00661823
0.00463303
0.00235834
0.0121878
0.000394798
0.00457199
0.010317
0.0147153
0.0170121
0.0171673
0.0156676
0.013176
0.010352
0.00787535
0.00658181
0.00691953
0.00883696
0.0112283
0.013131
0.0143363
0.0151008
0.0156986
0.0162432
0.0167752
0.0173701
0.0181045
0.018952
0.0197571
0.0203177
0.0204911
0.0202433
0.0196317
0.0187593
0.0177328
0.0166397
0.0155428
0.014484
0.013491
0.0125842
0.0117814
0.0110996
0.0105548
0.0101625
0.00992207
0.00983825
0.00989793
0.0100767
0.0103402
0.0106494
0.0109671
0.0112631
0.0115156
0.011712
0.0118472
0.0119221
0.0119421
0.0119163
0.0118565
0.0117771
0.0116955
0.0116306
0.0116036
0.0116469
0.0119268
0.0172635
0.0294157
0.0243893
0.0133506
0.0114996
0.0109992
0.0106468
0.0103097
0.00995696
0.00958489
0.00919331
0.00878663
0.00837345
0.00796863
0.00759597
0.00728955
0.00709118
0.00704094
0.00716212
0.00745189
0.00788891
0.008432
0.00903475
0.00965168
0.0102411
0.0107656
0.0111916
0.0114884
0.0116289
0.0115896
0.011352
0.0109056
0.0102523
0.0094105
0.00840931
0.00725553
0.00588627
0.00422119
0.00230246
0.0118889
0.00062531
0.00248696
0.00841558
0.013129
0.0159079
0.016612
0.0156015
0.013478
0.0109118
0.00861072
0.00734936
0.00761013
0.00942771
0.0116904
0.0134945
0.0147113
0.0155827
0.0163049
0.0169336
0.0174995
0.0180937
0.0188039
0.0196016
0.0203281
0.0207891
0.020857
0.0205106
0.0198133
0.0188678
0.0177768
0.0166237
0.0154675
0.0143477
0.013291
0.0123186
0.0114502
0.0107067
0.0101089
0.00967832
0.00941408
0.00932634
0.009401
0.00961139
0.00992088
0.0102885
0.0106753
0.011049
0.011386
0.0116712
0.0118968
0.0120611
0.0121671
0.0122215
0.0122342
0.012218
0.0121888
0.0121641
0.012163
0.012218
0.0126733
0.0189285
0.0297861
0.0247382
0.013858
0.0119936
0.011453
0.0110575
0.0106769
0.0102819
0.00987006
0.00944123
0.0089986
0.00854844
0.00810284
0.0076836
0.00732508
0.00707287
0.00697404
0.00705857
0.00732577
0.00775476
0.00830075
0.00891389
0.009546
0.0101535
0.0106975
0.0111433
0.0114591
0.0116163
0.0115891
0.0113565
0.0109037
0.0102269
0.00933959
0.00827905
0.00710951
0.00591328
0.00477985
0.00351154
0.0114374
0.000975559
0.00120085
0.00662243
0.011496
0.0146022
0.0157109
0.0150836
0.0132672
0.0109286
0.00878928
0.00761218
0.0079985
0.00988803
0.0120579
0.0137582
0.0149873
0.0159678
0.01681
0.0175153
0.0181143
0.0187168
0.0194154
0.0201702
0.0208156
0.0211676
0.0211188
0.0206648
0.0198767
0.0188564
0.0177024
0.0164924
0.0152812
0.0141053
0.0129901
0.0119573
0.0110294
0.0102321
0.00959235
0.00913915
0.00886988
0.00880088
0.00891306
0.00917329
0.00953993
0.00996934
0.0104222
0.0108666
0.011279
0.0116437
0.0119511
0.0121975
0.0123832
0.0125125
0.0125931
0.0126361
0.0126559
0.0126686
0.0126915
0.0127516
0.0136244
0.0205618
0.030077
0.0249511
0.0143234
0.0124616
0.0118842
0.0114481
0.0110267
0.0105929
0.0101446
0.00968107
0.00920335
0.00871462
0.008224
0.0077517
0.00733347
0.00702011
0.00686702
0.006912
0.00715683
0.00758037
0.00813356
0.00876266
0.00941663
0.0100501
0.0106233
0.0111007
0.0114501
0.0116421
0.0116506
0.0114537
0.0110354
0.01039
0.00952834
0.00848976
0.00736388
0.00631004
0.00551562
0.00453451
0.0108344
0.00137988
0.00144357
0.00509044
0.00994572
0.0132215
0.0145935
0.0142355
0.0126443
0.0104815
0.00848273
0.00746529
0.00818766
0.0102416
0.0123109
0.0139118
0.0151751
0.0162747
0.0172274
0.0179952
0.0186224
0.0192404
0.019937
0.0206505
0.0212071
0.0214379
0.0212607
0.0206907
0.0198071
0.0187111
0.0174955
0.016232
0.0149699
0.0137421
0.0125724
0.011483
0.0104999
0.00965519
0.00898551
0.00852803
0.00827635
0.00825446
0.00843277
0.00876592
0.00920373
0.00969945
0.010215
0.0107218
0.0111993
0.0116327
0.0120123
0.0123322
0.0125905
0.0127889
0.0129326
0.0130308
0.0130963
0.013144
0.0131899
0.0132606
0.0147819
0.0221191
0.0302856
0.0250374
0.0147473
0.0129016
0.0122902
0.0118159
0.0113565
0.0108865
0.0104039
0.00990639
0.00939214
0.00886098
0.00831935
0.00778683
0.00730172
0.00692125
0.00671007
0.00671441
0.00693906
0.00736162
0.00792786
0.00857951
0.00926246
0.0099297
0.0105407
0.0110597
0.0114544
0.0116953
0.011756
0.0116145
0.011255
0.0106709
0.00987147
0.00889295
0.00782544
0.00684507
0.00618711
0.00528679
0.0101028
0.00176381
0.00168003
0.0038982
0.00858252
0.0118812
0.0133907
0.0131909
0.0117331
0.0096808
0.00780065
0.00706754
0.00832776
0.0105125
0.012439
0.0139651
0.0153007
0.0165258
0.0175695
0.0183792
0.0190285
0.0196681
0.0203672
0.0210338
0.0214879
0.0215825
0.021265
0.0205719
0.0195903
0.0184192
0.017145
0.0158319
0.0145232
0.0132475
0.0120263
0.0108822
0.00984548
0.00895687
0.00826867
0.00781355
0.00761755
0.0076821
0.00796212
0.00839472
0.0089183
0.00948378
0.0100573
0.0106168
0.0111476
0.0116383
0.0120797
0.0124645
0.0127883
0.0130498
0.0132519
0.0134016
0.0135101
0.0135905
0.01366
0.0138084
0.0161007
0.0235551
0.0304042
0.025006
0.0151293
0.013311
0.012668
0.0121579
0.0116626
0.0111583
0.0106421
0.0101095
0.00955541
0.00897653
0.00837737
0.0077779
0.00722001
0.0067681
0.00649675
0.00646112
0.00666963
0.00709753
0.00768406
0.00836561
0.00908474
0.00979294
0.0104493
0.0110182
0.0114672
0.011767
0.0118908
0.0118165
0.0115279
0.011018
0.0102934
0.00938382
0.0083669
0.00740551
0.00676252
0.00585594
0.00929868
0.0020246
0.00149666
0.00308508
0.00747535
0.0106786
0.0122233
0.0120795
0.0106549
0.00863435
0.00687119
0.00666655
0.00852458
0.0106848
0.0124398
0.0139492
0.0153984
0.0167402
0.0178435
0.0186712
0.019338
0.020004
0.0207034
0.0213085
0.0216405
0.0215822
0.0211143
0.0202942
0.0192153
0.0179727
0.0166448
0.0152876
0.0139376
0.0126179
0.0113469
0.0101473
0.00905497
0.00812274
0.0074255
0.00699579
0.00689391
0.00709087
0.00751206
0.00806963
0.00869009
0.00932503
0.00994872
0.0105496
0.0111213
0.0116578
0.012151
0.0125925
0.012975
0.0132943
0.0135504
0.0137481
0.0138969
0.0140084
0.0141035
0.0144535
0.0175257
0.0248465
0.0304296
0.0248686
0.0154683
0.0136866
0.0130142
0.0124701
0.0119405
0.0114027
0.0108523
0.010282
0.00968363
0.00905128
0.00838851
0.00771663
0.00708169
0.00655563
0.00622347
0.00615007
0.00634828
0.00678967
0.00740501
0.00812432
0.00888655
0.00964199
0.0103498
0.0109748
0.0114849
0.0118502
0.0120437
0.0120422
0.0118287
0.0113949
0.0107441
0.00989829
0.00891884
0.00794549
0.00725488
0.00630364
0.00850998
0.0020392
0.000824081
0.00284999
0.00659029
0.00967417
0.0111878
0.0110128
0.00950316
0.00741195
0.00583729
0.00654691
0.00875421
0.0107184
0.0123375
0.0139141
0.0154995
0.0169269
0.0180496
0.0188734
0.019557
0.0202519
0.0209399
0.0214597
0.0216455
0.0214183
0.0207938
0.0198479
0.0186773
0.0173709
0.0159977
0.0146042
0.0132189
0.0118592
0.0105387
0.00927956
0.00812406
0.00714332
0.00644642
0.00608091
0.00612422
0.00650643
0.00710597
0.00780621
0.00852598
0.00922336
0.00988549
0.0105144
0.0111148
0.0116863
0.0122225
0.0127134
0.0131487
0.0135207
0.0138267
0.0140693
0.0142559
0.0143972
0.0145378
0.0152217
0.0190004
0.0259847
0.0303626
0.0246385
0.0157636
0.0140249
0.0133247
0.0127479
0.0121847
0.0116133
0.0110269
0.0104154
0.00976792
0.00907679
0.00834556
0.0075975
0.00688294
0.00628127
0.00588862
0.00578096
0.00597675
0.00644172
0.00709559
0.00786064
0.00867215
0.0094798
0.0102435
0.0109288
0.0115041
0.011939
0.0122051
0.0122777
0.0121382
0.0117762
0.011192
0.0103997
0.00944598
0.00844631
0.0076798
0.00666774
0.0078386
0.0016839
0.000372614
0.00316367
0.00612006
0.00877664
0.0103118
0.0100641
0.0083071
0.00602911
0.00497763
0.00674046
0.00889707
0.0105985
0.012194
0.0139131
0.0156199
0.0170822
0.018183
0.0189881
0.0196923
0.0204127
0.0210661
0.0214688
0.0214833
0.0210757
0.020295
0.019232
0.0179819
0.016625
0.0152186
0.0137989
0.0123861
0.0109903
0.00961918
0.008292
0.00705773
0.00601393
0.00532625
0.00507409
0.00534095
0.00597058
0.00677685
0.00762248
0.00843107
0.00917537
0.00985991
0.0105027
0.01112
0.0117174
0.0122895
0.012824
0.013307
0.0137274
0.0140795
0.0143635
0.0145857
0.0147604
0.0149839
0.0161248
0.0204722
0.0269625
0.0302033
0.0243294
0.0160135
0.0143216
0.0135945
0.0129858
0.0123892
0.0117831
0.0111581
0.0105016
0.00980064
0.00904661
0.00824376
0.00741755
0.0066222
0.00594425
0.00549182
0.00535409
0.0055578
0.00605893
0.00676233
0.00758093
0.00844675
0.00930982
0.0101317
0.0108795
0.011522
0.0120279
0.0123672
0.0125125
0.0124428
0.0121454
0.0116175
0.0108677
0.00993044
0.00889926
0.00804721
0.00696967
0.00736168
0.00100545
0.00130247
0.0037378
0.00607223
0.00815203
0.00948736
0.00924014
0.00697918
0.00452554
0.00477924
0.00702433
0.00883368
0.0103761
0.0120939
0.0139792
0.0157535
0.0171923
0.0182375
0.0190198
0.0197507
0.0204831
0.0210666
0.0213155
0.0211374
0.0205465
0.0196205
0.0184584
0.0171489
0.0157605
0.0143373
0.0129042
0.0114734
0.0100465
0.00862285
0.00721545
0.00587581
0.00473769
0.00406567
0.00401722
0.00461812
0.00554834
0.00656343
0.00753387
0.00840537
0.00917282
0.00986075
0.0105035
0.0111281
0.0117447
0.0123475
0.0129211
0.0134477
0.0139123
0.0143065
0.0146288
0.0148879
0.0151014
0.0154691
0.0171579
0.0218958
0.0277747
0.0299518
0.0239539
0.0162155
0.0145714
0.0138179
0.0131775
0.0125471
0.0119046
0.0112384
0.0105336
0.00977573
0.0089563
0.00808051
0.00717558
0.00629867
0.00554287
0.00503026
0.00486844
0.00509565
0.00564848
0.00641362
0.00729299
0.0082165
0.00913619
0.0100165
0.0108268
0.0115363
0.0121129
0.0125239
0.0127388
0.0127331
0.0124915
0.0120092