/*--------------------------------*- C++ -*----------------------------------*\
| =========                 |                                                 |
| \\      /  F ield         | OpenFOAM: The Open Source CFD Toolbox           |
|  \\    /   O peration     | Version:  4.1                                   |
|   \\  /    A nd           | Web:      www.OpenFOAM.org                      |
|    \\/     M anipulation  |                                                 |
\*---------------------------------------------------------------------------*/
FoamFile
{
    version     2.0;
    format      ascii;
    class       surfaceScalarField;
    location    "980";
    object      phi;
}
// * * * * * * * * * * * * * * * * * * * * * * * * * * * * * * * * * * * * * //

dimensions      [0 3 -1 0 0 0 0];

internalField   nonuniform List<scalar> 
9850
(
-1.89417e-06
1.89417e-06
1.18986e-06
-3.08402e-06
2.53734e-06
-1.34748e-06
2.25219e-06
2.85151e-07
-1.46928e-06
3.72146e-06
-7.03979e-06
5.57051e-06
-1.07481e-05
3.70829e-06
-1.20242e-05
1.27607e-06
-1.20428e-05
1.86315e-08
-1.16011e-05
-4.41702e-07
-1.10442e-05
-5.56899e-07
-1.0481e-05
-5.63194e-07
-9.93624e-06
-5.44743e-07
-9.41199e-06
-5.24255e-07
-8.90847e-06
-5.03522e-07
-8.42652e-06
-4.81942e-07
-7.96413e-06
-4.624e-07
-7.51298e-06
-4.51146e-07
-7.05729e-06
-4.5569e-07
-6.57465e-06
-4.82635e-07
-6.03882e-06
-5.35839e-07
-5.42417e-06
-6.14642e-07
-4.71196e-06
-7.12215e-07
-3.89675e-06
-8.15206e-07
-2.99007e-06
-9.06684e-07
-2.01906e-06
-9.71012e-07
-1.0057e-06
-1.01336e-06
4.18285e-08
-1.04753e-06
1.04885e-06
-1.00702e-06
1.92987e-06
-8.81014e-07
2.77495e-06
-8.45083e-07
3.68944e-06
-9.14487e-07
4.55207e-06
-8.62631e-07
5.32486e-06
-7.72788e-07
5.98976e-06
-6.64906e-07
6.53892e-06
-5.49156e-07
6.97105e-06
-4.32127e-07
7.28967e-06
-3.18626e-07
7.50156e-06
-2.11892e-07
7.61581e-06
-1.14241e-07
7.64372e-06
-2.79148e-08
7.59739e-06
4.63266e-08
7.4887e-06
1.08689e-07
7.32971e-06
1.58999e-07
7.13252e-06
1.97182e-07
6.90917e-06
2.23354e-07
6.67115e-06
2.38016e-07
6.42926e-06
2.41892e-07
6.19348e-06
2.35785e-07
5.97309e-06
2.20387e-07
5.7769e-06
1.96189e-07
5.6139e-06
1.63004e-07
5.4955e-06
1.18399e-07
5.4403e-06
5.51911e-08
5.4673e-06
-2.69921e-08
5.59747e-06
-1.30176e-07
5.85685e-06
-2.59379e-07
6.28517e-06
-4.28313e-07
6.93424e-06
-6.49078e-07
7.83403e-06
-8.99787e-07
8.82482e-06
-9.90789e-07
9.15882e-06
-3.33996e-07
7.33909e-06
1.81973e-06
3.26337e-06
4.07572e-06
8.49545e-07
2.41383e-06
-4.37812e-06
5.22767e-06
-7.56603e-06
3.18791e-06
-7.99117e-06
4.25139e-07
-7.11811e-06
-8.73056e-07
-6.12811e-06
-9.90002e-07
-5.44266e-06
-6.85447e-07
-5.04623e-06
-3.96439e-07
-4.81945e-06
-2.26771e-07
-4.65946e-06
-1.59992e-07
-4.50301e-06
-1.56453e-07
-4.31605e-06
-1.86956e-07
-4.07997e-06
-2.36079e-07
-3.78051e-06
-2.9946e-07
-3.40404e-06
-3.76478e-07
-2.93673e-06
-4.67308e-07
-2.36512e-06
-5.71604e-07
-1.67543e-06
-6.89694e-07
-8.50782e-07
-8.24648e-07
1.28942e-07
-9.79724e-07
1.26523e-06
-1.13629e-06
2.53624e-06
-1.27101e-06
3.8776e-06
-1.34136e-06
5.24383e-06
-1.36623e-06
6.57877e-06
-1.33494e-06
7.81047e-06
-1.23169e-06
8.85789e-06
-1.04742e-06
9.63842e-06
-7.8054e-07
1.00874e-05
-4.49003e-07
1.01845e-05
-9.70759e-08
9.93429e-06
2.50218e-07
9.34713e-06
5.87154e-07
8.3958e-06
9.51327e-07
6.93629e-06
1.45951e-06
4.48614e-06
2.45016e-06
4.48614e-06
-4.33628e-07
2.3278e-06
9.71843e-07
-4.4895e-06
5.33917e-07
-9.09553e-07
-2.58585e-06
3.40492e-06
-6.39181e-06
7.52742e-06
-8.66216e-06
7.84086e-06
-1.01469e-05
5.193e-06
-1.08137e-05
1.94292e-06
-1.08898e-05
9.46608e-08
-1.07471e-05
-5.84363e-07
-1.05234e-05
-7.80626e-07
-1.02263e-05
-8.60239e-07
-9.85693e-06
-9.14138e-07
-9.42917e-06
-9.52013e-07
-8.9632e-06
-9.69486e-07
-8.47678e-06
-9.68369e-07
-7.9794e-06
-9.5978e-07
-7.47047e-06
-9.60075e-07
-6.94007e-06
-9.86089e-07
-6.37057e-06
-1.05213e-06
-5.73867e-06
-1.16774e-06
-5.01867e-06
-1.33464e-06
-4.18816e-06
-1.54272e-06
-3.23541e-06
-1.76795e-06
-2.16387e-06
-1.97823e-06
-9.83569e-07
-2.15131e-06
2.72363e-07
-2.26929e-06
1.4802e-06
-2.25536e-06
2.60248e-06
-2.1293e-06
3.69357e-06
-1.97211e-06
4.67585e-06
-1.82736e-06
5.46453e-06
-1.70318e-06
6.15266e-06
-1.55076e-06
6.74096e-06
-1.36108e-06
7.23161e-06
-1.15556e-06
7.62975e-06
-9.47299e-07
7.9408e-06
-7.43175e-07
8.17051e-06
-5.48334e-07
8.32563e-06
-3.67016e-07
8.41399e-06
-2.02603e-07
8.44402e-06
-5.794e-08
8.42213e-06
6.8213e-08
8.35522e-06
1.75602e-07
8.24791e-06
2.66311e-07
8.10623e-06
3.38863e-07
7.93669e-06
3.92893e-07
7.7463e-06
4.28404e-07
7.54252e-06
4.45677e-07
7.3331e-06
4.45206e-07
7.12621e-06
4.27277e-07
6.93094e-06
3.91459e-07
6.75864e-06
3.35302e-07
6.62494e-06
2.52097e-07
6.54625e-06
1.3388e-07
6.52896e-06
-9.70545e-09
6.58299e-06
-1.84205e-07
6.71616e-06
-3.92542e-07
6.93775e-06
-6.4991e-07
7.25235e-06
-9.63677e-07
7.65355e-06
-1.30098e-06
8.07414e-06
-1.41139e-06
7.9239e-06
-1.83751e-07
5.96835e-06
3.77528e-06
2.73035e-06
7.31372e-06
-3.47104e-07
5.49128e-06
-3.70296e-06
8.58352e-06
-5.86116e-06
5.34611e-06
-6.20705e-06
7.71031e-07
-5.63637e-06
-1.44374e-06
-5.12808e-06
-1.49829e-06
-4.76357e-06
-1.04996e-06
-4.50521e-06
-6.54796e-07
-4.3316e-06
-4.00384e-07
-4.21882e-06
-2.7277e-07
-4.13412e-06
-2.4115e-07
-4.04278e-06
-2.78295e-07
-3.9134e-06
-3.65464e-07
-3.72053e-06
-4.92326e-07
-3.44382e-06
-6.53193e-07
-3.06647e-06
-8.44652e-07
-2.57405e-06
-1.06403e-06
-1.95449e-06
-1.30925e-06
-1.19903e-06
-1.5801e-06
-3.01753e-07
-1.87701e-06
7.43438e-07
-2.18148e-06
1.90101e-06
-2.42858e-06
3.14614e-06
-2.58649e-06
4.44675e-06
-2.66684e-06
5.74628e-06
-2.63448e-06
6.97266e-06
-2.45806e-06
8.04401e-06
-2.11877e-06
8.86998e-06
-1.60652e-06
9.36695e-06
-9.45971e-07
9.48106e-06
-2.11184e-07
9.20288e-06
5.284e-07
8.53792e-06
1.25211e-06
7.4794e-06
2.00985e-06
5.9335e-06
3.00541e-06
3.58196e-06
4.8017e-06
8.0681e-06
2.61197e-07
2.0666e-06
-3.29275e-07
-3.89902e-06
-2.97034e-06
1.73152e-06
-6.21586e-06
6.65043e-06
-7.90955e-06
9.22111e-06
-8.81998e-06
8.7513e-06
-9.19588e-06
5.56891e-06
-9.34856e-06
2.0956e-06
-9.49889e-06
2.44992e-07
-9.62279e-06
-4.6046e-07
-9.60662e-06
-7.968e-07
-9.43273e-06
-1.03413e-06
-9.12547e-06
-1.2214e-06
-8.7249e-06
-1.35258e-06
-8.2714e-06
-1.42299e-06
-7.79598e-06
-1.44379e-06
-7.31493e-06
-1.44083e-06
-6.82921e-06
-1.4458e-06
-6.32677e-06
-1.48853e-06
-5.78507e-06
-1.59383e-06
-5.17323e-06
-1.77958e-06
-4.45581e-06
-2.05207e-06
-3.60045e-06
-2.39808e-06
-2.58937e-06
-2.77903e-06
-1.4307e-06
-3.1369e-06
-1.61588e-07
-3.42042e-06
1.07907e-06
-3.50994e-06
2.25064e-06
-3.42693e-06
3.38401e-06
-3.26268e-06
4.45671e-06
-3.0448e-06
5.42959e-06
-2.80024e-06
6.26876e-06
-2.54235e-06
6.98314e-06
-2.26514e-06
7.58724e-06
-1.96519e-06
8.08619e-06
-1.65451e-06
8.48466e-06
-1.34576e-06
8.78882e-06
-1.04734e-06
9.00561e-06
-7.65123e-07
9.14235e-06
-5.03755e-07
9.20651e-06
-2.66766e-07
9.20502e-06
-5.64479e-08
9.14666e-06
1.26569e-07
9.03971e-06
2.82555e-07
8.8932e-06
4.12822e-07
8.71449e-06
5.17569e-07
8.51048e-06
5.96904e-07
8.28776e-06
6.51131e-07
8.05278e-06
6.80652e-07
7.81214e-06
6.85842e-07
7.57264e-06
6.66784e-07
7.34123e-06
6.22871e-07
7.12431e-06
5.52222e-07
6.92514e-06
4.51266e-07
6.74278e-06
3.1624e-07
6.58599e-06
1.4708e-07
6.45904e-06
-5.72507e-08
6.37159e-06
-3.05096e-07
6.32704e-06
-6.0536e-07
6.32181e-06
-9.58444e-07
6.33437e-06
-1.31354e-06
6.26425e-06
-1.34127e-06
5.66014e-06
4.20357e-07
3.58254e-06
5.85287e-06
1.02507e-06
9.8712e-06
-7.10438e-07
7.22678e-06
-2.36398e-06
1.02371e-05
-3.62279e-06
6.60491e-06
-3.83592e-06
9.84163e-07
-3.87543e-06
-1.40423e-06
-4.01239e-06
-1.36133e-06
-4.15923e-06
-9.03122e-07
-4.28656e-06
-5.27462e-07
-4.39075e-06
-2.96198e-07
-4.46976e-06
-1.93762e-07
-4.5165e-06
-1.9441e-07
-4.51851e-06
-2.76277e-07
-4.46199e-06
-4.21986e-07
-4.33198e-06
-6.22339e-07
-4.11361e-06
-8.71563e-07
-3.79317e-06
-1.1651e-06
-3.35887e-06
-1.49833e-06
-2.80202e-06
-1.86609e-06
-2.1198e-06
-2.26232e-06
-1.31895e-06
-2.67786e-06
-4.04868e-07
-3.09556e-06
6.4574e-07
-3.47919e-06
1.81143e-06
-3.75218e-06
3.03699e-06
-3.8924e-06
4.2817e-06
-3.87919e-06
5.48423e-06
-3.66059e-06
6.56643e-06
-3.20097e-06
7.43437e-06
-2.47445e-06
7.98307e-06
-1.49467e-06
8.11575e-06
-3.43865e-07
7.81318e-06
8.30971e-07
7.11316e-06
1.95213e-06
6.05889e-06
3.06412e-06
4.65144e-06
4.41286e-06
2.73704e-06
6.7161e-06
1.08051e-05
-8.37662e-08
2.15036e-06
-2.5885e-06
-1.39429e-06
-5.49611e-06
4.63913e-06
-7.33976e-06
8.49408e-06
-8.2999e-06
1.01813e-05
-8.52619e-06
8.97759e-06
-8.44741e-06
5.49012e-06
-8.52081e-06
2.169e-06
-8.78041e-06
5.04592e-07
-8.98885e-06
-2.5202e-07
-9.02188e-06
-7.63765e-07
-8.87153e-06
-1.18449e-06
-8.57078e-06
-1.52214e-06
-8.1663e-06
-1.75706e-06
-7.70703e-06
-1.88227e-06
-7.23274e-06
-1.91807e-06
-6.76459e-06
-1.90897e-06
-6.30319e-06
-1.90721e-06
-5.83233e-06
-1.95939e-06
-5.32263e-06
-2.10353e-06
-4.7338e-06
-2.36841e-06
-4.01885e-06
-2.76702e-06
-3.13519e-06
-3.28174e-06
-2.06347e-06
-3.85074e-06
-8.28822e-07
-4.37155e-06
4.43936e-07
-4.69318e-06
1.68103e-06
-4.74704e-06
2.89223e-06
-4.63813e-06
4.05308e-06
-4.42353e-06
5.1399e-06
-4.13162e-06
6.12736e-06
-3.78771e-06
6.99569e-06
-3.41067e-06
7.74088e-06
-3.01033e-06
8.3695e-06
-2.59381e-06
8.887e-06
-2.172e-06
9.29802e-06
-1.75678e-06
9.60832e-06
-1.35764e-06
9.82475e-06
-9.81557e-07
9.95481e-06
-6.33808e-07
1.00064e-05
-3.18322e-07
9.9875e-06
-3.75901e-08
9.90638e-06
2.0769e-07
9.77149e-06
4.17445e-07
9.59155e-06
5.92761e-07
9.37466e-06
7.34461e-07
9.12823e-06
8.4334e-07
8.85914e-06
9.20215e-07
8.57386e-06
9.65938e-07
8.27843e-06
9.81269e-07
7.97853e-06
9.66685e-07
7.67924e-06
9.22161e-07
7.38452e-06
8.46945e-07
7.09627e-06
7.39515e-07
6.81438e-06
5.98131e-07
6.53976e-06
4.21694e-07
6.27507e-06
2.07443e-07
6.01525e-06
-4.52828e-08
5.76124e-06
-3.51348e-07
5.50159e-06
-6.98789e-07
5.21786e-06
-1.02981e-06
4.82669e-06
-9.50101e-07
3.91201e-06
1.33504e-06
1.51443e-06
8.25045e-06
-2.55734e-07
1.16414e-05
-9.63956e-07
7.93501e-06
-1.34997e-06
1.06231e-05
-1.90237e-06
7.15731e-06
-2.17524e-06
1.25704e-06
-2.79556e-06
-7.83919e-07
-3.43768e-06
-7.19202e-07
-3.94488e-06
-3.95924e-07
-4.33007e-06
-1.42273e-07
-4.61547e-06
-1.0799e-08
-4.82527e-06
1.60374e-08
-4.97432e-06
-4.5355e-08
-5.05838e-06
-1.92219e-07
-5.07283e-06
-4.0753e-07
-5.00753e-06
-6.87648e-07
-4.85099e-06
-1.0281e-06
-4.59234e-06
-1.42375e-06
-4.22244e-06
-1.86823e-06
-3.73521e-06
-2.35332e-06
-3.12945e-06
-2.86808e-06
-2.41037e-06
-3.39694e-06
-1.58924e-06
-3.91669e-06
-6.73469e-07
-4.39496e-06
3.65361e-07
-4.79101e-06
1.50082e-06
-5.02786e-06
2.66941e-06
-5.04777e-06
3.8285e-06
-4.81968e-06
4.90817e-06
-4.28064e-06
5.82517e-06
-3.39146e-06
6.46325e-06
-2.13274e-06
6.68017e-06
-5.60788e-07
6.43853e-06
1.07261e-06
5.80074e-06
2.58992e-06
4.85402e-06
4.01084e-06
3.66318e-06
5.60369e-06
2.15535e-06
8.22393e-06
1.29605e-05
-7.18782e-07
2.86915e-06
-3.78049e-06
1.66742e-06
-6.02358e-06
6.88222e-06
-7.4746e-06
9.94509e-06
-8.0635e-06
1.07702e-05
-8.00392e-06
8.918e-06
-7.85488e-06
5.34108e-06
-8.03983e-06
2.35395e-06
-8.3873e-06
8.52066e-07
-8.62615e-06
-1.31688e-08
-8.67369e-06
-7.16224e-07
-8.52989e-06
-1.32829e-06
-8.22163e-06
-1.83041e-06
-7.79512e-06
-2.18356e-06
-7.30758e-06
-2.36981e-06
-6.81048e-06
-2.41518e-06
-6.33237e-06
-2.38707e-06
-5.87404e-06
-2.36554e-06
-5.41461e-06
-2.41881e-06
-4.91777e-06
-2.60038e-06
-4.33439e-06
-2.95179e-06
-3.60695e-06
-3.49446e-06
-2.68614e-06
-4.20255e-06
-1.56127e-06
-4.97561e-06
-2.93838e-07
-5.63899e-06
9.8494e-07
-5.97196e-06
2.25062e-06
-6.01271e-06
3.49348e-06
-5.88099e-06
4.68261e-06
-5.61266e-06
5.79198e-06
-5.24099e-06
6.80066e-06
-4.79639e-06
7.69392e-06
-4.30393e-06
8.46583e-06
-3.78224e-06
9.11781e-06
-3.24579e-06
9.65371e-06
-2.7079e-06
1.0078e-05
-2.18108e-06
1.03961e-05
-1.67578e-06
1.06147e-05
-1.20012e-06
1.07411e-05
-7.60237e-07
1.07835e-05
-3.60654e-07
1.07503e-05
-4.44675e-09
1.06502e-05
3.07826e-07
1.04914e-05
5.76198e-07
1.02825e-05
8.0171e-07
1.00314e-05
9.85545e-07
9.74568e-06
1.12907e-06
9.43221e-06
1.23369e-06
9.09725e-06
1.30089e-06
8.74646e-06
1.33206e-06
8.38473e-06
1.32841e-06
8.0161e-06
1.29079e-06
7.64338e-06
1.21967e-06
7.26775e-06
1.11514e-06
6.88864e-06
9.77238e-07
6.50426e-06
8.06077e-07
6.1106e-06
6.01101e-07
5.7048e-06
3.60518e-07
5.27434e-06
7.91107e-08
4.80019e-06
-2.2464e-07
4.26889e-06
-4.98512e-07
3.61214e-06
-2.93349e-07
2.47467e-06
2.47251e-06
-5.77107e-08
1.07828e-05
-1.16936e-06
1.2753e-05
-1.35648e-06
8.12212e-06
-8.24745e-07
1.00913e-05
-7.56434e-07
7.089e-06
-1.26779e-06
1.76839e-06
-2.29942e-06
2.47715e-07
-3.21281e-06
1.94183e-07
-3.91979e-06
3.11055e-07
-4.45707e-06
3.95006e-07
-4.87247e-06
4.04601e-07
-5.19213e-06
3.35697e-07
-5.42763e-06
1.90147e-07
-5.59077e-06
-2.90802e-08
-5.67485e-06
-3.23446e-07
-5.67528e-06
-6.87222e-07
-5.58347e-06
-1.1199e-06
-5.39131e-06
-1.61591e-06
-5.09222e-06
-2.16733e-06
-4.68223e-06
-2.76331e-06
-4.16101e-06
-3.38929e-06
-3.53248e-06
-4.02547e-06
-2.80414e-06
-4.64504e-06
-1.9862e-06
-5.2129e-06
-1.09206e-06
-5.68515e-06
-1.09783e-07
-6.01013e-06
9.5628e-07
-6.11384e-06
2.04996e-06
-5.91336e-06
3.09924e-06
-5.32993e-06
4.05749e-06
-4.34971e-06
4.80313e-06
-2.87839e-06
5.15679e-06
-9.14447e-07
5.03403e-06
1.19537e-06
4.54284e-06
3.08111e-06
3.79438e-06
4.75931e-06
2.86773e-06
6.53034e-06
1.70739e-06
9.38427e-06
1.46679e-05
-1.33391e-06
4.20305e-06
-3.99539e-06
4.3289e-06
-5.83992e-06
8.72675e-06
-7.05902e-06
1.11642e-05
-7.50633e-06
1.12175e-05
-7.43651e-06
8.84818e-06
-7.42936e-06
5.33393e-06
-7.7744e-06
2.69899e-06
-8.19141e-06
1.26907e-06
-8.4608e-06
2.56226e-07
-8.52979e-06
-6.47238e-07
-8.39442e-06
-1.46366e-06
-8.0706e-06
-2.15423e-06
-7.60242e-06
-2.65175e-06
-7.05641e-06
-2.91582e-06
-6.49976e-06
-2.97182e-06
-5.97312e-06
-2.91371e-06
-5.48002e-06
-2.85864e-06
-4.99609e-06
-2.90275e-06
-4.47968e-06
-3.11678e-06
-3.8759e-06
-3.55558e-06
-3.12017e-06
-4.25019e-06
-2.16172e-06
-5.161e-06
-1.00084e-06
-6.13649e-06
2.55077e-07
-6.89491e-06
1.52452e-06
-7.2414e-06
2.80846e-06
-7.29665e-06
4.07063e-06
-7.14316e-06
5.27812e-06
-6.82015e-06
6.40466e-06
-6.36754e-06
7.43091e-06
-5.82264e-06
8.34399e-06
-5.21701e-06
9.13749e-06
-4.57574e-06
9.81035e-06
-3.91865e-06
1.03646e-05
-3.26216e-06
1.08038e-05
-2.62027e-06
1.11326e-05
-2.0046e-06
1.13569e-05
-1.42442e-06
1.14836e-05
-8.8692e-07
1.15205e-05
-3.97518e-07
1.1476e-05
3.99845e-08
1.13593e-05
4.24555e-07
1.11786e-05
7.56864e-07
1.09425e-05
1.03789e-06
1.06589e-05
1.26907e-06
1.03357e-05
1.45231e-06
9.97965e-06
1.58973e-06
9.59699e-06
1.68356e-06
9.19301e-06
1.73604e-06
8.77213e-06
1.7493e-06
8.33766e-06
1.72526e-06
7.89169e-06
1.66564e-06
7.43478e-06
1.57205e-06
6.96583e-06
1.44619e-06
6.48185e-06
1.29006e-06
5.97713e-06
1.10582e-06
5.44203e-06
8.95618e-07
4.85841e-06
6.62729e-07
4.21175e-06
4.22016e-07
3.47235e-06
2.40896e-07
2.62578e-06
5.53216e-07
1.29502e-06
3.80327e-06
-1.25796e-06
1.33358e-05
-1.85613e-06
1.33512e-05
-1.77341e-06
8.0394e-06
-7.75578e-07
9.09351e-06
-3.40828e-07
6.65425e-06
-1.1112e-06
2.53876e-06
-2.26087e-06
1.39739e-06
-3.2369e-06
1.17021e-06
-4.01699e-06
1.09114e-06
-4.6405e-06
1.01852e-06
-5.14318e-06
9.07278e-07
-5.5465e-06
7.39022e-07
-5.86146e-06
5.05103e-07
-6.09161e-06
2.01073e-07
-6.2384e-06
-1.76657e-07
-6.30055e-06
-6.25069e-07
-6.27205e-06
-1.1484e-06
-6.14736e-06
-1.7406e-06
-5.92234e-06
-2.39234e-06
-5.59493e-06
-3.09072e-06
-5.16559e-06
-3.81863e-06
-4.6374e-06
-4.55366e-06
-4.0157e-06
-5.26674e-06
-3.30776e-06
-5.92085e-06
-2.52304e-06
-6.46986e-06
-1.67583e-06
-6.85735e-06
-7.74082e-07
-7.01558e-06
1.89017e-07
-6.87646e-06
1.19245e-06
-6.33337e-06
2.16712e-06
-5.32437e-06
3.00277e-06
-3.71405e-06
3.57021e-06
-1.48188e-06
3.5973e-06
1.16827e-06
3.30046e-06
3.37796e-06
2.80788e-06
5.25189e-06
2.1758e-06
7.16241e-06
1.33268e-06
1.02274e-05
1.60005e-05
-1.6034e-06
5.80646e-06
-3.62814e-06
6.35364e-06
-5.25335e-06
1.0352e-05
-6.35565e-06
1.22665e-05
-6.81953e-06
1.16814e-05
-6.90505e-06
8.9337e-06
-7.12926e-06
5.55813e-06
-7.62537e-06
3.1951e-06
-8.11069e-06
1.75439e-06
-8.42902e-06
5.7455e-07
-8.5362e-06
-5.40055e-07
-8.41795e-06
-1.58191e-06
-8.07697e-06
-2.4952e-06
-7.55271e-06
-3.17601e-06
-6.91988e-06
-3.54865e-06
-6.26402e-06
-3.62769e-06
-5.64361e-06
-3.53412e-06
-5.0701e-06
-3.43216e-06
-4.51875e-06
-3.4541e-06
-3.9459e-06
-3.68962e-06
-3.29579e-06
-4.20569e-06
-2.50122e-06
-5.04475e-06
-1.51706e-06
-6.14517e-06
-3.60343e-07
-7.2932e-06
8.44276e-07
-8.09953e-06
2.08768e-06
-8.48481e-06
3.36145e-06
-8.57042e-06
4.62044e-06
-8.40214e-06
5.82812e-06
-8.02783e-06
6.95755e-06
-7.49698e-06
7.98996e-06
-6.85504e-06
8.91321e-06
-6.14027e-06
9.72071e-06
-5.38324e-06
1.04101e-05
-4.60802e-06
1.09817e-05
-3.83379e-06
1.14376e-05
-3.0762e-06
1.17811e-05
-2.34809e-06
1.20166e-05
-1.65992e-06
1.21498e-05
-1.02012e-06
1.21877e-05
-4.3533e-07
1.2138e-05
8.96795e-08
1.20092e-05
5.53292e-07
1.18106e-05
9.55529e-07
1.15506e-05
1.29785e-06
1.12377e-05
1.58198e-06
1.08797e-05
1.81032e-06
1.04837e-05
1.98568e-06
1.00561e-05
2.1112e-06
9.60203e-06
2.19009e-06
9.12578e-06
2.22555e-06
8.63032e-06
2.22072e-06
8.11734e-06
2.17862e-06
7.58706e-06
2.10232e-06
7.03805e-06
1.9952e-06
6.46688e-06
1.86123e-06
5.86742e-06
1.70528e-06
5.2296e-06
1.53343e-06
4.53795e-06
1.35438e-06
3.77273e-06
1.18724e-06
2.91009e-06
1.10354e-06
1.93711e-06
1.52619e-06
5.75878e-07
5.1645e-06
-1.73705e-06
1.56487e-05
-2.23639e-06
1.38505e-05
-2.08127e-06
7.88428e-06
-1.0561e-06
8.06835e-06
-5.84851e-07
6.183e-06
-1.42628e-06
3.38019e-06
-2.4887e-06
2.45981e-06
-3.4208e-06
2.10231e-06
-4.20644e-06
1.87679e-06
-4.8657e-06
1.67778e-06
-5.41801e-06
1.45958e-06
-5.8762e-06
1.19722e-06
-6.24693e-06
8.7583e-07
-6.53261e-06
4.8675e-07
-6.73463e-06
2.5369e-08
-6.85022e-06
-5.09481e-07
-6.87942e-06
-1.11919e-06
-6.81904e-06
-1.80099e-06
-6.66729e-06
-2.5441e-06
-6.42403e-06
-3.33399e-06
-6.09069e-06
-4.15197e-06
-5.67002e-06
-4.97434e-06
-5.16557e-06
-5.77119e-06
-4.58143e-06
-6.50498e-06
-3.92247e-06
-7.12882e-06
-3.195e-06
-7.58482e-06
-2.40695e-06
-7.80362e-06
-1.57789e-06
-7.70551e-06
-7.13491e-07
-7.19777e-06
1.66263e-07
-6.20412e-06
1.0525e-06
-4.60029e-06
1.91194e-06
-2.34132e-06
2.29401e-06
7.86203e-07
2.13162e-06
3.54034e-06
1.90829e-06
5.47522e-06
1.57388e-06
7.49683e-06
1.02068e-06
1.07806e-05
1.70212e-05
-1.55352e-06
7.35998e-06
-3.07434e-06
7.87446e-06
-4.46042e-06
1.1738e-05
-5.5073e-06
1.33134e-05
-6.08106e-06
1.22551e-05
-6.39995e-06
9.25259e-06
-6.864e-06
6.02218e-06
-7.49333e-06
3.82443e-06
-8.05804e-06
2.3191e-06
-8.44579e-06
9.62304e-07
-8.60873e-06
-3.77115e-07
-8.52024e-06
-1.6704e-06
-8.16939e-06
-2.84606e-06
-7.58709e-06
-3.75831e-06
-6.85234e-06
-4.2834e-06
-6.06822e-06
-4.4118e-06
-5.31554e-06
-4.2868e-06
-4.62003e-06
-4.12767e-06
-3.96149e-06
-4.11263e-06
-3.29793e-06
-4.35318e-06
-2.57836e-06
-4.92526e-06
-1.73796e-06
-5.88515e-06
-7.40942e-07
-7.14219e-06
3.49237e-07
-8.38338e-06
1.47293e-06
-9.22322e-06
2.67167e-06
-9.68355e-06
3.90891e-06
-9.80766e-06
5.13884e-06
-9.63207e-06
6.32361e-06
-9.2126e-06
7.43578e-06
-8.60915e-06
8.45691e-06
-7.87618e-06
9.37552e-06
-7.05887e-06
1.01851e-05
-6.19286e-06
1.08827e-05
-5.30562e-06
1.14674e-05
-4.41849e-06
1.19397e-05
-3.54842e-06
1.23008e-05
-2.70923e-06
1.25532e-05
-1.91238e-06
1.27006e-05
-1.1675e-06
1.27479e-05
-4.82648e-07
1.27015e-05
1.36074e-07
1.25693e-05
6.85541e-07
1.23601e-05
1.16477e-06
1.20828e-05
1.57513e-06
1.17462e-05
1.91858e-06
1.13585e-05
2.19798e-06
1.09273e-05
2.41686e-06
1.04593e-05
2.57928e-06
9.95982e-06
2.68951e-06
9.4334e-06
2.75198e-06
8.88304e-06
2.77108e-06
8.31044e-06
2.75121e-06
7.71585e-06
2.69691e-06
7.09794e-06
2.61312e-06
6.45353e-06
2.50564e-06
5.77712e-06
2.3817e-06
5.05998e-06
2.25057e-06
4.28934e-06
2.12502e-06
3.44855e-06
2.02803e-06
2.52076e-06
2.03133e-06
1.50623e-06
2.54073e-06
2.38361e-07
6.43237e-06
-1.81027e-06
1.76974e-05
-2.356e-06
1.43962e-05
-2.24548e-06
7.77376e-06
-1.48099e-06
7.30385e-06
-1.20835e-06
5.91037e-06
-1.95275e-06
4.12458e-06
-2.85748e-06
3.36455e-06
-3.69853e-06
2.94336e-06
-4.44735e-06
2.62561e-06
-5.10426e-06
2.33469e-06
-5.67433e-06
2.02964e-06
-6.16162e-06
1.68451e-06
-6.56796e-06
1.28216e-06
-6.89309e-06
8.11885e-07
-7.13567e-06
2.67947e-07
-7.29369e-06
-3.51458e-07
-7.37145e-06
-1.04143e-06
-7.36808e-06
-1.80436e-06
-7.28427e-06
-2.6279e-06
-7.122e-06
-3.49625e-06
-6.88403e-06
-4.38994e-06
-6.57324e-06
-5.28513e-06
-6.19193e-06
-6.15251e-06
-5.74125e-06
-6.95566e-06
-5.22112e-06
-7.64896e-06
-4.63067e-06
-8.17528e-06
-3.96999e-06
-8.4643e-06
-3.24367e-06
-8.43184e-06
-2.45923e-06
-7.98221e-06
-1.6471e-06
-7.01625e-06
-8.17039e-07
-5.43034e-06
9.69665e-09
-3.16805e-06
8.30289e-07
-3.43896e-08
1.08573e-06
3.2849e-06
1.12866e-06
5.43229e-06
1.07419e-06
7.5513e-06
7.69757e-07
1.1085e-05
1.7791e-05
-1.34175e-06
8.70174e-06
-2.40988e-06
8.94258e-06
-3.5487e-06
1.28769e-05
-4.56685e-06
1.43315e-05
-5.29337e-06
1.29816e-05
-5.85913e-06
9.81835e-06
-6.53187e-06
6.69492e-06
-7.27775e-06
4.57031e-06
-7.93069e-06
2.97204e-06
-8.40287e-06
1.43449e-06
-8.63762e-06
-1.42365e-07
-8.59388e-06
-1.71414e-06
-8.25008e-06
-3.18986e-06
-7.624e-06
-4.38439e-06
-6.79347e-06
-5.11393e-06
-5.87485e-06
-5.33042e-06
-4.9717e-06
-5.18995e-06
-4.12903e-06
-4.97034e-06
-3.33615e-06
-4.90551e-06
-2.5556e-06
-5.13373e-06
-1.74654e-06
-5.73432e-06
-8.55013e-07
-6.77668e-06
1.25825e-07
-8.12303e-06
1.10533e-06
-9.36289e-06
2.14688e-06
-1.02648e-05
3.2768e-06
-1.08135e-05
4.45217e-06
-1.0983e-05
5.6274e-06
-1.08073e-05
6.76466e-06
-1.03499e-05
7.83661e-06
-9.6811e-06
8.82544e-06
-8.865e-06
9.72051e-06
-7.95394e-06
1.0516e-05
-6.98831e-06
1.12088e-05
-5.99842e-06
1.17974e-05
-5.00707e-06
1.22808e-05
-4.03188e-06
1.26587e-05
-3.08708e-06
1.2931e-05
-2.18468e-06
1.30987e-05
-1.33519e-06
1.3164e-05
-5.47946e-07
1.31309e-05
1.69169e-07
1.30056e-05
8.1084e-07
1.2796e-05
1.37432e-06
1.2511e-05
1.86012e-06
1.21596e-05
2.27004e-06
1.17504e-05
2.6072e-06
1.12914e-05
2.87578e-06
1.079e-05
3.0807e-06
1.02522e-05
3.22736e-06
9.68275e-06
3.3214e-06
9.08527e-06
3.36856e-06
8.46183e-06
3.37465e-06
7.81312e-06
3.34562e-06
7.13834e-06
3.28789e-06
6.43515e-06
3.20883e-06
5.69933e-06
3.11752e-06
4.92434e-06
3.02556e-06
4.10094e-06
2.94841e-06
3.21781e-06
2.91116e-06
2.26632e-06
2.98282e-06
1.26425e-06
3.5428e-06
1.50371e-07
7.54625e-06
-1.64921e-06
1.9497e-05
-2.31045e-06
1.50575e-05
-2.31623e-06
7.77954e-06
-1.90494e-06
6.89255e-06
-1.87596e-06
5.88139e-06
-2.49878e-06
4.7474e-06
-3.25572e-06
4.12149e-06
-3.9995e-06
3.68713e-06
-4.69354e-06
3.31965e-06
-5.32508e-06
2.96623e-06
-5.88898e-06
2.59354e-06
-6.38245e-06
2.17799e-06
-6.80311e-06
1.70282e-06
-7.14848e-06
1.15726e-06
-7.41667e-06
5.36129e-07
-7.60698e-06
-1.61142e-07
-7.72151e-06
-9.26905e-07
-7.76433e-06
-1.76155e-06
-7.73899e-06
-2.65324e-06
-7.64981e-06
-3.58544e-06
-7.50116e-06
-4.53858e-06
-7.29665e-06
-5.48964e-06
-7.03799e-06
-6.41116e-06
-6.72414e-06
-7.26951e-06
-6.35068e-06
-8.02242e-06
-5.90986e-06
-8.6161e-06
-5.39184e-06
-8.98232e-06
-4.787e-06
-9.03668e-06
-4.08964e-06
-8.67957e-06
-3.30544e-06
-7.80045e-06
-2.44881e-06
-6.28698e-06
-1.57096e-06
-4.0459e-06
-5.4605e-07
-1.0593e-06
2.00582e-07
2.53827e-06
4.88552e-07
5.14432e-06
6.85892e-07
7.35396e-06
5.71487e-07
1.11994e-05
1.83625e-05
-1.08532e-06
9.78706e-06
-1.68341e-06
9.54067e-06
-2.54506e-06
1.37385e-05
-3.52773e-06
1.53142e-05
-4.4127e-06
1.38666e-05
-5.20311e-06
1.06088e-05
-6.03987e-06
7.53169e-06
-6.88046e-06
5.41089e-06
-7.61706e-06
3.70865e-06
-8.1771e-06
1.99452e-06
-8.49575e-06
1.76284e-07
-8.5149e-06
-1.69499e-06
-8.20337e-06
-3.50138e-06
-7.563e-06
-5.02476e-06
-6.66556e-06
-6.01138e-06
-5.63416e-06
-6.36181e-06
-4.59097e-06
-6.23314e-06
-3.60089e-06
-5.96042e-06
-2.66612e-06
-5.84028e-06
-1.75583e-06
-6.04402e-06
-8.41324e-07
-6.64883e-06
1.05836e-07
-7.72384e-06
1.00859e-06
-9.02578e-06
1.88934e-06
-1.02436e-05
2.85603e-06
-1.12315e-05
3.90191e-06
-1.18593e-05
4.99447e-06
-1.20756e-05
6.09245e-06
-1.19053e-05
7.1594e-06
-1.14168e-05
8.16876e-06
-1.06905e-05
9.10376e-06
-9.79999e-06
9.95491e-06
-8.8051e-06
1.07174e-05
-7.75079e-06
1.13887e-05
-6.66977e-06
1.19673e-05
-5.58569e-06
1.24516e-05
-4.51617e-06
1.28397e-05
-3.47514e-06
1.31295e-05
-2.47446e-06
1.33192e-05
-1.52493e-06
1.3408e-05
-6.36683e-07
1.33965e-05
1.80575e-07
1.32884e-05
9.18955e-07
1.30898e-05
1.57297e-06
1.28085e-05
2.14144e-06
1.24532e-05
2.62525e-06
1.20331e-05
3.02739e-06
1.15565e-05
3.35238e-06
1.10313e-05
3.60587e-06
1.04644e-05
3.79428e-06
9.86128e-06
3.92449e-06
9.22626e-06
4.00358e-06
8.56219e-06
4.03873e-06
7.87054e-06
4.03727e-06
7.15146e-06
4.00696e-06
6.40378e-06
3.95651e-06
5.62495e-06
3.89636e-06
4.81092e-06
3.83958e-06
3.95617e-06
3.80316e-06
3.05469e-06
3.81263e-06
2.10526e-06
3.93226e-06
1.13938e-06
4.50867e-06
1.90699e-07
8.49493e-06
-1.38521e-06
2.10729e-05
-2.18653e-06
1.58588e-05
-2.34247e-06
7.93548e-06
-2.24905e-06
6.79914e-06
-2.41416e-06
6.04649e-06
-2.9588e-06
5.29205e-06
-3.60959e-06
4.77228e-06
-4.27144e-06
4.34898e-06
-4.90872e-06
3.95694e-06
-5.50341e-06
3.56092e-06
-6.04512e-06
3.13525e-06
-6.52718e-06
2.66004e-06
-6.94474e-06
2.12038e-06
-7.29401e-06
1.50653e-06
-7.57231e-06
8.14435e-07
-7.77942e-06
4.59645e-08
-7.91654e-06
-7.89788e-07
-7.99258e-06
-1.6855e-06
-8.01333e-06
-2.6325e-06
-7.98525e-06
-3.61351e-06
-7.91458e-06
-4.60925e-06
-7.80614e-06
-5.59809e-06
-7.66204e-06
-6.55526e-06
-7.48036e-06
-7.45119e-06
-7.25384e-06
-8.24894e-06
-6.96913e-06
-8.90081e-06
-6.60701e-06
-9.34443e-06
-6.14401e-06
-9.49968e-06
-5.55603e-06
-9.26755e-06
-4.8233e-06
-8.53318e-06
-3.93495e-06
-7.17533e-06
-2.89787e-06
-5.08298e-06
-1.76524e-06
-2.19193e-06
-6.80303e-07
1.45333e-06
-4.87796e-08
4.51279e-06
3.59034e-07
6.94615e-06
3.97105e-07
1.11614e-05
1.87596e-05
-8.35174e-07
1.06222e-05
-9.42457e-07
9.64795e-06
-1.46989e-06
1.4266e-05
-2.3609e-06
1.62052e-05
-3.37947e-06
1.48852e-05
-4.36017e-06
1.15895e-05
-5.31609e-06
8.48761e-06
-6.21981e-06
6.31461e-06
-7.01774e-06
4.50657e-06
-7.65409e-06
2.63088e-06
-8.059e-06
5.81197e-07
-8.15908e-06
-1.59492e-06
-7.90916e-06
-3.75129e-06
-7.29479e-06
-5.63914e-06
-6.37774e-06
-6.92842e-06
-5.28036e-06
-7.4592e-06
-4.13568e-06
-7.37782e-06
-3.02442e-06
-7.07169e-06
-1.96231e-06
-6.90239e-06
-9.27535e-07
-7.07879e-06
9.62712e-08
-7.67263e-06
1.04128e-06
-8.66884e-06
1.87062e-06
-9.85512e-06
2.70146e-06
-1.10745e-05
3.58934e-06
-1.21194e-05
4.54241e-06
-1.28124e-05
5.53844e-06
-1.30716e-05
6.54233e-06
-1.29092e-05
7.52065e-06
-1.23951e-05
8.44857e-06
-1.16184e-05
9.31072e-06
-1.06621e-05
1.0099e-05
-9.5934e-06
1.08099e-05
-8.46168e-06
1.14419e-05
-7.30177e-06
1.1994e-05
-6.13774e-06
1.24644e-05
-4.98663e-06
1.28507e-05
-3.86146e-06
1.31495e-05
-2.77324e-06
1.33569e-05
-1.73227e-06
1.3469e-05
-7.4881e-07
1.34832e-05
1.66351e-07
1.33996e-05
1.00261e-06
1.32213e-05
1.75122e-06
1.29546e-05
2.40817e-06
1.26072e-05
2.97266e-06
1.21877e-05
3.44681e-06
1.17051e-05
3.83502e-06
1.11676e-05
4.14337e-06
1.05828e-05
4.37911e-06
9.95707e-06
4.5502e-06
9.29566e-06
4.66499e-06
8.60239e-06
4.732e-06
7.87979e-06
4.75987e-06
7.12919e-06
4.75757e-06
6.3508e-06
4.73491e-06
5.54384e-06
4.70332e-06
4.70665e-06
4.67677e-06
3.83692e-06
4.67289e-06
2.933e-06
4.71656e-06
1.99887e-06
4.86638e-06
1.07411e-06
5.43344e-06
2.70334e-07
9.29871e-06
-1.10726e-06
2.24505e-05
-2.04017e-06
1.67917e-05
-2.34631e-06
8.24162e-06
-2.49266e-06
6.94549e-06
-2.7932e-06
6.34703e-06
-3.30316e-06
5.80201e-06
-3.88757e-06
5.3567e-06
-4.48714e-06
4.94855e-06
-5.07244e-06
4.54224e-06
-5.62556e-06
4.11404e-06
-6.13473e-06
3.64442e-06
-6.59184e-06
3.11714e-06
-6.99114e-06
2.51968e-06
-7.32871e-06
1.8441e-06
-7.60242e-06
1.08814e-06
-7.8128e-06
2.56343e-07
-7.96193e-06
-6.4066e-07
-8.05899e-06
-1.58844e-06
-8.11248e-06
-2.57901e-06
-8.13091e-06
-3.59508e-06
-8.12227e-06
-4.61788e-06
-8.09304e-06
-5.62732e-06
-8.04683e-06
-6.60147e-06
-7.98266e-06
-7.51536e-06
-7.89299e-06
-8.33861e-06
-7.76191e-06
-9.03189e-06
-7.56386e-06
-9.54248e-06
-7.2639e-06
-9.79964e-06
-6.82009e-06
-9.71136e-06
-6.18863e-06
-9.16464e-06
-5.33241e-06
-8.03155e-06
-4.23557e-06
-6.17983e-06
-2.93554e-06
-3.49196e-06
-1.4906e-06
8.39362e-09
-5.56232e-07
3.57843e-06
-2.50119e-08
6.41493e-06
1.81414e-07
1.09549e-05
1.8941e-05
-6.11656e-07
1.12339e-05
-2.48486e-07
9.28478e-06
-3.76519e-07
1.4394e-05
-1.04454e-06
1.68732e-05
-2.1352e-06
1.59758e-05
-3.28094e-06
1.27352e-05
-4.322e-06
9.52867e-06
-5.24974e-06
7.24235e-06
-6.06718e-06
5.32401e-06
-6.74881e-06
3.31251e-06
-7.22972e-06
1.06211e-06
-7.42086e-06
-1.40378e-06
-7.26012e-06
-3.91203e-06
-6.71752e-06
-6.18175e-06
-5.84022e-06
-7.80571e-06
-4.74123e-06
-8.55819e-06
-3.55483e-06
-8.56422e-06
-2.3704e-06
-8.25612e-06
-1.21475e-06
-8.05804e-06
-7.70996e-08
-8.21644e-06
9.92535e-07
-8.74227e-06
1.9063e-06
-9.58261e-06
2.72354e-06
-1.06724e-05
3.51507e-06
-1.1866e-05
4.33107e-06
-1.29353e-05
5.19126e-06
-1.36726e-05
6.08489e-06
-1.39652e-05
6.98484e-06
-1.38091e-05
7.86237e-06
-1.32727e-05
8.69541e-06
-1.24514e-05
9.47044e-06
-1.14372e-05
1.01809e-05
-1.03039e-05
1.08245e-05
-9.10529e-06
1.14009e-05
-7.87813e-06
1.19097e-05
-6.64659e-06
1.23499e-05
-5.42684e-06
1.2719e-05
-4.23056e-06
1.30132e-05
-3.06738e-06
1.32274e-05
-1.9465e-06
1.33561e-05
-8.77477e-07
1.33937e-05
1.28756e-07
1.33363e-05
1.05996e-06
1.31839e-05
1.90364e-06
1.29398e-05
2.65228e-06
1.261e-05
3.3024e-06
1.22024e-05
3.85449e-06
1.17253e-05
4.31212e-06
1.11873e-05
4.68132e-06
1.05966e-05
4.96982e-06
9.96034e-06
5.18646e-06
9.28463e-06
5.3407e-06
8.57437e-06
5.44226e-06
7.83325e-06
5.50099e-06
7.06386e-06
5.52696e-06
6.26785e-06
5.53092e-06
5.44612e-06
5.52505e-06
4.59902e-06
5.52387e-06
3.72674e-06
5.54518e-06
2.83056e-06
5.61274e-06
1.91732e-06
5.77962e-06
1.02924e-06
6.32152e-06
3.35071e-07
9.99287e-06
-8.69371e-07
2.36549e-05
-1.90202e-06
1.78244e-05
-2.33695e-06
8.67656e-06
-2.64962e-06
7.25817e-06
-3.04173e-06
6.73913e-06
-3.54232e-06
6.30261e-06
-4.08703e-06
5.9014e-06
-4.64009e-06
5.5016e-06
-5.17957e-06
5.08172e-06
-5.69037e-06
4.62484e-06
-6.1617e-06
4.11576e-06
-6.58589e-06
3.54133e-06
-6.9576e-06
2.8914e-06
-7.27355e-06
2.16005e-06
-7.53248e-06
1.34707e-06
-7.7355e-06
4.59365e-07
-7.88667e-06
-4.89484e-07
-7.99431e-06
-1.48081e-06