/*--------------------------------*- C++ -*----------------------------------*\
| =========                 |                                                 |
| \\      /  F ield         | OpenFOAM: The Open Source CFD Toolbox           |
|  \\    /   O peration     | Version:  4.1                                   |
|   \\  /    A nd           | Web:      www.OpenFOAM.org                      |
|    \\/     M anipulation  |                                                 |
\*---------------------------------------------------------------------------*/
FoamFile
{
    version     2.0;
    format      ascii;
    class       volScalarField;
    location    "560";
    object      T;
}
// * * * * * * * * * * * * * * * * * * * * * * * * * * * * * * * * * * * * * //

dimensions      [0 0 0 1 0 0 0];

internalField   nonuniform List<scalar> 
5000
(
282.661
282.074
282.011
282.165
282.321
282.487
282.663
282.849
283.045
283.254
283.492
283.788
284.138
284.464
284.775
285.066
285.316
285.489
285.538
285.383
285.095
284.854
284.67
284.523
284.397
284.284
284.181
284.089
284.01
283.946
283.9
283.874
283.871
283.892
283.939
284.013
284.114
284.243
284.394
284.542
284.685
284.823
284.957
285.089
285.218
285.345
285.47
285.594
285.719
285.85
286
286.002
285.549
285.297
285.104
284.93
284.768
284.613
284.465
284.324
284.189
284.06
283.935
283.817
283.703
283.593
283.488
283.387
283.29
283.196
283.104
283.015
282.928
282.843
282.759
282.675
282.592
282.514
282.444
282.381
282.323
282.269
282.219
282.172
282.127
282.085
282.045
282.006
281.968
281.932
281.896
281.86
281.824
281.818
281.867
281.97
282.152
282.39
282.649
283.017
282.214
281.431
281.465
281.455
281.438
281.418
281.398
281.38
281.365
281.354
281.363
281.423
281.601
281.925
282.268
282.519
282.589
282.429
282.076
281.734
281.572
281.501
281.477
281.475
281.483
281.495
281.508
281.521
281.531
281.54
281.548
281.554
281.559
281.563
281.566
281.568
281.57
281.571
281.575
281.607
281.669
281.759
281.874
282.011
282.167
282.34
282.527
282.734
282.984
283.362
284.084
285.025
284.062
283.161
282.783
282.597
282.467
282.357
282.257
282.161
282.068
281.978
281.889
281.803
281.72
281.642
281.568
281.499
281.437
281.382
281.335
281.296
281.266
281.245
281.233
281.23
281.235
281.242
281.249
281.255
281.261
281.266
281.27
281.274
281.277
281.279
281.28
281.28
281.278
281.276
281.272
281.265
281.256
281.242
281.219
281.195
281.174
281.265
281.667
282.48
282.075
281.475
281.51
281.505
281.488
281.466
281.442
281.419
281.399
281.381
281.366
281.358
281.373
281.441
281.54
281.608
281.598
281.522
281.453
281.444
281.463
281.49
281.515
281.536
281.551
281.562
281.568
281.573
281.575
281.577
281.578
281.58
281.582
281.584
281.587
281.591
281.595
281.598
281.601
281.603
281.607
281.615
281.633
281.663
281.709
281.773
281.861
281.981
282.163
282.5
283.273
284.511
283.425
282.409
282.024
281.85
281.741
281.659
281.591
281.532
281.479
281.431
281.388
281.351
281.319
281.294
281.274
281.261
281.253
281.25
281.252
281.258
281.266
281.276
281.288
281.299
281.309
281.318
281.326
281.333
281.338
281.343
281.346
281.349
281.35
281.35
281.348
281.345
281.34
281.333
281.323
281.31
281.294
281.274
281.246
281.212
281.179
281.178
281.424
282.253
282.011
281.507
281.548
281.549
281.534
281.513
281.489
281.468
281.449
281.434
281.423
281.416
281.415
281.423
281.443
281.464
281.48
281.501
281.533
281.565
281.585
281.592
281.591
281.587
281.583
281.579
281.576
281.573
281.571
281.57
281.57
281.57
281.572
281.574
281.578
281.583
281.59
281.598
281.606
281.614
281.621
281.626
281.63
281.637
281.647
281.667
281.7
281.759
281.872
282.134
282.854
284.185
283.05
282.036
281.684
281.535
281.451
281.395
281.354
281.322
281.297
281.278
281.265
281.256
281.253
281.254
281.26
281.268
281.279
281.293
281.307
281.322
281.337
281.351
281.364
281.376
281.387
281.395
281.402
281.408
281.412
281.415
281.417
281.417
281.416
281.414
281.41
281.403
281.395
281.384
281.369
281.351
281.328
281.301
281.27
281.23
281.185
281.162
281.328
282.125
281.981
281.533
281.577
281.584
281.573
281.554
281.533
281.514
281.5
281.487
281.488
281.496
281.509
281.529
281.554
281.582
281.606
281.621
281.619
281.605
281.591
281.578
281.57
281.566
281.564
281.562
281.562
281.561
281.561
281.561
281.561
281.562
281.562
281.564
281.566
281.57
281.576
281.585
281.595
281.607
281.618
281.628
281.636
281.642
281.646
281.652
281.663
281.689
281.757
281.955
282.609
283.958
282.797
281.818
281.505
281.385
281.324
281.288
281.266
281.253
281.247
281.246
281.25
281.258
281.269
281.283
281.299
281.317
281.335
281.354
281.372
281.39
281.406
281.421
281.435
281.446
281.455
281.462
281.468
281.472
281.475
281.477
281.477
281.476
281.474
281.47
281.464
281.455
281.444
281.43
281.412
281.39
281.362
281.33
281.292
281.25
281.199
281.157
281.28
282.047
281.967
281.555
281.6
281.611
281.605
281.593
281.579
281.568
281.57
281.585
281.595
281.604
281.612
281.618
281.62
281.616
281.606
281.588
281.574
281.565
281.56
281.559
281.558
281.559
281.561
281.562
281.563
281.564
281.564
281.564
281.565
281.565
281.564
281.564
281.564
281.566
281.57
281.577
281.586
281.599
281.612
281.625
281.637
281.646
281.651
281.654
281.656
281.666
281.706
281.858
282.454
283.788
282.616
281.68
281.404
281.308
281.266
281.246
281.239
281.239
281.245
281.255
281.269
281.286
281.305
281.326
281.348
281.37
281.392
281.413
281.433
281.451
281.468
281.482
281.494
281.503
281.51
281.516
281.52
281.523
281.524
281.525
281.525
281.523
281.521
281.516
281.51
281.501
281.489
281.473
281.454
281.429
281.398
281.361
281.319
281.271
281.22
281.146
281.25
281.994
281.958
281.571
281.618
281.633
281.635
281.633
281.634
281.636
281.635
281.632
281.629
281.623
281.615
281.602
281.588
281.572
281.56
281.555
281.554
281.556
281.559
281.562
281.565
281.568
281.571
281.573
281.574
281.575
281.575
281.575
281.575
281.574
281.573
281.57
281.568
281.567
281.569
281.574
281.582
281.594
281.608
281.622
281.636
281.647
281.654
281.657
281.656
281.658
281.68
281.799
282.358
283.648
282.483
281.588
281.343
281.267
281.24
281.232
281.236
281.245
281.26
281.278
281.299
281.322
281.346
281.371
281.396
281.42
281.444
281.465
281.485
281.502
281.517
281.529
281.538
281.544
281.549
281.552
281.555
281.556
281.558
281.558
281.559
281.558
281.556
281.552
281.547
281.539
281.528
281.513
281.493
281.467
281.436
281.397
281.351
281.3
281.241
281.169
281.232
281.958
281.951
281.583
281.63
281.648
281.653
281.653
281.648
281.639
281.629
281.617
281.604
281.589
281.574
281.561
281.552
281.55
281.553
281.557
281.562
281.567
281.572
281.577
281.58
281.584
281.586
281.588
281.589
281.589
281.59
281.59
281.589
281.588
281.585
281.58
281.575
281.572
281.571
281.574
281.581
281.592
281.605
281.62
281.635
281.647
281.655
281.658
281.657
281.655
281.667
281.76
282.282
283.537
282.389
281.526
281.305
281.246
281.23
281.232
281.243
281.26
281.281
281.304
281.33
281.357
281.385
281.412
281.439
281.464
281.487
281.508
281.525
281.54
281.551
281.559
281.564
281.567
281.569
281.571
281.572
281.574
281.575
281.577
281.578
281.579
281.579
281.578
281.574
281.569
281.56
281.547
281.529
281.505
281.474
281.435
281.389
281.335
281.276
281.221
281.22
281.934
281.942
281.589
281.633
281.646
281.645
281.636
281.623
281.61
281.595
281.58
281.566
281.555
281.548
281.547
281.552
281.558
281.565
281.572
281.578
281.584
281.589
281.593
281.597
281.6
281.603
281.604
281.605
281.606
281.606
281.606
281.605
281.604
281.6
281.593
281.585
281.579
281.575
281.576
281.581
281.591
281.604
281.619
281.634
281.647
281.655
281.658
281.656
281.652
281.658
281.732
282.206
283.451
282.324
281.485
281.282
281.235
281.228
281.237
281.255
281.277
281.303
281.33
281.36
281.39
281.419
281.448
281.475
281.499
281.521
281.539
281.553
281.564
281.571
281.574
281.575
281.575
281.575
281.575
281.575
281.577
281.58
281.582
281.586
281.588
281.591
281.592
281.592
281.589
281.584
281.574
281.559
281.539
281.51
281.474
281.429
281.375
281.314
281.25
281.21
281.916
281.931
281.588
281.625
281.629
281.619
281.606
281.591
281.576
281.563
281.552
281.546
281.546
281.55
281.558
281.566
281.574
281.581
281.587
281.593
281.598
281.603
281.608
281.612
281.616
281.619
281.621
281.622
281.622
281.622
281.622
281.622
281.62
281.616
281.608
281.598
281.588
281.581
281.579
281.583
281.591
281.603
281.618
281.633
281.646
281.654
281.656
281.654
281.649
281.651
281.71
282.129
283.388
282.287
281.458
281.268
281.23
281.23
281.245
281.268
281.294
281.323
281.355
281.386
281.418
281.449
281.478
281.504
281.527
281.545
281.56
281.57
281.576
281.578
281.577
281.574
281.571
281.569
281.568
281.569
281.571
281.575
281.58
281.585
281.59
281.595
281.599
281.601
281.601
281.599
281.593
281.583
281.567
281.543
281.511
281.469
281.417
281.355
281.283
281.203
281.899
281.918
281.583
281.61
281.606
281.594
281.579
281.565
281.553
281.546
281.544
281.547
281.555
281.564
281.573
281.58
281.586
281.591
281.595
281.599
281.604
281.611
281.617
281.623
281.628
281.632
281.635
281.637
281.638
281.638
281.638
281.638
281.637
281.632
281.624
281.613
281.6
281.59
281.584
281.584
281.591
281.603
281.617
281.632
281.645
281.653
281.654
281.651
281.645
281.645
281.693
282.061
283.333
282.274
281.444
281.259
281.228
281.234
281.254
281.28
281.31
281.342
281.376
281.409
281.442
281.473
281.501
281.526
281.547
281.562
281.573
281.579
281.58
281.577
281.572
281.566
281.56
281.557
281.556
281.558
281.561
281.567
281.573
281.581
281.588
281.595
281.601
281.605
281.607
281.608
281.605
281.598
281.587
281.569
281.544
281.508
281.46
281.4
281.327
281.232
281.88
281.906
281.574
281.592
281.587
281.574
281.56
281.549
281.544
281.544
281.549
281.558
281.567
281.576
281.582
281.585
281.588
281.59
281.592
281.597
281.603
281.613
281.622
281.629
281.636
281.641
281.646
281.649
281.651
281.652
281.653
281.653
281.652
281.649
281.641
281.629
281.615
281.6
281.59
281.587
281.591
281.602
281.616
281.631
281.644
281.652
281.652
281.647
281.641
281.639
281.677
281.999
283.273
282.302
281.439
281.255
281.228
281.239
281.262
281.291
281.323
281.358
281.393
281.428
281.462
281.493
281.52
281.543
281.561
281.574
281.581
281.582
281.579
281.572
281.563
281.554
281.547
281.543
281.543
281.546
281.551
281.559
281.567
281.577
281.586
281.594
281.601
281.606
281.61
281.611
281.61
281.606
281.599
281.587
281.569
281.54
281.499
281.443
281.373
281.288
281.863
281.892
281.563
281.579
281.572
281.559
281.548
281.542
281.543
281.549
281.558
281.568
281.576
281.58
281.581
281.58
281.579
281.579
281.581
281.587
281.597
281.611
281.622
281.632
281.641
281.648
281.654
281.658
281.662
281.664
281.666
281.667
281.666
281.664
281.657
281.646
281.631
281.614
281.6
281.591
281.592
281.6
281.614
281.629
281.642
281.65
281.65
281.644
281.637
281.634
281.664
281.94
283.185
282.382
281.445
281.253
281.23
281.243
281.268
281.3
281.335
281.371
281.408
281.444
281.477
281.508
281.535
281.556
281.572
281.582
281.585
281.583
281.576
281.566
281.554
281.542
281.533
281.529
281.53
281.535
281.544
281.554
281.564
281.575
281.586
281.595
281.602
281.608
281.612
281.613
281.612
281.609
281.605
281.597
281.584
281.564
281.531
281.48
281.409
281.327
281.847
281.879
281.554
281.567
281.559
281.548
281.541
281.541
281.547
281.556
281.565
281.573
281.576
281.574
281.57
281.565
281.562
281.562
281.567
281.575
281.591
281.609
281.623
281.635
281.645
281.653
281.66
281.666
281.671
281.674
281.677
281.678
281.679
281.677
281.672
281.663
281.649
281.631
281.612
281.599
281.594
281.599
281.611
281.626
281.64
281.649
281.649
281.641
281.632
281.628
281.652
281.884
283.073
282.485
281.489
281.255
281.231
281.246
281.274
281.307
281.344
281.381
281.419
281.455
281.489
281.52
281.546
281.566
281.58
281.588
281.589
281.584
281.574
281.56
281.544
281.53
281.521
281.517
281.521
281.529
281.54
281.553
281.566
281.579
281.59
281.599
281.607
281.611
281.614
281.614
281.612
281.609
281.605
281.599
281.592
281.578
281.554
281.509
281.436
281.355
281.832
281.866
281.546
281.556
281.549
281.54
281.538
281.542
281.551
281.561
281.568
281.57
281.567
281.56
281.552
281.546
281.544
281.546
281.553
281.565
281.588
281.61
281.627
281.64
281.651
281.66
281.667
281.674
281.679
281.683
281.686
281.688
281.689
281.689
281.685
281.678
281.666
281.648
281.628
281.61
281.598
281.598
281.608
281.623
281.637
281.647
281.647
281.639
281.629
281.623
281.641
281.833
282.94
282.566
281.61
281.26
281.233
281.249
281.278
281.313
281.35
281.389
281.427
281.464
281.498
281.528
281.554
281.573
281.586
281.593
281.593
281.586
281.573
281.555
281.536
281.519
281.509
281.508
281.515
281.527
281.542
281.558
281.573
281.587
281.599
281.608
281.614
281.617
281.617
281.615
281.611
281.606
281.601
281.597
281.592
281.584
281.568
281.532
281.457
281.379
281.819
281.854
281.539
281.547
281.541
281.535
281.537
281.545
281.554
281.562
281.564
281.561
281.552
281.541
281.532
281.527
281.527
281.532
281.543
281.56
281.59
281.616
281.635
281.649
281.66
281.669
281.676
281.682
281.687
281.692
281.695
281.697
281.699
281.699
281.696
281.691
281.681
281.665
281.645
281.623
281.607
281.6
281.606
281.618
281.633
281.644
281.646
281.638
281.626
281.618
281.631
281.786
282.791
282.617
281.776
281.284
281.235
281.251
281.281
281.316
281.354
281.394
281.432
281.469
281.504
281.534
281.559
281.578
281.591
281.598
281.597
281.588
281.572
281.551
281.527
281.508
281.499
281.501
281.513
281.53
281.549
281.568
281.585
281.6
281.612
281.62
281.624
281.625
281.622
281.617
281.61
281.602
281.596
281.591
281.587
281.584
281.574
281.547
281.473
281.401
281.806
281.843
281.532
281.539
281.534
281.532
281.537
281.546
281.555
281.559
281.556
281.547
281.533
281.521
281.513
281.51
281.513
281.522
281.537
281.56
281.595
281.625
281.646
281.661
281.673
281.681
281.688
281.693
281.697
281.701
281.704
281.706
281.707
281.707
281.706
281.702
281.694
281.681
281.662
281.639
281.618
281.606
281.605
281.615
281.629
281.641
281.644
281.638
281.625
281.614
281.622
281.744
282.632
282.634
281.937
281.371
281.239
281.252
281.282
281.318
281.356
281.396
281.435
281.472
281.506
281.536
281.562
281.581
281.595
281.601
281.6
281.59
281.571
281.546
281.518
281.498
281.491
281.498
281.515
281.537
281.56
281.582
281.601
281.616
281.627
281.634
281.637
281.634
281.628
281.619
281.608
281.598
281.589
281.582
281.579
281.578
281.574
281.556
281.485
281.421
281.796
281.833
281.525
281.532
281.529
281.53
281.538
281.546
281.552
281.552
281.544
281.53
281.514
281.503
281.497
281.497
281.503
281.515
281.534
281.562
281.602
281.636
281.659
281.675
281.687
281.695
281.7
281.705
281.708
281.711
281.713
281.714
281.715
281.715
281.714
281.711
281.705
281.695
281.679
281.656
281.632
281.615
281.608
281.612
281.624
281.637
281.642
281.638
281.624
281.612
281.614
281.708
282.47
282.619
282.075
281.508
281.258
281.253
281.282
281.318
281.356
281.396
281.435
281.472
281.506
281.536
281.562
281.582
281.596
281.602
281.601
281.59
281.569
281.539
281.508
281.487
281.484
281.497
281.52
281.547
281.574
281.598
281.619
281.634
281.645
281.65
281.65
281.645
281.635
281.621
281.606
281.592
281.58
281.572
281.569
281.569
281.57
281.559
281.495
281.441
281.788
281.823
281.519
281.525
281.525
281.529
281.537
281.545
281.548
281.542
281.53
281.513
281.497
281.488
281.485
281.487
281.495
281.51
281.533
281.565
281.61
281.648
281.673
281.69
281.701
281.708
281.713
281.717
281.719
281.721
281.722
281.723
281.723
281.723
281.722
281.719
281.715
281.707
281.693
281.673
281.648
281.626
281.613
281.612
281.621
281.633
281.64
281.637
281.625
281.61
281.608
281.678
282.311
282.575
282.184
281.658
281.324
281.257
281.282
281.316
281.354
281.393
281.432
281.469
281.503
281.533
281.559
281.579
281.593
281.601
281.599
281.587
281.563
281.53
281.497
281.477
281.479
281.499
281.528
281.56
281.59
281.616
281.637
281.653
281.663
281.667
281.664
281.655
281.641
281.623
281.603
281.585
281.57
281.56
281.557
281.558
281.562
281.558
281.503
281.46
281.782
281.813
281.514
281.52
281.522
281.528
281.536
281.542
281.541
281.531
281.515
281.497
281.483
281.476
281.475
281.48
281.489
281.506
281.533
281.57
281.618
281.66
281.687
281.704
281.715
281.721
281.725
281.728
281.729
281.73
281.731
281.731
281.731
281.73
281.729
281.727
281.723
281.716
281.705
281.687
281.664
281.639
281.621
281.615
281.619
281.629
281.637
281.637
281.626
281.61
281.603
281.653
282.162
282.506
282.259
281.802
281.431
281.278
281.281
281.314
281.351
281.389
281.427
281.464
281.497
281.527
281.553
281.573
281.588
281.595
281.593
281.58
281.554
281.519
281.484
281.467
281.476
281.503
281.538
281.574
281.606
281.633
281.655
281.671
281.68
281.683
281.678
281.666
281.647
281.624
281.6
281.577
281.558
281.547
281.543
281.546
281.553
281.554
281.508
281.474
281.776
281.804
281.509
281.515
281.519
281.526
281.535
281.538
281.533
281.519
281.5
281.483
281.471
281.467
281.468
281.474
281.484
281.503
281.534
281.576
281.626
281.671
281.7
281.717
281.727
281.733
281.736
281.737
281.738
281.739
281.739
281.738
281.738
281.737
281.735
281.733
281.73
281.725
281.715
281.7
281.678
281.653
281.631
281.619
281.619
281.626
281.635
281.636
281.627
281.611
281.6
281.633
282.029
282.419
282.301
281.928
281.559
281.338
281.286
281.311
281.347
281.384
281.421
281.456
281.489
281.519
281.544
281.564
281.578
281.586
281.583
281.569
281.542
281.505
281.471
281.458
281.474
281.509
281.549
281.587
281.62
281.648
281.671
281.687
281.696
281.697
281.691
281.676
281.653
281.625
281.595
281.567
281.545
281.532
281.527
281.531
281.541
281.548
281.512
281.481
281.77
281.796
281.504
281.511
281.517
281.525
281.532
281.533
281.524
281.508
281.488
281.471
281.462
281.461
281.463
281.469
281.48
281.5
281.534
281.58
281.632
281.681
281.711
281.729
281.738
281.742
281.744
281.745
281.746
281.746
281.746
281.745
281.744
281.743
281.741
281.739
281.736
281.731
281.724
281.711
281.691
281.666
281.642
281.626
281.62
281.625
281.632
281.635
281.628
281.612
281.598
281.617
281.915
282.32
282.311
282.03
281.688
281.43
281.314
281.31
281.342
281.377
281.413
281.447
281.479
281.508
281.532
281.552
281.566
281.572
281.569
281.555
281.527
281.49
281.458
281.45
281.474
281.515
281.558
281.598
281.632
281.66
281.683
281.7
281.709
281.71
281.703
281.685
281.659
281.626
281.591
281.557
281.531
281.515
281.51
281.515
281.528
281.541
281.515
281.483
281.764
281.789
281.5
281.507
281.514
281.523
281.529
281.528
281.516
281.496
281.476
281.462
281.456
281.456
281.459
281.464
281.475
281.497
281.534
281.584
281.639
281.687
281.72
281.738
281.746
281.749
281.751
281.752
281.752
281.752
281.752
281.751
281.749
281.748
281.746
281.744
281.741
281.737
281.73
281.719
281.702
281.678
281.653
281.633
281.624
281.624
281.63
281.634
281.629
281.615
281.599
281.606
281.821
282.215
282.295
282.104
281.809
281.54
281.374
281.322
281.338
281.37
281.404
281.436
281.467
281.494
281.518
281.536
281.549
281.555
281.552
281.537
281.51
281.473
281.444
281.443
281.474
281.52
281.565
281.605
281.639
281.668
281.691
281.709
281.72
281.722
281.714
281.695
281.665
281.627
281.586
281.547
281.516
281.497
281.491
281.498
281.514
281.532
281.516
281.482
281.758
281.782
281.495
281.504
281.512
281.521
281.526
281.522
281.507
281.487
281.467
281.455
281.451
281.452
281.455
281.46
281.471
281.493
281.532
281.586
281.643
281.692
281.726
281.744
281.752
281.755
281.756
281.758
281.758
281.757
281.756
281.755
281.753
281.752
281.75
281.748
281.745
281.741
281.736
281.726
281.711
281.689
281.663
281.641
281.628
281.625
281.629
281.634
281.63
281.617
281.6
281.599
281.748
282.11
282.256
282.15
281.912
281.656
281.46
281.359
281.341
281.364
281.395
281.425
281.453
281.479
281.501
281.518
281.53
281.535
281.532
281.518
281.491
281.456
281.431
281.436
281.475
281.524
281.569
281.607
281.641
281.67
281.695
281.715
281.727
281.731
281.724
281.704
281.672
281.629
281.582
281.536
281.5
281.478
281.471
281.479
281.498
281.521
281.517
281.479
281.752
281.776
281.491
281.5
281.509
281.518
281.522
281.516
281.499
281.478
281.46
281.449
281.447
281.449
281.453
281.456
281.466
281.488
281.529
281.586
281.646
281.696
281.729
281.748
281.756
281.759
281.761
281.762
281.762
281.761
281.759
281.757
281.755
281.753
281.751
281.75
281.747
281.744
281.739
281.731
281.717
281.696
281.672
281.648
281.633
281.627
281.629
281.633
281.631
281.62
281.602
281.594
281.693
282.009
282.2
282.169
281.992
281.765
281.56
281.422
281.364
281.363
281.386
281.413
281.439
281.462
281.482
281.498
281.509
281.513
281.51
281.497
281.472
281.439
281.419
281.43
281.474
281.524
281.567
281.604
281.637
281.667
281.694
281.716
281.732
281.739
281.733
281.713
281.679
281.632
281.578
281.527
281.485
281.458
281.45
281.458
281.481
281.509
281.515
281.475
281.747
281.771
281.488
281.497
281.507
281.516
281.519
281.51
281.493
281.471
281.453
281.445
281.444
281.448
281.451
281.453
281.46
281.482
281.524
281.583
281.646
281.698
281.731
281.75
281.759
281.762
281.765
281.766
281.765
281.763
281.76
281.757
281.754
281.752
281.751
281.749
281.748
281.745
281.741
281.734
281.721
281.702
281.678
281.655
281.638
281.63
281.63
281.633
281.632
281.622
281.605
281.593
281.653
281.916
282.13
282.163
282.049
281.86
281.663
281.506
281.411
281.378
281.384
281.404
281.426
281.445
281.462
281.476
281.485
281.489
281.486
281.474
281.453
281.424
281.405
281.423
281.471
281.519
281.56
281.596
281.628
281.66
281.689
281.715
281.734
281.744
281.741
281.723
281.687
281.636
281.577
281.519
281.47
281.438
281.428
281.438
281.463
281.496
281.512
281.471
281.743
281.766
281.484
281.494
281.504
281.513
281.515
281.506
281.487
281.465
281.448
281.441
281.442
281.446
281.449
281.45
281.455
281.475
281.517
281.579
281.644
281.698
281.732
281.751
281.761
281.766
281.768
281.768
281.766
281.762
281.757
281.753
281.75
281.749
281.748
281.747
281.747
281.745
281.742
281.735
281.724
281.705
281.682
281.659
281.642
281.632
281.631
281.633
281.633
281.624
281.608
281.593
281.626
281.833
282.053
282.135
282.08
281.936
281.76
281.598
281.479
281.415
281.395
281.402
281.416
281.431
281.444
281.454
281.461
281.464
281.461
281.452
281.435
281.411
281.395
281.416
281.464
281.51
281.548
281.582
281.615
281.649
281.681
281.71
281.734
281.748
281.748
281.731
281.695
281.642
281.578
281.512
281.456
281.419
281.406
281.416
281.445
281.482
281.506
281.467
281.739
281.762
281.48
281.49
281.501
281.51
281.512
281.502
281.482
281.46
281.444
281.438
281.439
281.446
281.449
281.447
281.45
281.468
281.509
281.572
281.64
281.696
281.732
281.752
281.762
281.768
281.77
281.768
281.764
281.758
281.752
281.747
281.744
281.743
281.743
281.744
281.745
281.745
281.742
281.736
281.725
281.707
281.684
281.662
281.645
281.635
281.632
281.634
281.633
281.626
281.611
281.594
281.609
281.763
281.971
282.09
282.087
281.99
281.844
281.69
281.56
281.472
281.427
281.414
281.417
281.425
281.433
281.438
281.441
281.441
281.438
281.431
281.418
281.401
281.389
281.409
281.453
281.495
281.53
281.564
281.599
281.635
281.671
281.704
281.731
281.75
281.754
281.74
281.704
281.649
281.58
281.507
281.443
281.401
281.385
281.396
281.426
281.467
281.498
281.463
281.736
281.759
281.476
281.487
281.498
281.507
281.509
281.498
281.478
281.456
281.44
281.434
281.437
281.446
281.448
281.445
281.445
281.46
281.499
281.563
281.634
281.693
281.731
281.752
281.764
281.77
281.771
281.766
281.759
281.751
281.744
281.739
281.737
281.737
281.739
281.742
281.744
281.745
281.742
281.736
281.725
281.707
281.685
281.663
281.647
281.637
281.634
281.635
281.635
281.628
281.614
281.597
281.599
281.706
281.891
282.031
282.072
282.022
281.911
281.775
281.646
281.544
281.479
281.446
281.434
281.433
281.434
281.435
281.433
281.429
281.423
281.415
281.405
281.394
281.387
281.403
281.439
281.476
281.511
281.546
281.583
281.621
281.659
281.696
281.727
281.75
281.758
281.747
281.714
281.658
281.584
281.504
281.432
281.384
281.365
281.375
281.408
281.453
281.489
281.459
281.734
281.757
281.473
281.483
281.495
281.505
281.506
281.496
281.476
281.454
281.437
281.43
281.434
281.446
281.449
281.444
281.441
281.451
281.489
281.553
281.627
281.688
281.729
281.752
281.765
281.77
281.769
281.762
281.752
281.742
281.734
281.73
281.729
281.732
281.736
281.741
281.745
281.746
281.744
281.737
281.724
281.706
281.684
281.664
281.649
281.64
281.636
281.636
281.636
281.63
281.617
281.6
281.594
281.663
281.817
281.964
282.04
282.032
281.958
281.847
281.728
281.622
281.544
281.495
281.47
281.458
281.453
281.449
281.444
281.436
281.427
281.416
281.404
281.394
281.39
281.401
281.427
281.459
281.493
281.53
281.568
281.609
281.649
281.688
281.723
281.749
281.761
281.754
281.723
281.667
281.59
281.504
281.424
281.368
281.346
281.356
281.391
281.439
281.48
281.456
281.733
281.755
281.469
281.479
281.491
281.502
281.504
281.494
281.475
281.452
281.434
281.426
281.432
281.447
281.45
281.444
281.437
281.443
281.477
281.541
281.617
281.682
281.726
281.752
281.765
281.77
281.766
281.756
281.743
281.732
281.724
281.721
281.723
281.729
281.736
281.743
281.748
281.75
281.746
281.738
281.723
281.703
281.681
281.663
281.65
281.642
281.639
281.638
281.637
281.632
281.62
281.604
281.593
281.633
281.753
281.896
281.996
282.024
281.987
281.904
281.801
281.701
281.618
281.559
281.522
281.501
281.489
281.482
281.474
281.465
281.454
281.44
281.426
281.413
281.404
281.406
281.423
281.45
281.483
281.52
281.56
281.601
281.643
281.683
281.719
281.748
281.764
281.761
281.733
281.677
281.597
281.505
281.417
281.355
281.329
281.339
281.375
281.425
281.471
281.452
281.733
281.754
281.465
281.475
281.487
281.498
281.502
281.493
281.475
281.453
281.434
281.423
281.43
281.448
281.451
281.444
281.434
281.436
281.465
281.528
281.607
281.676
281.723
281.751
281.764
281.768
281.761
281.749
281.734
281.722
281.715
281.715
281.72
281.729
281.739
281.748
281.753
281.754
281.75
281.739
281.721
281.699
281.678
281.662
281.652
281.645
281.642
281.64
281.639
281.634
281.623
281.607
281.594
281.614
281.703
281.834
281.947
282.004
281.998
281.944
281.862
281.773
281.693
281.63
281.586
281.558
281.541
281.53
281.521
281.512
281.501
281.487
281.471
281.455
281.442
281.436
281.44
281.459
281.488
281.523
281.561
281.601
281.642
281.681
281.718
281.748
281.766
281.767
281.742
281.687
281.606
281.508
281.413
281.343
281.314
281.324
281.362
281.414
281.463
281.449
281.733
281.754
281.461
281.471
281.483
281.495
281.5
281.493
281.477
281.456
281.436
281.422
281.432
281.449
281.452
281.445
281.433
281.429
281.453
281.514
281.595
281.668
281.719
281.749
281.763
281.765
281.756
281.741
281.725
281.713
281.708
281.71
281.719
281.731
281.744
281.753
281.758
281.757
281.749
281.735
281.717
281.696
281.677
281.664
281.656
281.649
281.645
281.643
281.641
281.635
281.625
281.61
281.597
281.604
281.667
281.782
281.899
281.977
281.998
281.971
281.911
281.838
281.766
281.704
281.658
281.626
281.604
281.591
281.58
281.571
281.561
281.548
281.533
281.516
281.501
281.489
281.484
281.492
281.512
281.541
281.574
281.61
281.647
281.684
281.719
281.749
281.769
281.772
281.75
281.697
281.615
281.513
281.411
281.334
281.301
281.312
281.351
281.404
281.455
281.445
281.733
281.754
281.457
281.466
281.479
281.491
281.497
281.493
281.479
281.46
281.443
281.432
281.438
281.451
281.454
281.446
281.432
281.424
281.441
281.499
281.582
281.659
281.714
281.746
281.761
281.761
281.75
281.733
281.716
281.705
281.702
281.707
281.72
281.735
281.749
281.758
281.762
281.758
281.748
281.733
281.714
281.695
281.679
281.668
281.66
281.654
281.649
281.645
281.643
281.637
281.627
281.614
281.6
281.6
281.645
281.746
281.861
281.951
281.993
281.988
281.949
281.892
281.832
281.777
281.732
281.699
281.676
281.66
281.649
281.639
281.629
281.618
281.604
281.587
281.571
281.557
281.548
281.546
281.556
281.575
281.6
281.629
281.661
281.693
281.725
281.753
281.773
281.778
281.758
281.707
281.625
281.519
281.41
281.326
281.29
281.302
281.343
281.397
281.449
281.441
281.733
281.754
281.453
281.462
281.474
281.486
281.493
281.491
281.481
281.465
281.45
281.443
281.446
281.453
281.454
281.447
281.432
281.42
281.431
281.484
281.568
281.649
281.708
281.743
281.759
281.758
281.745
281.726
281.709
281.698
281.697
281.705
281.72
281.738
281.753
281.762
281.764
281.759
281.748
281.733
281.715
281.698
281.684
281.674
281.666
281.659
281.653
281.648
281.644
281.639
281.629
281.617
281.604
281.6
281.634
281.725
281.837
281.931
281.986
281.999
281.978
281.938
281.891
281.845
281.806
281.774
281.751
281.734
281.722
281.712
281.702
281.691
281.677
281.662
281.646
281.631
281.62
281.612
281.612
281.621
281.636
281.657
281.681
281.707
281.734
281.759
281.778
281.784
281.766
281.717
281.634
281.526
281.411
281.32
281.28
281.295
281.339
281.393
281.444
281.436
281.731
281.756
281.45
281.458
281.469
281.481
281.489
281.489
281.481
281.469
281.458
281.452
281.453
281.456
281.455
281.448
281.433
281.417
281.421
281.469
281.553
281.637
281.701
281.739
281.756
281.755
281.74
281.72
281.702
281.692
281.692
281.703
281.72
281.739
281.755
281.764
281.766
281.76
281.749
281.735
281.718
281.703
281.69
281.68
281.671
281.663
281.656
281.651
281.646
281.64
281.632
281.62
281.608
281.602
281.63
281.717
281.826
281.921
281.983
282.008
282.002
281.977
281.943
281.907
281.875
281.848
281.826
281.81
281.797
281.786
281.776
281.764
281.751
281.736
281.72
281.705
281.691
281.679
281.673
281.673
281.68
281.691
281.706
281.725
281.746
281.767
281.784
281.79
281.774
281.726
281.644
281.534
281.414
281.316
281.273
281.29
281.338
281.393
281.44
281.428
281.729
281.757
281.446
281.453
281.464
281.476
281.484
281.486
281.481
281.472
281.463
281.459
281.458
281.458
281.455
281.447
281.433
281.416
281.413
281.454
281.536
281.624
281.692
281.734
281.753
281.752
281.736
281.715
281.697
281.686
281.688
281.7
281.718
281.738
281.754
281.764
281.766
281.761
281.751
281.738
281.723
281.709
281.697
281.686
281.676
281.668
281.66
281.653
281.648
281.642
281.634
281.623
281.612
281.606
281.631
281.718
281.826
281.92
281.984
282.016
282.022
282.009
281.987
281.961
281.937
281.915
281.897
281.882
281.87
281.859
281.847
281.836
281.822
281.807
281.791
281.775
281.759
281.747
281.735
281.728
281.725
281.728
281.734
281.745
281.76
281.777
281.791
281.796
281.781
281.735
281.653
281.542
281.418
281.313