/*--------------------------------*- C++ -*----------------------------------*\
| =========                 |                                                 |
| \\      /  F ield         | OpenFOAM: The Open Source CFD Toolbox           |
|  \\    /   O peration     | Version:  4.1                                   |
|   \\  /    A nd           | Web:      www.OpenFOAM.org                      |
|    \\/     M anipulation  |                                                 |
\*---------------------------------------------------------------------------*/
FoamFile
{
    version     2.0;
    format      ascii;
    class       volVectorField;
    location    "560";
    object      U;
}
// * * * * * * * * * * * * * * * * * * * * * * * * * * * * * * * * * * * * * //

dimensions      [0 1 -1 0 0 0 0];

internalField   nonuniform List<vector> 
5000
(
(-0.00258176 0.00104967 0)
(-0.00153974 -0.00188325 0)
(0.00118963 -0.00199888 0)
(0.00275221 -0.00125434 0)
(0.00388875 -0.00084859 0)
(0.00464043 -0.000617097 0)
(0.00514071 -0.000477916 0)
(0.00551333 -0.00039454 0)
(0.00584112 -0.000350281 0)
(0.0061796 -0.000335528 0)
(0.00655798 -0.000327235 0)
(0.00694593 -0.000275351 0)
(0.00722233 -0.000128199 0)
(0.00716829 9.69891e-05 0)
(0.0067006 0.000359091 0)
(0.00585087 0.000586038 0)
(0.00477106 0.000691168 0)
(0.00372598 0.000608452 0)
(0.003005 0.000355374 0)
(0.00277756 5.39048e-05 0)
(0.00296291 -0.000151182 0)
(0.00333285 -0.00024215 0)
(0.00376411 -0.000272251 0)
(0.00420751 -0.000281929 0)
(0.00465466 -0.000289355 0)
(0.005115 -0.00030046 0)
(0.00560167 -0.000315696 0)
(0.00612512 -0.000333239 0)
(0.00669045 -0.000350237 0)
(0.00729618 -0.000363168 0)
(0.00793331 -0.000368086 0)
(0.00858497 -0.000361187 0)
(0.00922726 -0.000339706 0)
(0.00983191 -0.000302799 0)
(0.0103703 -0.000251869 0)
(0.0108176 -0.000190183 0)
(0.0111558 -0.000122176 0)
(0.0113758 -5.28818e-05 0)
(0.0114777 1.256e-05 0)
(0.0114694 7.07033e-05 0)
(0.0113578 0.000123475 0)
(0.011147 0.000173779 0)
(0.0108382 0.000223796 0)
(0.01043 0.000275115 0)
(0.00991964 0.000328941 0)
(0.00930214 0.000385957 0)
(0.00857042 0.000447128 0)
(0.00771166 0.000517839 0)
(0.00669038 0.000623988 0)
(0.00538392 0.000875101 0)
(0.00399511 0.00164181 0)
(-0.000622359 0.00315943 0)
(-0.00564858 0.00153646 0)
(-0.00645888 0.000509847 0)
(-0.00721758 0.000270286 0)
(-0.0077733 0.000240663 0)
(-0.0083013 0.000250295 0)
(-0.00884401 0.000269604 0)
(-0.00941474 0.000291735 0)
(-0.0100165 0.000313383 0)
(-0.0106488 0.000332883 0)
(-0.0113084 0.000349399 0)
(-0.0119888 0.000362044 0)
(-0.0126825 0.000369907 0)
(-0.0133809 0.000372349 0)
(-0.0140743 0.000368997 0)
(-0.0147517 0.000359623 0)
(-0.0154014 0.000344107 0)
(-0.0160116 0.000322493 0)
(-0.0165709 0.000295028 0)
(-0.0170685 0.00026216 0)
(-0.0174945 0.000224474 0)
(-0.0178402 0.000182621 0)
(-0.0180985 0.000137167 0)
(-0.0182631 8.84395e-05 0)
(-0.0183296 3.61514e-05 0)
(-0.0182951 -2.04838e-05 0)
(-0.0181532 -8.0995e-05 0)
(-0.0179018 -0.000143566 0)
(-0.0175415 -0.000207366 0)
(-0.0170728 -0.000272531 0)
(-0.0164955 -0.000339804 0)
(-0.0158082 -0.000410365 0)
(-0.015007 -0.000485729 0)
(-0.014086 -0.000567685 0)
(-0.0130367 -0.000658261 0)
(-0.0118484 -0.000759671 0)
(-0.0105075 -0.000874343 0)
(-0.00899588 -0.00100541 0)
(-0.00729187 -0.00115863 0)
(-0.00538453 -0.00134519 0)
(-0.00331701 -0.00157941 0)
(-0.00117154 -0.00185541 0)
(0.00175869 -0.00185541 0)
(0.00387366 -0.00146796 0)
(0.00562695 -0.000973273 0)
(0.00667721 -0.000478342 0)
(0.00680562 -4.36361e-06 0)
(0.00576068 0.000796447 0)
(0.0042533 0.00266306 0)
(-0.00208584 0.003139 0)
(-0.000269147 -0.00353088 0)
(0.000871877 -0.00296206 0)
(0.00204772 -0.00179592 0)
(0.00278183 -0.00111138 0)
(0.00327289 -0.000710551 0)
(0.00356886 -0.00048189 0)
(0.00374008 -0.000369496 0)
(0.00384788 -0.000346256 0)
(0.00393317 -0.000393579 0)
(0.00402764 -0.000453334 0)
(0.00415212 -0.000407773 0)
(0.00429414 -0.00013304 0)
(0.00437128 0.000337851 0)
(0.00430241 0.000835206 0)
(0.00411801 0.00118386 0)
(0.00394737 0.00124879 0)
(0.00393755 0.000977116 0)
(0.00413505 0.000452462 0)
(0.0044098 -7.12186e-05 0)
(0.00463062 -0.00039202 0)
(0.00480623 -0.000529237 0)
(0.00497043 -0.000569538 0)
(0.00515047 -0.000580092 0)
(0.00536502 -0.000595481 0)
(0.00562865 -0.00062892 0)
(0.00595291 -0.000681536 0)
(0.00634505 -0.000747948 0)
(0.00680719 -0.00081926 0)
(0.00733571 -0.00088439 0)
(0.00792038 -0.000931028 0)
(0.00854334 -0.000947114 0)
(0.00917907 -0.000923385 0)
(0.00979673 -0.000856069 0)
(0.0103647 -0.000747932 0)
(0.0108554 -0.000607224 0)
(0.0112491 -0.000445695 0)
(0.0115357 -0.000276791 0)
(0.0117152 -0.000111628 0)
(0.0117816 4.71781e-05 0)
(0.0117333 0.0002008 0)
(0.0115772 0.000351218 0)
(0.0113177 0.000500884 0)
(0.0109567 0.000653054 0)
(0.0104925 0.000811522 0)
(0.00991789 0.000980722 0)
(0.00921723 0.00116855 0)
(0.00835919 0.00139744 0)
(0.00727809 0.00174126 0)
(0.00579853 0.0024449 0)
(0.00408171 0.00419481 0)
(-0.000161464 0.00697803 0)
(-0.00537898 0.00416337 0)
(-0.00682031 0.00182943 0)
(-0.00813561 0.00109667 0)
(-0.00903181 0.000910682 0)
(-0.00979154 0.000872136 0)
(-0.0104993 0.0008837 0)
(-0.0111928 0.000914617 0)
(-0.0118887 0.000951301 0)
(-0.0125933 0.0009866 0)
(-0.0133074 0.00101625 0)
(-0.0140278 0.00103706 0)
(-0.0147488 0.00104638 0)
(-0.0154625 0.00104211 0)
(-0.0161597 0.00102262 0)
(-0.0168296 0.000986737 0)
(-0.0174608 0.000933737 0)
(-0.0180412 0.000863473 0)
(-0.018559 0.000776447 0)
(-0.019003 0.000673801 0)
(-0.0193629 0.000557228 0)
(-0.0196301 0.000428811 0)
(-0.0197975 0.000290752 0)
(-0.0198599 0.00014497 0)
(-0.0198135 -7.2509e-06 0)
(-0.0196565 -0.000164748 0)
(-0.0193939 -0.000324573 0)
(-0.0190291 -0.000484093 0)
(-0.0185642 -0.000642118 0)
(-0.0180013 -0.00079922 0)
(-0.0173411 -0.00095721 0)
(-0.0165827 -0.00111878 0)
(-0.0157233 -0.00128719 0)
(-0.014758 -0.00146607 0)
(-0.0136797 -0.00165912 0)
(-0.0124794 -0.00186977 0)
(-0.011146 -0.00210082 0)
(-0.00966659 -0.00235453 0)
(-0.00802877 -0.00263433 0)
(-0.00623195 -0.00294702 0)
(-0.00431201 -0.00329602 0)
(-0.00235933 -0.00363838 0)
(-0.000246505 -0.00374655 0)
(0.00194638 -0.00317251 0)
(0.00369082 -0.0020386 0)
(0.00481858 -0.000669565 0)
(0.00493848 0.000651334 0)
(0.00391175 0.00256063 0)
(0.00314043 0.00580975 0)
(-0.00173912 0.00446217 0)
(0.000205342 -0.00497751 0)
(0.000414342 -0.00398386 0)
(0.00145086 -0.00264262 0)
(0.00191409 -0.00175675 0)
(0.00228893 -0.00117058 0)
(0.0025286 -0.000805326 0)
(0.00266337 -0.000594337 0)
(0.00272332 -0.000498512 0)
(0.00271573 -0.00049449 0)
(0.00263648 -0.000524052 0)
(0.00250164 -0.000478812 0)
(0.00238498 -0.000227166 0)
(0.00239656 0.000252275 0)
(0.00253253 0.000748883 0)
(0.00277766 0.00104098 0)
(0.00311386 0.000991439 0)
(0.00346964 0.000611521 0)
(0.00370754 8.82435e-05 0)
(0.00371839 -0.000292174 0)
(0.00359288 -0.000470795 0)
(0.00345905 -0.000539451 0)
(0.00340284 -0.000582972 0)
(0.00345845 -0.000648204 0)
(0.00362795 -0.000747176 0)
(0.00389953 -0.000875897 0)
(0.00426021 -0.00102426 0)
(0.00469918 -0.00118072 0)
(0.00520824 -0.00133299 0)
(0.00578025 -0.00146661 0)
(0.00640595 -0.00156429 0)
(0.00706997 -0.0016071 0)
(0.00774765 -0.00157922 0)
(0.00840624 -0.00147395 0)
(0.00901031 -0.0012964 0)
(0.00952821 -0.00106154 0)
(0.00993615 -0.000790265 0)
(0.0102193 -0.000505244 0)
(0.0103729 -0.000224112 0)
(0.0104002 4.93113e-05 0)
(0.0103115 0.000313985 0)
(0.0101197 0.000568852 0)
(0.00983505 0.000816733 0)
(0.00946448 0.00106472 0)
(0.009009 0.00132278 0)
(0.00846066 0.00160398 0)
(0.00779963 0.00192908 0)
(0.00698963 0.00234356 0)
(0.00596951 0.00297065 0)
(0.00459213 0.00417229 0)
(0.00308635 0.00690646 0)
(-0.000285559 0.011002 0)
(-0.00475534 0.00711785 0)
(-0.00607233 0.00354327 0)
(-0.00753665 0.00224899 0)
(-0.00858856 0.00181959 0)
(-0.00948203 0.00167227 0)
(-0.0102958 0.00163751 0)
(-0.0110728 0.00165184 0)
(-0.0118343 0.00168581 0)
(-0.0125908 0.00172359 0)
(-0.0133458 0.00175547 0)
(-0.0140978 0.00177463 0)
(-0.0148423 0.00177585 0)
(-0.0155722 0.00175503 0)
(-0.0162789 0.00170893 0)
(-0.0169521 0.00163512 0)
(-0.0175803 0.00153215 0)
(-0.0181517 0.00139966 0)
(-0.0186545 0.00123851 0)
(-0.0190777 0.00105075 0)
(-0.0194116 0.000839467 0)
(-0.0196481 0.00060855 0)
(-0.0197813 0.000362288 0)
(-0.0198071 0.000104992 0)
(-0.0197233 -0.000159228 0)
(-0.0195324 -0.000425714 0)
(-0.0192395 -0.00069063 0)
(-0.0188495 -0.000951658 0)
(-0.0183679 -0.0012083 0)
(-0.0177987 -0.00146212 0)
(-0.0171444 -0.00171634 0)
(-0.0164058 -0.00197542 0)
(-0.0155814 -0.00224456 0)
(-0.0146675 -0.00252928 0)
(-0.0136584 -0.00283491 0)
(-0.0125468 -0.00316598 0)
(-0.0113236 -0.00352535 0)
(-0.00997949 -0.0039134 0)
(-0.00850805 -0.00432723 0)
(-0.00691326 -0.00475873 0)
(-0.00522174 -0.00518495 0)
(-0.00349122 -0.0055409 0)
(-0.00180556 -0.00567208 0)
(2.80122e-05 -0.00522879 0)
(0.00175947 -0.00368748 0)
(0.00317708 -0.0012985 0)
(0.00343015 0.000899716 0)
(0.00253972 0.00381634 0)
(0.00234335 0.00849742 0)
(-0.00146416 0.00519383 0)
(0.000360658 -0.00581746 0)
(-8.63183e-05 -0.00455773 0)
(0.000795403 -0.00311477 0)
(0.00094884 -0.00209676 0)
(0.00121995 -0.00138803 0)
(0.00138822 -0.000934697 0)
(0.0014836 -0.000656117 0)
(0.00151556 -0.000492532 0)
(0.00149075 -0.000414055 0)
(0.00139577 -0.000364681 0)
(0.00122871 -0.000277013 0)
(0.00102475 -8.80947e-05 0)
(0.00093032 0.000212019 0)
(0.000990339 0.00052661 0)
(0.0011699 0.000692627 0)
(0.00136838 0.00062899 0)
(0.00147161 0.000401726 0)
(0.001448 0.000161699 0)
(0.0013535 -3.84214e-05 0)
(0.00128086 -0.000227696 0)
(0.00133093 -0.000437238 0)
(0.00151326 -0.000651231 0)
(0.00179288 -0.000862988 0)
(0.00213836 -0.00107091 0)
(0.00253172 -0.00128049 0)
(0.00296586 -0.00149225 0)
(0.00344044 -0.00170325 0)
(0.00395876 -0.00190676 0)
(0.00452558 -0.00208913 0)
(0.00514341 -0.00222878 0)
(0.00580679 -0.00229697 0)
(0.0064959 -0.00226617 0)
(0.00717639 -0.00212224 0)
(0.00780727 -0.00187017 0)
(0.00835002 -0.00153083 0)
(0.00877412 -0.00113402 0)
(0.00905945 -0.000711857 0)
(0.00919791 -0.000292266 0)
(0.00918887 0.000109167 0)
(0.00904889 0.000486857 0)
(0.00879512 0.000839523 0)
(0.00844497 0.00117287 0)
(0.00801359 0.00149964 0)
(0.00750997 0.0018382 0)
(0.00693322 0.00221249 0)
(0.00626987 0.00265661 0)
(0.00549263 0.00323398 0)
(0.00456126 0.00409992 0)
(0.00336543 0.00569765 0)
(0.00211984 0.00923794 0)
(-0.00058349 0.0145021 0)
(-0.00432777 0.00973051 0)
(-0.00542554 0.00518543 0)
(-0.00682002 0.00345819 0)
(-0.00788172 0.00281654 0)
(-0.00883301 0.00255812 0)
(-0.00971506 0.00246597 0)
(-0.0105593 0.00245192 0)
(-0.011383 0.00247256 0)
(-0.0121956 0.00250368 0)
(-0.0130003 0.00253024 0)
(-0.0137961 0.00254162 0)
(-0.0145783 0.00252966 0)
(-0.0153397 0.00248789 0)
(-0.0160714 0.00241134 0)
(-0.0167624 0.00229637 0)
(-0.0174008 0.0021408 0)
(-0.017974 0.0019441 0)
(-0.0184697 0.00170751 0)
(-0.0188767 0.00143406 0)
(-0.0191854 0.00112833 0)
(-0.0193883 0.000796126 0)
(-0.0194808 0.000443712 0)
(-0.0194604 7.77112e-05 0)
(-0.0193267 -0.000294894 0)
(-0.0190893 -0.000665337 0)
(-0.0187554 -0.00102712 0)
(-0.018334 -0.00137789 0)
(-0.0178331 -0.00171816 0)
(-0.0172591 -0.0020511 0)
(-0.0166165 -0.00238195 0)
(-0.0159075 -0.00271737 0)
(-0.0151318 -0.00306484 0)
(-0.0142872 -0.00343198 0)
(-0.0133695 -0.00382598 0)
(-0.0123729 -0.00425274 0)
(-0.0112906 -0.00471572 0)
(-0.0101156 -0.00521428 0)
(-0.00884348 -0.00574084 0)
(-0.00747749 -0.00627537 0)
(-0.00603405 -0.00677428 0)
(-0.00454617 -0.00715189 0)
(-0.00305983 -0.00725831 0)
(-0.00162417 -0.00685742 0)
(-0.000140943 -0.00540636 0)
(0.0016227 -0.0019739 0)
(0.00239952 0.00112349 0)
(0.00166597 0.00462198 0)
(0.00182185 0.0103975 0)
(-0.00117988 0.00562743 0)
(0.000391715 -0.0061673 0)
(-0.000548167 -0.00473198 0)
(2.17219e-05 -0.00333937 0)
(-0.000112194 -0.00224837 0)
(4.76655e-05 -0.00151976 0)
(9.5325e-05 -0.00103219 0)
(0.000115621 -0.000724953 0)
(6.91847e-05 -0.000537757 0)
(1.04075e-05 -0.000405714 0)
(-0.000317312 -0.000211696 0)
(-0.000671172 -2.73084e-05 0)
(-0.000993562 0.000164102 0)
(-0.00122257 0.000368558 0)
(-0.00132112 0.000552473 0)
(-0.00129244 0.000648065 0)
(-0.00118094 0.000610605 0)
(-0.00102453 0.000441587 0)
(-0.000840127 0.000160172 0)
(-0.000545989 -0.000169718 0)
(-0.000201581 -0.000482083 0)
(0.000187703 -0.00079338 0)
(0.000558887 -0.0010448 0)
(0.000927189 -0.00126984 0)
(0.00129588 -0.00148361 0)
(0.00167898 -0.00170693 0)
(0.00207879 -0.00194022 0)
(0.00250343 -0.0021821 0)
(0.00296193 -0.00242706 0)
(0.0034659 -0.00266016 0)
(0.00402724 -0.00285471 0)
(0.00465102 -0.00296836 0)
(0.00532362 -0.00295541 0)
(0.00600967 -0.00278881 0)
(0.00666254 -0.00247108 0)
(0.00723701 -0.00202826 0)
(0.00769561 -0.0014991 0)
(0.00801082 -0.000926398 0)
(0.00816678 -0.000350484 0)
(0.00815528 0.000199477 0)
(0.00799152 0.000708922 0)
(0.00769576 0.00117263 0)
(0.00729203 0.00159645 0)
(0.00680452 0.00199713 0)
(0.00625285 0.00240128 0)
(0.00564698 0.0028446 0)
(0.00498339 0.00337438 0)
(0.00424471 0.00406662 0)
(0.00340574 0.00509379 0)
(0.00238728 0.00695484 0)
(0.00134622 0.0111115 0)
(-0.00087947 0.017381 0)
(-0.00402545 0.0118642 0)
(-0.00493636 0.00661203 0)
(-0.00620962 0.00460847 0)
(-0.00722484 0.00382928 0)
(-0.00818791 0.00349144 0)
(-0.00910543 0.00335263 0)
(-0.00999455 0.00331138 0)
(-0.0108652 0.00331582 0)
(-0.0117227 0.00333566 0)
(-0.0125686 0.00335126 0)
(-0.0134007 0.00334844 0)
(-0.0142134 0.00331609 0)
(-0.0149988 0.0032453 0)
(-0.015747 0.00312913 0)
(-0.0164463 0.00296255 0)
(-0.0170838 0.00274263 0)
(-0.0176461 0.00246872 0)
(-0.0181204 0.00214274 0)
(-0.018495 0.00176927 0)
(-0.0187607 0.00135517 0)
(-0.0189114 0.000909147 0)
(-0.0189437 0.000440659 0)
(-0.0188575 -3.96654e-05 0)
(-0.018657 -0.000519943 0)
(-0.0183597 -0.000987458 0)
(-0.0179752 -0.0014359 0)
(-0.017516 -0.00186328 0)
(-0.0169931 -0.00227151 0)
(-0.016415 -0.00266583 0)
(-0.0157873 -0.00305388 0)
(-0.0151132 -0.0034447 0)
(-0.0143936 -0.00384798 0)
(-0.0136271 -0.00427324 0)
(-0.0128111 -0.00472918 0)
(-0.0119419 -0.00522286 0)
(-0.0110147 -0.00575832 0)
(-0.0100249 -0.00633447 0)
(-0.00896913 -0.00694114 0)
(-0.00784754 -0.00755201 0)
(-0.00666634 -0.00811296 0)
(-0.00543875 -0.00852598 0)
(-0.00418332 -0.00863116 0)
(-0.00292394 -0.00818879 0)
(-0.00170345 -0.00686422 0)
(-0.000229002 -0.00360643 0)
(0.00156547 0.000885074 0)
(0.00100001 0.00498657 0)
(0.00145907 0.011674 0)
(-0.000848376 0.00585669 0)
(0.000277211 -0.00603682 0)
(-0.000982833 -0.00452509 0)
(-0.000888588 -0.00323892 0)
(-0.00119242 -0.0022016 0)
(-0.00130452 -0.00150283 0)
(-0.00145322 -0.000990683 0)
(-0.00165043 -0.000599471 0)
(-0.00201111 -0.000244985 0)
(-0.00251446 6.83135e-05 0)
(-0.00284714 0.000260854 0)
(-0.00309156 0.000377301 0)
(-0.00324331 0.000458577 0)
(-0.00327461 0.000513917 0)
(-0.00316437 0.000527133 0)
(-0.00291147 0.000464387 0)
(-0.00254502 0.000296907 0)
(-0.00212022 1.55927e-05 0)
(-0.00164809 -0.000305121 0)
(-0.00119447 -0.000614771 0)
(-0.000782607 -0.000898498 0)
(-0.0004004 -0.00115806 0)
(-4.06161e-05 -0.00139193 0)
(0.000338829 -0.00162986 0)
(0.000685567 -0.00184429 0)
(0.00103989 -0.00207913 0)
(0.00139287 -0.00232697 0)
(0.00175733 -0.00259253 0)
(0.00214351 -0.00287435 0)
(0.00256628 -0.00315952 0)
(0.00304648 -0.00342059 0)
(0.00360173 -0.00360084 0)
(0.00422862 -0.00363014 0)
(0.00489451 -0.00346251 0)
(0.00555001 -0.0030957 0)
(0.00614557 -0.00256045 0)
(0.00663885 -0.00190366 0)
(0.00699624 -0.00117752 0)
(0.00719395 -0.000433804 0)
(0.00721558 0.000282634 0)
(0.00706672 0.000943899 0)
(0.00676707 0.00153596 0)
(0.00634393 0.00206067 0)
(0.00582846 0.00253576 0)
(0.00525084 0.00299442 0)
(0.0046334 0.0034846 0)
(0.00398334 0.00406824 0)
(0.00329046 0.00483234 0)
(0.00253466 0.00595756 0)
(0.00167059 0.00798032 0)
(0.000772951 0.0126268 0)
(-0.00108066 0.0197673 0)
(-0.00375734 0.0136272 0)
(-0.00453798 0.00783397 0)
(-0.00570209 0.00566503 0)
(-0.00665951 0.00481608 0)
(-0.00760975 0.00443559 0)
(-0.00853633 0.00426789 0)
(-0.00944617 0.00420661 0)
(-0.0103422 0.00419625 0)
(-0.0112257 0.00420311 0)
(-0.0120955 0.00420424 0)
(-0.0129477 0.00418252 0)
(-0.0137756 0.0041242 0)
(-0.0145702 0.00401806 0)
(-0.0153205 0.00385523 0)
(-0.0160137 0.00362931 0)
(-0.0166359 0.00333665 0)
(-0.0171728 0.00297672 0)
(-0.0176105 0.00255237 0)
(-0.0179371 0.00207004 0)
(-0.0181435 0.00153929 0)
(-0.0182253 0.000972171 0)
(-0.0181808 0.000382529 0)
(-0.0180132 -0.000213665 0)
(-0.0177392 -0.000797814 0)
(-0.0173755 -0.00135448 0)
(-0.0169377 -0.0018776 0)
(-0.0164414 -0.00236644 0)
(-0.0158996 -0.00282531 0)
(-0.0153218 -0.00326235 0)
(-0.0147142 -0.00368815 0)
(-0.0140799 -0.00411439 0)
(-0.0134199 -0.00455282 0)
(-0.0127337 -0.00501446 0)
(-0.0120198 -0.00550903 0)
(-0.0112765 -0.00604424 0)
(-0.010502 -0.00662455 0)
(-0.00969444 -0.007249 0)
(-0.00885203 -0.00790689 0)
(-0.00797299 -0.00857045 0)
(-0.00705553 -0.00918329 0)
(-0.00609639 -0.00964489 0)
(-0.00508769 -0.00979235 0)
(-0.00401708 -0.00938172 0)
(-0.00290584 -0.00808035 0)
(-0.00187862 -0.00553915 0)
(0.000996367 0.000632894 0)
(0.000581616 0.00506106 0)
(0.00120443 0.0125398 0)
(-0.000515432 0.00599296 0)
(1.24238e-05 -0.00547638 0)
(-0.0014545 -0.00399645 0)
(-0.00182746 -0.00278666 0)
(-0.00239106 -0.00183588 0)
(-0.00285587 -0.00111212 0)
(-0.0033328 -0.000526715 0)
(-0.00380353 -7.3654e-05 0)
(-0.00414628 0.000212945 0)
(-0.00431697 0.000356532 0)
(-0.00443028 0.000424254 0)
(-0.00445671 0.000436377 0)
(-0.00438155 0.000402041 0)
(-0.0041915 0.000325646 0)
(-0.00388567 0.000203371 0)
(-0.00348729 2.12113e-05 0)
(-0.00303279 -0.000216324 0)
(-0.00254844 -0.000474136 0)
(-0.00208193 -0.000752167 0)
(-0.00163673 -0.00102928 0)
(-0.00121044 -0.0012916 0)
(-0.000803189 -0.00153654 0)
(-0.000415918 -0.00176246 0)
(-5.04806e-05 -0.0019735 0)
(0.000305061 -0.00218735 0)
(0.000649625 -0.00242132 0)
(0.000967686 -0.00266688 0)
(0.00127663 -0.00293867 0)
(0.00158855 -0.00324197 0)
(0.00191933 -0.00356947 0)
(0.00229755 -0.00389915 0)
(0.00275292 -0.00416138 0)
(0.00329617 -0.00425655 0)
(0.00390376 -0.00411286 0)
(0.00452859 -0.00372001 0)
(0.00511966 -0.00311204 0)
(0.00563129 -0.00234283 0)
(0.00602481 -0.00147239 0)
(0.00626979 -0.000562174 0)
(0.00634325 0.00032824 0)
(0.00623646 0.00115507 0)
(0.00596563 0.00189119 0)
(0.00555771 0.00252958 0)
(0.0050469 0.0030845 0)
(0.00447093 0.00359239 0)
(0.00386295 0.00411295 0)
(0.0032401 0.00472576 0)
(0.00259734 0.00553127 0)
(0.00191127 0.00671453 0)
(0.00117431 0.00883376 0)
(0.00039476 0.0139241 0)
(-0.00113742 0.0217631 0)
(-0.00348106 0.0151551 0)
(-0.00418535 0.00890955 0)
(-0.0052633 0.00663594 0)
(-0.00616479 0.00576219 0)
(-0.00708892 0.00536775 0)
(-0.00800516 0.00518747 0)
(-0.0089147 0.00511434 0)
(-0.00981556 0.00509222 0)
(-0.0107055 0.00508587 0)
(-0.011581 0.00507021 0)
(-0.0124366 0.00502571 0)
(-0.0132643 0.00493625 0)
(-0.0140538 0.00478837 0)
(-0.0147928 0.00457124 0)
(-0.0154674 0.00427701 0)
(-0.0160622 0.00390129 0)
(-0.0165615 0.00344373 0)
(-0.0169503 0.00290852 0)
(-0.0172163 0.00230459 0)
(-0.0173511 0.00164546 0)
(-0.0173525 0.000948037 0)
(-0.0172223 0.000233239 0)
(-0.0169673 -0.000475816 0)
(-0.0166188 -0.00115412 0)
(-0.0161915 -0.00178637 0)
(-0.0157065 -0.00236728 0)
(-0.0151813 -0.00289859 0)
(-0.0146298 -0.00338813 0)
(-0.0140614 -0.00384785 0)
(-0.0134812 -0.00429177 0)
(-0.0128912 -0.00473422 0)
(-0.0122917 -0.00518865 0)
(-0.0116818 -0.00566685 0)
(-0.0110611 -0.00617866 0)
(-0.0104299 -0.00673153 0)
(-0.00978967 -0.00732984 0)
(-0.00914237 -0.007973 0)
(-0.00848949 -0.00865163 0)
(-0.00783023 -0.00934062 0)
(-0.00715878 -0.00998798 0)
(-0.00646029 -0.0104993 0)
(-0.00570617 -0.0107194 0)
(-0.00485917 -0.0104135 0)
(-0.0039021 -0.00924571 0)
(-0.00278673 -0.00669617 0)
(-0.000535801 -0.00170233 0)
(0.000338488 0.00486001 0)
(0.000978125 0.0131346 0)
(-0.000248456 0.00612979 0)
(-0.000339817 -0.0045365 0)
(-0.001923 -0.00314362 0)
(-0.00268506 -0.00202076 0)
(-0.00348096 -0.00116263 0)
(-0.0041196 -0.000527643 0)
(-0.00459153 -8.46555e-05 0)
(-0.00487561 0.000186236 0)
(-0.00502291 0.00033463 0)
(-0.00508586 0.000397858 0)
(-0.00506108 0.000384359 0)
(-0.00494978 0.000305167 0)
(-0.0047562 0.000176462 0)
(-0.00448855 1.01605e-05 0)
(-0.00416149 -0.000188895 0)
(-0.0037808 -0.000410454 0)
(-0.00335491 -0.000656455 0)
(-0.00289575 -0.00092802 0)
(-0.00241201 -0.00120889 0)
(-0.00191837 -0.00148036 0)
(-0.00143007 -0.00173044 0)
(-0.000960947 -0.00195586 0)
(-0.000521443 -0.00215903 0)
(-0.000118657 -0.00234848 0)
(0.000248188 -0.00253564 0)
(0.000575434 -0.002735 0)
(0.000865482 -0.00295956 0)
(0.00112115 -0.00321684 0)
(0.00135799 -0.00352104 0)
(0.00159091 -0.0038735 0)
(0.00185217 -0.00426261 0)
(0.00217906 -0.00461174 0)
(0.00259814 -0.00479181 0)
(0.0031031 -0.00469919 0)
(0.00365687 -0.00430995 0)
(0.00421087 -0.00365753 0)
(0.00471714 -0.00280032 0)
(0.0051319 -0.00180443 0)
(0.00541845 -0.000738599 0)
(0.00554899 0.000323872 0)
(0.00549792 0.0013216 0)
(0.0052762 0.00221174 0)
(0.00490819 0.00297438 0)
(0.00442798 0.00361617 0)
(0.003877 0.00417275 0)
(0.00329622 0.00471388 0)
(0.00271114 0.0053395 0)
(0.00212133 0.00616811 0)
(0.00149536 0.00738783 0)
(0.000857658 0.00956369 0)
(0.00021508 0.0149668 0)
(-0.00104132 0.0235054 0)
(-0.00317009 0.0165522 0)
(-0.00384932 0.0098914 0)
(-0.004863 0.00753866 0)
(-0.00571288 0.00666448 0)
(-0.00660311 0.00627425 0)
(-0.00749512 0.00609329 0)
(-0.00838775 0.00601533 0)
(-0.00927602 0.00598488 0)
(-0.0101554 0.00596619 0)
(-0.0110206 0.00593276 0)
(-0.0118646 0.00586309 0)
(-0.0126784 0.00573886 0)
(-0.0134503 0.00554437 0)
(-0.0141669 0.00526677 0)
(-0.0148126 0.00489667 0)
(-0.0153705 0.0044289 0)
(-0.0158233 0.00386347 0)
(-0.016155 0.00320645 0)
(-0.016353 0.00247042 0)
(-0.0164109 0.00167446 0)
(-0.0163288 0.000841999 0)
(-0.0161123 1.80282e-06 0)
(-0.0157735 -0.000814886 0)
(-0.0153592 -0.00157504 0)
(-0.0148806 -0.00226721 0)
(-0.0143626 -0.00288789 0)
(-0.0138236 -0.00344267 0)
(-0.013277 -0.0039442 0)
(-0.0127304 -0.00440922 0)
(-0.0121867 -0.00485561 0)
(-0.0116458 -0.00530024 0)
(-0.0111057 -0.00575761 0)
(-0.0105647 -0.00623933 0)
(-0.0100225 -0.00675403 0)
(-0.00948114 -0.00730758 0)
(-0.00894503 -0.00790298 0)
(-0.00842069 -0.00853944 0)
(-0.00791479 -0.00920965 0)
(-0.00743103 -0.00989392 0)
(-0.0069651 -0.01055 0)
(-0.00649813 -0.0110977 0)
(-0.00599057 -0.0113997 0)
(-0.00538278 -0.0112397 0)
(-0.00459561 -0.0102874 0)
(-0.00351005 -0.00802748 0)
(-0.00195679 -0.00382406 0)
(1.39801e-05 0.00419754 0)
(0.000804448 0.0135148 0)
(-8.20047e-05 0.00633698 0)
(-0.000667176 -0.00334039 0)
(-0.00225093 -0.002089 0)
(-0.00319257 -0.00113102 0)
(-0.00399944 -0.000480111 0)
(-0.00456206 -4.96598e-05 0)
(-0.00491679 0.000205273 0)
(-0.00512791 0.000340652 0)
(-0.00523647 0.000389583 0)
(-0.00525828 0.000363889 0)
(-0.00520711 0.000273966 0)
(-0.00509518 0.000132321 0)
(-0.00493054 -4.85078e-05 0)
(-0.00471295 -0.000263147 0)
(-0.00442381 -0.000509843 0)
(-0.00405107 -0.000793376 0)
(-0.00359558 -0.00110588 0)
(-0.0030708 -0.0014275 0)
(-0.00250059 -0.00173624 0)
(-0.00191308 -0.00201277 0)
(-0.00133604 -0.00224655 0)
(-0.00079169 -0.00243973 0)
(-0.000294942 -0.00260067 0)
(0.000145861 -0.00274294 0)
(0.000526482 -0.00288183 0)
(0.000839975 -0.00303057 0)
(0.00109309 -0.0032061 0)
(0.00129497 -0.00342665 0)
(0.00145793 -0.00370887 0)
(0.00159444 -0.00406364 0)
(0.00173413 -0.0044912 0)
(0.00191484 -0.0049175 0)
(0.00217658 -0.00519215 0)
(0.00253696 -0.00517733 0)
(0.00297826 -0.00482713 0)
(0.00345956 -0.004167 0)
(0.00393287 -0.00325512 0)
(0.00434973 -0.00216156 0)
(0.00466581 -0.000960384 0)
(0.00484984 0.000264482 0)
(0.00485938 0.00143154 0)
(0.00469725 0.00248031 0)
(0.00438376 0.00337479 0)
(0.00395079 0.00411059 0)
(0.00344043 0.0047187 0)
(0.00289859 0.00527626 0)
(0.00235762 0.0059051 0)
(0.00182255 0.0067464 0)
(0.00125324 0.0079911 0)
(0.000697688 0.0101949 0)
(0.000200721 0.0157267 0)
(-0.000796752 0.0250805 0)
(-0.00280302 0.0179012 0)
(-0.00350807 0.0108205 0)
(-0.00447781 0.00838849 0)
(-0.00528134 0.00752313 0)
(-0.00613311 0.00714651 0)
(-0.00699109 0.00697216 0)
(-0.00785416 0.00689431 0)
(-0.00871596 0.00685852 0)
(-0.0095706 0.00682876 0)
(-0.0104118 0.00677747 0)
(-0.0112315 0.00668134 0)
(-0.0120195 0.00651987 0)
(-0.0127634 0.00627506 0)
(-0.0134483 0.00593186 0)
(-0.0140572 0.00547917 0)
(-0.0145716 0.00491102 0)
(-0.0149726 0.00422807 0)
(-0.0152435 0.00343905 0)
(-0.0153715 0.00256139 0)
(-0.0153528 0.0016209 0)
(-0.0151882 0.000649885 0)
(-0.0148892 -0.000312098 0)
(-0.0144947 -0.00122106 0)
(-0.0140323 -0.00204731 0)
(-0.0135234 -0.00278141 0)
(-0.0129932 -0.00342288 0)
(-0.0124599 -0.00398261 0)
(-0.0119351 -0.00447941 0)
(-0.0114236 -0.0049356 0)
(-0.0109252 -0.00537325 0)
(-0.0104367 -0.00581149 0)
(-0.00995378 -0.00626525 0)
(-0.00947285 -0.00674485 0)
(-0.00899295 -0.00725643 0)
(-0.00851664 -0.00780261 0)
(-0.00805061 -0.00838327 0)
(-0.00760523 -0.00899582 0)
(-0.0071929 -0.009634 0)
(-0.00682435 -0.0102841 0)
(-0.00650232 -0.0109169 0)
(-0.00621259 -0.0114727 0)
(-0.00591402 -0.0118413 0)
(-0.00553048 -0.0118323 0)
(-0.00494537 -0.0111336 0)
(-0.00402954 -0.00924779 0)
(-0.00266998 -0.00537635 0)
(-0.00036811 0.00280801 0)
(0.000726864 0.0137641 0)
(-2.73644e-06 0.00665346 0)
(-0.000883443 -0.00206187 0)
(-0.00235573 -0.00101204 0)
(-0.0032911 -0.000272376 0)
(-0.00399701 0.000164426 0)
(-0.00448443 0.000369218 0)
(-0.00482147 0.000465634 0)
(-0.00504662 0.000491624 0)
(-0.00518742 0.000455983 0)
(-0.00526317 0.000365395 0)
(-0.00528475 0.000225042 0)
(-0.00525053 3.73194e-05 0)
(-0.00514557 -0.000201271 0)
(-0.00494091 -0.000497459 0)
(-0.00461443 -0.000850006 0)
(-0.00416482 -0.00124166 0)
(-0.00360746 -0.00164517 0)
(-0.00297017 -0.00203049 0)
(-0.0022873 -0.00236999 0)
(-0.0015954 -0.00264369 0)
(-0.000929315 -0.00284543 0)
(-0.000313824 -0.00298877 0)
(0.000235589 -0.00308676 0)
(0.000705414 -0.00315627 0)
(0.00108281 -0.00321796 0)
(0.00137806 -0.00329462 0)
(0.00159874 -0.0034072 0)
(0.00175191 -0.00357331 0)
(0.00184756 -0.0038117 0)
(0.0018969 -0.00414345 0)
(0.00192257 -0.00457959 0)
(0.00195645 -0.00505844 0)
(0.00204542 -0.0054237 0)
(0.00223175 -0.00550769 0)
(0.00252475 -0.00523335 0)
(0.00289782 -0.00460807 0)
(0.00330732 -0.00368248 0)
(0.00370243 -0.0025268 0)
(0.00403182 -0.0012185 0)
(0.00426016 0.000151924 0)
(0.0043295 0.00148091 0)
(0.00423055 0.00268828 0)
(0.0039784 0.00371929 0)
(0.00360139 0.0045557 0)
(0.00313989 0.0052203 0)
(0.00264241 0.00579418 0)
(0.00214729 0.00642069 0)
(0.0016668 0.00726744 0)
(0.00115399 0.00852871 0)
(0.000680195 0.0107331 0)
(0.00029542 0.0162394 0)
(-0.000412415 0.0264979 0)
(-0.00235673 0.0192798 0)
(-0.00314841 0.011732 0)
(-0.00409224 0.00919859 0)
(-0.00485517 0.00833947 0)
(-0.00566603 0.00797897 0)
(-0.00648308 0.00781447 0)
(-0.00730702 0.00773956 0)
(-0.00813129 0.00770044 0)
(-0.00894965 0.00766084 0)
(-0.0097552 0.00759203 0)
(-0.0105395 0.00746899 0)
(-0.0112917 0.00726893 0)
(-0.0119985 0.00697137 0)
(-0.0126441 0.00655891 0)
(-0.0132104 0.00601853 0)
(-0.0136775 0.0053435 0)
(-0.0140255 0.00453547 0)
(-0.0142368 0.00360652 0)
(-0.0142999 0.00258036 0)
(-0.0142132 0.00149165 0)
(-0.0139841 0.000386583 0)
(-0.0136289 -0.000683934 0)
(-0.0132027 -0.00166927 0)
(-0.0127184 -0.00254616 0)
(-0.0122044 -0.00330521 0)
(-0.011685 -0.00395046 0)
(-0.011177 -0.00449963 0)
(-0.0106893 -0.00497888 0)
(-0.0102234 -0.00541678 0)
(-0.00977557 -0.00583959 0)
(-0.00933947 -0.00626838 0)
(-0.00890834 -0.00671783 0)
(-0.00847695 -0.00719622 0)
(-0.00804326 -0.00770613 0)
(-0.00760957 -0.0082457 0)
(-0.00718322 -0.00881006 0)
(-0.00677661 -0.00939272 0)
(-0.00640607 -0.00998611 0)
(-0.00608898 -0.0105805 0)
(-0.00583779 -0.0111589 0)
(-0.00564988 -0.0116856 0)
(-0.00549321 -0.0120847 0)
(-0.00529142 -0.0122066 0)
(-0.00491295 -0.0117799 0)
(-0.00419985 -0.010325 0)
(-0.00290171 -0.00693019 0)
(-0.000638906 0.000908602 0)
(0.000764052 0.0139584 0)
(2.53876e-05 0.00706859 0)
(-0.000995543 -0.000841332 0)
(-0.00230126 4.07118e-05 0)
(-0.00313342 0.00057504 0)
(-0.00377368 0.000730357 0)
(-0.00425524 0.000777056 0)
(-0.00462603 0.000764079 0)
(-0.00491576 0.000707508 0)
(-0.00514418 0.00061057 0)
(-0.00531623 0.00046747 0)
(-0.00541965 0.000267115 0)
(-0.00542861 -3.51995e-06 0)
(-0.00531104 -0.000357058 0)
(-0.00503987 -0.000793121 0)
(-0.00461303 -0.00128811 0)
(-0.00404735 -0.00180535 0)
(-0.00337196 -0.0023051 0)
(-0.00262226 -0.00275057 0)
(-0.00183664 -0.00311101 0)
(-0.00105545 -0.003368 0)
(-0.000313648 -0.00352153 0)
(0.00036528 -0.00359649 0)
(0.00094951 -0.00360376 0)
(0.00142348 -0.00357506 0)
(0.00179897 -0.00354352 0)
(0.0020834 -0.00353501 0)
(0.00228262 -0.00357028 0)
(0.00240185 -0.00366702 0)
(0.00244876 -0.003845 0)
(0.00242981 -0.00412903 0)
(0.00236128 -0.00454061 0)
(0.00226643 -0.00503683 0)
(0.00219098 -0.00547303 0)
(0.00219499 -0.00566402 0)
(0.00231684 -0.005496 0)
(0.00255103 -0.00494779 0)
(0.00286445 -0.00405386 0)
(0.00320951 -0.00287825 0)
(0.00353064 -0.00149865 0)
(0.00378777 -6.77269e-06 0)
(0.00391169 0.0014711 0)
(0.0038752 0.00283299 0)
(0.00368633 0.00400287 0)
(0.00336854 0.00494602 0)
(0.00295861 0.00567373 0)
(0.00250566 0.00626676 0)
(0.00205363 0.00688755 0)
(0.0016243 0.0077326 0)
(0.00116597 0.00900144 0)
(0.000778205 0.0111797 0)
(0.000444444 0.0165923 0)
(0.000112018 0.0276818 0)
(-0.00180279 0.0207582 0)
(-0.00277129 0.0126576 0)
(-0.00369952 0.00998053 0)
(-0.00442674 0.00911538 0)
(-0.00519528 0.00876798 0)
(-0.00596627 0.00861314 0)
(-0.00674366 0.00854195 0)
(-0.00752154 0.00850041 0)
(-0.00829399 0.00845177 0)
(-0.0090541 0.00836596 0)
(-0.00979336 0.00821611 0)
(-0.0105008 0.0079771 0)
(-0.011163 0.00762581 0)
(-0.0117635 0.00714224 0)
(-0.0122839 0.00651138 0)
(-0.0127035 0.00572572 0)
(-0.0130021 0.00478831 0)
(-0.0131622 0.00371565 0)
(-0.0131749 0.00253994 0)
(-0.0130418 0.00130764 0)
(-0.0127762 7.95872e-05 0)
(-0.0123984 -0.001084 0)
(-0.0119678 -0.00213195 0)
(-0.0114899 -0.00304521 0)
(-0.0109961 -0.00381478 0)
(-0.0105094 -0.0044503 0)
(-0.0100445 -0.00497783 0)
(-0.00960613 -0.00543192 0)