/*--------------------------------*- C++ -*----------------------------------*\
| =========                 |                                                 |
| \\      /  F ield         | OpenFOAM: The Open Source CFD Toolbox           |
|  \\    /   O peration     | Version:  4.1                                   |
|   \\  /    A nd           | Web:      www.OpenFOAM.org                      |
|    \\/     M anipulation  |                                                 |
\*---------------------------------------------------------------------------*/
FoamFile
{
    version     2.0;
    format      ascii;
    class       volScalarField;
    location    "380";
    object      mag(U);
}
// * * * * * * * * * * * * * * * * * * * * * * * * * * * * * * * * * * * * * //

dimensions      [0 1 -1 0 0 0 0];

internalField   nonuniform List<scalar> 
5000
(
0.0038544
0.00346554
0.00255472
0.00165037
0.0012465
0.0014476
0.00173669
0.0019658
0.00180518
0.00123014
0.00566569
0.0105322
0.0129806
0.0143621
0.015247
0.0159207
0.0165005
0.0170186
0.0174804
0.0178841
0.0182263
0.0185033
0.0187115
0.0188471
0.018906
0.0188839
0.0187755
0.0185767
0.0182872
0.0179083
0.0174422
0.0168921
0.0162618
0.0155556
0.0147785
0.0139356
0.0130328
0.0120761
0.0110718
0.0100268
0.00894779
0.00784189
0.00671616
0.0055778
0.00443443
0.00329507
0.0021771
0.00114469
0.000668122
0.00163463
0.00281476
0.004007
0.00517222
0.00629094
0.007352
0.00834918
0.00927924
0.0101403
0.010931
0.0116505
0.012298
0.0128734
0.0133766
0.0138077
0.0141674
0.0144565
0.0146761
0.0148278
0.0149138
0.0149366
0.0149026
0.0148146
0.0146754
0.0144882
0.0142563
0.0139827
0.0136708
0.0133239
0.0129452
0.0125381
0.0121058
0.0116514
0.0111776
0.0106869
0.0101808
0.00966014
0.00912463
0.00857263
0.00800112
0.00740584
0.00678198
0.00612562
0.00543694
0.00472774
0.00403912
0.00347581
0.00325826
0.00353445
0.00367596
0.00405121
0.00483911
0.0016437
0.00254556
0.00191707
0.00113446
0.000670824
0.000437385
0.000106083
0.00236711
0.00771962
0.0112092
0.0132137
0.0145112
0.015687
0.0166586
0.0174393
0.0180869
0.0186348
0.0190961
0.0194751
0.0197719
0.0199852
0.0201131
0.0201535
0.0201039
0.0199629
0.0197357
0.0194245
0.01903
0.0185536
0.0179977
0.0173649
0.0166587
0.0158831
0.0150424
0.0141415
0.0131858
0.0121809
0.0111332
0.0100494
0.0089366
0.00780286
0.00665725
0.00551115
0.0043807
0.00329641
0.00234805
0.00180945
0.00214882
0.00305837
0.00409616
0.0051856
0.00628415
0.00736535
0.0084123
0.00941411
0.0103637
0.0112562
0.0120882
0.0128574
0.013562
0.0142009
0.0147734
0.0152788
0.0157172
0.0160886
0.0163933
0.0166321
0.016806
0.0169167
0.0169627
0.0169481
0.0168756
0.0167479
0.0165683
0.0163403
0.0160671
0.0157524
0.0153994
0.0150115
0.0145917
0.0141429
0.0136679
0.0131688
0.0126477
0.012106
0.0115448
0.0109646
0.0103657
0.00974829
0.00911336
0.0084638
0.00780656
0.00715516
0.00653277
0.00598121
0.00554575
0.00515383
0.00438308
0.00602771
0.00621136
0.00109113
0.0034432
0.00244828
0.00133357
0.00054522
0.000359065
0.002313
0.00753912
0.0122672
0.0143514
0.0146914
0.0147873
0.0153445
0.0160896
0.0168105
0.0174465
0.0179901
0.0184447
0.0188129
0.0190957
0.0192931
0.0194051
0.0194312
0.0193706
0.0192249
0.0189951
0.0186826
0.0182896
0.0178183
0.0172713
0.0166518
0.0159632
0.0152095
0.0143953
0.0135255
0.0126058
0.0116422
0.0106418
0.00961253
0.00856366
0.00750674
0.00645725
0.00543771
0.00448449
0.00367041
0.00315274
0.00314718
0.00367307
0.00439255
0.00525287
0.00619566
0.00717569
0.00816199
0.00913313
0.0100743
0.0109753
0.011829
0.0126306
0.0133764
0.014064
0.0146916
0.0152578
0.0157616
0.0162024
0.0165797
0.0168933
0.0171432
0.0173299
0.0174539
0.0175159
0.0175176
0.0174612
0.0173491
0.0171844
0.0169699
0.0167087
0.0164039
0.0160585
0.0156756
0.0152581
0.0148087
0.01433
0.0138245
0.0132948
0.0127433
0.0121728
0.0115862
0.0109869
0.010379
0.00976708
0.00915639
0.00855184
0.00795482
0.00735555
0.00672062
0.00598198
0.00503134
0.00423783
0.00866223
0.0071875
0.00321028
0.00398454
0.00264833
0.0012342
0.000764301
0.0021732
0.00612141
0.0114096
0.0150773
0.0161275
0.0154261
0.0147928
0.0149455
0.0155021
0.0161381
0.0167342
0.0172568
0.0176976
0.0180544
0.0183264
0.0185136
0.0186165
0.018635
0.0185687
0.0184204
0.0181915
0.0178839
0.0175001
0.0170429
0.0165154
0.0159211
0.0152637
0.0145475
0.0137773
0.0129584
0.012097
0.0111999
0.0102754
0.00933322
0.00838593
0.00744995
0.00654831
0.00571408
0.00499787
0.00448929
0.00432242
0.0045733
0.00503315
0.00564315
0.00638272
0.00720847
0.00808186
0.00897347
0.00986164
0.0107306
0.0115691
0.0123692
0.013125
0.0138326
0.0144889
0.0150916
0.0156389
0.0161295
0.0165621
0.0169358
0.0172498
0.0175036
0.017697
0.0178298
0.0179027
0.0179158
0.0178711
0.0177703
0.0176158
0.0174101
0.0171557
0.0168554
0.0165122
0.0161288
0.0157081
0.0152528
0.0147655
0.014249
0.013706
0.0131395
0.0125527
0.0119497
0.011335
0.0107136
0.0100905
0.00946927
0.00884925
0.00822036
0.00755595
0.00680789
0.00592056
0.00494673
0.00497845
0.011202
0.00797067
0.00495571
0.00459338
0.00255382
0.000833677
0.00197759
0.00508205
0.00975426
0.0143263
0.016995
0.017116
0.015734
0.0147082
0.0146357
0.0150531
0.0155947
0.016124
0.0165974
0.0169999
0.0173251
0.0175704
0.0177349
0.0178188
0.0178221
0.0177445
0.0175904
0.0173614
0.01706
0.0166894
0.0162526
0.0157532
0.0151947
0.0145814
0.0139177
0.0132088
0.0124605
0.0116793
0.0108733
0.0100519
0.00922687
0.00841349
0.00763198
0.00690945
0.00628168
0.00580061
0.00555137
0.00561322
0.00591322
0.00631751
0.00686045
0.00751414
0.00824367
0.00901861
0.00981443
0.0106122
0.0113976
0.0121603
0.0128924
0.0135885
0.0142443
0.0148567
0.015423
0.0159411
0.0164092
0.0168255
0.0171886
0.017497
0.0177498
0.0179459
0.0180848
0.0181662
0.0181898
0.0181565
0.0180677
0.017925
0.0177304
0.017486
0.0171943
0.0168579
0.0164793
0.0160614
0.0156067
0.0151181
0.0145983
0.01405
0.0134763
0.0128805
0.0122665
0.0116384
0.0110005
0.0103567
0.00970838
0.00905188
0.00837483
0.00765305
0.00685497
0.0059738
0.00523187
0.00610358
0.0133964
0.00855807
0.00623462
0.0050523
0.00223876
0.000854054
0.00430162
0.00834606
0.0128449
0.016608
0.0183305
0.0176788
0.0158521
0.0146164
0.0144045
0.014702
0.01514
0.0155828
0.0159851
0.0163286
0.0166046
0.0168087
0.0169388
0.0169947
0.0169764
0.0168839
0.0167234
0.0164963
0.0162058
0.0158551
0.0154476
0.0149868
0.0144768
0.0139219
0.0133268
0.0126969
0.0120385
0.0113587
0.0106662
0.00997115
0.00928645
0.00862833
0.00801766
0.00748032
0.00704842
0.00677125
0.00672134
0.0069033
0.00718061
0.00756562
0.00806243
0.00864532
0.00928704
0.00996453
0.0106593
0.011357
0.0120465
0.0127195
0.0133697
0.0139924
0.0145837
0.0151405
0.0156601
0.01614
0.0165778
0.0169713
0.0173184
0.0176171
0.0178657
0.0180624
0.0182059
0.0182954
0.0183298
0.0183087
0.0182332
0.0181043
0.0179235
0.0176926
0.0174135
0.0170887
0.0167205
0.0163117
0.0158648
0.0153826
0.0148679
0.0143235
0.0137524
0.0131577
0.0125428
0.0119111
0.011266
0.0106099
0.00994328
0.00926291
0.00856015
0.00782198
0.0070416
0.00626045
0.00582114
0.007333
0.015337
0.00898216
0.00695526
0.00519199
0.00168752
0.00285353
0.00719065
0.0113217
0.0153929
0.0183634
0.0192429
0.0179798
0.0158741
0.0145316
0.0142184
0.0144019
0.0147299
0.0150744
0.0153914
0.0156619
0.0158758
0.0160276
0.0161147
0.016137
0.0160942
0.0159865
0.0158224
0.0156024
0.0153298
0.0150078
0.01464
0.0142299
0.0137816
0.0132995
0.0127886
0.0122545
0.0117035
0.011143
0.0105813
0.0100287
0.0094972
0.00900199
0.00856145
0.00819707
0.00793703
0.00783015
0.00792013
0.00813802
0.00841347
0.00878982
0.00924767
0.00976311
0.0103159
0.0108905
0.0114749
0.0120605
0.0126406
0.01321
0.0137647
0.0143012
0.0148163
0.0153072
0.015771
0.0162048
0.0166058
0.0169711
0.017298
0.0175838
0.0178259
0.018022
0.0181698
0.0182678
0.0183145
0.0183076
0.018248
0.0181363
0.0179732
0.0177602
0.0174988
0.0171913
0.0168398
0.0164468
0.016015
0.0155472
0.0150461
0.0145148
0.013956
0.0133728
0.0127682
0.0121451
0.0115063
0.0108538
0.0101885
0.00950951
0.00881437
0.00810277
0.00739026
0.00675332
0.00660183
0.0085861
0.0171101
0.00872872
0.00677976
0.00461543
0.00129625
0.00570066
0.00977083
0.0138178
0.0174157
0.0196562
0.0198199
0.0180915
0.0158258
0.0144358
0.0140416
0.0141164
0.0143331
0.0145738
0.0147976
0.0149863
0.0151297
0.0152221
0.0152613
0.0152468
0.0151787
0.0150603
0.0148974
0.0146911
0.0144447
0.0141612
0.0138439
0.0134965
0.0131229
0.0127275
0.0123152
0.0118913
0.0114619
0.0110334
0.0106134
0.0102103
0.00983434
0.00949779
0.00921529
0.0090041
0.00889184
0.00892503
0.00910099
0.00932822
0.00962352
0.00999121
0.0104069
0.0108494
0.0113051
0.011766
0.0122275
0.0126875
0.0131446
0.0135973
0.0140443
0.0144836
0.0149129
0.0153295
0.0157301
0.0161117
0.0164706
0.0168035
0.0171067
0.017377
0.017611
0.0178058
0.0179582
0.018066
0.0181272
0.0181377
0.0180978
0.0180076
0.0178673
0.0176777
0.0174402
0.0171565
0.0168288
0.0164593
0.0160507
0.0156057
0.0151273
0.0146184
0.0140819
0.013521
0.0129385
0.0123373
0.0117201
0.0110893
0.0104472
0.00979598
0.00913966
0.00848847
0.00787391
0.00739294
0.00748835
0.00983362
0.0187608
0.0081651
0.00623398
0.00336005
0.00349122
0.00781506
0.011923
0.0158192
0.0189491
0.0205478
0.0201219
0.0180553
0.0157125
0.0143088
0.0138473
0.0138206
0.0139287
0.0140648
0.0141921
0.0142943
0.0143626
0.014392
0.0143814
0.0143308
0.0142402
0.0141147
0.0139591
0.0137741
0.0135625
0.0133273
0.0130717
0.0127988
0.0125124
0.0122164
0.0119151
0.0116129
0.0113146
0.0110252
0.0107501
0.0104953
0.0102684
0.0100785
0.00993713
0.00985962
0.00987565
0.0100184
0.0102404
0.0104922
0.0108083
0.0111619
0.0115259
0.0118837
0.0122287
0.0125614
0.0128859
0.013207
0.013529
0.0138547
0.0141852
0.01452
0.0148573
0.0151943
0.0155275
0.0158528
0.0161661
0.0164631
0.0167396
0.0169917
0.0172155
0.0174073
0.0175637
0.0176814
0.0177588
0.0177894
0.0177731
0.0177092
0.0175973
0.0174375
0.0172308
0.0169786
0.0166826
0.0163451
0.0159686
0.0155559
0.0151099
0.0146337
0.0141304
0.0136031
0.0130551
0.0124893
0.0119091
0.0113177
0.0107191
0.0101187
0.00952546
0.00895698
0.00845406
0.00812334
0.00842447
0.0110612
0.0203146
0.00760023
0.00510242
0.00245477
0.00533806
0.00958803
0.0137022
0.0173835
0.0200645
0.0211037
0.0202025
0.0179006
0.0155366
0.0141382
0.0136195
0.0134996
0.0135047
0.0135383
0.0135687
0.0135829
0.0135742
0.0135397
0.0134796
0.0133949
0.0132852
0.0131585
0.0130167
0.0128606
0.0126931
0.0125165
0.0123335
0.0121469
0.0119594
0.0117739
0.0115933
0.0114203
0.0112577
0.0111081
0.0109742
0.0108596
0.0107697
0.010711
0.0106936
0.0107339
0.0108627
0.0110862
0.0113394
0.0116322
0.0119621
0.0122901
0.0125876
0.0128437
0.0130609
0.0132497
0.0134236
0.0135952
0.0137745
0.013968
0.0141791
0.0144079
0.0146527
0.0149098
0.0151749
0.0154429
0.0157088
0.0159675
0.0162143
0.0164447
0.0166545
0.0168399
0.0169972
0.0171227
0.0172151
0.0172667
0.0172761
0.0172422
0.0171636
0.0170397
0.0168707
0.0166575
0.0164016
0.016105
0.0157701
0.0153996
0.0149964
0.0145637
0.0141048
0.0136232
0.0131221
0.0126054
0.0120767
0.0115406
0.0110026
0.0104706
0.0099569
0.00948314
0.00909439
0.00890099
0.00937497
0.0122619
0.0217903
0.00722727
0.00360355
0.00281733
0.00697374
0.011174
0.0151862
0.018596
0.020842
0.021393
0.0201115
0.0176528
0.015303
0.0139194
0.0133516
0.013147
0.0130552
0.0129901
0.0129254
0.0128519
0.0127662
0.0126683
0.0125604
0.0124447
0.0123208
0.0121989
0.0120778
0.0119593
0.0118455
0.0117382
0.0116392
0.01155
0.0114717
0.0114054
0.0113516
0.0113105
0.0112825
0.0112676
0.0112659
0.0112789
0.0113109
0.0113677
0.0114597
0.0116056
0.011832
0.0121145
0.0124072
0.0127413
0.0130752
0.0133615
0.013573
0.0137069
0.0137778
0.0138082
0.013822
0.0138396
0.0138762
0.0139411
0.0140384
0.0141679
0.0143265
0.0145092
0.01471
0.0149225
0.0151408
0.0153591
0.0155723
0.0157759
0.0159658
0.0161383
0.01629
0.0164176
0.0165186
0.0165888
0.0166234
0.0166203
0.0165777
0.0164938
0.016368
0.0162007
0.0159927
0.0157456
0.0154615
0.0151431
0.0147931
0.0144149
0.0140118
0.0135874
0.0131456
0.0126904
0.0122264
0.0117589
0.0112946
0.010843
0.0104183
0.0100435
0.00976499
0.00969459
0.0103178
0.0134324
0.023201
0.00714511
0.00194147
0.0043053
0.00847802
0.0125921
0.0164272
0.0195268
0.0213558
0.02148
0.0198951
0.0173366
0.0150206
0.0136553
0.0130442
0.0127622
0.01258
0.0124204
0.0122631
0.0121034
0.0119421
0.0117824
0.0116295
0.0114867
0.0113535
0.0112427
0.0111508
0.0110795
0.0110303
0.0110038
0.0109997
0.0110177
0.0110565
0.0111143
0.0111887
0.0112772
0.0113774
0.0114872
0.0116046
0.0117302
0.0118689
0.0120269
0.0122171
0.0124598
0.0127697
0.0130969
0.0134439
0.0138116
0.0141355
0.0143599
0.0144619
0.0144518
0.0143593
0.0142216
0.0140735
0.0139427
0.0138479
0.0137991
0.0137988
0.0138446
0.0139306
0.0140493
0.0141927
0.0143531
0.0145238
0.0146988
0.0148732
0.0150427
0.0152039
0.0153538
0.0154899
0.0156096
0.0157108
0.0157917
0.0158454
0.0158697
0.0158618
0.0158191
0.0157397
0.015623
0.0154691
0.0152789
0.0150541
0.0147969
0.01451
0.0141965
0.0138598
0.0135037
0.0131322
0.0127497
0.0123611
0.0119723
0.0115908
0.0112267
0.0108947
0.010618
0.0104426
0.010482
0.0112386
0.0145704
0.0245558
0.00723324
0.00109177
0.00582148
0.00987257
0.0138502
0.0174602
0.0202334
0.0216694
0.0214215
0.0195945
0.0169756
0.0147018
0.0133537
0.012703
0.0123497
0.0120824
0.0118326
0.0115854
0.0113414
0.0111059
0.0108868
0.0106919
0.0105266
0.0103904
0.0102993
0.0102466
0.0102342
0.0102617
0.0103272
0.0104279
0.0105602
0.0107198
0.0109018
0.0111008
0.0113112
0.0115286
0.0117493
0.0119708
0.0121934
0.0124245
0.012672
0.0129521
0.0132841
0.0136627
0.0140398
0.0144429
0.0148342
0.0151299
0.0152677
0.0152347
0.0150594
0.0147919
0.0144855
0.0141859
0.0139261
0.0137249
0.0135893
0.0135175
0.013502
0.0135329
0.0135996
0.0136923
0.0138026
0.0139236
0.01405
0.0141776
0.0143034
0.0144249
0.0145405
0.0146485
0.0147479
0.0148373
0.014917
0.0149801
0.0150243
0.0150463
0.0150422
0.0150091
0.0149452
0.0148495
0.0147218
0.0145632
0.0143751
0.0141598
0.0139202
0.0136594
0.013381
0.0130891
0.012788
0.0124829
0.0121798
0.0118863
0.0116125
0.0113729
0.01119
0.0111094
0.0112475
0.0121271
0.0156735
0.0258603
0.00751349
0.00276412
0.00725697
0.0111684
0.0149653
0.0183215
0.0207664
0.0218379
0.0212667
0.0192458
0.016592
0.0143609
0.013026
0.0123372
0.0119168
0.011569
0.0112324
0.0108979
0.0105713
0.0102634
0.00998707
0.00975441
0.00957248
0.00944161
0.00938103
0.00938051
0.00944047
0.00955733
0.00972542
0.00993782
0.0101872
0.0104661
0.0107669
0.0110814
0.0114014
0.0117212
0.0120372
0.0123468
0.0126515
0.0129626
0.0132907
0.013655
0.0140697
0.014505
0.0149423
0.0153962
0.0157987
0.016044
0.0160673
0.0158734
0.0155167
0.0150718
0.0146097
0.0141849
0.0138308
0.0135613
0.0133751
0.0132622
0.0132085
0.0131995
0.0132221
0.0132659
0.013323
0.0133878
0.0134566
0.0135269
0.0135974
0.0136674
0.0137364
0.0138043
0.013871
0.0139366
0.0140028
0.014064
0.0141185
0.0141628
0.0141923
0.014203
0.0141917
0.0141559
0.0140944
0.0140069
0.0138941
0.0137574
0.0135991
0.0134217
0.0132285
0.0130231
0.0128099
0.0125934
0.0123796
0.0121757
0.0119916
0.0118411
0.011746
0.0117518
0.0119793
0.012976
0.0167395
0.0271174
0.00801606
0.00446406
0.00861686
0.0123632
0.0159538
0.0190442
0.0211706
0.021909
0.0210577
0.0188804
0.0162068
0.0140136
0.0126856
0.0119583
0.0114735
0.0110483
0.0106279
0.0102081
0.00980028
0.00942119
0.00909016
0.00882364
0.00862969
0.00852049
0.00850429
0.00857183
0.00871929
0.00893793
0.00921655
0.0095432
0.00990673
0.0102974
0.0107057
0.0111217
0.0115354
0.0119409
0.0123351
0.0127174
0.013091
0.013472
0.013874
0.014318
0.0148069
0.0152983
0.0157996
0.0162968
0.0166944
0.0168629
0.016742
0.0163642
0.0158186
0.0152084
0.014621
0.0141142
0.0137139
0.0134209
0.0132208
0.0130928
0.0130159
0.0129726
0.0129497
0.012938
0.012932
0.0129288
0.0129274
0.0129279
0.0129313
0.0129385
0.0129508
0.012969
0.0129943
0.0130276
0.013071
0.0131214
0.0131779
0.0132373
0.0132951
0.0133461
0.0133859
0.0134107
0.0134175
0.0134046
0.0133714
0.0133184
0.0132467
0.0131581
0.0130552
0.0129409
0.0128188
0.0126932
0.0125692
0.0124537
0.012356
0.0122894
0.0122751
0.0123594
0.0126687
0.0137794
0.0177663
0.0283288
0.00871611
0.0059632
0.00989479
0.013456
0.0168285
0.0196562
0.0214838
0.0219228
0.0208301
0.018525
0.0158389
0.0136754
0.0123466
0.0115789
0.0110309
0.0105305
0.0100283
0.0095247
0.00903667
0.0085876
0.00820432
0.00791031
0.00771635
0.00764349
0.00768996
0.00784394
0.00809428
0.00842465
0.00881716
0.0092548
0.0097234
0.0102122
0.0107117
0.0112116
0.011701
0.0121741
0.0126297
0.0130702
0.0135013
0.0139444
0.0144158
0.0149362
0.0154886
0.0160439
0.0166055
0.0171367
0.0175102
0.0175723
0.0172776
0.0166995
0.0159711
0.015226
0.0145626
0.0140304
0.0136366
0.0133609
0.0131725
0.0130407
0.012941
0.0128561
0.0127755
0.0126938
0.0126092
0.0125226
0.0124367
0.0123545
0.0122795
0.0122149
0.0121633
0.0121266
0.0121064
0.0121046
0.0121223
0.0121585
0.0122135
0.0122848
0.0123681
0.0124577
0.012548
0.0126337
0.0127103
0.0127744
0.0128239
0.0128577
0.012876
0.0128793
0.0128692
0.0128477
0.0128175
0.012782
0.0127457
0.0127149
0.0126984
0.0127093
0.0127688
0.0129241
0.0133093
0.0145333
0.0187524
0.0294946
0.00952632
0.00726012
0.0110547
0.0144369
0.0175972
0.0201789
0.0217362
0.0219121
0.0206132
0.0182022
0.0155054
0.0133612
0.0120229
0.0112116
0.0106006
0.0100264
0.00944412
0.00885798
0.0082903
0.00777209
0.00733966
0.00702607
0.00684735
0.00683063
0.00696205
0.00722208
0.00758853
0.00803566
0.00853909
0.00907814
0.00963713
0.0102061
0.0107768
0.0113404
0.0118863
0.0124091
0.0129101
0.0133957
0.0138752
0.0143745
0.0149117
0.0155035
0.0161154
0.0167384
0.0173541
0.0179083
0.0182348
0.0181587
0.0176637
0.0168802
0.0159933
0.0151643
0.0144887
0.0139914
0.0136479
0.013413
0.0132418
0.0130993
0.0129623
0.0128178
0.0126603
0.0124897
0.012309
0.0121232
0.0119387
0.011762
0.0115991
0.0114555
0.0113354
0.0112419
0.0111769
0.0111428
0.0111384
0.0111644
0.0112215
0.0113078
0.0114192
0.0115496
0.0116926
0.0118413
0.0119896
0.0121327
0.0122667
0.0123891
0.0124987
0.0125947
0.0126774
0.0127477
0.0128073
0.0128586
0.0129056
0.012954
0.0130124
0.013094
0.0132201
0.01344
0.0138964
0.0152346
0.0196963
0.0306143
0.0103672
0.0083369
0.0120692
0.015296
0.0182639
0.0206283
0.0219514
0.0219033
0.0204309
0.0179308
0.0152213
0.0130845
0.0117276
0.0108689
0.0101943
0.00954746
0.0088866
0.00821908
0.00757226
0.00698564
0.00650766
0.0061846
0.00604077
0.00610502
0.00634585
0.00672975
0.0072204
0.00778251
0.00838711
0.00901242
0.00964315
0.0102716
0.0108918
0.0114978
0.0120807
0.0126362
0.0131681
0.0136875
0.0142085
0.0147591
0.0153612
0.016012
0.0166905
0.0173774
0.0180397
0.0186035
0.0188575
0.0186107
0.0178957
0.0169176
0.0159183
0.0150742
0.0144547
0.0140404
0.0137689
0.0135741
0.0134054
0.0132306
0.013033
0.0128064
0.0125517
0.0122742
0.0119816
0.0116832
0.0113885
0.0111073
0.0108483
0.0106196
0.0104274
0.0102764
0.0101694
0.0101094
0.0100918
0.0101181
0.0101883
0.0103001
0.0104488
0.0106278
0.0108295
0.0110457
0.0112692
0.0114933
0.0117129
0.0119242
0.0121244
0.0123116
0.0124847
0.0126434
0.0127883
0.0129211
0.0130452
0.013166
0.0132923
0.0134375
0.0136239
0.0139027
0.0144265
0.0158814
0.0205973
0.0316868
0.0111835
0.00917983
0.0129238
0.0160281
0.0188319
0.0210159
0.0221478
0.0219173
0.0203028
0.017727
0.0149997
0.0128578
0.0114726
0.0105621
0.0098229
0.00910459
0.00836718
0.00762008
0.00689517
0.00624121
0.00572206
0.00540219
0.00531766
0.00549047
0.00586294
0.00638299
0.00699905
0.00766784
0.00835856
0.00905123
0.00973289
0.0103993
0.0110472
0.0116745
0.0122757
0.0128484
0.0133986
0.0139422
0.0144997
0.0150987
0.0157566
0.0164668
0.0172115
0.0179563
0.0186564
0.0192148
0.0193682
0.01892
0.0179763
0.016835
0.0157908
0.0150084
0.0145015
0.0141928
0.0139873
0.0138106
0.0136169
0.0133829
0.0131007
0.0127718
0.0124032
0.0120054
0.0115902
0.0111702
0.0107578
0.0103651
0.0100033
0.00968302
0.00941359
0.00920264
0.00905512
0.00897569
0.0089566
0.00899835
0.0090989
0.00925344
0.00945517
0.00969589
0.00996645
0.0102576
0.0105606
0.010868
0.0111737
0.0114727
0.0117611
0.0120357
0.0122945
0.0125359
0.0127596
0.0129668
0.0131604
0.0133462
0.0135333
0.0137356
0.0139762
0.014309
0.0148977
0.0164726
0.0214547
0.0327106
0.0119401
0.00977538
0.0136092
0.0166322
0.0193038
0.0213498
0.0223388
0.0219709
0.0202459
0.0176053
0.0148532
0.0126925
0.0112688
0.0103015
0.00949673
0.00870839
0.00789734
0.00707397
0.0062738
0.00555532
0.00500127
0.00470002
0.00470069
0.00500449
0.00552352
0.00618498
0.0069221
0.00768559
0.00844498
0.00918458
0.00989584
0.0105792
0.0112341
0.0118628
0.0124648
0.0130411
0.0135995
0.0141599
0.0147504
0.0153899
0.0160981
0.01687
0.0176755
0.0184703
0.0191981
0.0197345
0.0197581
0.0190822
0.0179167
0.0166669
0.0156605
0.0150094
0.014644
0.0144326
0.0142653
0.0140744
0.0138261
0.0135086
0.013123
0.0126777
0.0121855
0.0116611
0.0111199
0.0105764
0.0100446
0.00953763
0.00906827
0.00864922
0.00829364
0.00801451
0.00782234
0.0077263
0.00771695
0.00779203
0.00794472
0.00816475
0.00844057
0.00876049
0.00911312
0.00948787
0.00987541
0.0102679
0.0106587
0.0110424
0.0114144
0.0117707
0.0121082
0.0124245
0.0127189
0.0129921
0.0132473
0.0134905
0.0137313
0.0139846
0.0142744
0.0146573
0.015309
0.0170081
0.0222687
0.033684
0.0126178
0.0101085
0.0141149
0.0171089
0.0196812
0.0216338
0.0225329
0.022077
0.020275
0.0175802
0.0147944
0.0125999
0.0111264
0.0100966
0.00922491
0.00836841
0.00748797
0.00659391
0.00572444
0.00494741
0.00436647
0.00409733
0.00420161
0.00464819
0.00532207
0.00612643
0.0069781
0.00782359
0.00863454
0.00940107
0.0101207
0.0108007
0.0114447
0.0120572
0.0126446
0.0132134
0.0137719
0.0143431
0.0149549
0.0156335
0.0163924
0.01722
0.0180788
0.0189145
0.019659
0.0201555
0.0200197
0.0190976
0.0177373
0.0164559
0.0155723
0.0150966
0.0148672
0.0147211
0.0145554
0.0143189
0.0139923
0.0135745
0.0130745
0.012507
0.0118898
0.0112418
0.0105802
0.00992016
0.00927546
0.00865825
0.00808017
0.00755441
0.00709813
0.00673289
0.0064811
0.00636301
0.00637178
0.0064996
0.00673052
0.00704354
0.00741816
0.00783684
0.00828521
0.00875171
0.00922719
0.00970435
0.0101771
0.0106402
0.0110888
0.0115185
0.0119256
0.0123074
0.0126629
0.0129931
0.0133015
0.0135947
0.0138832
0.0141824
0.0145172
0.0149469
0.0156604
0.0174887
0.0230397
0.0346055
0.0132094
0.0101672
0.0144263
0.0174581
0.0199627
0.0218662
0.0227317
0.0222434
0.0204037
0.0176673
0.0148382
0.0125922
0.0110554
0.00995612
0.00901541
0.00809266
0.007148
0.00619098
0.00526149
0.00443519
0.00383483
0.00359995
0.003806
0.00440316
0.00524221
0.00619171
0.00715167
0.00806688
0.00891245
0.00968791
0.010397
0.0110547
0.0116728
0.0122544
0.0128141
0.0133617
0.0139125
0.0144903
0.0151234
0.0158365
0.0166395
0.017515
0.0184175
0.0192836
0.0200329
0.0204708
0.0201476
0.0189721
0.017467
0.0162462
0.0155543
0.0152612
0.0151345
0.0150129
0.0148154
0.0145098
0.0140898
0.0135638
0.0129472
0.0122605
0.0115269
0.0107682
0.0100024
0.00924353
0.00850296
0.00778874
0.00710746
0.00646882
0.00589145
0.00540788
0.00506275
0.00490285
0.00493407
0.00513836
0.00548086
0.0059197
0.00641945
0.00695487
0.00750914
0.00807121
0.00863364
0.00919097
0.00973861
0.0102721
0.0107871
0.0112793
0.0117448
0.0121811
0.0125874
0.0129653
0.0133188
0.0136556
0.0139865
0.0143275
0.0147042
0.0151785
0.0159531
0.0179158
0.0237683
0.0354732
0.0137172
0.0099429
0.014508
0.0176783
0.0201487
0.0220432
0.0229318
0.0224708
0.0206435
0.0178856
0.0150033
0.0126846
0.0110673
0.00988862
0.00887518
0.00788693
0.00688266
0.00587046
0.00489003
0.00401994
0.00339174
0.00316595
0.003467
0.00424126
0.00526655
0.00636554
0.00742638
0.00839824
0.00926368
0.0100316
0.0107152
0.0113309
0.0119032
0.0124456
0.0129713
0.0134939
0.0140321
0.0146112
0.0152598
0.0160009
0.0168396
0.0177527
0.0186874
0.0195718
0.0203135
0.0206737
0.0201382
0.0187173
0.0171409
0.0160747
0.0156098
0.0154714
0.0154021
0.0152683
0.0150153
0.0146272
0.0141084
0.0134748
0.0127478
0.0119544
0.0111228
0.010277
0.00943369
0.00860432
0.00779638
0.0070102
0.00624281
0.00549436
0.00477695
0.0041278
0.00362287
0.00337159
0.00342677
0.00374865
0.0042533
0.00485715
0.00550492
0.00616643
0.00682661
0.00747838
0.0081183
0.00874418
0.00935368
0.00994387
0.0105112
0.0110518
0.0115624
0.0120409
0.0124872
0.0129037
0.0132954
0.0136703
0.0140398
0.0144199
0.0148363
0.0153534
0.0161893
0.0182916
0.0244555
0.0362858
0.0141478
0.00946887
0.0143777
0.0177371
0.0202207
0.0221396
0.0231099
0.0227654
0.0210008
0.0182452
0.0153062
0.0128964
0.0111758
0.00990341
0.00881037
0.00775398
0.0066901
0.00562299
0.00458632
0.00365083
0.00294642
0.00268023
0.00312674
0.00414809
0.00538725
0.00663616
0.00778872
0.00880145
0.00967389
0.0104084
0.0110488
0.0116196
0.0121434
0.0126387
0.0131232
0.0136149
0.0141355
0.014711
0.015369
0.0161293
0.0169925
0.0179298
0.0188832
0.019773
0.0204945
0.020758
0.01999
0.0183503
0.0167956
0.0159612
0.0157171
0.0156853
0.0156316
0.0154603
0.0151391
0.0146646
0.0140498
0.0133174
0.0124948
0.0116162
0.010714
0.00981323
0.00892628
0.00806302
0.00722574
0.00640483
0.00558623
0.00475671
0.00391044
0.00306327
0.00229027
0.00180833
0.00188531
0.00243239
0.0031821
0.00398365
0.00477985
0.00555229
0.00629714
0.0070157
0.00771036
0.00838272
0.00903293
0.00965966
0.0102605
0.0108327
0.0113731
0.0118808
0.0123567
0.0128038
0.0132278
0.0136371
0.0140428
0.0144604
0.0149154
0.0154745
0.016372
0.0186193
0.0251027
0.0370417
0.0145125
0.00881019
0.0139712
0.0176209
0.0201807
0.0221424
0.0232216
0.0230463
0.0214653
0.0188278
0.0158039
0.0132337
0.0113904
0.0100105
0.00882748
0.00769459
0.00656221
0.00542519
0.00430162
0.0032449
0.00238285
0.00201349
0.00279315
0.00416316
0.00562212
0.00700236
0.00823312
0.00925229
0.0101021
0.010809
0.0114054
0.0119231
0.0123914
0.0128348
0.0132748
0.0137324
0.0142311
0.0147971
0.0154559
0.0162236
0.0170968
0.0180426
0.0189992
0.0198805
0.0205692
0.0207174
0.0197037
0.0178929
0.0164625
0.0159028
0.015839
0.0158639
0.0157962
0.0155743
0.0151821
0.0146255
0.0139254
0.0131106
0.0122144
0.0112793
0.0103393
0.00941808
0.00852316
0.00766593
0.0068409
0.00603095
0.00521625
0.00437654
0.00349236
0.00254924
0.00154974
0.000540581
0.000574212
0.001631
0.00262064
0.00354508
0.00441117
0.00522641
0.00599902
0.00673665
0.0074453
0.00812871
0.00878841
0.00942409
0.0100343
0.0106169
0.01117
0.0116937
0.0121899
0.0126611
0.0131135
0.013555
0.013996
0.0144508
0.0149444
0.0155454
0.0165056
0.0189024
0.0257111
0.0377402
0.0148264
0.00799608
0.0132754
0.0172966
0.0200133
0.0220481
0.0232579
0.0232923
0.0219643
0.0195281
0.0165595
0.0138452
0.0117502
0.01021
0.00892538
0.00770838
0.00649698
0.00527045
0.00402288
0.00276844
0.00158732
0.00118259
0.00266711
0.00439941
0.00602515
0.00746281
0.00870277
0.00973129
0.0105639
0.0112322
0.0117775
0.0122389
0.0126507
0.0130415
0.0134357
0.0138567
0.0143287
0.0148771
0.0155248
0.0162847
0.0171501
0.018086
0.0190288
0.019887
0.0205307
0.0205456
0.0192822
0.0173693
0.0161612
0.0158753
0.0159352
0.0159789
0.0158818
0.0156067
0.0151482
0.0145206
0.0137521
0.0128761
0.0119352
0.010976
0.0100313
0.00912106
0.00824857
0.00743295
0.00665788
0.00590579
0.00516074
0.0044089
0.00364209
0.0028693
0.00214065
0.00161892
0.00166556
0.00220666
0.00296134
0.00374856
0.00452062
0.00526455
0.00597945
0.00666864
0.00733593
0.00798404
0.0086141
0.00922586
0.00981912
0.0103966
0.0109472
0.0114746
0.0119817
0.0124718
0.0129506
0.0134241
0.0139011
0.0143943
0.0149274
0.0155714
0.0165956
0.0191455
0.026282
0.0383806
0.0151108
0.00709806
0.0122751
0.0167311
0.0196934
0.0218451
0.0232023
0.0234739
0.0224531
0.0203001
0.0174833
0.0146932
0.0123813
0.0106107
0.0091659
0.00782889
0.00652176
0.0052082
0.0038437
0.00237199
0.000660441
0.00128718
0.00311984
0.00489025
0.00653028
0.00799239
0.00923725
0.0102497
0.0110487
0.0116721
0.0121655
0.0125724
0.0129305
0.0132707
0.0136192
0.0140003
0.0144385
0.0149578
0.0155787
0.0163117
0.0171485
0.0180539
0.0189645
0.0197849
0.0203716
0.0202361
0.01873
0.0168039
0.0158938
0.0158419
0.0159733
0.016014
0.0158837
0.0155601
0.0150467
0.0143648
0.0135499
0.0126376
0.0116819
0.0107296
0.00980976
0.00894212
0.00813501
0.00738763
0.00669261
0.00604092
0.00542536
0.00484279
0.00429842
0.0038146
0.00343853
0.00323583
0.00327196
0.00354343
0.00399097
0.00452403
0.00509326
0.00567268
0.00625072
0.00682371
0.00739124
0.00795374
0.00851132
0.0090635
0.00960969
0.0101515
0.0106839
0.0112065
0.0117274
0.0122345
0.0127387
0.0132454
0.0137605
0.0142943
0.0148693
0.0155584
0.016649
0.0193541
0.0268172
0.0389635
0.0153879
0.00620438
0.0109642
0.0158992
0.0191873
0.0215136
0.0230378
0.0235592
0.0228763
0.0210711
0.0185061
0.0157541
0.01328
0.0112594
0.00960217
0.00812608
0.00672063
0.00532933
0.00391593
0.00250013
0.00164954
0.00247318
0.00400784
0.00564614
0.00721184
0.00862194
0.00982396
0.0107961
0.0115523
0.0121301
0.0125762
0.0129352
0.0132455
0.0135383
0.0138404
0.0141763
0.01457
0.0150445
0.0156188
0.0163021
0.0170866
0.0179392
0.0187985
0.0195664
0.0200845
0.0197824
0.0180537
0.016217
0.0156442
0.0157651
0.0159325
0.0159629
0.0158032
0.0154417
0.0148889
0.0141737
0.0133376
0.0124289
0.0114955
0.0105784
0.00970752
0.00890069
0.00816575
0.0075048
0.00691502
0.0063932
0.00593777
0.00554907
0.00522982
0.00498686
0.00483268
0.00478218
0.00484702
0.00501432
0.00527946
0.00560551
0.00596927
0.00635519
0.00675499
0.00716565
0.00758699
0.00802001
0.00846575
0.0089248
0.00939725
0.00988387
0.0103823
0.0108894
0.0114095
0.0119391
0.012478
0.0130204
0.0135769
0.014155
0.0147757
0.0155139
0.0166741
0.0195345
0.0273183
0.0394902
0.0156797
0.00540857
0.00934858
0.0147872
0.0184602
0.021027
0.022747
0.0235218
0.0231838
0.0217626
0.019528
0.0169364
0.0144174
0.0122098
0.0103379
0.00869984
0.00719913
0.00578715
0.00448363
0.00346064
0.00325869
0.00398362
0.00520471
0.00660293
0.00800933
0.00931501
0.0104446
0.0113624
0.0120741
0.0126127
0.0130216
0.0133428
0.0136125
0.0138606
0.0141134
0.0143951
0.0147294
0.0151391
0.015643
0.0162509
0.0169575
0.0177337
0.0185222
0.0192237
0.0196616
0.0191779
0.017261
0.0156228
0.0153838
0.0156171
0.0158037
0.0158259
0.0156483
0.0152665
0.0146982
0.013978
0.0131519
0.0122694
0.0113783
0.0105176
0.00971477
0.00898636
0.00834093
0.00778215
0.00731097
0.00692722