/*--------------------------------*- C++ -*----------------------------------*\
| =========                 |                                                 |
| \\      /  F ield         | OpenFOAM: The Open Source CFD Toolbox           |
|  \\    /   O peration     | Version:  4.1                                   |
|   \\  /    A nd           | Web:      www.OpenFOAM.org                      |
|    \\/     M anipulation  |                                                 |
\*---------------------------------------------------------------------------*/
FoamFile
{
    version     2.0;
    format      ascii;
    class       volScalarField;
    location    "380";
    object      p;
}
// * * * * * * * * * * * * * * * * * * * * * * * * * * * * * * * * * * * * * //

dimensions      [0 2 -2 0 0 0 0];

internalField   nonuniform List<scalar> 
5000
(
0
2.07909e-06
8.32101e-06
1.07825e-05
1.06365e-05
1.10895e-05
1.17572e-05
1.22043e-05
1.19568e-05
1.74923e-05
2.10444e-05
1.48053e-05
6.64398e-06
1.391e-06
-2.23083e-06
-5.08008e-06
-7.3458e-06
-9.00763e-06
-9.99959e-06
-1.02366e-05
-9.62189e-06
-8.06615e-06
-5.50226e-06
-1.87667e-06
2.8597e-06
8.7331e-06
1.5734e-05
2.38244e-05
3.29273e-05
4.29274e-05
5.36807e-05
6.50222e-05
7.67702e-05
8.87302e-05
0.000100698
0.000112467
0.000123828
0.000134582
0.000144538
0.000153525
0.00016139
0.000168005
0.000173268
0.000177104
0.000179469
0.000180346
0.000179741
0.000177716
0.000174686
0.00017072
0.000165228
0.000157861
0.000148782
0.000138273
0.000126638
0.000114165
0.000101117
8.77323e-05
7.42353e-05
6.08312e-05
4.77071e-05
3.50303e-05
2.29485e-05
1.15905e-05
1.06616e-06
-8.53284e-06
-1.71336e-05
-2.46825e-05
-3.11468e-05
-3.6519e-05
-4.07937e-05
-4.3954e-05
-4.60288e-05
-4.70627e-05
-4.71088e-05
-4.62282e-05
-4.44883e-05
-4.19626e-05
-3.87307e-05
-3.48767e-05
-3.04885e-05
-2.56564e-05
-2.04719e-05
-1.50261e-05
-9.408e-06
-3.702e-06
2.01503e-06
7.67794e-06
1.32388e-05
1.86735e-05
2.39901e-05
2.9237e-05
3.45119e-05
3.99694e-05
4.581e-05
5.21981e-05
5.89614e-05
6.50763e-05
6.80215e-05
6.98381e-05
-0.0984873
-0.0984886
-0.0984851
-0.0984819
-0.0984791
-0.098476
-0.0984723
-0.0984688
-0.0984653
-0.0984543
-0.0984373
-0.0984341
-0.0984415
-0.0984497
-0.0984569
-0.0984631
-0.0984684
-0.0984728
-0.0984763
-0.0984789
-0.0984804
-0.0984808
-0.09848
-0.0984781
-0.0984749
-0.0984704
-0.0984646
-0.0984576
-0.0984495
-0.0984404
-0.0984304
-0.0984197
-0.0984086
-0.0983972
-0.0983858
-0.0983744
-0.0983635
-0.098353
-0.0983434
-0.0983346
-0.0983269
-0.0983204
-0.0983152
-0.0983114
-0.0983091
-0.0983082
-0.0983088
-0.0983108
-0.0983138
-0.098318
-0.0983239
-0.0983315
-0.0983405
-0.0983509
-0.0983623
-0.0983744
-0.0983871
-0.0984
-0.0984131
-0.098426
-0.0984386
-0.0984508
-0.0984623
-0.0984731
-0.098483
-0.098492
-0.0985
-0.0985068
-0.0985126
-0.0985172
-0.0985206
-0.0985229
-0.0985241
-0.0985242
-0.0985232
-0.0985213
-0.0985185
-0.0985148
-0.0985104
-0.0985052
-0.0984995
-0.0984932
-0.0984865
-0.0984795
-0.0984722
-0.0984647
-0.0984571
-0.0984495
-0.098442
-0.0984345
-0.0984271
-0.0984198
-0.0984127
-0.0984056
-0.0983985
-0.0983913
-0.098384
-0.0983769
-0.0983704
-0.0983626
-0.196986
-0.196986
-0.196985
-0.196982
-0.196978
-0.196974
-0.196969
-0.196965
-0.196957
-0.196942
-0.196927
-0.196925
-0.196932
-0.196942
-0.196951
-0.196959
-0.196965
-0.196971
-0.196976
-0.19698
-0.196982
-0.196983
-0.196983
-0.196982
-0.196979
-0.196974
-0.196969
-0.196962
-0.196954
-0.196945
-0.196935
-0.196924
-0.196913
-0.196902
-0.19689
-0.196879
-0.196868
-0.196858
-0.196848
-0.196839
-0.196832
-0.196825
-0.19682
-0.196816
-0.196814
-0.196813
-0.196813
-0.196815
-0.196818
-0.196822
-0.196828
-0.196836
-0.196845
-0.196855
-0.196867
-0.196879
-0.196891
-0.196904
-0.196917
-0.19693
-0.196942
-0.196954
-0.196965
-0.196976
-0.196986
-0.196995
-0.197003
-0.197009
-0.197015
-0.19702
-0.197023
-0.197025
-0.197026
-0.197026
-0.197025
-0.197022
-0.197019
-0.197015
-0.19701
-0.197004
-0.196998
-0.196991
-0.196983
-0.196975
-0.196967
-0.196958
-0.196949
-0.19694
-0.196931
-0.196922
-0.196914
-0.196905
-0.196897
-0.196889
-0.196881
-0.196874
-0.196867
-0.19686
-0.196852
-0.196839
-0.295488
-0.295485
-0.295484
-0.295483
-0.295479
-0.295473
-0.295466
-0.295459
-0.29545
-0.295437
-0.295429
-0.295429
-0.295437
-0.295446
-0.295454
-0.295462
-0.29547
-0.295476
-0.295481
-0.295485
-0.295487
-0.295489
-0.295489
-0.295487
-0.295484
-0.29548
-0.295474
-0.295468
-0.29546
-0.295451
-0.295441
-0.29543
-0.295419
-0.295408
-0.295396
-0.295385
-0.295374
-0.295364
-0.295354
-0.295346
-0.295338
-0.295331
-0.295326
-0.295322
-0.29532
-0.295319
-0.29532
-0.295321
-0.295324
-0.295328
-0.295335
-0.295342
-0.295351
-0.295361
-0.295372
-0.295384
-0.295397
-0.295409
-0.295422
-0.295435
-0.295447
-0.295459
-0.29547
-0.29548
-0.29549
-0.295499
-0.295507
-0.295513
-0.295519
-0.295523
-0.295527
-0.295529
-0.29553
-0.295529
-0.295528
-0.295526
-0.295522
-0.295518
-0.295512
-0.295506
-0.2955
-0.295492
-0.295485
-0.295476
-0.295467
-0.295458
-0.295449
-0.29544
-0.29543
-0.29542
-0.295411
-0.295402
-0.295393
-0.295384
-0.295376
-0.295368
-0.295361
-0.295353
-0.295346
-0.295334
-0.393991
-0.393988
-0.393985
-0.393985
-0.39398
-0.393973
-0.393964
-0.393956
-0.393947
-0.393939
-0.393935
-0.393938
-0.393945
-0.393954
-0.393962
-0.393969
-0.393976
-0.393982
-0.393988
-0.393991
-0.393994
-0.393995
-0.393995
-0.393994
-0.393991
-0.393987
-0.393981
-0.393975
-0.393967
-0.393958
-0.393948
-0.393937
-0.393927
-0.393915
-0.393904
-0.393893
-0.393882
-0.393872
-0.393862
-0.393853
-0.393846
-0.393839
-0.393834
-0.39383
-0.393827
-0.393827
-0.393827
-0.393828
-0.393831
-0.393836
-0.393842
-0.393849
-0.393858
-0.393869
-0.39388
-0.393891
-0.393904
-0.393916
-0.393928
-0.393941
-0.393953
-0.393965
-0.393976
-0.393986
-0.393995
-0.394004
-0.394012
-0.394018
-0.394024
-0.394028
-0.394031
-0.394033
-0.394034
-0.394034
-0.394032
-0.39403
-0.394026
-0.394022
-0.394016
-0.39401
-0.394003
-0.393996
-0.393988
-0.393979
-0.39397
-0.393961
-0.393951
-0.393941
-0.393932
-0.393922
-0.393912
-0.393903
-0.393893
-0.393884
-0.393876
-0.393867
-0.39386
-0.393852
-0.393845
-0.393834
-0.492493
-0.492491
-0.492486
-0.492487
-0.492482
-0.492474
-0.492465
-0.492456
-0.492449
-0.492444
-0.492443
-0.492448
-0.492456
-0.492463
-0.492471
-0.492478
-0.492485
-0.492491
-0.492496
-0.492499
-0.492502
-0.492503
-0.492503
-0.492502
-0.492499
-0.492495
-0.49249
-0.492483
-0.492475
-0.492466
-0.492456
-0.492446
-0.492435
-0.492424
-0.492413
-0.492401
-0.492391
-0.49238
-0.492371
-0.492362
-0.492354
-0.492348
-0.492343
-0.492339
-0.492336
-0.492335
-0.492335
-0.492337
-0.49234
-0.492344
-0.49235
-0.492358
-0.492367
-0.492377
-0.492388
-0.4924
-0.492412
-0.492424
-0.492436
-0.492448
-0.49246
-0.492471
-0.492482
-0.492492
-0.492502
-0.49251
-0.492518
-0.492524
-0.492529
-0.492534
-0.492537
-0.492538
-0.492539
-0.492539
-0.492537
-0.492534
-0.492531
-0.492526
-0.492521
-0.492514
-0.492507
-0.4925
-0.492491
-0.492483
-0.492474
-0.492464
-0.492454
-0.492445
-0.492435
-0.492425
-0.492415
-0.492405
-0.492396
-0.492386
-0.492378
-0.492369
-0.492361
-0.492353
-0.492347
-0.492337
-0.590988
-0.590991
-0.590986
-0.590988
-0.590983
-0.590976
-0.590967
-0.590959
-0.590954
-0.590951
-0.590953
-0.590959
-0.590967
-0.590974
-0.590981
-0.590988
-0.590994
-0.591
-0.591005
-0.591008
-0.591011
-0.591012
-0.591012
-0.591011
-0.591008
-0.591004
-0.590999
-0.590992
-0.590984
-0.590975
-0.590965
-0.590955
-0.590944
-0.590933
-0.590922
-0.590911
-0.5909
-0.59089
-0.59088
-0.590872
-0.590864
-0.590858
-0.590852
-0.590848
-0.590846
-0.590845
-0.590845
-0.590846
-0.590849
-0.590854
-0.59086
-0.590868
-0.590877
-0.590887
-0.590898
-0.590909
-0.590921
-0.590933
-0.590945
-0.590957
-0.590968
-0.590979
-0.59099
-0.590999
-0.591009
-0.591017
-0.591024
-0.59103
-0.591036
-0.59104
-0.591043
-0.591045
-0.591045
-0.591045
-0.591043
-0.59104
-0.591036
-0.591032
-0.591026
-0.59102
-0.591012
-0.591005
-0.590996
-0.590987
-0.590978
-0.590968
-0.590959
-0.590949
-0.590939
-0.590929
-0.590919
-0.590909
-0.590899
-0.59089
-0.590881
-0.590873
-0.590865
-0.590857
-0.590851
-0.590842
-0.689477
-0.689484
-0.689481
-0.689484
-0.689481
-0.689475
-0.689468
-0.689462
-0.689459
-0.68946
-0.689464
-0.68947
-0.689478
-0.689485
-0.689491
-0.689498
-0.689504
-0.68951
-0.689514
-0.689518
-0.689521
-0.689522
-0.689522
-0.689521
-0.689518
-0.689514
-0.689508
-0.689501
-0.689493
-0.689485
-0.689475
-0.689465
-0.689454
-0.689443
-0.689432
-0.689421
-0.68941
-0.6894
-0.689391
-0.689382
-0.689375
-0.689368
-0.689363
-0.689359
-0.689356
-0.689355
-0.689355
-0.689356
-0.689359
-0.689364
-0.68937
-0.689378
-0.689387
-0.689397
-0.689408
-0.689419
-0.689431
-0.689443
-0.689454
-0.689466
-0.689477
-0.689487
-0.689498
-0.689507
-0.689516
-0.689524
-0.689531
-0.689537
-0.689543
-0.689547
-0.68955
-0.689551
-0.689552
-0.689551
-0.689549
-0.689546
-0.689543
-0.689538
-0.689532
-0.689525
-0.689518
-0.68951
-0.689502
-0.689493
-0.689483
-0.689473
-0.689464
-0.689454
-0.689443
-0.689433
-0.689423
-0.689414
-0.689404
-0.689395
-0.689386
-0.689378
-0.68937
-0.689363
-0.689357
-0.689349
-0.787962
-0.78797
-0.78797
-0.787973
-0.787974
-0.787971
-0.787967
-0.787965
-0.787965
-0.787968
-0.787974
-0.787981
-0.787989
-0.787996
-0.788002
-0.788009
-0.788015
-0.78802
-0.788025
-0.788028
-0.788031
-0.788032
-0.788032
-0.78803
-0.788028
-0.788023
-0.788018
-0.788011
-0.788003
-0.787994
-0.787985
-0.787975
-0.787964
-0.787953
-0.787942
-0.787931
-0.787921
-0.787911
-0.787902
-0.787893
-0.787885
-0.787879
-0.787874
-0.78787
-0.787867
-0.787866
-0.787866
-0.787867
-0.78787
-0.787875
-0.787882
-0.78789
-0.787899
-0.787909
-0.787919
-0.78793
-0.787942
-0.787953
-0.787964
-0.787975
-0.787986
-0.787996
-0.788006
-0.788015
-0.788024
-0.788032
-0.788039
-0.788045
-0.78805
-0.788054
-0.788057
-0.788058
-0.788059
-0.788058
-0.788056
-0.788053
-0.788049
-0.788044
-0.788039
-0.788032
-0.788024
-0.788016
-0.788008
-0.787999
-0.787989
-0.787979
-0.787969
-0.787959
-0.787949
-0.787939
-0.787929
-0.787919
-0.78791
-0.787901
-0.787892
-0.787884
-0.787876
-0.787869
-0.787865
-0.787857
-0.886446
-0.886453
-0.886456
-0.88646
-0.886463
-0.886464
-0.886465
-0.886466
-0.88647
-0.886476
-0.886484
-0.886492
-0.886499
-0.886506
-0.886513
-0.886519
-0.886525
-0.886531
-0.886535
-0.886539
-0.886541
-0.886542
-0.886542
-0.886541
-0.886538
-0.886533
-0.886528
-0.886521
-0.886513
-0.886504
-0.886495
-0.886485
-0.886474
-0.886464
-0.886453
-0.886442
-0.886432
-0.886422
-0.886413
-0.886404
-0.886397
-0.88639
-0.886385
-0.886381
-0.886379
-0.886377
-0.886377
-0.886378
-0.886382
-0.886387
-0.886394
-0.886402
-0.886411
-0.886421
-0.886431
-0.886442
-0.886453
-0.886463
-0.886474
-0.886485
-0.886495
-0.886505
-0.886514
-0.886523
-0.886532
-0.886539
-0.886546
-0.886552
-0.886557
-0.886561
-0.886564
-0.886566
-0.886566
-0.886565
-0.886564
-0.886561
-0.886557
-0.886552
-0.886546
-0.886539
-0.886531
-0.886523
-0.886514
-0.886505
-0.886495
-0.886486
-0.886476
-0.886465
-0.886455
-0.886445
-0.886435
-0.886426
-0.886416
-0.886407
-0.886399
-0.886391
-0.886384
-0.886377
-0.886373
-0.886366
-0.984932
-0.984938
-0.984943
-0.984948
-0.984953
-0.984957
-0.984962
-0.984967
-0.984975
-0.984984
-0.984993
-0.985002
-0.98501
-0.985017
-0.985023
-0.98503
-0.985036
-0.985041
-0.985046
-0.985049
-0.985051
-0.985053
-0.985052
-0.985051
-0.985048
-0.985043
-0.985038
-0.985031
-0.985023
-0.985014
-0.985005
-0.984995
-0.984985
-0.984974
-0.984963
-0.984953
-0.984943
-0.984933
-0.984924
-0.984916
-0.984908
-0.984902
-0.984897
-0.984893
-0.98489
-0.984888
-0.984888
-0.98489
-0.984894
-0.984899
-0.984906
-0.984914
-0.984923
-0.984933
-0.984943
-0.984953
-0.984963
-0.984974
-0.984984
-0.984994
-0.985004
-0.985013
-0.985023
-0.985031
-0.98504
-0.985047
-0.985054
-0.98506
-0.985065
-0.985069
-0.985072
-0.985073
-0.985074
-0.985073
-0.985071
-0.985068
-0.985064
-0.985059
-0.985053
-0.985046
-0.985038
-0.98503
-0.985021
-0.985012
-0.985002
-0.984992
-0.984982
-0.984972
-0.984962
-0.984952
-0.984942
-0.984933
-0.984923
-0.984915
-0.984907
-0.984899
-0.984892
-0.984886
-0.984882
-0.984876
-1.08342
-1.08343
-1.08343
-1.08344
-1.08344
-1.08345
-1.08346
-1.08347
-1.08348
-1.08349
-1.0835
-1.08351
-1.08352
-1.08353
-1.08353
-1.08354
-1.08355
-1.08355
-1.08356
-1.08356
-1.08356
-1.08356
-1.08356
-1.08356
-1.08356
-1.08355
-1.08355
-1.08354
-1.08353
-1.08352
-1.08351
-1.0835
-1.08349
-1.08348
-1.08347
-1.08346
-1.08345
-1.08344
-1.08343
-1.08343
-1.08342
-1.08341
-1.08341
-1.0834
-1.0834
-1.0834
-1.0834
-1.0834
-1.08341
-1.08341
-1.08342
-1.08343
-1.08344
-1.08345
-1.08345
-1.08346
-1.08347
-1.08348
-1.08349
-1.0835
-1.08351
-1.08352
-1.08353
-1.08354
-1.08355
-1.08356
-1.08356
-1.08357
-1.08357
-1.08358
-1.08358
-1.08358
-1.08358
-1.08358
-1.08358
-1.08358
-1.08357
-1.08357
-1.08356
-1.08355
-1.08355
-1.08354
-1.08353
-1.08352
-1.08351
-1.0835
-1.08349
-1.08348
-1.08347
-1.08346
-1.08345
-1.08344
-1.08343
-1.08342
-1.08341
-1.08341
-1.0834
-1.0834
-1.08339
-1.08339
-1.18191
-1.18192
-1.18192
-1.18193
-1.18194
-1.18195
-1.18196
-1.18197
-1.18198
-1.182
-1.18201
-1.18202
-1.18203
-1.18204
-1.18204
-1.18205
-1.18206
-1.18206
-1.18207
-1.18207
-1.18207
-1.18207
-1.18207
-1.18207
-1.18207
-1.18206
-1.18206
-1.18205
-1.18204
-1.18203
-1.18202
-1.18201
-1.182
-1.18199
-1.18198
-1.18197
-1.18196
-1.18195
-1.18195
-1.18194
-1.18193
-1.18192
-1.18192
-1.18192
-1.18191
-1.18191
-1.18191
-1.18191
-1.18192
-1.18192
-1.18193
-1.18194
-1.18195
-1.18196
-1.18197
-1.18197
-1.18198
-1.18199
-1.182
-1.18201
-1.18202
-1.18203
-1.18204
-1.18205
-1.18206
-1.18206
-1.18207
-1.18208
-1.18208
-1.18208
-1.18209
-1.18209
-1.18209
-1.18209
-1.18209
-1.18208
-1.18208
-1.18207
-1.18207
-1.18206
-1.18205
-1.18205
-1.18204
-1.18203
-1.18202
-1.18201
-1.182
-1.18199
-1.18198
-1.18197
-1.18196
-1.18195
-1.18194
-1.18193
-1.18192
-1.18192
-1.18191
-1.18191
-1.1819
-1.1819
-1.2804
-1.28041
-1.28041
-1.28042
-1.28043
-1.28044
-1.28046
-1.28047
-1.28049
-1.28051
-1.28052
-1.28053
-1.28054
-1.28055
-1.28055
-1.28056
-1.28057
-1.28057
-1.28058
-1.28058
-1.28058
-1.28058
-1.28058
-1.28058
-1.28058
-1.28057
-1.28057
-1.28056
-1.28055
-1.28054
-1.28053
-1.28052
-1.28051
-1.2805
-1.28049
-1.28048
-1.28047
-1.28046
-1.28046
-1.28045
-1.28044
-1.28044
-1.28043
-1.28043
-1.28042
-1.28042
-1.28042
-1.28043
-1.28043
-1.28044
-1.28044
-1.28045
-1.28046
-1.28047
-1.28048
-1.28048
-1.28049
-1.2805
-1.28051
-1.28052
-1.28053
-1.28054
-1.28055
-1.28056
-1.28056
-1.28057
-1.28058
-1.28058
-1.28059
-1.28059
-1.2806
-1.2806
-1.2806
-1.2806
-1.28059
-1.28059
-1.28059
-1.28058
-1.28058
-1.28057
-1.28056
-1.28055
-1.28054
-1.28053
-1.28052
-1.28052
-1.28051
-1.2805
-1.28049
-1.28048
-1.28047
-1.28046
-1.28045
-1.28044
-1.28043
-1.28043
-1.28042
-1.28042
-1.28041
-1.28041
-1.3789
-1.3789
-1.37891
-1.37892
-1.37893
-1.37894
-1.37896
-1.37898
-1.379
-1.37901
-1.37903
-1.37904
-1.37905
-1.37905
-1.37906
-1.37907
-1.37908
-1.37908
-1.37908
-1.37909
-1.37909
-1.37909
-1.37909
-1.37909
-1.37908
-1.37908
-1.37907
-1.37907
-1.37906
-1.37905
-1.37904
-1.37903
-1.37902
-1.37901
-1.379
-1.37899
-1.37898
-1.37897
-1.37897
-1.37896
-1.37895
-1.37895
-1.37894
-1.37894
-1.37893
-1.37893
-1.37893
-1.37894
-1.37894
-1.37895
-1.37895
-1.37896
-1.37897
-1.37898
-1.37898
-1.37899
-1.379
-1.37901
-1.37902
-1.37903
-1.37904
-1.37905
-1.37905
-1.37906
-1.37907
-1.37908
-1.37909
-1.37909
-1.3791
-1.3791
-1.3791
-1.3791
-1.37911
-1.3791
-1.3791
-1.3791
-1.37909
-1.37909
-1.37908
-1.37908
-1.37907
-1.37906
-1.37905
-1.37904
-1.37903
-1.37902
-1.37901
-1.379
-1.37899
-1.37898
-1.37897
-1.37897
-1.37896
-1.37895
-1.37894
-1.37894
-1.37893
-1.37893
-1.37892
-1.37892
-1.4774
-1.4774
-1.4774
-1.47741
-1.47743
-1.47744
-1.47746
-1.47748
-1.4775
-1.47752
-1.47753
-1.47754
-1.47755
-1.47756
-1.47757
-1.47758
-1.47758
-1.47759
-1.47759
-1.4776
-1.4776
-1.4776
-1.4776
-1.4776
-1.47759
-1.47759
-1.47758
-1.47757
-1.47757
-1.47756
-1.47755
-1.47754
-1.47753
-1.47752
-1.47751
-1.4775
-1.47749
-1.47748
-1.47747
-1.47747
-1.47746
-1.47745
-1.47745
-1.47745
-1.47744
-1.47744
-1.47744
-1.47745
-1.47745
-1.47746
-1.47746
-1.47747
-1.47748
-1.47749
-1.47749
-1.4775
-1.47751
-1.47752
-1.47753
-1.47753
-1.47754
-1.47755
-1.47756
-1.47757
-1.47758
-1.47759
-1.47759
-1.4776
-1.47761
-1.47761
-1.47761
-1.47761
-1.47761
-1.47761
-1.47761
-1.47761
-1.4776
-1.4776
-1.47759
-1.47758
-1.47758
-1.47757
-1.47756
-1.47755
-1.47754
-1.47753
-1.47752
-1.47751
-1.4775
-1.47749
-1.47748
-1.47747
-1.47747
-1.47746
-1.47745
-1.47745
-1.47744
-1.47744
-1.47743
-1.47743
-1.5759
-1.5759
-1.5759
-1.57591
-1.57593
-1.57594
-1.57596
-1.57599
-1.57601
-1.57603
-1.57604
-1.57605
-1.57606
-1.57607
-1.57608
-1.57609
-1.57609
-1.5761
-1.5761
-1.5761
-1.57611
-1.57611
-1.57611
-1.5761
-1.5761
-1.57609
-1.57609
-1.57608
-1.57607
-1.57606
-1.57606
-1.57605
-1.57604
-1.57603
-1.57602
-1.57601
-1.576
-1.57599
-1.57598
-1.57598
-1.57597
-1.57596
-1.57596
-1.57595
-1.57595
-1.57595
-1.57595
-1.57596
-1.57596
-1.57597
-1.57597
-1.57598
-1.57599
-1.57599
-1.576
-1.57601
-1.57602
-1.57602
-1.57603
-1.57604
-1.57605
-1.57606
-1.57607
-1.57608
-1.57609
-1.5761
-1.5761
-1.57611
-1.57611
-1.57612
-1.57612
-1.57612
-1.57612
-1.57612
-1.57612
-1.57611
-1.57611
-1.5761
-1.5761
-1.57609
-1.57608
-1.57607
-1.57607
-1.57606
-1.57605
-1.57604
-1.57603
-1.57602
-1.57601
-1.576
-1.57599
-1.57598
-1.57598
-1.57597
-1.57596
-1.57596
-1.57595
-1.57595
-1.57594
-1.57594
-1.6744
-1.6744
-1.6744
-1.67441
-1.67443
-1.67445
-1.67447
-1.67449
-1.67451
-1.67453
-1.67455
-1.67456
-1.67457
-1.67458
-1.67459
-1.67459
-1.6746
-1.6746
-1.67461
-1.67461
-1.67461
-1.67461
-1.67461
-1.67461
-1.67461
-1.6746
-1.67459
-1.67459
-1.67458
-1.67457
-1.67456
-1.67455
-1.67454
-1.67453
-1.67452
-1.67451
-1.67451
-1.6745
-1.67449
-1.67448
-1.67448
-1.67447
-1.67447
-1.67446
-1.67446
-1.67446
-1.67446
-1.67447
-1.67447
-1.67448
-1.67448
-1.67449
-1.67449
-1.6745
-1.67451
-1.67451
-1.67452
-1.67453
-1.67454
-1.67455
-1.67456
-1.67457
-1.67458
-1.67459
-1.6746
-1.6746
-1.67461
-1.67462
-1.67462
-1.67463
-1.67463
-1.67463
-1.67463
-1.67463
-1.67463
-1.67462
-1.67462
-1.67461
-1.6746
-1.6746
-1.67459
-1.67458
-1.67457
-1.67456
-1.67455
-1.67454
-1.67453
-1.67453
-1.67452
-1.67451
-1.6745
-1.67449
-1.67448
-1.67448
-1.67447
-1.67447
-1.67446
-1.67446
-1.67445
-1.67445
-1.7729
-1.7729
-1.77291
-1.77292
-1.77293
-1.77295
-1.77297
-1.77299
-1.77302
-1.77304
-1.77305
-1.77306
-1.77307
-1.77308
-1.77309
-1.7731
-1.77311
-1.77311
-1.77312
-1.77312
-1.77312
-1.77312
-1.77312
-1.77312
-1.77311
-1.77311
-1.7731
-1.77309
-1.77308
-1.77307
-1.77307
-1.77306
-1.77305
-1.77304
-1.77303
-1.77302
-1.77301
-1.773
-1.773
-1.77299
-1.77298
-1.77298
-1.77297
-1.77297
-1.77297
-1.77297
-1.77297
-1.77297
-1.77298
-1.77298
-1.77299
-1.77299
-1.773
-1.773
-1.77301
-1.77302
-1.77303
-1.77304
-1.77305
-1.77306
-1.77307
-1.77308
-1.77309
-1.7731
-1.7731
-1.77311
-1.77312
-1.77313
-1.77313
-1.77313
-1.77314
-1.77314
-1.77314
-1.77314
-1.77313
-1.77313
-1.77312
-1.77312
-1.77311
-1.7731
-1.7731
-1.77309
-1.77308
-1.77307
-1.77306
-1.77305
-1.77304
-1.77303
-1.77302
-1.77301
-1.77301
-1.773
-1.77299
-1.77298
-1.77298
-1.77297
-1.77297
-1.77297
-1.77296
-1.77296
-1.8714
-1.8714
-1.87141
-1.87142
-1.87143
-1.87145
-1.87147
-1.8715
-1.87152
-1.87154
-1.87156
-1.87157
-1.87158
-1.87159
-1.8716
-1.87161
-1.87161
-1.87162
-1.87162
-1.87163
-1.87163
-1.87163
-1.87163
-1.87162
-1.87162
-1.87161
-1.8716
-1.8716
-1.87159
-1.87158
-1.87157
-1.87156
-1.87155
-1.87154
-1.87153
-1.87152
-1.87152
-1.87151
-1.8715
-1.87149
-1.87149
-1.87148
-1.87148
-1.87147
-1.87147
-1.87147
-1.87147
-1.87148
-1.87148
-1.87149
-1.87149
-1.8715
-1.8715
-1.87151
-1.87152
-1.87152
-1.87153
-1.87154
-1.87155
-1.87156
-1.87157
-1.87158
-1.87159
-1.8716
-1.87161
-1.87162
-1.87163
-1.87163
-1.87164
-1.87164
-1.87164
-1.87165
-1.87164
-1.87164
-1.87164
-1.87163
-1.87163
-1.87162
-1.87162
-1.87161
-1.8716
-1.87159
-1.87158
-1.87157
-1.87156
-1.87156
-1.87155
-1.87154
-1.87153
-1.87152
-1.87151
-1.8715
-1.8715
-1.87149
-1.87149
-1.87148
-1.87148
-1.87148
-1.87147
-1.87147
-1.9699
-1.9699
-1.96991
-1.96992
-1.96993
-1.96995
-1.96998
-1.97
-1.97003
-1.97005
-1.97006
-1.97008
-1.97009
-1.9701
-1.9701
-1.97011
-1.97012
-1.97012
-1.97013
-1.97013
-1.97013
-1.97013
-1.97013
-1.97013
-1.97012
-1.97012
-1.97011
-1.9701
-1.97009
-1.97008
-1.97007
-1.97006
-1.97005
-1.97004
-1.97004
-1.97003
-1.97002
-1.97001
-1.97
-1.97
-1.96999
-1.96999
-1.96998
-1.96998
-1.96998
-1.96998
-1.96998
-1.96998
-1.96999
-1.96999
-1.96999
-1.97
-1.97
-1.97001
-1.97002
-1.97003
-1.97004
-1.97005
-1.97006
-1.97007
-1.97008
-1.97009
-1.9701
-1.97011
-1.97012
-1.97013
-1.97013
-1.97014
-1.97014
-1.97015
-1.97015
-1.97015
-1.97015
-1.97015
-1.97014
-1.97014
-1.97013
-1.97013
-1.97012
-1.97011
-1.9701
-1.9701
-1.97009
-1.97008
-1.97007
-1.97006
-1.97005
-1.97004
-1.97003
-1.97003
-1.97002
-1.97001
-1.97
-1.97
-1.96999
-1.96999
-1.96999
-1.96998
-1.96998
-1.96998
-2.0684
-2.0684
-2.06841
-2.06842
-2.06843
-2.06845
-2.06848
-2.0685
-2.06853
-2.06855
-2.06857
-2.06858
-2.06859
-2.0686
-2.06861
-2.06862
-2.06862
-2.06863
-2.06863
-2.06864
-2.06864
-2.06864
-2.06864
-2.06863
-2.06863
-2.06862
-2.06861
-2.0686
-2.06859
-2.06858
-2.06858
-2.06857
-2.06856
-2.06855
-2.06854
-2.06853
-2.06852
-2.06851
-2.06851
-2.0685
-2.06849
-2.06849
-2.06848
-2.06848
-2.06848
-2.06848
-2.06848
-2.06848
-2.06849
-2.06849
-2.0685
-2.0685
-2.06851
-2.06851
-2.06852
-2.06853
-2.06854
-2.06855
-2.06856
-2.06857
-2.06859
-2.0686
-2.06861
-2.06862
-2.06862
-2.06863
-2.06864
-2.06864
-2.06865
-2.06865
-2.06866
-2.06866
-2.06866
-2.06865
-2.06865
-2.06864
-2.06864
-2.06863
-2.06862
-2.06862
-2.06861
-2.0686
-2.06859
-2.06858
-2.06857
-2.06856
-2.06855
-2.06855
-2.06854
-2.06853
-2.06852
-2.06852
-2.06851
-2.0685
-2.0685
-2.0685
-2.06849
-2.06849
-2.06849
-2.06849
-2.1669
-2.1669
-2.16691
-2.16692
-2.16693
-2.16695
-2.16698
-2.16701
-2.16703
-2.16705
-2.16707
-2.16708
-2.1671
-2.16711
-2.16711
-2.16712
-2.16713
-2.16714
-2.16714
-2.16714
-2.16714
-2.16714
-2.16714
-2.16714
-2.16713
-2.16713
-2.16712
-2.16711
-2.1671
-2.16709
-2.16708
-2.16707
-2.16706
-2.16705
-2.16704
-2.16703
-2.16702
-2.16701
-2.16701
-2.167
-2.16699
-2.16699
-2.16698
-2.16698
-2.16698
-2.16698
-2.16698
-2.16698
-2.16699
-2.16699
-2.167
-2.167
-2.16701
-2.16702
-2.16703
-2.16704
-2.16705
-2.16706
-2.16707
-2.16708
-2.16709
-2.1671
-2.16711
-2.16712
-2.16713
-2.16713
-2.16714
-2.16715
-2.16715
-2.16716
-2.16716
-2.16716
-2.16716
-2.16716
-2.16715
-2.16715
-2.16714
-2.16713
-2.16713
-2.16712
-2.16711
-2.1671
-2.16709
-2.16708
-2.16707
-2.16706
-2.16706
-2.16705
-2.16704
-2.16703
-2.16703
-2.16702
-2.16701
-2.16701
-2.16701
-2.167
-2.167
-2.167
-2.167
-2.16699
-2.2654
-2.2654
-2.26541
-2.26542
-2.26543
-2.26545
-2.26548
-2.2655
-2.26553
-2.26556
-2.26557
-2.26559
-2.2656
-2.26561
-2.26562
-2.26563
-2.26563
-2.26564
-2.26565
-2.26565
-2.26565
-2.26565
-2.26565
-2.26564
-2.26564
-2.26563
-2.26562
-2.26561
-2.2656
-2.26559
-2.26558
-2.26557
-2.26556
-2.26555
-2.26554
-2.26553
-2.26552
-2.26551
-2.26551
-2.2655
-2.26549
-2.26549
-2.26548
-2.26548
-2.26548
-2.26548
-2.26548
-2.26548
-2.26549
-2.26549
-2.2655
-2.2655
-2.26551
-2.26552
-2.26553
-2.26554
-2.26555
-2.26556
-2.26557
-2.26558
-2.26559
-2.2656
-2.26561
-2.26562
-2.26563
-2.26564
-2.26564
-2.26565
-2.26565
-2.26566
-2.26566
-2.26566
-2.26566
-2.26566
-2.26565
-2.26565
-2.26564
-2.26564
-2.26563
-2.26562
-2.26561
-2.2656
-2.26559
-2.26558
-2.26557
-2.26557
-2.26556
-2.26555
-2.26554
-2.26553
-2.26553
-2.26552
-2.26552
-2.26551
-2.26551
-2.26551
-2.2655
-2.2655
-2.2655
-2.2655
-2.3639
-2.3639
-2.36391
-2.36391
-2.36393
-2.36395
-2.36397
-2.364
-2.36403
-2.36406
-2.36408
-2.36409
-2.3641
-2.36411
-2.36412
-2.36413
-2.36414
-2.36415
-2.36415
-2.36415
-2.36416
-2.36416
-2.36415
-2.36415
-2.36414
-2.36413
-2.36412
-2.36411
-2.3641
-2.36409
-2.36408
-2.36406
-2.36405
-2.36404
-2.36404
-2.36403
-2.36402
-2.36401
-2.364
-2.364
-2.36399
-2.36398
-2.36398
-2.36398
-2.36398
-2.36398
-2.36398
-2.36398
-2.36398
-2.36399
-2.36399
-2.364
-2.36401
-2.36402
-2.36403
-2.36404
-2.36405
-2.36406
-2.36407
-2.36408
-2.36409
-2.3641
-2.36411
-2.36412
-2.36413
-2.36414
-2.36414
-2.36415
-2.36415
-2.36416
-2.36416
-2.36416
-2.36416
-2.36416
-2.36415
-2.36415
-2.36414
-2.36413
-2.36413
-2.36412
-2.36411
-2.3641
-2.36409
-2.36408
-2.36407
-2.36407
-2.36406
-2.36405
-2.36404
-2.36404
-2.36403
-2.36402
-2.36402
-2.36402
-2.36401
-2.36401
-2.36401
-2.36401
-2.36401
-2.36401
-2.4624
-2.4624
-2.4624
-2.46241
-2.46242
-2.46244
-2.46247
-2.4625
-2.46253
-2.46255
-2.46258
-2.46259
-2.46261
-2.46262
-2.46263
-2.46264
-2.46264
-2.46265
-2.46265
-2.46266
-2.46266
-2.46266
-2.46266
-2.46265
-2.46264
-2.46263
-2.46262
-2.46261
-2.4626
-2.46258
-2.46257
-2.46256
-2.46255
-2.46254
-2.46253
-2.46252
-2.46251
-2.46251
-2.4625
-2.46249
-2.46249
-2.46248
-2.46248
-2.46247
-2.46247
-2.46247
-2.46247
-2.46248
-2.46248
-2.46248
-2.46249
-2.4625
-2.46251
-2.46252
-2.46253
-2.46254
-2.46255
-2.46256
-2.46257
-2.46258
-2.46259
-2.4626
-2.46261
-2.46262
-2.46263
-2.46263
-2.46264
-2.46265
-2.46265
-2.46265
-2.46266
-2.46266
-2.46266
-2.46266
-2.46265
-2.46265
-2.46264
-2.46263
-2.46262
-2.46262
-2.46261
-2.4626
-2.46259
-2.46258
-2.46257
-2.46256
-2.46256
-2.46255
-2.46254
-2.46254
-2.46253
-2.46253
-2.46252
-2.46252
-2.46251
-2.46251
-2.46251
-2.46251
-2.46251
-2.46251
-2.56089
-2.56089
-2.5609
-2.56091
-2.56092
-2.56094
-2.56096
-2.56099
-2.56102
-2.56105
-2.56107
-2.56109
-2.56111
-2.56112
-2.56113
-2.56114
-2.56115
-2.56115
-2.56116
-2.56116
-2.56116
-2.56116
-2.56116
-2.56115
-2.56114
-2.56113
-2.56112
-2.56111
-2.56109
-2.56108
-2.56107
-2.56106
-2.56105
-2.56104
-2.56103
-2.56102
-2.56101
-2.561
-2.56099
-2.56099
-2.56098
-2.56097
-2.56097
-2.56097
-2.56096
-2.56096
-2.56097
-2.56097
-2.56097
-2.56098
-2.56098
-2.56099
-2.561
-2.56101
-2.56102
-2.56104
-2.56105
-2.56106
-2.56107
-2.56108
-2.56109
-2.5611
-2.56111
-2.56112
-2.56112
-2.56113
-2.56114
-2.56114
-2.56115
-2.56115
-2.56115
-2.56115
-2.56115
-2.56115
-2.56115
-2.56114
-2.56114
-2.56113
-2.56112
-2.56111
-2.5611
-2.56109
-2.56109
-2.56108
-2.56107
-2.56106
-2.56105
-2.56105
-2.56104
-2.56103
-2.56103
-2.56103
-2.56102
-2.56102
-2.56102
-2.56101
-2.56101
-2.56101
-2.56101
-2.56101
-2.65939
-2.65939
-2.65939
-2.6594
-2.65941
-2.65943
-2.65946
-2.65948
-2.65951
-2.65954
-2.65957
-2.65959
-2.6596
-2.65962
-2.65963
-2.65964
-2.65965
-2.65965
-2.65966
-2.65966
-2.65966
-2.65966
-2.65965
-2.65965
-2.65964
-2.65962
-2.65961
-2.6596
-2.65959
-2.65957
-2.65956
-2.65955
-2.65954
-2.65953
-2.65952
-2.65951
-2.6595
-2.65949
-2.65949
-2.65948
-2.65947
-2.65947
-2.65946
-2.65946
-2.65946
-2.65946
-2.65946
-2.65946
-2.65947
-2.65947
-2.65948
-2.65949
-2.6595
-2.65951
-2.65952
-2.65953
-2.65954
-2.65956
-2.65957
-2.65958
-2.65959
-2.6596
-2.65961
-2.65961
-2.65962
-2.65963
-2.65963
-2.65964
-2.65964
-2.65965
-2.65965
-2.65965
-2.65965
-2.65965
-2.65964
-2.65964
-2.65963
-2.65962
-2.65961
-2.65961
-2.6596
-2.65959
-2.65958
-2.65957
-2.65956
-2.65956
-2.65955
-2.65954
-2.65954
-2.65953
-2.65953
-2.65952
-2.65952
-2.65952
-2.65952
-2.65952
-2.65951
-2.65951
-2.65951
-2.65951
-2.75789
-2.75789
-2.75789
-2.75789
-2.75791
-2.75792
-2.75795
-2.75797
-2.758
-2.75803
-2.75806
-2.75808
-2.7581
-2.75811
-2.75813
-2.75814
-2.75814
-2.75815
-2.75815
-2.75816
-2.75816
-2.75815
-2.75815
-2.75814
-2.75813
-2.75812
-2.7581
-2.75809
-2.75808
-2.75807
-2.75805
-2.75804
-2.75803
-2.75802
-2.75801
-2.758
-2.75799
-2.75798
-2.75798
-2.75797
-2.75796
-2.75796
-2.75795
-2.75795
-2.75795
-2.75795
-2.75795
-2.75795
-2.75796
-2.75796
-2.75797
-2.75798
-2.75799
-2.758
-2.75801
-2.75803
-2.75804
-2.75805
-2.75806
-2.75807
-2.75808
-2.75809
-2.7581
-2.75811
-2.75811
-2.75812
-2.75813
-2.75813
-2.75814
-2.75814
-2.75814
-2.75814
-2.75814
-2.75814
-2.75813
-2.75813
-2.75812
-2.75811
-2.75811
-2.7581
-2.75809
-2.75808
-2.75807
-2.75807
-2.75806
-2.75805
-2.75804
-2.75804
-2.75803
-2.75803
-2.75803
-2.75802
-2.75802
-2.75802
-2.75802
-2.75802
-2.75801
-2.75801
-2.75801
-2.75801
-2.85638
-2.85638
-2.85638
-2.85639
-2.8564
-2.85641
-2.85644
-2.85646
-2.85649
-2.85652
-2.85655
-2.85657
-2.85659
-2.85661
-2.85662
-2.85663
-2.85664
-2.85664
-2.85665
-2.85665
-2.85665
-2.85664
-2.85664
-2.85663
-2.85662
-2.85661
-2.85659
-2.85658
-2.85657
-2.85656
-2.85655
-2.85653
-2.85652
-2.85651
-2.8565
-2.85649
-2.85648
-2.85647
-2.85647
-2.85646
-2.85645
-2.85645
-2.85644
-2.85644
-2.85644
-2.85644
-2.85644
-2.85644
-2.85645
-2.85645
-2.85646
-2.85647
-2.85648
-2.8565
-2.85651
-2.85652
-2.85653
-2.85655
-2.85656
-2.85657
-2.85658
-2.85659
-2.85659
-2.8566
-2.85661
-2.85661
-2.85662
-2.85662
-2.85663
-2.85663
-2.85663
-2.85663
-2.85663
-2.85663
-2.85663
-2.85662
-2.85661
-2.85661
-2.8566
-2.85659
-2.85658
-2.85657
-2.85657
-2.85656
-2.85655
-2.85655
-2.85654
-2.85653
-2.85653
-2.85653
-2.85652
-2.85652
-2.85652
-2.85652
-2.85652
-2.85651
-2.85651
-2.85651
-2.85651
-2.85651
-2.95488
-2.95488
-2.95488
-2.95488
-2.95489
-2.95491
-2.95493
-2.95495
-2.95498
-2.955
-2.95503
-2.95505
-2.95508
-2.95509
-2.95511
-2.95512
-2.95513
-2.95513
-2.95513
-2.95513
-2.95513
-2.95513
-2.95512
-2.95511
-2.9551
-2.95509
-2.95508
-2.95507
-2.95506
-2.95505
-2.95503
-2.95502
-2.95501
-2.955
-2.95499
-2.95498
-2.95497
-2.95496
-2.95495
-2.95495
-2.95494
-2.95493
-2.95493
-2.95493
-2.95492
-2.95492
-2.95493
-2.95493
-2.95494
-2.95494
-2.95495
-2.95496
-2.95498
-2.95499
-2.955
-2.95501
-2.95503
-2.95504
-2.95505
-2.95506
-2.95507
-2.95508
-2.95509
-2.95509
-2.9551
-2.95511
-2.95511
-2.95512
-2.95512
-2.95512
-2.95512
-2.95512
-2.95512
-2.95512
-2.95512
-2.95511
-2.9551
-2.9551
-2.95509
-2.95508
-2.95507
-2.95507
-2.95506
-2.95505
-2.95504
-2.95504
-2.95503
-2.95503
-2.95502
-2.95502
-2.95502
-2.95502
-2.95502
-2.95501
-2.95501
-2.95501
-2.95501
-2.95501
-2.95501
-2.95501
-3.05338
-3.05338
-3.05337
-3.05337
-3.05338
-3.0534
-3.05341
-3.05344
-3.05346
-3.05349
-3.05351
-3.05354
-3.05356
-3.05358
-3.05359
-3.0536
-3.05361
-3.05361
-3.05362
-3.05362
-3.05362
-3.05361