/*--------------------------------*- C++ -*----------------------------------*\
| =========                 |                                                 |
| \\      /  F ield         | OpenFOAM: The Open Source CFD Toolbox           |
|  \\    /   O peration     | Version:  4.1                                   |
|   \\  /    A nd           | Web:      www.OpenFOAM.org                      |
|    \\/     M anipulation  |                                                 |
\*---------------------------------------------------------------------------*/
FoamFile
{
    version     2.0;
    format      ascii;
    class       volScalarField;
    location    "380";
    object      p_rgh;
}
// * * * * * * * * * * * * * * * * * * * * * * * * * * * * * * * * * * * * * //

dimensions      [0 2 -2 0 0 0 0];

internalField   nonuniform List<scalar> 
5000
(
0.0492339
0.0492399
0.0492498
0.0492525
0.0492503
0.0492486
0.0492469
0.0492448
0.0492418
0.049244
0.0492361
0.0492228
0.0492151
0.0492118
0.04921
0.0492088
0.0492081
0.049208
0.0492084
0.0492095
0.0492114
0.0492143
0.0492181
0.049223
0.0492289
0.049236
0.0492441
0.0492533
0.0492633
0.0492741
0.0492855
0.0492975
0.0493098
0.0493223
0.0493347
0.0493468
0.0493585
0.0493695
0.0493797
0.0493889
0.0493969
0.0494037
0.049409
0.0494129
0.0494154
0.0494162
0.0494156
0.0494136
0.0494106
0.0494069
0.0494016
0.0493943
0.0493852
0.0493746
0.0493628
0.0493501
0.0493368
0.0493231
0.0493093
0.0492956
0.049282
0.049269
0.0492564
0.0492446
0.0492336
0.0492234
0.0492142
0.0492061
0.0491989
0.0491929
0.0491879
0.049184
0.0491813
0.0491796
0.0491788
0.049179
0.0491801
0.0491819
0.0491844
0.0491875
0.0491911
0.0491951
0.0491995
0.049204
0.0492088
0.0492135
0.0492183
0.0492229
0.0492274
0.0492318
0.0492359
0.04924
0.049244
0.0492482
0.0492528
0.0492579
0.0492639
0.0492698
0.0492707
0.0492704
0.0492303
0.0492552
0.0492598
0.0492626
0.0492659
0.0492701
0.049275
0.0492796
0.0492699
0.049237
0.0492282
0.0492357
0.0492509
0.0492623
0.0492664
0.0492668
0.049266
0.0492653
0.0492649
0.0492651
0.0492658
0.0492673
0.0492695
0.0492725
0.0492764
0.0492812
0.049287
0.0492941
0.0493023
0.0493115
0.0493215
0.0493322
0.0493433
0.0493547
0.0493662
0.0493775
0.0493884
0.0493988
0.0494085
0.0494172
0.0494248
0.0494312
0.0494363
0.04944
0.0494423
0.0494431
0.0494424
0.0494402
0.0494371
0.0494329
0.0494269
0.0494192
0.0494101
0.0493996
0.0493882
0.049376
0.0493633
0.0493503
0.0493372
0.0493242
0.0493115
0.0492993
0.0492878
0.049277
0.049267
0.049258
0.04925
0.0492431
0.0492373
0.0492327
0.0492291
0.0492265
0.0492249
0.0492242
0.0492244
0.0492254
0.0492272
0.0492298
0.049233
0.0492367
0.0492409
0.0492455
0.0492504
0.0492555
0.0492607
0.0492659
0.0492709
0.0492758
0.0492805
0.049285
0.0492892
0.0492935
0.049298
0.0493034
0.0493106
0.0493212
0.0493353
0.0493459
0.049338
0.0492927
0.0492201
0.0492568
0.0492538
0.0492562
0.0492606
0.0492667
0.049274
0.0492735
0.0492463
0.0492147
0.0492119
0.0492376
0.0492679
0.0492842
0.0492877
0.0492857
0.0492822
0.0492785
0.0492753
0.0492728
0.0492711
0.0492705
0.049271
0.0492728
0.0492758
0.0492803
0.0492861
0.0492931
0.0493012
0.0493104
0.0493203
0.0493309
0.0493419
0.0493532
0.0493646
0.0493758
0.0493866
0.0493969
0.0494064
0.049415
0.0494225
0.0494288
0.0494337
0.0494373
0.0494394
0.0494401
0.0494391
0.0494369
0.0494337
0.0494292
0.0494229
0.0494152
0.049406
0.0493956
0.0493842
0.049372
0.0493594
0.0493465
0.0493335
0.0493206
0.049308
0.049296
0.0492845
0.0492738
0.0492639
0.049255
0.0492471
0.0492403
0.0492347
0.0492302
0.0492269
0.0492248
0.0492238
0.0492239
0.0492252
0.0492274
0.0492305
0.0492345
0.0492392
0.0492446
0.0492506
0.049257
0.0492638
0.0492708
0.049278
0.0492853
0.0492924
0.0492994
0.0493062
0.0493126
0.0493187
0.0493247
0.0493307
0.0493372
0.0493448
0.0493542
0.049365
0.0493729
0.04936
0.049285
0.0492078
0.0492483
0.0492449
0.0492463
0.049252
0.0492604
0.0492688
0.0492564
0.0492213
0.0491933
0.0492003
0.049238
0.0492746
0.0492911
0.049293
0.0492892
0.0492842
0.0492792
0.049275
0.0492716
0.0492694
0.0492685
0.0492688
0.0492705
0.0492736
0.049278
0.0492838
0.0492908
0.0492989
0.049308
0.0493178
0.0493283
0.0493392
0.0493504
0.0493617
0.0493727
0.0493834
0.0493935
0.0494028
0.0494113
0.0494186
0.0494247
0.0494295
0.0494329
0.0494348
0.0494351
0.0494338
0.0494316
0.0494283
0.0494234
0.049417
0.049409
0.0493997
0.0493892
0.0493777
0.0493656
0.0493529
0.0493401
0.0493271
0.0493144
0.0493019
0.04929
0.0492786
0.049268
0.0492583
0.0492495
0.0492417
0.049235
0.0492295
0.0492251
0.0492219
0.0492199
0.0492191
0.0492195
0.0492209
0.0492234
0.0492269
0.0492313
0.0492365
0.0492425
0.0492492
0.0492565
0.0492642
0.0492724
0.0492808
0.0492894
0.049298
0.0493067
0.0493151
0.0493233
0.0493313
0.0493389
0.0493464
0.049354
0.049362
0.0493707
0.0493794
0.0493848
0.0493674
0.0492646
0.0491939
0.0492339
0.0492319
0.0492327
0.0492404
0.0492514
0.0492558
0.0492328
0.0491955
0.0491755
0.049194
0.0492391
0.0492764
0.049291
0.0492914
0.0492869
0.0492814
0.0492763
0.0492719
0.0492685
0.0492664
0.0492654
0.0492658
0.0492675
0.0492706
0.0492751
0.0492808
0.0492877
0.0492958
0.0493047
0.0493145
0.0493248
0.0493356
0.0493467
0.0493577
0.0493686
0.0493791
0.049389
0.0493981
0.0494063
0.0494134
0.0494193
0.0494238
0.0494269
0.0494285
0.0494284
0.049427
0.0494247
0.0494211
0.0494159
0.0494092
0.049401
0.0493914
0.0493807
0.0493692
0.0493569
0.0493443
0.0493314
0.0493186
0.0493059
0.0492936
0.0492818
0.0492706
0.0492601
0.0492505
0.0492419
0.0492342
0.0492277
0.0492223
0.049218
0.049215
0.0492132
0.0492126
0.0492131
0.0492147
0.0492174
0.0492211
0.0492258
0.0492313
0.0492376
0.0492446
0.0492523
0.0492605
0.0492692
0.0492782
0.0492875
0.049297
0.0493065
0.049316
0.0493254
0.0493345
0.0493434
0.049352
0.0493606
0.0493691
0.0493777
0.0493856
0.0493896
0.0493679
0.0492402
0.0491805
0.0492187
0.0492172
0.0492171
0.0492257
0.0492384
0.0492347
0.0492049
0.0491705
0.0491614
0.0491908
0.0492397
0.049275
0.0492873
0.0492868
0.0492821
0.0492768
0.0492718
0.0492676
0.0492645
0.0492624
0.0492616
0.049262
0.0492638
0.0492668
0.0492712
0.0492769
0.0492838
0.0492917
0.0493006
0.0493102
0.0493204
0.0493311
0.049342
0.0493528
0.0493635
0.0493738
0.0493835
0.0493924
0.0494003
0.0494071
0.0494126
0.0494169
0.0494196
0.0494207
0.0494202
0.0494186
0.0494163
0.0494124
0.0494068
0.0493997
0.0493911
0.0493812
0.0493703
0.0493585
0.0493461
0.0493334
0.0493206
0.0493078
0.0492952
0.049283
0.0492714
0.0492603
0.04925
0.0492406
0.0492321
0.0492246
0.0492182
0.049213
0.0492089
0.0492061
0.0492044
0.049204
0.0492047
0.0492066
0.0492095
0.0492135
0.0492184
0.0492242
0.0492308
0.0492381
0.0492461
0.0492547
0.0492637
0.0492731
0.0492828
0.0492928
0.0493029
0.049313
0.049323
0.0493329
0.0493427
0.0493521
0.0493614
0.0493704
0.0493792
0.049387
0.04939
0.0493643
0.049214
0.0491719
0.0492054
0.049204
0.0492028
0.049213
0.0492209
0.0492084
0.049176
0.0491484
0.0491511
0.0491893
0.0492392
0.0492716
0.0492818
0.0492807
0.0492762
0.0492711
0.0492665
0.0492626
0.0492596
0.0492577
0.049257
0.0492574
0.0492592
0.0492622
0.0492666
0.0492722
0.049279
0.0492868
0.0492956
0.0493051
0.0493152
0.0493257
0.0493364
0.0493471
0.0493576
0.0493676
0.049377
0.0493856
0.0493932
0.0493997
0.0494049
0.0494087
0.049411
0.0494116
0.0494108
0.0494092
0.0494065
0.0494022
0.0493961
0.0493885
0.0493794
0.0493691
0.0493578
0.0493457
0.0493332
0.0493204
0.0493076
0.0492949
0.0492825
0.0492705
0.049259
0.0492481
0.049238
0.0492288
0.0492204
0.0492131
0.0492069
0.0492018
0.0491978
0.0491952
0.0491937
0.0491935
0.0491945
0.0491966
0.0491998
0.049204
0.0492093
0.0492154
0.0492223
0.04923
0.0492383
0.0492472
0.0492565
0.0492663
0.0492764
0.0492867
0.0492972
0.0493077
0.0493182
0.0493287
0.0493389
0.049349
0.0493588
0.0493683
0.0493773
0.049385
0.0493873
0.0493578
0.0491863
0.0491702
0.0491985
0.0491951
0.0491953
0.0492025
0.049201
0.0491812
0.0491497
0.0491308
0.0491446
0.049189
0.049238
0.049267
0.0492754
0.049274
0.0492696
0.0492649
0.0492606
0.0492569
0.0492541
0.0492523
0.0492516
0.0492521
0.0492538
0.0492569
0.0492612
0.0492668
0.0492735
0.0492813
0.0492899
0.0492993
0.0493093
0.0493197
0.0493302
0.0493407
0.0493509
0.0493607
0.0493698
0.0493781
0.0493853
0.0493914
0.0493962
0.0493995
0.0494012
0.0494013
0.0494002
0.0493986
0.0493954
0.0493906
0.0493839
0.0493757
0.049366
0.0493551
0.0493434
0.049331
0.0493183
0.0493055
0.0492928
0.0492802
0.049268
0.0492562
0.049245
0.0492344
0.0492245
0.0492155
0.0492073
0.0492002
0.0491941
0.0491891
0.0491853
0.0491827
0.0491815
0.0491814
0.0491826
0.0491849
0.0491884
0.0491929
0.0491984
0.0492049
0.0492122
0.0492202
0.0492289
0.0492382
0.0492479
0.049258
0.0492684
0.0492791
0.0492899
0.0493008
0.0493117
0.0493225
0.0493332
0.0493437
0.0493539
0.0493637
0.049373
0.0493807
0.0493824
0.0493491
0.0491574
0.0491721
0.0492002
0.0491925
0.0491929
0.0491919
0.0491813
0.0491566
0.0491282
0.0491184
0.0491414
0.0491894
0.0492363
0.0492619
0.0492687
0.049267
0.0492628
0.0492583
0.0492542
0.0492508
0.0492481
0.0492464
0.0492457
0.0492462
0.0492479
0.049251
0.0492553
0.0492608
0.0492675
0.0492752
0.0492838
0.0492931
0.0493029
0.0493131
0.0493235
0.0493337
0.0493437
0.0493532
0.049362
0.0493699
0.0493767
0.0493823
0.0493866
0.0493894
0.0493905
0.0493901
0.0493889
0.0493869
0.0493832
0.0493777
0.0493703
0.0493613
0.0493509
0.0493394
0.0493272
0.0493145
0.0493018
0.049289
0.0492764
0.0492642
0.0492523
0.0492409
0.04923
0.0492197
0.0492102
0.0492014
0.0491934
0.0491864
0.0491804
0.0491755
0.0491718
0.0491693
0.0491681
0.0491682
0.0491695
0.049172
0.0491757
0.0491805
0.0491863
0.049193
0.0492007
0.0492091
0.0492181
0.0492278
0.0492379
0.0492484
0.0492592
0.0492702
0.0492814
0.0492926
0.0493038
0.049315
0.049326
0.0493368
0.0493473
0.0493574
0.0493669
0.0493746
0.0493757
0.0493386
0.0491274
0.0491741
0.0492044
0.0491919
0.0491888
0.0491812
0.0491632
0.0491358
0.0491118
0.0491104
0.0491406
0.0491903
0.0492341
0.0492565
0.0492619
0.04926
0.0492559
0.0492516
0.0492477
0.0492443
0.0492417
0.0492401
0.0492394
0.0492399
0.0492417
0.0492447
0.049249
0.0492545
0.0492612
0.0492688
0.0492773
0.0492865
0.0492963
0.0493063
0.0493165
0.0493265
0.0493362
0.0493454
0.0493538
0.0493613
0.0493676
0.0493727
0.0493763
0.0493785
0.049379
0.0493781
0.0493769
0.0493744
0.0493701
0.0493637
0.0493554
0.0493455
0.0493342
0.0493221
0.0493094
0.0492966
0.0492839
0.0492714
0.0492592
0.0492474
0.049236
0.0492251
0.0492147
0.0492049
0.0491957
0.0491872
0.0491795
0.0491727
0.0491668
0.049162
0.0491583
0.0491557
0.0491545
0.0491546
0.0491559
0.0491585
0.0491623
0.0491672
0.0491732
0.0491802
0.0491881
0.0491968
0.0492062
0.0492162
0.0492267
0.0492376
0.0492488
0.0492602
0.0492717
0.0492832
0.0492948
0.0493062
0.0493175
0.0493286
0.0493394
0.0493497
0.0493594
0.0493671
0.0493676
0.0493266
0.0490967
0.0491739
0.0492075
0.0491897
0.0491824
0.0491692
0.0491464
0.0491186
0.0490997
0.0491059
0.0491414
0.0491912
0.0492316
0.0492512
0.0492554
0.0492531
0.0492491
0.0492449
0.049241
0.0492377
0.0492352
0.0492335
0.0492329
0.0492334
0.0492352
0.0492382
0.0492426
0.0492481
0.0492547
0.0492623
0.0492708
0.0492799
0.0492895
0.0492994
0.0493093
0.0493191
0.0493285
0.0493374
0.0493454
0.0493523
0.0493581
0.0493625
0.0493655
0.049367
0.0493669
0.0493658
0.0493643
0.0493612
0.0493561
0.0493487
0.0493393
0.0493283
0.0493162
0.0493035
0.0492906
0.0492778
0.0492654
0.0492533
0.0492418
0.0492307
0.04922
0.0492098
0.0492001
0.0491908
0.0491821
0.049174
0.0491666
0.0491599
0.0491541
0.0491493
0.0491455
0.0491429
0.0491415
0.0491414
0.0491426
0.0491451
0.0491488
0.0491537
0.0491598
0.0491669
0.049175
0.0491839
0.0491936
0.0492039
0.0492147
0.0492259
0.0492374
0.0492492
0.049261
0.0492729
0.0492847
0.0492965
0.049308
0.0493194
0.0493304
0.049341
0.0493508
0.0493586
0.0493584
0.0493133
0.0490651
0.0491708
0.0492074
0.0491848
0.049174
0.0491562
0.0491305
0.0491041
0.0490908
0.0491036
0.0491429
0.0491918
0.0492289
0.0492459
0.0492491
0.0492465
0.0492424
0.0492382
0.0492344
0.0492311
0.0492286
0.0492269
0.0492263
0.0492268
0.0492286
0.0492317
0.0492361
0.0492416
0.0492482
0.0492558
0.0492642
0.0492732
0.0492827
0.0492925
0.0493022
0.0493118
0.0493209
0.0493293
0.0493368
0.0493432
0.0493483
0.0493521
0.0493544
0.0493551
0.0493544
0.0493532
0.0493512
0.0493475
0.0493414
0.0493329
0.0493223
0.0493101
0.0492971
0.049284
0.049271
0.0492586
0.0492468
0.0492356
0.049225
0.0492149
0.0492052
0.0491959
0.0491869
0.0491784
0.0491702
0.0491626
0.0491554
0.049149
0.0491432
0.0491384
0.0491345
0.0491316
0.0491299
0.0491295
0.0491304
0.0491326
0.049136
0.0491408
0.0491467
0.0491538
0.0491619
0.0491709
0.0491807
0.0491911
0.0492022
0.0492137
0.0492255
0.0492375
0.0492497
0.0492618
0.049274
0.049286
0.0492978
0.0493093
0.0493205
0.0493313
0.0493413
0.0493491
0.0493482
0.049299
0.0490328
0.0491653
0.0492032
0.049178
0.0491635
0.0491423
0.0491155
0.0490916
0.0490839
0.0491026
0.0491445
0.0491921
0.0492261
0.0492409
0.0492431
0.0492403
0.0492361
0.0492318
0.0492279
0.0492246
0.0492221
0.0492204
0.0492198
0.0492204
0.0492222
0.0492254
0.0492298
0.0492353
0.0492419
0.0492495
0.0492578
0.0492668
0.0492762
0.0492857
0.0492953
0.0493046
0.0493133
0.0493213
0.0493282
0.049334
0.0493384
0.0493414
0.0493429
0.049343
0.0493419
0.0493405
0.049338
0.0493335
0.0493264
0.0493164
0.0493044
0.0492911
0.0492774
0.0492641
0.0492515
0.0492398
0.049229
0.049219
0.0492097
0.0492008
0.0491923
0.049184
0.049176
0.0491681
0.0491606
0.0491534
0.0491466
0.0491403
0.0491346
0.0491296
0.0491256
0.0491224
0.0491203
0.0491194
0.0491198
0.0491216
0.0491246
0.0491289
0.0491345
0.0491413
0.0491492
0.0491581
0.0491679
0.0491784
0.0491895
0.0492012
0.0492132
0.0492254
0.0492378
0.0492503
0.0492626
0.0492749
0.0492869
0.0492987
0.0493101
0.0493211
0.0493312
0.049339
0.0493373
0.0492837
0.0489997
0.0491577
0.0491969
0.049169
0.0491513
0.0491278
0.049101
0.0490804
0.0490783
0.049102
0.0491458
0.0491919
0.0492232
0.0492362
0.0492376
0.0492344
0.04923
0.0492257
0.0492217
0.0492184
0.0492158
0.0492141
0.0492135
0.0492142
0.0492161
0.0492193
0.0492237
0.0492293
0.0492359
0.0492435
0.0492518
0.0492606
0.0492699
0.0492794
0.0492887
0.0492977
0.0493061
0.0493135
0.0493198
0.0493248
0.0493285
0.0493307
0.0493314
0.0493309
0.0493296
0.0493278
0.0493248
0.0493195
0.049311
0.0492995
0.0492859
0.0492715
0.0492574
0.0492443
0.0492326
0.0492221
0.0492128
0.0492044
0.0491965
0.049189
0.0491817
0.0491745
0.0491673
0.0491602
0.0491533
0.0491464
0.0491399
0.0491338
0.0491281
0.0491231
0.0491189
0.0491154
0.049113
0.0491116
0.0491114
0.0491125
0.0491149
0.0491186
0.0491237
0.04913
0.0491375
0.0491461
0.0491556
0.049166
0.0491771
0.0491888
0.0492009
0.0492133
0.0492259
0.0492385
0.0492511
0.0492635
0.0492757
0.0492877
0.0492993
0.0493105
0.0493208
0.0493286
0.049326
0.0492676
0.0489661
0.0491483
0.0491898
0.049158
0.0491376
0.0491126
0.0490868
0.04907
0.0490732
0.0491013
0.0491466
0.0491913
0.0492203
0.0492317
0.0492324
0.0492289
0.0492243
0.0492199
0.0492158
0.0492124
0.0492098
0.0492081
0.0492076
0.0492083
0.0492103
0.0492136
0.049218
0.0492236
0.0492303
0.0492378
0.0492461
0.0492549
0.0492641
0.0492734
0.0492826
0.0492912
0.0492992
0.049306
0.0493116
0.0493159
0.0493186
0.04932
0.04932
0.049319
0.0493175
0.0493153
0.0493119
0.0493057
0.0492956
0.0492823
0.0492671
0.0492519
0.0492377
0.0492254
0.049215
0.0492063
0.0491987
0.049192
0.0491857
0.0491796
0.0491735
0.0491672
0.0491608
0.0491544
0.0491478
0.0491414
0.0491351
0.0491291
0.0491234
0.0491184
0.049114
0.0491104
0.0491076
0.0491057
0.049105
0.0491054
0.0491071
0.0491101
0.0491145
0.0491201
0.049127
0.0491351
0.0491442
0.0491543
0.0491653
0.0491768
0.0491889
0.0492013
0.049214
0.0492268
0.0492395
0.0492521
0.0492645
0.0492766
0.0492884
0.0492998
0.0493102
0.0493179
0.0493143
0.0492509
0.0489318
0.049137
0.049181
0.0491451
0.0491228
0.0490971
0.0490728
0.0490599
0.0490681
0.0491002
0.0491468
0.0491903
0.0492175
0.0492276
0.0492276
0.0492238
0.0492191
0.0492145
0.0492103
0.0492069
0.0492042
0.0492026
0.049202
0.0492028
0.0492049
0.0492082
0.0492127
0.0492183
0.0492249
0.0492325
0.0492407
0.0492496
0.0492587
0.0492679
0.0492769
0.0492852
0.0492927
0.0492989
0.0493037
0.0493071
0.049309
0.0493095
0.0493089
0.0493075
0.0493058
0.0493034
0.0492995
0.0492922
0.0492803
0.0492649
0.0492483
0.0492325
0.049219
0.049208
0.0491995
0.0491928
0.0491872
0.0491822
0.0491773
0.0491724
0.0491672
0.0491617
0.0491559
0.0491499
0.0491437
0.0491375
0.0491313
0.0491253
0.0491198
0.0491147
0.0491102
0.0491065
0.0491035
0.0491014
0.0491003
0.0491001
0.0491011
0.0491034
0.0491069
0.0491118
0.049118
0.0491254
0.049134
0.0491437
0.0491542
0.0491656
0.0491775
0.0491899
0.0492025
0.0492154
0.0492282
0.0492409
0.0492535
0.0492657
0.0492777
0.0492892
0.0492997
0.0493073
0.0493025
0.0492337
0.0488971
0.0491245
0.0491715
0.0491311
0.0491073
0.0490815
0.049059
0.04905
0.0490628
0.0490985
0.0491463
0.049189
0.0492147
0.0492237
0.0492232
0.0492191
0.0492142
0.0492094
0.0492052
0.0492017
0.049199
0.0491974
0.0491969
0.0491977
0.0491998
0.0492031
0.0492076
0.0492131
0.0492198
0.0492274
0.0492358
0.0492447
0.0492538
0.049263
0.0492717
0.0492797
0.0492866
0.0492922
0.0492961
0.0492986
0.0492996
0.0492993
0.0492982
0.0492967
0.0492947
0.0492921
0.0492878
0.0492792
0.0492652
0.0492476
0.0492297
0.049214
0.0492016
0.0491927
0.0491864
0.0491818
0.0491781
0.0491746
0.0491709
0.0491668
0.0491623
0.0491574
0.049152
0.0491462
0.0491402
0.049134
0.0491278
0.0491219
0.0491163
0.0491112
0.0491068
0.0491031
0.0491002
0.049098
0.0490966
0.0490961
0.0490965
0.0490981
0.0491009
0.049105
0.0491104
0.0491171
0.049125
0.0491341
0.0491442
0.0491552
0.0491669
0.0491791
0.0491917
0.0492045
0.0492174
0.0492302
0.0492428
0.0492552
0.0492673
0.0492789
0.0492895
0.0492969
0.0492908
0.0492162
0.0488619
0.0491112
0.0491625
0.0491168
0.0490919
0.0490661
0.0490455
0.04904
0.0490571
0.0490961
0.0491452
0.0491874
0.049212
0.0492202
0.0492192
0.0492148
0.0492097
0.0492048
0.0492005
0.0491969
0.0491942
0.0491926
0.0491921
0.0491929
0.0491948
0.049198
0.0492023
0.0492079
0.0492146
0.0492224
0.049231
0.0492401
0.0492494
0.0492585
0.049267
0.0492747
0.049281
0.0492858
0.0492889
0.0492904
0.0492905
0.0492895
0.0492881
0.0492865
0.0492844
0.0492818
0.0492771
0.049267
0.0492504
0.0492306
0.0492118
0.0491968
0.0491863
0.0491799
0.049176
0.0491733
0.0491711
0.0491687
0.0491658
0.0491623
0.0491582
0.0491536
0.0491484
0.0491428
0.0491367
0.0491305
0.0491241
0.049118
0.0491123
0.0491073
0.049103
0.0490995
0.0490968
0.0490949
0.0490935
0.0490929
0.049093
0.049094
0.0490962
0.0490995
0.0491042
0.0491101
0.0491174
0.0491259
0.0491354
0.049146
0.0491573
0.0491693
0.0491817
0.0491945
0.0492073
0.0492201
0.0492329
0.0492453
0.0492575
0.0492692
0.0492798
0.049287
0.0492793
0.0491985
0.0488263
0.0490978
0.0491552
0.049103
0.049077
0.0490514
0.0490323
0.0490299
0.0490508
0.0490929
0.0491435
0.0491856
0.0492094
0.0492169
0.0492155
0.0492108
0.0492055
0.0492006
0.0491961
0.0491925
0.0491897
0.049188
0.0491874
0.0491879
0.0491895
0.0491922
0.0491963
0.049202
0.049209
0.0492173
0.0492263
0.0492358
0.0492453
0.0492544
0.0492628
0.04927
0.0492758
0.0492797
0.0492819
0.0492824
0.0492817
0.0492804
0.0492788
0.0492771
0.0492752
0.0492726
0.0492675
0.0492555
0.049236
0.049214
0.0491949
0.0491814
0.0491735
0.0491697
0.049168
0.0491669
0.0491657
0.0491639
0.0491615
0.0491584
0.0491546
0.0491502
0.0491451
0.0491393
0.0491331
0.0491265
0.0491198
0.0491133
0.0491074
0.0491023
0.0490982
0.0490951
0.0490929
0.0490915
0.0490905
0.04909
0.04909
0.0490908
0.0490925
0.0490953
0.0490992
0.0491045
0.0491111
0.0491189
0.0491279
0.0491379
0.0491489
0.0491606
0.0491728
0.0491854
0.0491982
0.049211
0.0492237
0.0492363
0.0492485
0.0492602
0.0492708
0.0492776
0.0492681
0.0491807
0.0487905
0.0490847
0.049151
0.0490905
0.0490631
0.0490376
0.0490197
0.0490197
0.0490439
0.0490889
0.0491412
0.0491836
0.0492069
0.0492138
0.049212
0.0492071
0.0492017
0.0491966
0.049192
0.0491883
0.0491854
0.0491835
0.0491825
0.0491822
0.0491829
0.0491849
0.0491888
0.0491948
0.0492025
0.0492116
0.0492214
0.0492315
0.0492414
0.0492507
0.0492589
0.0492657
0.0492708
0.0492739
0.0492752
0.0492748
0.0492735
0.0492719
0.0492703
0.0492687
0.0492671
0.0492647
0.0492591
0.0492448
0.0492222
0.0491982
0.0491795
0.0491683
0.0491634
0.0491621
0.0491621
0.049162
0.0491614
0.0491599
0.0491578
0.0491549
0.0491513
0.0491469
0.0491417
0.0491358
0.0491291
0.0491219
0.0491145
0.0491075
0.0491012
0.0490959
0.049092
0.0490894
0.0490881
0.0490874
0.0490871
0.0490871
0.0490874
0.0490882
0.0490897
0.049092
0.0490954
0.0491001
0.049106
0.0491132
0.0491216
0.0491312
0.0491418
0.0491531
0.0491651
0.0491775
0.0491902
0.0492029
0.0492156
0.0492282
0.0492404
0.049252
0.0492625
0.0492688
0.0492575
0.0491628
0.0487544
0.0490724
0.0491512
0.0490797
0.0490505
0.049025
0.0490076
0.0490094
0.0490361
0.0490839
0.0491381
0.0491812
0.0492044
0.0492109
0.0492088
0.0492036
0.049198
0.0491927
0.049188
0.049184
0.0491808
0.0491784
0.0491765
0.0491746
0.0491736
0.0491748
0.0491787
0.0491856
0.0491946
0.0492051
0.0492161
0.0492271
0.0492376
0.049247
0.0492551
0.0492615
0.0492658
0.0492682
0.0492686
0.0492676
0.0492659
0.0492641
0.0492627
0.0492616
0.0492603
0.0492583
0.0492521
0.049235
0.0492089
0.0491835
0.0491661
0.049158
0.049156
0.0491567
0.0491578
0.0491582
0.0491578
0.0491565
0.0491544
0.0491517
0.0491482
0.0491438
0.0491385
0.049132
0.0491246
0.0491166
0.0491083
0.0491005
0.0490936
0.0490881
0.0490844
0.0490825
0.0490822
0.0490826
0.0490834
0.0490843
0.0490851
0.0490861
0.0490875
0.0490896
0.0490926
0.0490967
0.0491021
0.0491087
0.0491167
0.0491258
0.049136
0.049147
0.0491587
0.049171
0.0491835
0.0491961
0.0492087
0.0492212
0.0492333
0.0492449
0.0492552
0.0492609
0.0492474
0.0491451
0.0487181
0.0490613
0.0491572
0.0490715
0.0490394
0.0490138
0.0489963
0.0489987
0.0490273
0.0490775
0.0491339
0.0491782
0.0492017
0.049208
0.0492055
0.0492001
0.0491942
0.0491887
0.0491837
0.0491794
0.0491757
0.0491721
0.0491682
0.049163
0.0491597
0.0491601
0.049165
0.0491737
0.0491849
0.0491975
0.0492103
0.0492225
0.0492336
0.0492433
0.0492512
0.0492572
0.0492609
0.0492626
0.0492624
0.0492609
0.049259
0.0492573
0.0492563
0.0492557
0.0492551
0.0492535
0.0492465
0.0492261
0.0491963
0.0491701
0.0491551
0.0491504
0.0491511
0.0491531
0.0491546
0.0491552
0.0491547
0.0491535
0.0491515
0.0491489
0.0491455
0.049141
0.0491353
0.0491282
0.0491198
0.0491106
0.0491013
0.0490925
0.049085
0.0490793
0.0490759
0.0490748
0.0490757
0.0490776
0.0490797
0.0490815
0.0490831
0.0490844
0.0490859
0.0490879
0.0490906
0.0490943
0.0490993
0.0491055
0.049113
0.0491217
0.0491316
0.0491423
0.0491538
0.0491659
0.0491782
0.0491907
0.0492031
0.0492154
0.0492274
0.0492388
0.0492488
0.0492539
0.0492379
0.0491274
0.0486817
0.0490515
0.0491701
0.0490671
0.0490299
0.0490041
0.0489859
0.0489879
0.0490171
0.0490693
0.0491282
0.0491744
0.0491986
0.0492048
0.049202
0.0491963
0.04919
0.0491841
0.0491787
0.0491737
0.0491688
0.0491628
0.0491546
0.0491444
0.0491389
0.0491399
0.0491472
0.049159
0.0491735
0.0491889
0.0492038
0.0492175
0.0492294
0.0492394
0.0492472
0.0492527
0.0492559
0.049257
0.0492563
0.0492546
0.0492527
0.0492515
0.0492511
0.0492514
0.0492516
0.0492504
0.0492424
0.0492181
0.0491845
0.0491584
0.0491469
0.0491456
0.0491481
0.0491508
0.0491523
0.0491528
0.0491522
0.049151
0.0491491
0.0491466
0.0491432
0.0491385
0.0491322
0.0491242
0.0491147
0.0491044
0.049094
0.0490844
0.0490764
0.0490707
0.0490677
0.0490675
0.0490697
0.0490731
0.0490766
0.0490794
0.0490816
0.0490833
0.0490848
0.0490867
0.0490893
0.0490928
0.0490974
0.0491034
0.0491106
0.0491191
0.0491287
0.0491392
0.0491505
0.0491623
0.0491744
0.0491867
0.0491989
0.049211
0.0492228
0.0492339
0.0492435
0.0492478
0.0492292
0.04911
0.0486453
0.0490432
0.04919
0.049068
0.0490229
0.0489963
0.048977
0.048977
0.0490049
0.0490588
0.0491204
0.0491692
0.0491947
0.0492011
0.049198
0.0491917
0.0491848
0.0491782
0.0491719
0.0491654
0.0491578
0.0491468
0.0491311
0.0491164
0.0491108
0.0491145
0.0491258
0.0491421
0.0491607
0.0491794
0.0491967
0.0492119
0.0492248
0.0492351
0.0492428
0.049248
0.0492508
0.0492514
0.0492505
0.0492489
0.0492474
0.0492469
0.0492475
0.0492487
0.0492498
0.0492491
0.0492397
0.0492108
0.0491738
0.0491491
0.0491415
0.0491432
0.0491468
0.0491495
0.0491508
0.049151
0.0491503
0.049149
0.0491472
0.0491448
0.0491412
0.0491361
0.0491291
0.0491202
0.0491097
0.0490984
0.0490873
0.0490774
0.0490693
0.0490638
0.0490614
0.0490623
0.049066
0.0490707
0.0490751
0.0490785
0.0490808
0.0490826
0.0490841
0.049086
0.0490885
0.0490919
0.0490966
0.0491024
0.0491096
0.0491179
0.0491274
0.0491377
0.0491488
0.0491604
0.0491722
0.0491842
0.0491962
0.0492079
0.0492194
0.0492301
0.0492392
0.0492426
0.0492212
0.0490928
0.0486088
0.0490364
0.049215
0.0490765
0.0490194
0.0489904
0.0489699
0.0489674
0.0489924
0.0490445
0.0491071
0.0491609
0.0491897
0.0491967
0.0491931
0.0491859
0.0491778
0.0491697
0.0491614
0.0491521
0.0491397
0.0491212
0.0490958
0.0490804
0.0490776
0.049086
0.0491025
0.0491242
0.0491472
0.0491693
0.0491892
0.049206
0.0492197
0.0492303
0.0492379
0.0492428
0.0492454
0.0492459
0.0492452
0.049244
0.0492433
0.0492437
0.0492455
0.0492479
0.0492499
0.0492497
0.0492384
0.0492044
0.0491643
0.0491424
0.0491391
0.0491427
0.0491467
0.0491491
0.04915
0.0491499
0.049149
0.0491477
0.0491459
0.0491434
0.0491396
0.049134
0.0491263
0.0491165
0.0491053
0.0490936
0.0490824
0.0490727
0.0490651
0.0490602
0.0490586
0.0490606
0.0490661
0.0490717
0.0490755
0.0490783
0.0490803
0.0490819
0.0490835
0.0490855
0.0490881
0.0490918
0.0490966
0.0491027
0.04911
0.0491183
0.0491277
0.049138
0.0491488
0.0491601
0.0491716
0.0491832
0.0491948
0.0492061
0.0492172
0.0492274
0.049236
0.0492384
0.049214
0.0490759
0.0485724
0.0490309
0.049244
0.0490935
0.049021
0.0489869
0.0489647
0.0489591
0.04898
0.0490283
0.0490901
0.0491466
0.0491805
0.0491911
0.0491874
0.0491788
0.0491688
0.049158
0.0491461
0.0491317
0.0491122
0.049085
0.049054
0.0490421
0.0490439
0.0490577
0.0490797
0.0491063
0.0491338
0.0491595
0.0491818
0.0492
0.0492142
0.0492249
0.0492324
0.0492372
0.0492398
0.0492406
0.0492404
0.04924
0.0492404
0.0492422
0.0492453
0.0492489
0.0492519
0.0492521
0.0492385
0.0491987
0.0491564
0.0491386
0.0491391
0.0491439
0.0491477
0.0491496
0.04915
0.0491494
0.0491483
0.0491469
0.049145
0.0491424
0.0491382
0.0491321
0.0491239
0.0491137
0.0491023
0.0490908
0.0490801
0.0490711
0.0490644
0.0490604
0.0490596
0.0490622
0.049067
0.0490711
0.0490745
0.0490771
0.0490791
0.0490809
0.0490828
0.0490853
0.0490885
0.0490927
0.049098
0.0491044
0.0491119
0.0491204
0.0491298
0.04914
0.0491505
0.0491615
0.0491725
0.0491837
0.0491947
0.0492056
0.0492161
0.0492258
0.0492338
0.0492351
0.0492076
0.0490592
0.0485362
0.0490265
0.0492746
0.0491196
0.0490293
0.0489866
0.0489614
0.0489525
0.0489682
0.0490111
0.0490699
0.0491274
0.0491664
0.0491819
0.0491803
0.0491709
0.0491584
0.049144
0.0491274
0.0491071
0.0490807
0.0490419
0.0490163
0.049009
0.0490148
0.0490324
0.0490592
0.0490906
0.0491222
0.0491508
0.0491748
0.0491938
0.0492082
0.0492188
0.0492263
0.0492313
0.0492342
0.0492357
0.0492365
0.0492374
0.0492393
0.0492426
0.0492471
0.049252
0.049256
0.0492563
0.0492397
0.0491936
0.0491505
0.0491379
0.0491413
0.0491464
0.0491496
0.0491508
0.0491506
0.0491496
0.0491483
0.0491466
0.0491446
0.0491417
0.0491371
0.0491306
0.0491221
0.049112
0.0491012
0.0490904
0.0490806
0.0490724
0.0490663
0.0490628
0.0490617
0.0490631
0.049066
0.0490694
0.0490725
0.0490751
0.0490775
0.0490799
0.0490826
0.0490859
0.04909
0.0490949
0.0491009
0.0491078
0.0491156
0.0491243
0.0491337
0.0491436
0.0491539
0.0491644
0.049175
0.0491855
0.0491959
0.0492061
0.049216
0.0492251
0.0492324
0.0492327
0.049202
0.049043
0.0485002
0.0490226
0.0493039
0.0491546
0.0490453
0.0489908
0.0489606
0.0489477
0.0489578
0.0489939
0.0490477
0.0491042
0.0491469
0.0491682
0.0491707
0.0491621
0.0491477
0.0491297
0.0491083
0.0490824
0.0490506
0.0490147
0.0489922
0.0489853
0.0489926
0.0490132
0.0490437
0.0490789
0.0491135
0.0491439
0.0491685
0.0491876
0.0492018
0.0492123
0.0492199
0.0492253
0.0492291
0.0492318
0.049234
0.0492366
0.0492402
0.0492451
0.0492511
0.0492573
0.049262
0.0492623
0.049242
0.0491892
0.0491471
0.04914
0.0491452
0.0491499
0.0491523
0.0491528
0.049152
0.0491505
0.0491488
0.0491468
0.0491444
0.0491411
0.0491363
0.0491297
0.0491215
0.0491119
0.0491018
0.049092
0.049083
0.0490754
0.0490697
0.049066
0.0490643
0.0490644
0.0490659
0.0490683
0.049071
0.0490739
0.0490768
0.04908
0.0490837
0.049088
0.0490931
0.0490989
0.0491056
0.0491131
0.0491213
0.04913
0.0491393
0.0491489
0.0491587
0.0491686
0.0491786
0.0491885
0.0491982
0.0492076
0.0492168
0.0492253
0.0492318
0.0492311
0.0491972
0.0490271
0.0484644
0.0490182
0.0493282
0.0491978
0.0490696
0.0490008
0.0489632
0.0489453
0.0489493
0.048978
0.0490253
0.0490785
0.0491229
0.0491494
0.0491572
0.0491514
0.049137
0.0491169
0.0490923
0.0490631
0.0490304
0.0489987
0.0489778
0.0489707
0.0489787
0.0490013
0.0490345
0.0490722
0.0491082
0.0491389
0.0491632
0.0491816
0.0491954
0.0492058
0.0492138
0.04922
0.0492251
0.0492293
0.0492334
0.0492379
0.0492434
0.04925
0.0492575
0.0492647
0.0492701
0.0492699
0.049245
0.0491854
0.0491464
0.0491446
0.0491504
0.0491543
0.0491559
0.0491555
0.049154
0.0491519
0.0491497
0.0491472
0.0491444
0.0491407
0.0491358
0.0491295
0.0491218
0.0491131
0.0491039
0.049095
0.0490868
0.0490798
0.0490743
0.0490703
0.049068
0.0490672
0.0490677
0.0490693
0.0490717
0.0490747
0.0490782
0.0490822
0.0490869
0.0490922
0.0490983
0.049105
0.0491124
0.0491203
0.0491288
0.0491375
0.0491465
0.0491557
0.0491649
0.0491741
0.0491832
0.0491923
0.0492012
0.0492099
0.0492183
0.049226
0.0492319
0.0492301
0.0491931
0.0490117
0.0484292
0.0490112
0.0493438
0.0492471
0.0491019
0.0490178
0.0489702
0.0489457
0.0489432
0.0489642
0.0490042
0.0490525
0.0490963
0.0491262
0.0491392
0.0491377
0.0491254
0.0491056
0.0490802
0.0490506
0.0490193
0.0489905
0.0489704
0.0489633
0.0489721
0.0489966
0.0490319
0.0490707
0.0491065
0.049136
0.0491588
0.049176
0.0491893
0.0491999
0.0492087
0.0492163
0.049223
0.0492293
0.0492354
0.0492419
0.0492493
0.0492575
0.0492662
0.0492742
0.04928
0.049279
0.0492482
0.0491822
0.0491488
0.049151