/*--------------------------------*- C++ -*----------------------------------*\
| =========                 |                                                 |
| \\      /  F ield         | OpenFOAM: The Open Source CFD Toolbox           |
|  \\    /   O peration     | Version:  4.1                                   |
|   \\  /    A nd           | Web:      www.OpenFOAM.org                      |
|    \\/     M anipulation  |                                                 |
\*---------------------------------------------------------------------------*/
FoamFile
{
    version     2.0;
    format      ascii;
    class       surfaceScalarField;
    location    "380";
    object      phi;
}
// * * * * * * * * * * * * * * * * * * * * * * * * * * * * * * * * * * * * * //

dimensions      [0 3 -1 0 0 0 0];

internalField   nonuniform List<scalar> 
9850
(
-3.27572e-06
3.27572e-06
-3.1265e-06
-1.49217e-07
-1.33444e-06
-1.79206e-06
2.4366e-07
-1.5781e-06
1.12476e-06
-8.81096e-07
1.54596e-06
-4.21208e-07
1.77663e-06
-2.30671e-07
1.97809e-06
-2.01451e-07
1.26099e-06
7.17099e-07
-2.11696e-06
3.37794e-06
-7.31509e-06
5.19813e-06
-1.13927e-05
4.07766e-06
-1.36234e-05
2.23063e-06
-1.48111e-05
1.18774e-06
-1.55854e-05
7.74327e-07
-1.62083e-05
6.22839e-07
-1.67565e-05
5.48237e-07
-1.72466e-05
4.90036e-07
-1.76795e-05
4.32948e-07
-1.80529e-05
3.73353e-07
-1.8363e-05
3.10176e-07
-1.86061e-05
2.43103e-07
-1.87783e-05
1.72206e-07
-1.8876e-05
9.76108e-08
-1.88949e-05
1.89588e-08
-1.88301e-05
-6.48012e-08
-1.86769e-05
-1.53252e-07
-1.8433e-05
-2.43872e-07
-1.80988e-05
-3.34184e-07
-1.76761e-05
-4.22712e-07
-1.71676e-05
-5.08481e-07
-1.65768e-05
-5.90761e-07
-1.59079e-05
-6.68961e-07
-1.51653e-05
-7.42572e-07
-1.43542e-05
-8.11138e-07
-1.34799e-05
-8.74238e-07
-1.25485e-05
-9.31486e-07
-1.15659e-05
-9.82538e-07
-1.05388e-05
-1.02711e-06
-9.47381e-06
-1.065e-06
-8.37769e-06
-1.09612e-06
-7.25721e-06
-1.12048e-06
-6.11898e-06
-1.13823e-06
-4.96941e-06
-1.14957e-06
-3.81484e-06
-1.15457e-06
-2.66219e-06
-1.15265e-06
-1.51828e-06
-1.14391e-06
-3.7819e-07
-1.14009e-06
8.1607e-07
-1.19426e-06
2.07319e-06
-1.25712e-06
3.33033e-06
-1.25715e-06
4.54729e-06
-1.21695e-06
5.70769e-06
-1.1604e-06
6.80602e-06
-1.09833e-06
7.83963e-06
-1.03361e-06
8.80633e-06
-9.66704e-07
9.70426e-06
-8.97931e-07
1.0532e-05
-8.27702e-07
1.12884e-05
-7.56441e-07
1.19729e-05
-6.84508e-07
1.25851e-05
-6.12202e-07
1.31249e-05
-5.39788e-07
1.35924e-05
-4.67516e-07
1.39881e-05
-3.95647e-07
1.43125e-05
-3.24464e-07
1.45668e-05
-2.54287e-07
1.47523e-05
-1.85497e-07
1.48709e-05
-1.1859e-07
1.49252e-05
-5.43295e-08
1.49197e-05
5.52107e-09
1.48582e-05
6.15547e-08
1.47441e-05
1.14072e-07
1.45806e-05
1.63525e-07
1.43707e-05
2.09859e-07
1.41176e-05
2.53067e-07
1.38246e-05
2.93062e-07
1.34948e-05
3.2979e-07
1.31316e-05
3.632e-07
1.27383e-05
3.93282e-07
1.23182e-05
4.20082e-07
1.18745e-05
4.43722e-07
1.14101e-05
4.64433e-07
1.09275e-05
4.82587e-07
1.04287e-05
4.98734e-07
9.9151e-06
5.13639e-07
9.3868e-06
5.28301e-07
8.84286e-06
5.4394e-07
8.28094e-06
5.61922e-07
7.69737e-06
5.83567e-07
7.08757e-06
6.09799e-07
6.44708e-06
6.40488e-07
5.77388e-06
6.73205e-07
5.07343e-06
7.00451e-07
4.37042e-06
7.03011e-07
3.73385e-06
6.36564e-07
3.31695e-06
4.169e-07
3.32298e-06
-6.02307e-09
3.72057e-06
-3.97592e-07
3.38518e-06
3.35385e-07
3.38518e-06
-1.83108e-06
5.1068e-06
-1.2548e-06
-7.255e-07
-5.04252e-08
-2.99643e-06
4.67288e-07
-2.09581e-06
6.10658e-07
-1.02447e-06
5.01036e-07
-3.11585e-07
2.11533e-07
5.88326e-08
-6.4675e-07
6.56832e-07
-3.41578e-06
3.48613e-06
-7.42241e-06
7.38458e-06
-1.05871e-05
8.36279e-06
-1.30237e-05
6.51426e-06
-1.4834e-05
4.04098e-06
-1.60954e-05
2.44916e-06
-1.70151e-05
1.69403e-06
-1.77413e-05
1.34897e-06
-1.83443e-05
1.15128e-06
-1.88525e-05
9.98254e-07
-1.92758e-05
8.56255e-07
-1.96166e-05
7.14135e-07
-1.98742e-05
5.6778e-07
-2.00468e-05
4.15659e-07
-2.01321e-05
2.57507e-07
-2.01279e-05
9.34706e-08
-2.00328e-05
-7.61537e-08
-1.98486e-05
-2.49077e-07
-1.9578e-05
-4.23775e-07
-1.92226e-05
-5.99298e-07
-1.87835e-05
-7.73256e-07
-1.82627e-05
-9.4357e-07
-1.76625e-05
-1.10863e-06
-1.69862e-05
-1.26711e-06
-1.62372e-05
-1.41793e-06
-1.54197e-05
-1.56008e-06
-1.45382e-05
-1.69268e-06
-1.35975e-05
-1.81491e-06
-1.2603e-05
-1.92599e-06
-1.15603e-05
-2.02524e-06
-1.04753e-05
-2.11212e-06
-9.35405e-06
-2.18623e-06
-8.20272e-06
-2.24744e-06
-7.0273e-06
-2.2959e-06
-5.83343e-06
-2.3321e-06
-4.62612e-06
-2.35687e-06
-3.40974e-06
-2.37095e-06
-2.18739e-06
-2.37501e-06
-9.51573e-07
-2.37972e-06
3.52239e-07
-2.4439e-06
1.6972e-06
-2.53922e-06
2.99774e-06
-2.55766e-06
4.247e-06
-2.5064e-06
5.45337e-06
-2.42333e-06
6.61623e-06
-2.32327e-06
7.73044e-06
-2.21254e-06
8.79091e-06
-2.09407e-06
9.79365e-06
-1.96944e-06
1.07356e-05
-1.83985e-06
1.16143e-05
-1.70643e-06
1.2428e-05
-1.57018e-06
1.31755e-05
-1.43197e-06
1.38558e-05
-1.2925e-06
1.44683e-05
-1.15233e-06
1.50128e-05
-1.01198e-06
1.54891e-05
-8.7192e-07
1.58973e-05
-7.32669e-07
1.62378e-05
-5.94795e-07
1.65113e-05
-4.58965e-07
1.67186e-05
-3.25984e-07
1.68612e-05
-1.96838e-07
1.69394e-05
-7.26975e-08
1.69547e-05
4.61923e-08
1.69103e-05
1.58502e-07
1.6809e-05
2.64837e-07
1.6654e-05
3.64881e-07
1.64486e-05
4.58451e-07
1.61963e-05
5.45386e-07
1.59005e-05
6.2558e-07
1.55647e-05
6.99015e-07
1.51922e-05
7.65763e-07
1.47862e-05
8.26011e-07
1.43499e-05
8.8008e-07
1.38859e-05
9.28456e-07
1.33966e-05
9.71822e-07
1.28843e-05
1.0111e-06
1.23504e-05
1.0475e-06
1.17962e-05
1.08251e-06
1.12223e-05
1.11786e-06
1.06288e-05
1.15538e-06
1.00158e-05
1.19663e-06
9.38339e-06
1.24217e-06
8.73353e-06
1.29035e-06
8.07176e-06
1.33498e-06
7.41104e-06
1.36116e-06
6.77623e-06
1.33783e-06
6.20529e-06
1.2075e-06
5.7326e-06
8.89588e-07
5.33498e-06
3.91597e-07
4.83691e-06
1.00479e-07
3.54527e-06
1.62702e-06
6.93045e-06
-1.27382e-06
6.38062e-06
2.1732e-07
-2.21664e-06
8.77602e-07
-3.65671e-06
1.01673e-06
-2.23495e-06
7.75792e-07
-7.83524e-07
2.10545e-07
2.53662e-07
-8.17459e-07
1.08684e-06
-3.25744e-06
3.09681e-06
-6.86136e-06
7.09004e-06
-9.7288e-06
1.0252e-05
-1.17704e-05
1.04044e-05
-1.32904e-05
8.03428e-06
-1.44948e-05
5.24537e-06
-1.54901e-05
3.44446e-06
-1.63349e-05
2.53884e-06
-1.70547e-05
2.06872e-06
-1.76657e-05
1.76225e-06
-1.81793e-05
1.51191e-06
-1.86021e-05
1.27908e-06
-1.89369e-05
1.04894e-06
-1.91844e-05
8.15282e-07
-1.93445e-05
5.75665e-07
-1.94165e-05
3.29516e-07
-1.94003e-05
7.72596e-08
-1.92964e-05
-1.79967e-07
-1.91054e-05
-4.40142e-07
-1.88278e-05
-7.01321e-07
-1.84658e-05
-9.61287e-07
-1.80215e-05
-1.21756e-06
-1.74973e-05
-1.46785e-06
-1.68957e-05
-1.71016e-06
-1.62201e-05
-1.94277e-06
-1.54739e-05
-2.16414e-06
-1.4661e-05
-2.37292e-06
-1.37859e-05
-2.56782e-06
-1.28531e-05
-2.74768e-06
-1.18677e-05
-2.91137e-06
-1.0835e-05
-3.05792e-06
-9.76065e-06
-3.18652e-06
-8.65023e-06
-3.29665e-06
-7.50948e-06
-3.38819e-06
-6.34382e-06
-3.46156e-06
-5.15808e-06
-3.51785e-06
-3.95623e-06
-3.55872e-06
-2.74112e-06
-3.58606e-06
-1.50934e-06
-3.60679e-06
-2.32047e-07
-3.65701e-06
1.0921e-06
-3.76805e-06
2.38408e-06
-3.8312e-06
3.6194e-06
-3.79298e-06
4.82127e-06
-3.70828e-06
5.99202e-06
-3.59408e-06
7.12678e-06
-3.45802e-06
8.21894e-06
-3.3047e-06
9.26233e-06
-3.13746e-06
1.0252e-05
-2.95912e-06
1.11843e-05
-2.77211e-06
1.20564e-05
-2.57856e-06
1.28665e-05
-2.38023e-06
1.3613e-05
-2.17857e-06
1.42952e-05
-1.97467e-06
1.49123e-05
-1.76941e-06
1.54638e-05
-1.5635e-06
1.59495e-05
-1.35757e-06
1.63691e-05
-1.1523e-06
1.67227e-05
-9.48421e-07
1.70106e-05
-7.46809e-07
1.72331e-05
-5.4848e-07
1.73908e-05
-3.54605e-07
1.74846e-05
-1.66432e-07
1.75162e-05
1.45587e-08
1.74873e-05
1.87458e-07
1.74006e-05
3.51514e-07
1.7259e-05
5.06472e-07
1.70655e-05
6.51934e-07
1.68232e-05
7.87654e-07
1.65353e-05
9.13467e-07
1.6205e-05
1.02935e-06
1.58353e-05
1.13543e-06
1.54294e-05
1.23201e-06
1.49899e-05
1.31956e-06
1.45196e-05
1.39874e-06
1.4021e-05
1.47039e-06
1.34966e-05
1.53556e-06
1.29486e-05
1.59549e-06
1.23794e-05
1.65167e-06
1.17916e-05
1.70567e-06
1.11879e-05
1.75905e-06
1.05717e-05
1.81286e-06
9.94703e-06
1.86683e-06
9.31937e-06
1.918e-06
8.69602e-06
1.95833e-06
8.08586e-06
1.97132e-06
7.49563e-06
1.92806e-06
6.91579e-06
1.78734e-06
6.28771e-06
1.51767e-06
5.49175e-06
1.18756e-06
4.38512e-06
1.20711e-06
2.79644e-06
3.2157e-06
9.7269e-06
-1.02464e-06
7.40526e-06
7.12401e-07
-3.95368e-06
1.23873e-06
-4.18304e-06
1.22799e-06
-2.22421e-06
7.27757e-07
-2.83295e-07
-3.49297e-07
1.33072e-06
-2.39963e-06
3.13717e-06
-5.5928e-06
6.28998e-06
-8.64533e-06
1.01426e-05
-1.07761e-05
1.23828e-05
-1.21697e-05
1.1798e-05
-1.31537e-05
9.0183e-06
-1.40033e-05
6.09498e-06
-1.48172e-05
4.25834e-06
-1.55858e-05
3.30744e-06
-1.62795e-05
2.76247e-06
-1.68849e-05
2.36761e-06
-1.73992e-05
2.02625e-06
-1.78231e-05
1.70293e-06
-1.81571e-05
1.38299e-06
-1.84018e-05
1.05991e-06
-1.85571e-05
7.31015e-07
-1.86233e-05
3.95729e-07
-1.86009e-05
5.4855e-08
-1.84907e-05
-2.90214e-07
-1.82935e-05
-6.37277e-07
-1.80112e-05
-9.8369e-07
-1.76458e-05
-1.32668e-06
-1.71998e-05
-1.66352e-06
-1.6676e-05
-1.99168e-06
-1.60772e-05
-2.30888e-06
-1.54069e-05
-2.6131e-06
-1.46685e-05
-2.90253e-06
-1.38659e-05
-3.17553e-06
-1.30032e-05
-3.43054e-06
-1.20848e-05
-3.6661e-06
-1.11153e-05
-3.8808e-06
-1.00999e-05
-4.07341e-06
-9.04346e-06
-4.24291e-06
-7.95142e-06
-4.38869e-06
-6.82886e-06
-4.51075e-06
-5.68051e-06
-4.60991e-06
-4.51035e-06
-4.68801e-06
-3.32141e-06
-4.74766e-06
-2.11454e-06
-4.79294e-06
-8.79319e-07
-4.84201e-06
4.14882e-07
-4.95121e-06
1.70281e-06
-5.05598e-06
2.92669e-06
-5.05508e-06
4.1237e-06
-4.98998e-06
5.29883e-06
-4.88341e-06
6.44791e-06
-4.74316e-06
7.56344e-06
-4.57356e-06
8.63773e-06
-4.37898e-06
9.66427e-06
-4.164e-06
1.06381e-05
-3.93297e-06
1.15558e-05
-3.68976e-06
1.24148e-05
-3.43762e-06
1.32138e-05
-3.17916e-06
1.39515e-05
-2.91634e-06
1.46275e-05
-2.6506e-06
1.5241e-05
-2.38297e-06
1.57917e-05
-2.11424e-06
1.62793e-05
-1.84512e-06
1.67033e-05
-1.5763e-06
1.70635e-05
-1.30861e-06
1.73597e-05
-1.04303e-06
1.7592e-05
-7.80737e-07
1.77605e-05
-5.23108e-07
1.78657e-05
-2.71694e-07
1.79085e-05
-2.8183e-08
1.78903e-05
2.05653e-07
1.78132e-05
4.28597e-07
1.76796e-05
6.4002e-07
1.74922e-05
8.39376e-07
1.72536e-05
1.02621e-06
1.69669e-05
1.20023e-06
1.66349e-05
1.36134e-06
1.62607e-05
1.50965e-06
1.58471e-05
1.64555e-06
1.53971e-05
1.7696e-06
1.49132e-05
1.8826e-06
1.43981e-05
1.98547e-06
1.38544e-05
2.07929e-06
1.32846e-05
2.16526e-06
1.26917e-05
2.2446e-06
1.20789e-05
2.31851e-06
1.14499e-05
2.38799e-06
1.08094e-05
2.4534e-06
1.01624e-05
2.51388e-06
9.51418e-06
2.56617e-06
8.86941e-06
2.6031e-06
8.2289e-06
2.61183e-06
7.58359e-06
2.57337e-06
6.90306e-06
2.46787e-06
6.12305e-06
2.29768e-06
5.15441e-06
2.15619e-06
3.92645e-06
2.43507e-06
2.38733e-06
4.75482e-06
1.21142e-05
-7.75074e-07
8.18033e-06
6.65286e-07
-5.39404e-06
1.17412e-06
-4.69187e-06
1.00616e-06
-2.05625e-06
2.3158e-07
4.91285e-07
-1.48108e-06
3.04338e-06
-4.15087e-06
5.80696e-06
-7.19479e-06
9.3339e-06
-9.64707e-06
1.25948e-05
-1.12547e-05
1.39904e-05
-1.21998e-05
1.27431e-05
-1.28649e-05
9.68345e-06
-1.35259e-05
6.75595e-06
-1.42338e-05
4.96625e-06
-1.4938e-05
4.01163e-06
-1.5591e-05
3.41543e-06
-1.61696e-05
2.94619e-06
-1.66647e-05
2.52136e-06
-1.70728e-05
2.11107e-06
-1.73925e-05
1.70273e-06
-1.76233e-05
1.29061e-06
-1.77647e-05
8.72497e-07
-1.78172e-05
4.48171e-07
-1.77814e-05
1.91069e-08
-1.76588e-05
-4.12865e-07
-1.7451e-05
-8.45097e-07
-1.71602e-05
-1.2744e-06
-1.67892e-05
-1.6977e-06
-1.63407e-05
-2.11207e-06
-1.58176e-05
-2.5148e-06
-1.5223e-05
-2.90346e-06
-1.45602e-05
-3.27587e-06
-1.38327e-05
-3.63005e-06
-1.30441e-05
-3.96415e-06
-1.21982e-05
-4.27643e-06
-1.12991e-05
-4.56519e-06
-1.03511e-05
-4.8288e-06
-9.35872e-06
-5.06579e-06
-8.32662e-06
-5.27501e-06
-7.25948e-06
-5.45583e-06
-6.16178e-06
-5.60845e-06
-5.03741e-06
-5.73428e-06
-3.88948e-06
-5.83594e-06
-2.71991e-06
-5.91724e-06
-1.52523e-06
-5.98762e-06
-2.84467e-07
-6.08277e-06
9.80259e-07
-6.21594e-06
2.20256e-06
-6.27828e-06
3.39419e-06
-6.24671e-06
4.57113e-06
-6.16693e-06
5.73058e-06
-6.04285e-06
6.86372e-06
-5.8763e-06
7.96145e-06
-5.67128e-06
9.01592e-06
-5.43346e-06
1.00211e-05
-5.16923e-06
1.0973e-05
-4.88479e-06
1.18688e-05
-4.58559e-06
1.27072e-05
-4.27599e-06
1.34873e-05
-3.95931e-06
1.42089e-05
-3.6379e-06
1.48716e-05
-3.31333e-06
1.54753e-05
-2.98662e-06
1.60195e-05
-2.65848e-06
1.65039e-05
-2.32949e-06
1.69278e-05
-2.00027e-06
1.72908e-05
-1.6716e-06
1.75923e-05
-1.3445e-06
1.78318e-05
-1.02023e-06
1.80091e-05
-7.00369e-07
1.81241e-05
-3.86707e-07
1.81772e-05
-8.12734e-08
1.81693e-05
2.13563e-07
1.81019e-05
4.95998e-07
1.79769e-05
7.64962e-07
1.77966e-05
1.0197e-06
1.75633e-05
1.25949e-06
1.72797e-05
1.48383e-06
1.69486e-05
1.69248e-06
1.65727e-05
1.88552e-06
1.61549e-05
2.0633e-06
1.56981e-05
2.22647e-06
1.52048e-05
2.37588e-06
1.46777e-05
2.51254e-06
1.41194e-05
2.63758e-06
1.35326e-05
2.7521e-06
1.292e-05
2.85716e-06
1.22849e-05
2.95362e-06
1.16309e-05
3.04204e-06
1.0962e-05
3.12233e-06
1.02824e-05
3.19345e-06
9.59582e-06
3.25274e-06
8.90371e-06
3.29521e-06
8.20232e-06
3.31323e-06
7.47795e-06
3.29774e-06
6.70118e-06
3.24464e-06
5.82484e-06
3.17402e-06
4.7955e-06
3.18553e-06
3.57489e-06
3.65567e-06
2.11277e-06
6.21694e-06
1.4227e-05
-4.38829e-07
8.61916e-06
4.9542e-07
-6.32829e-06
8.03099e-07
-4.99955e-06
4.19111e-07
-1.67226e-06
-8.53464e-07
1.76386e-06
-3.04668e-06
5.2366e-06
-5.72895e-06
8.48923e-06
-8.30591e-06
1.19109e-05
-1.02544e-05
1.45433e-05
-1.14374e-05
1.51735e-05
-1.20689e-05
1.33745e-05
-1.25379e-05
1.01524e-05
-1.30856e-05
7.30372e-06
-1.37162e-05
5.59677e-06
-1.43569e-05
4.65236e-06
-1.49573e-05
4.01586e-06
-1.54931e-05
3.48202e-06
-1.5953e-05
2.98122e-06
-1.63311e-05
2.48919e-06
-1.66243e-05
1.99592e-06
-1.68308e-05
1.49708e-06
-1.69498e-05
9.915e-07
-1.69814e-05
4.79745e-07
-1.69266e-05
-3.56381e-08
-1.67876e-05
-5.51875e-07
-1.65668e-05
-1.06593e-06
-1.62668e-05
-1.57437e-06
-1.58905e-05
-2.074e-06
-1.54408e-05
-2.56179e-06
-1.49206e-05
-3.03497e-06
-1.43331e-05
-3.49101e-06
-1.36813e-05
-3.92764e-06
-1.29686e-05
-4.34276e-06
-1.21983e-05
-4.73443e-06
-1.1374e-05
-5.10073e-06
-1.04994e-05
-5.4398e-06
-9.57835e-06
-5.74984e-06
-8.61495e-06
-6.0292e-06
-7.61331e-06
-6.27665e-06
-6.57745e-06
-6.49168e-06
-5.51106e-06
-6.67485e-06
-4.41708e-06
-6.82826e-06
-3.29762e-06
-6.95539e-06
-2.15311e-06
-7.06175e-06
-9.75883e-07
-7.16484e-06
2.50906e-07
-7.30956e-06
1.4673e-06
-7.43233e-06
2.64495e-06
-7.45593e-06
3.81825e-06
-7.42e-06
4.98263e-06
-7.33131e-06
6.12778e-06
-7.188e-06
7.24253e-06
-6.99105e-06
8.31715e-06
-6.74591e-06
9.34439e-06
-6.4607e-06
1.03195e-05
-6.1443e-06
1.12397e-05
-5.80505e-06
1.2104e-05
-5.44992e-06
1.29123e-05
-5.08429e-06
1.3665e-05
-4.71195e-06
1.43624e-05
-4.33536e-06
1.5005e-05
-3.95594e-06
1.55929e-05
-3.57444e-06
1.61256e-05
-3.19126e-06
1.66028e-05
-2.80666e-06
1.70236e-05
-2.42103e-06
1.7387e-05
-2.035e-06
1.7692e-05
-1.64952e-06
1.79377e-05
-1.26592e-06
1.81232e-05
-8.85877e-07
1.82479e-05
-5.11429e-07
1.83116e-05
-1.44907e-07
1.83144e-05
2.10771e-07
1.82573e-05
5.53068e-07
1.81419e-05
8.80397e-07
1.79699e-05
1.19168e-06
1.77435e-05
1.48586e-06
1.74651e-05
1.7622e-06
1.71374e-05
2.02025e-06
1.67629e-05
2.25998e-06
1.63445e-05
2.4817e-06
1.58849e-05
2.68605e-06
1.53869e-05
2.87395e-06
1.48529e-05
3.04647e-06
1.42857e-05
3.20478e-06
1.36878e-05
3.35e-06
1.30619e-05
3.48312e-06
1.24106e-05
3.60488e-06
1.1737e-05
3.71563e-06
1.10441e-05
3.81521e-06
1.03348e-05
3.90278e-06
9.61089e-06
3.97666e-06
8.87184e-06
4.03426e-06
8.11257e-06
4.0725e-06
7.3206e-06
4.08971e-06
6.47385e-06
4.0914e-06
5.5419e-06
4.10597e-06
4.49311e-06
4.23432e-06
3.29878e-06
4.85e-06
1.9013e-06
7.61441e-06
1.61283e-05
-3.43316e-08
8.65349e-06
3.4583e-07
-6.70845e-06
1.50228e-07
-4.80395e-06
-7.43311e-07
-7.78721e-07
-2.55611e-06
3.57666e-06
-4.69564e-06
7.37613e-06
-7.02599e-06
1.08196e-05
-9.12085e-06
1.40057e-05
-1.062e-05
1.60424e-05
-1.14554e-05
1.60089e-05
-1.18622e-05
1.37813e-05
-1.22037e-05
1.04939e-05
-1.26701e-05
7.77007e-06
-1.32297e-05
6.15645e-06
-1.38035e-05
5.22615e-06
-1.43438e-05
4.55612e-06
-1.48273e-05
3.96556e-06
-1.5242e-05
3.39591e-06
-1.55807e-05
2.82784e-06
-1.58388e-05
2.25403e-06
-1.60137e-05
1.67196e-06
-1.61042e-05
1.08207e-06
-1.61107e-05
4.86157e-07
-1.6034e-05
-1.12297e-07
-1.58774e-05
-7.08481e-07
-1.56437e-05
-1.29963e-06
-1.53356e-05
-1.88247e-06
-1.49559e-05
-2.4537e-06
-1.45074e-05
-3.01027e-06
-1.3993e-05
-3.54934e-06
-1.34157e-05
-4.06835e-06
-1.27784e-05
-4.56496e-06
-1.20841e-05
-5.03699e-06
-1.13362e-05
-5.4824e-06
-1.05377e-05
-5.89917e-06
-9.6922e-06
-6.28533e-06
-8.80309e-06
-6.63894e-06
-7.874e-06
-6.95829e-06
-6.90848e-06
-7.24217e-06
-5.90978e-06
-7.49038e-06
-4.88061e-06
-7.70402e-06
-3.82279e-06
-7.88607e-06
-2.73714e-06
-8.04105e-06
-1.62086e-06
-8.17803e-06
-4.60595e-07
-8.32511e-06
7.2457e-07
-8.49472e-06
1.88876e-06
-8.59652e-06
3.04778e-06
-8.61495e-06
4.20801e-06
-8.58024e-06
5.35815e-06
-8.48144e-06
6.48351e-06
-8.31336e-06
7.57139e-06
-8.07893e-06
8.61238e-06
-7.7869e-06
9.60057e-06
-7.44889e-06
1.05331e-05
-7.07688e-06
1.14096e-05
-6.68148e-06
1.22308e-05
-6.27114e-06
1.29984e-05
-5.85192e-06
1.37142e-05
-5.42772e-06
1.43795e-05
-5.00069e-06
1.49954e-05
-4.57176e-06
1.5562e-05
-4.14105e-06
1.60791e-05
-3.70839e-06
1.6546e-05
-3.27353e-06
1.69614e-05
-2.83646e-06
1.73239e-05
-2.39754e-06
1.7632e-05
-1.9576e-06
1.7884e-05
-1.51794e-06
1.80785e-05
-1.08035e-06
1.82141e-05
-6.47067e-07
1.82899e-05
-2.2069e-07
1.83054e-05
1.953e-07
1.82608e-05
5.97636e-07
1.81573e-05
9.83936e-07
1.79962e-05
1.35273e-06
1.77796e-05
1.70253e-06
1.75095e-05
2.03227e-06
1.71885e-05
2.34128e-06
1.68191e-05
2.62937e-06
1.6404e-05
2.89676e-06
1.5946e-05
3.14405e-06
1.54478e-05
3.37219e-06
1.49119e-05
3.58231e-06
1.43411e-05
3.77565e-06
1.37376e-05
3.95341e-06
1.31041e-05
4.11664e-06
1.24429e-05
4.26613e-06
1.17562e-05
4.40228e-06
1.10463e-05
4.52511e-06
1.03149e-05
4.63426e-06
9.56243e-06
4.72909e-06
8.78766e-06
4.80902e-06
7.98581e-06
4.87435e-06
7.14735e-06
4.92817e-06
6.25739e-06
4.98136e-06
5.29721e-06
5.06615e-06
4.24712e-06
5.28441e-06
3.08192e-06
6.0152e-06
1.74021e-06
8.95613e-06
1.78685e-05
3.50641e-07
8.30285e-06
1.46949e-07
-6.50476e-06
-7.85006e-07
-3.87199e-06
-2.40401e-06
8.40288e-07
-4.21751e-06
5.39015e-06
-6.08903e-06
9.24765e-06
-8.03856e-06
1.27691e-05
-9.69717e-06
1.56643e-05
-1.08073e-05
1.71525e-05
-1.13619e-05
1.65635e-05
-1.16043e-05
1.40237e-05
-1.18566e-05
1.07462e-05
-1.22552e-05
8.16873e-06
-1.27459e-05
6.64707e-06
-1.3251e-05
5.73129e-06
-1.37276e-05
5.03277e-06
-1.41543e-05
4.3922e-06
-1.45185e-05
3.76015e-06
-1.48123e-05
3.12165e-06
-1.50304e-05
2.47209e-06
-1.51695e-05
1.81108e-06
-1.52283e-05
1.14091e-06
-1.52073e-05
4.65136e-07
-1.51089e-05
-2.10703e-07
-1.49357e-05
-8.81688e-07
-1.46906e-05
-1.54473e-06
-1.43763e-05
-2.19679e-06
-1.39954e-05
-2.83461e-06
-1.35505e-05
-3.4551e-06
-1.30445e-05
-4.05537e-06
-1.24801e-05
-4.63279e-06
-1.18601e-05
-5.18495e-06
-1.11874e-05
-5.70963e-06
-1.04652e-05
-6.20469e-06
-9.69627e-06
-6.66807e-06
-8.88387e-06
-7.09773e-06
-8.03111e-06
-7.4917e-06
-7.14112e-06
-7.84827e-06
-6.21683e-06
-8.16646e-06
-5.26055e-06
-8.44666e-06
-4.27386e-06
-8.69071e-06
-3.25726e-06
-8.90267e-06
-2.20995e-06
-9.08836e-06
-1.12597e-06
-9.26201e-06
6.41778e-09
-9.45749e-06
1.14458e-06
-9.63288e-06
2.2728e-06
-9.72474e-06
3.41609e-06
-9.75824e-06
4.5609e-06
-9.72504e-06
5.6893e-06
-9.60985e-06
6.78411e-06
-9.40818e-06
7.83208e-06
-9.1269e-06
8.82495e-06
-8.77977e-06
9.75913e-06
-8.38306e-06
1.06346e-05
-7.95231e-06
1.14535e-05
-7.50046e-06
1.22195e-05
-7.03707e-06
1.29359e-05
-6.5684e-06
1.36061e-05
-6.09788e-06
1.42323e-05
-5.62686e-06
1.48158e-05
-5.15528e-06
1.5357e-05
-4.68231e-06
1.58555e-05
-4.20689e-06
1.63101e-05
-3.7281e-06
1.67191e-05
-3.2454e-06
1.70803e-05
-2.75881e-06
1.73917e-05
-2.26898e-06
1.76509e-05
-1.77717e-06
1.78559e-05
-1.28527e-06
1.80045e-05
-7.9568e-07
1.8095e-05
-3.11251e-07
1.81261e-05
1.64194e-07
1.80973e-05
6.26422e-07
1.80091e-05
1.07213e-06
1.78627e-05
1.49922e-06
1.76595e-05
1.90566e-06
1.74017e-05
2.29007e-06
1.70916e-05
2.65144e-06
1.67316e-05
2.98937e-06
1.63244e-05
3.30393e-06
1.58728e-05
3.59569e-06
1.53794e-05
3.86559e-06
1.48468e-05
4.11482e-06
1.42778e-05
4.34473e-06
1.36745e-05
4.55664e-06
1.30394e-05
4.75173e-06
1.23746e-05
4.93096e-06
1.16819e-05
5.09496e-06
1.09629e-05
5.24409e-06
1.02187e-05
5.37853e-06
9.44915e-06
5.4986e-06
8.65291e-06
5.60527e-06
7.8262e-06
5.70106e-06
6.96243e-06
5.79193e-06
6.05216e-06
5.89163e-06
5.08415e-06
6.03417e-06
4.04552e-06
6.32304e-06
2.91236e-06
7.14836e-06
1.6191e-06
1.02494e-05
1.94876e-05
5.03465e-07
7.79938e-06
-2.98229e-07
-5.70307e-06
-1.97129e-06
-2.19893e-06
-3.80348e-06
2.67248e-06
-5.43781e-06
7.02448e-06
-7.1272e-06
1.0937e-05
-8.75141e-06
1.43933e-05
-1.00432e-05
1.69561e-05
-1.08356e-05
1.79449e-05
-1.11715e-05
1.68995e-05
-1.12946e-05
1.41468e-05
-1.14809e-05
1.09325e-05
-1.18196e-05
8.5075e-06
-1.22439e-05
7.07137e-06
-1.26818e-05
6.16915e-06
-1.3095e-05
5.44599e-06
-1.34637e-05
4.76094e-06
-1.37758e-05
4.07217e-06
-1.40227e-05
3.36855e-06
-1.41988e-05
2.64819e-06
-1.43008e-05
1.91307e-06
-1.43274e-05
1.16756e-06
-1.42796e-05
4.17377e-07
-1.41599e-05
-3.30421e-07
-1.39713e-05
-1.07031e-06
-1.37164e-05
-1.79967e-06
-1.33975e-05
-2.51567e-06
-1.30171e-05
-3.215e-06
-1.25777e-05
-3.89446e-06
-1.2082e-05
-4.55107e-06
-1.15327e-05
-5.18211e-06
-1.09325e-05
-5.78514e-06
-1.02843e-05
-6.35789e-06
-9.59073e-06
-6.89822e-06
-8.85479e-06
-7.404e-06
-8.07929e-06
-7.87323e-06
-7.267e-06
-8.304e-06
-6.42056e-06
-8.69471e-06
-5.5422e-06
-9.04482e-06
-4.63312e-06
-9.35574e-06
-3.69354e-06
-9.6303e-06
-2.72224e-06
-9.87396e-06
-1.71576e-06
-1.00948e-05
-6.64679e-07
-1.03131e-05
4.24053e-07
-1.05462e-05
1.51593e-06
-1.07248e-05
2.62303e-06
-1.08318e-05
3.74754e-06
-1.08827e-05
4.86892e-06
-1.08464e-05
5.964e-06
-1.07049e-05
7.01365e-06
-1.04578e-05
8.00521e-06
-1.01185e-05
8.93282e-06
-9.70739e-06
9.79632e-06
-9.24655e-06
1.05994e-05
-8.75535e-06
1.13476e-05
-8.24874e-06
1.20473e-05
-7.73677e-06
1.27041e-05
-7.22513e-06
1.33222e-05
-6.71603e-06
1.39047e-05
-6.20931e-06
1.44528e-05
-5.70343e-06
1.49668e-05
-5.19624e-06
1.54455e-05
-4.68559e-06
1.58871e-05
-4.16973e-06
1.62893e-05
-3.64758e-06
1.66493e-05
-3.11881e-06
1.69642e-05
-2.58392e-06
1.72312e-05
-2.04418e-06
1.74475e-05
-1.50157e-06
1.76105e-05
-9.58697e-07
1.77179e-05
-4.18637e-07
1.77675e-05
1.14611e-07
1.77577e-05
6.36205e-07
1.76886e-05
1.14124e-06
1.75608e-05
1.627e-06
1.73756e-05
2.09086e-06
1.71348e-05
2.53094e-06
1.68403e-05
2.94587e-06
1.64948e-05
3.33492e-06
1.61007e-05
3.69799e-06
1.56609e-05
4.03556e-06
1.51779e-05
4.34855e-06
1.46545e-05
4.63824e-06
1.40931e-05
4.90606e-06
1.34963e-05
5.15349e-06
1.28661e-05
5.38191e-06
1.22046e-05
5.59249e-06
1.15134e-05
5.78616e-06
1.07938e-05
5.96365e-06
1.00466e-05
6.12571e-06
9.2718e-06
6.27344e-06
8.46819e-06
6.40888e-06
7.63325e-06
6.536e-06
6.76277e-06
6.66242e-06
5.85101e-06
6.80338e-06
4.89136e-06
6.99382e-06
3.87473e-06
7.33967e-06
2.77668e-06
8.24642e-06
1.526e-06
1.15001e-05
2.10136e-05
4.12663e-07
7.38672e-06
-9.05551e-07
-4.38485e-06
-2.88899e-06
-2.15485e-07
-4.67589e-06
4.45938e-06
-6.26655e-06
8.61514e-06
-7.80293e-06
1.24734e-05
-9.16421e-06
1.57546e-05
-1.01647e-05
1.79566e-05
-1.07109e-05
1.8491e-05
-1.08855e-05
1.70741e-05
-1.09258e-05
1.41871e-05
-1.10628e-05
1.10696e-05
-1.13485e-05
8.79322e-06
-1.17112e-05
7.43402e-06
-1.20857e-05
6.54365e-06
-1.24382e-05
5.79854e-06
-1.27507e-05
5.07339e-06
-1.30113e-05
4.33275e-06
-1.32117e-05
3.56894e-06
-1.33462e-05
2.78272e-06
-1.34116e-05
1.97849e-06
-1.34069e-05
1.16283e-06
-1.33335e-05
3.43974e-07
-1.31937e-05
-4.70165e-07
-1.2991e-05
-1.27301e-06
-1.27274e-05
-2.06336e-06
-1.24049e-05
-2.83808e-06
-1.20262e-05
-3.59376e-06
-1.15936e-05
-4.32704e-06
-1.11099e-05
-5.0348e-06
-1.05777e-05
-5.7143e-06
-9.99971e-06
-6.36312e-06
-9.37856e-06
-6.97904e-06
-8.71688e-06
-7.5599e-06
-8.01731e-06
-8.10356e-06
-7.28243e-06
-8.60811e-06
-6.51462e-06
-9.0718e-06
-5.71599e-06
-9.49334e-06
-4.88797e-06
-9.87285e-06
-4.03042e-06
-1.02133e-05
-3.142e-06
-1.05187e-05
-2.21944e-06
-1.07965e-05
-1.25626e-06
-1.1058e-05
-2.42423e-07
-1.13269e-05
7.97212e-07
-1.15859e-05
1.85026e-06
-1.17778e-05
2.93605e-06
-1.19176e-05
4.03573e-06
-1.19824e-05
5.12237e-06
-1.19331e-05
6.16913e-06
-1.17517e-05
7.15604e-06
-1.14447e-05
8.07253e-06
-1.10349e-05
8.9167e-06
-1.05516e-05
9.69314e-06
-1.0023e-05
1.04102e-05
-9.47238e-06
1.10774e-05
-8.91592e-06
1.17037e-05
-8.36311e-06
1.22965e-05
-7.8179e-06
1.28607e-05
-7.28029e-06
1.33993e-05
-6.74787e-06
1.39129e-05
-6.21708e-06
1.44009e-05
-5.68417e-06
1.48611e-05
-5.1458e-06
1.52908e-05
-4.59943e-06
1.56867e-05
-4.04353e-06
1.60455e-05
-3.47756e-06
1.63636e-05
-2.902e-06
1.66376e-05
-2.31824e-06
1.68645e-05
-1.72848e-06
1.70414e-05
-1.13555e-06
1.71655e-05
-5.42798e-07
1.72344e-05
4.57585e-08
1.72452e-05
6.25403e-07
1.71977e-05
1.18877e-06
1.70918e-05
1.73283e-06
1.69284e-05
2.25431e-06
1.67087e-05
2.75064e-06
1.64347e-05
3.21992e-06
1.61085e-05
3.66103e-06
1.57329e-05
4.07362e-06
1.53104e-05
4.45806e-06
1.48437e-05
4.81523e-06
1.43355e-05
5.14645e-06
1.37883e-05
5.45329e-06
1.32044e-05
5.73737e-06
1.25861e-05
6.00027e-06
1.19352e-05
6.24339e-06
1.12534e-05
6.46795e-06
1.0542e-05
6.67506e-06
9.80177e-06
6.86592e-06
9.03298e-06
7.04223e-06
8.23503e-06
7.20682e-06
7.40647e-06
7.36457e-06
6.54485e-06
7.52404e-06
5.6469e-06
7.70133e-06
4.70864e-06
7.93208e-06
3.7228e-06
8.3255e-06
2.66302e-06
9.30621e-06
1.45144e-06
1.27116e-05
2.24651e-05
2.25165e-07
7.16156e-06
-1.40823e-06
-2.75145e-06
-3.51465e-06
1.89093e-06
-5.22434e-06
6.16907e-06
-6.7626e-06
1.01534e-05
-8.15718e-06
1.3868e-05
-9.30454e-06
1.6902e-05
-1.00787e-05
1.87308e-05
-1.04421e-05
1.88544e-05
-1.05049e-05
1.71369e-05
-1.04921e-05
1.41744e-05
-1.05938e-05
1.11712e-05
-1.08339e-05
9.03332e-06
-1.11412e-05
7.74134e-06
-1.14579e-05
6.86034e-06
-1.17542e-05
6.09487e-06
-1.20137e-05
5.33292e-06
-1.22254e-05
4.54445e-06
-1.23813e-05
3.72487e-06
-1.2476e-05
2.87743e-06
-1.25065e-05
2.00896e-06
-1.2472e-05
1.1283e-06
-1.23742e-05
2.46211e-07
-1.22161e-05
-6.28246e-07
-1.19999e-05
-1.48925e-06
-1.17279e-05
-2.33532e-06
-1.14025e-05
-3.1635e-06
-1.10261e-05
-3.97016e-06
-1.06014e-05
-4.75175e-06
-1.01312e-05
-5.50503e-06
-9.61815e-06
-6.22732e-06
-9.06488e-06
-6.91639e-06
-8.47374e-06
-7.57018e-06
-7.84711e-06
-8.18653e-06
-7.18742e-06
-8.76326e-06
-6.49693e-06
-9.29859e-06
-5.77758e-06
-9.79116e-06
-5.03082e-06
-1.02401e-05
-4.25719e-06
-1.06465e-05
-3.45499e-06
-1.10155e-05
-2.62098e-06
-1.13527e-05
-1.74948e-06
-1.1668e-05
-8.318e-07
-1.19757e-05
1.36649e-07
-1.22954e-05
1.12843e-06
-1.25776e-05
2.15076e-06
-1.28001e-05
3.20828e-06
-1.29752e-05
4.27319e-06
-1.30473e-05
5.31109e-06
-1.2971e-05
6.29197e-06
-1.27326e-05
7.19676e-06
-1.23495e-05
8.01898e-06
-1.18572e-05
8.76264e-06
-1.12952e-05
9.43858e-06
-1.06989e-05
1.00605e-05
-1.00943e-05
1.06421e-05
-9.4975e-06
1.11946e-05
-8.91562e-06
1.17261e-05
-8.3494e-06
1.22413e-05
-7.79544e-06
1.27417e-05
-7.24831e-06
1.32267e-05
-6.70205e-06
1.36937e-05
-6.15123e-06
1.41394e-05
-5.59147e-06
1.45597e-05
-5.0197e-06
1.49503e-05
-4.43419e-06
1.53073e-05
-3.83452e-06
1.56267e-05
-3.22139e-06
1.5905e-05
-2.59652e-06
1.6139e-05
-1.96246e-06
1.63258e-05
-1.32238e-06
1.64629e-05
-6.79889e-07
1.65475e-05
-3.88668e-08
1.65778e-05
5.95077e-07
1.65517e-05
1.21487e-06
1.64686e-05
1.81597e-06
1.63285e-05
2.39433e-06
1.61326e-05
2.9466e-06
1.58822e-05
3.47026e-06
1.55796e-05
3.96371e-06
1.52269e-05
4.42627e-06
1.48268e-05
4.85812e-06
1.4382e-05
5.2601e-06
1.38949e-05
5.63356e-06
1.3368e-05
5.98014e-06
1.28037e-05
6.30164e-06
1.22042e-05
6.59979e-06
1.15714e-05
6.87621e-06
1.0907e-05
7.13236e-06
1.02124e-05
7.36963e-06
9.48873e-06
7.5896e-06
8.73654e-06
7.79443e-06
7.95589e-06
7.98747e-06
7.14624e-06
8.17421e-06
6.30643e-06
8.36385e-06
5.43467e-06
8.57308e-06
4.5284e-06
8.83835e-06
3.58081e-06
9.2731e-06
2.56276e-06
1.03243e-05
1.38898e-06
1.38854e-05
2.3854e-05
-1.01871e-08
7.17174e-06
-1.91007e-06
-8.5157e-07
-3.89528e-06
3.87613e-06
-5.51775e-06
7.79154e-06
-6.97803e-06
1.16137e-05
-8.2384e-06
1.51284e-05
-9.20966e-06
1.78732e-05
-9.81063e-06
1.93318e-05
-1.00436e-05
1.90873e-05
-1.0035e-05
1.71283e-05
-9.99297e-06
1.41324e-05
-1.00708e-05
1.1249e-05
-1.02731e-05
9.23562e-06
-1.05323e-05
8.00051e-06
-1.07976e-05
7.12562e-06
-1.1043e-05
6.34033e-06
-1.12541e-05
5.54394e-06
-1.14206e-05
4.71097e-06
-1.15352e-05
3.83952e-06
-1.15929e-05
2.93514e-06
-1.15909e-05
2.00695e-06
-1.15286e-05
1.06593e-06
-1.14078e-05
1.25475e-07
-1.12315e-05
-8.04622e-07
-1.10021e-05
-1.71863e-06
-1.07221e-05
-2.61532e-06
-1.0394e-05
-3.49161e-06
-1.00205e-05
-4.34361e-06
-9.60471e-06
-5.16756e-06
-9.14954e-06
-5.96021e-06
-8.65778e-06
-6.71908e-06
-8.13179e-06
-7.44238e-06
-7.57361e-06
-8.12836e-06
-6.98524e-06
-8.7749e-06
-6.36889e-06
-9.37961e-06
-5.72649e-06
-9.941e-06
-5.0594e-06
-1.04582e-05
-4.3683e-06
-1.09312e-05
-3.65269e-06
-1.13621e-05
-2.90904e-06
-1.17591e-05
-2.13194e-06
-1.21298e-05
-1.31269e-06
-1.24873e-05
-4.4077e-07
-1.28476e-05
4.74573e-07
-1.32107e-05
1.41952e-06
-1.35226e-05
2.41173e-06
-1.37923e-05
3.43444e-06
-1.39979e-05
4.45261e-06
-1.40655e-05
5.42554e-06
-1.39439e-05
6.32142e-06
-1.36284e-05
7.12444e-06
-1.31525e-05
7.83487e-06
-1.25676e-05
8.46491e-06
-1.19253e-05
9.03302e-06
-1.1267e-05
9.55879e-06
-1.06201e-05
1.00592e-05
-9.99791e-06
1.05466e-05
-9.403e-06
1.10281e-05
-8.83096e-06
1.15065e-05
-8.27377e-06
1.19806e-05
-7.72242e-06
1.24471e-05
-7.16859e-06
1.29014e-05
-6.60547e-06
1.3338e-05
-6.02812e-06
1.37518e-05
-5.43344e-06
1.41376e-05
-4.82001e-06
1.44909e-05
-4.18788e-06
1.48079e-05
-3.53833e-06
1.5085e-05
-2.87366e-06
1.53195e-05
-2.19697e-06
1.55091e-05
-1.51191e-06
1.56517e-05
-8.22487e-07
1.57456e-05
-1.32784e-07
1.57888e-05
5.51826e-07
1.57792e-05
1.22452e-06
1.57153e-05
1.8798e-06
1.55969e-05
2.51276e-06
1.54243e-05
3.11924e-06
1.51985e-05
3.69603e-06
1.49212e-05
4.24097e-06
1.45945e-05
4.75297e-06
1.42207e-05
5.23195e-06
1.38022e-05
5.67865e-06
1.33413e-05
6.0944e-06
1.28405e-05
6.48093e-06
1.23021e-05
6.84012e-06