/*--------------------------------*- C++ -*----------------------------------*\
| =========                 |                                                 |
| \\      /  F ield         | OpenFOAM: The Open Source CFD Toolbox           |
|  \\    /   O peration     | Version:  4.1                                   |
|   \\  /    A nd           | Web:      www.OpenFOAM.org                      |
|    \\/     M anipulation  |                                                 |
\*---------------------------------------------------------------------------*/
FoamFile
{
    version     2.0;
    format      ascii;
    class       surfaceScalarField;
    location    "820";
    object      phi;
}
// * * * * * * * * * * * * * * * * * * * * * * * * * * * * * * * * * * * * * //

dimensions      [0 3 -1 0 0 0 0];

internalField   nonuniform List<scalar> 
9850
(
-4.49686e-06
4.49686e-06
-6.42214e-06
1.92528e-06
-7.14696e-06
7.24825e-07
-7.40519e-06
2.58221e-07
-7.46441e-06
5.92282e-08
-7.41303e-06
-5.13849e-08
-7.27666e-06
-1.36368e-07
-7.0621e-06
-2.1456e-07
-6.7758e-06
-2.86304e-07
-6.42206e-06
-3.53738e-07
-6.00099e-06
-4.21068e-07
-5.50853e-06
-4.9246e-07
-4.93768e-06
-5.70847e-07
-4.28e-06
-6.5768e-07
-3.52564e-06
-7.54362e-07
-2.65855e-06
-8.67088e-07
-1.64793e-06
-1.01063e-06
-4.60286e-07
-1.18764e-06
8.76674e-07
-1.33696e-06
2.16823e-06
-1.29156e-06
3.4828e-06
-1.31457e-06
4.81258e-06
-1.32978e-06
6.137e-06
-1.32442e-06
7.43642e-06
-1.29942e-06
8.6956e-06
-1.25918e-06
9.90459e-06
-1.209e-06
1.10585e-05
-1.1539e-06
1.21564e-05
-1.09793e-06
1.32e-05
-1.04361e-06
1.41917e-05
-9.91658e-07
1.51326e-05
-9.40868e-07
1.60211e-05
-8.88537e-07
1.68523e-05
-8.3123e-07
1.76181e-05
-7.65812e-07
1.83085e-05
-6.90357e-07
1.8913e-05
-6.04556e-07
1.94226e-05
-5.09584e-07
1.98303e-05
-4.07648e-07
2.01319e-05
-3.01586e-07
2.03266e-05
-1.94699e-07
2.04176e-05
-9.10513e-08
2.04122e-05
5.45409e-09
2.03186e-05
9.3593e-08
2.01439e-05
1.74628e-07
1.98929e-05
2.51051e-07
1.95633e-05
3.29574e-07
1.9133e-05
4.30327e-07
1.85339e-05
5.99129e-07
1.76142e-05
9.19697e-07
1.6095e-05
1.51919e-06
1.3518e-05
2.57695e-06
9.24909e-06
4.26892e-06
3.26945e-06
5.97964e-06
-2.2783e-06
5.54775e-06
-5.97694e-06
3.69864e-06
-8.41467e-06
2.43772e-06
-9.62521e-06
1.21055e-06
-9.92953e-06
3.04321e-07
-9.46734e-06
-4.62196e-07
-8.19599e-06
-1.27135e-06
-6.1212e-06
-2.07479e-06
-3.78315e-06
-2.33806e-06
-1.64552e-06
-2.13763e-06
1.20006e-07
-1.76553e-06
1.30431e-06
-1.1843e-06
2.07271e-06
-7.68406e-07
2.64304e-06
-5.70327e-07
3.12976e-06
-4.86724e-07
2.82598e-06
3.03787e-07
-9.41763e-07
3.76774e-06
-4.23682e-06
3.29506e-06
-4.50739e-06
2.70563e-07
-3.56354e-06
-9.43848e-07
-2.41612e-06
-1.14742e-06
-1.41967e-06
-9.96446e-07
-7.79174e-07
-6.40496e-07
-7.3508e-07
-4.40947e-08
-1.88034e-06
1.14526e-06
-4.75855e-06
2.87822e-06
-8.49506e-06
3.73651e-06
-1.16192e-05
3.12414e-06
-1.37083e-05
2.08914e-06
-1.50593e-05
1.35091e-06
-1.59976e-05
9.38304e-07
-1.6699e-05
7.01478e-07
-1.72271e-05
5.28064e-07
-1.75884e-05
3.61326e-07
-1.77645e-05
1.76049e-07
-1.77045e-05
-5.99268e-08
-1.73967e-05
-3.07875e-07
-1.67957e-05
-6.00971e-07
-1.58551e-05
-9.40641e-07
-1.44973e-05
-1.35774e-06
-1.25996e-05
-1.89775e-06
-1.00014e-05
-2.59813e-06
-6.54983e-06
-3.45161e-06
-2.22933e-06
-4.3205e-06
2.56068e-06
-4.79001e-06
3.45451e-06
-8.93833e-07
3.45451e-06
-3.4985e-06
7.99536e-06
-5.37358e-06
3.80036e-06
-6.27011e-06
1.62135e-06
-6.73332e-06
7.21438e-07
-6.96243e-06
2.8833e-07
-7.03068e-06
1.68676e-08
-6.97358e-06
-1.93465e-07
-6.81421e-06
-3.73928e-07
-6.56542e-06
-5.35099e-07
-6.23524e-06
-6.8392e-07
-5.82581e-06
-8.30491e-07
-5.33457e-06
-9.83702e-07
-4.75616e-06
-1.14926e-06
-4.08418e-06
-1.32966e-06
-3.31222e-06
-1.52632e-06
-2.43549e-06
-1.74382e-06
-1.45606e-06
-1.99005e-06
-3.87492e-07
-2.25621e-06
7.57936e-07
-2.48239e-06
2.05406e-06
-2.58769e-06
3.39699e-06
-2.65749e-06
4.75419e-06
-2.68698e-06
6.10272e-06
-2.67295e-06
7.42303e-06
-2.61973e-06
8.70026e-06
-2.53641e-06
9.925e-06
-2.43373e-06
1.1093e-05
-2.32188e-06
1.22041e-05
-2.20904e-06
1.32609e-05
-2.10042e-06
1.42667e-05
-1.9975e-06
1.52238e-05
-1.89794e-06
1.61315e-05
-1.79624e-06
1.69857e-05
-1.68539e-06
1.77789e-05
-1.55905e-06
1.85021e-05
-1.41353e-06
1.91461e-05
-1.24856e-06
1.97033e-05
-1.06679e-06
2.01683e-05
-8.72651e-07
2.0538e-05
-6.71328e-07
2.08115e-05
-4.6811e-07
2.09883e-05
-2.67909e-07
2.10675e-05
-7.37644e-08
2.10454e-05
1.15689e-07
2.09198e-05
3.00283e-07
2.06838e-05
4.87061e-07
2.03182e-05
6.951e-07
1.97793e-05
9.69321e-07
1.89805e-05
1.39791e-06
1.77761e-05
2.12406e-06
1.59634e-05
3.33194e-06
1.33496e-05
5.1907e-06
9.95899e-06
7.65955e-06
6.13562e-06
9.80301e-06
1.86716e-06
9.81621e-06
-2.15104e-06
7.71684e-06
-5.45067e-06
5.73735e-06
-7.42383e-06
3.18371e-06
-8.2749e-06
1.1554e-06
-8.18919e-06
-5.47909e-07
-7.23421e-06
-2.22633e-06
-5.48331e-06
-3.82569e-06
-3.58382e-06
-4.23754e-06
-1.90042e-06
-3.82103e-06
-6.10434e-07
-3.05551e-06
3.42707e-07
-2.13744e-06
1.07239e-06
-1.49809e-06
1.61858e-06
-1.11652e-06
1.82236e-06
-6.90509e-07
1.17214e-06
9.54016e-07
-1.72251e-06
6.66239e-06
-3.61272e-06
5.18527e-06
-3.91769e-06
5.75528e-07
-3.49913e-06
-1.36241e-06
-2.96948e-06
-1.67707e-06
-2.54274e-06
-1.42319e-06
-2.43791e-06
-7.45324e-07
-2.93338e-06
4.51382e-07
-4.22738e-06
2.43925e-06
-6.1622e-06
4.81304e-06
-8.48482e-06
6.05913e-06
-1.0804e-05
5.4433e-06
-1.26929e-05
3.97807e-06
-1.40493e-05
2.70726e-06
-1.49869e-05
1.87591e-06
-1.56326e-05
1.34725e-06
-1.60572e-05
9.52635e-07
-1.62809e-05
5.85071e-07
-1.6292e-05
1.87065e-07
-1.60886e-05
-2.6328e-07
-1.56546e-05
-7.41914e-07
-1.50025e-05
-1.253e-06
-1.4114e-05
-1.82917e-06
-1.29286e-05
-2.54313e-06
-1.13261e-05
-3.50025e-06
-9.15093e-06
-4.77333e-06
-6.33704e-06
-6.2655e-06
-3.10309e-06
-7.55445e-06
-4.30487e-08
-7.85005e-06
2.04172e-06
-2.9786e-06
5.49623e-06
-2.60459e-06
1.05999e-05
-4.09808e-06
5.29385e-06
-5.02166e-06
2.54493e-06
-5.65752e-06
1.3573e-06
-6.06544e-06
6.96246e-07
-6.27741e-06
2.28839e-07
-6.33233e-06
-1.3855e-07
-6.26978e-06
-4.36475e-07
-6.11209e-06
-6.92788e-07
-5.86857e-06
-9.27443e-07
-5.53967e-06
-1.15939e-06
-5.12067e-06
-1.4027e-06
-4.60477e-06
-1.66516e-06
-3.9852e-06
-1.94923e-06
-3.25716e-06
-2.25436e-06
-2.42109e-06
-2.57988e-06
-1.48751e-06
-2.92364e-06
-4.73795e-07
-3.26992e-06
6.26756e-07
-3.58294e-06
1.87291e-06
-3.83384e-06
3.17054e-06
-3.95512e-06
4.48408e-06
-4.00052e-06
5.78682e-06
-3.97569e-06
7.05717e-06
-3.89008e-06
8.27953e-06
-3.75878e-06
9.44458e-06
-3.59878e-06
1.05488e-05
-3.4261e-06
1.15934e-05
-3.25364e-06
1.25827e-05
-3.08969e-06
1.35219e-05
-2.93667e-06
1.44147e-05
-2.79075e-06
1.52612e-05
-2.6428e-06
1.60569e-05
-2.4811e-06
1.67932e-05
-2.29527e-06
1.74594e-05
-2.07981e-06
1.80461e-05
-1.83522e-06
1.85459e-05
-1.56663e-06
1.89547e-05
-1.28145e-06
1.92708e-05
-9.87422e-07
1.94942e-05
-6.91493e-07
1.96253e-05
-3.99061e-07
1.9665e-05
-1.1344e-07
1.96081e-05
1.72582e-07
1.94483e-05
4.60142e-07
1.91736e-05
7.61763e-07
1.87618e-05
1.10687e-06
1.81715e-05
1.55958e-06
1.73315e-05
2.23798e-06
1.61341e-05
3.32141e-06
1.44562e-05
5.0099e-06
1.22378e-05
7.40903e-06
9.61809e-06
1.02793e-05
6.93439e-06
1.24867e-05
4.23223e-06
1.25184e-05
1.28091e-06
1.06682e-05
-1.89806e-06
8.91633e-06
-4.50733e-06
5.79298e-06
-5.89043e-06
2.5385e-06
-6.28938e-06
-1.48963e-07
-5.67739e-06
-2.83832e-06
-4.25222e-06
-5.25086e-06
-2.77021e-06
-5.71955e-06
-1.48089e-06
-5.11035e-06
-4.80983e-07
-4.05542e-06
2.72976e-07
-2.8914e-06
8.28785e-07
-2.0539e-06
1.19767e-06
-1.4854e-06
1.23918e-06
-7.32026e-07
-7.95555e-08
2.27276e-06
-2.27111e-06
8.85394e-06
-3.3649e-06
6.27906e-06
-3.6564e-06
8.67034e-07
-3.70294e-06
-1.31587e-06
-3.62094e-06
-1.75908e-06
-3.62996e-06
-1.41417e-06
-3.9242e-06
-4.51091e-07
-4.6262e-06
1.15339e-06
-5.60004e-06
3.41309e-06
-6.66893e-06
5.88192e-06
-7.97196e-06
7.36217e-06
-9.49874e-06
6.97008e-06
-1.09035e-05
5.38286e-06
-1.19608e-05
3.7645e-06
-1.26719e-05
2.58701e-06
-1.31163e-05
1.79171e-06
-1.33557e-05
1.19203e-06
-1.34132e-05
6.42537e-07
-1.32868e-05
6.0667e-08
-1.2981e-05
-5.69051e-07
-1.2527e-05
-1.19597e-06
-1.19483e-05
-1.83171e-06
-1.12596e-05
-2.51782e-06
-1.04235e-05
-3.37928e-06
-9.31156e-06
-4.61216e-06
-7.73389e-06
-6.351e-06
-5.61279e-06
-8.3866e-06
-3.19206e-06
-9.97519e-06
-1.01635e-06
-1.00257e-05
1.39418e-06
-5.38913e-06
6.89041e-06
-2.1014e-06
1.27013e-05
-3.34486e-06
6.53731e-06
-4.24711e-06
3.44718e-06
-4.93344e-06
2.04363e-06
-5.40594e-06
1.16874e-06
-5.69165e-06
5.14555e-07
-5.82753e-06
-2.67264e-09
-5.84884e-06
-4.15168e-07
-5.7764e-06
-7.65225e-07
-5.61532e-06
-1.08853e-06
-5.36213e-06
-1.41259e-06
-5.00925e-06
-1.75557e-06
-4.54859e-06
-2.12583e-06
-3.97378e-06
-2.52403e-06
-3.28212e-06
-2.94603e-06
-2.47705e-06
-3.38495e-06
-1.57005e-06
-3.83064e-06
-5.7494e-07
-4.26504e-06
5.07173e-07
-4.66505e-06
1.70172e-06
-5.02839e-06
2.94533e-06
-5.19873e-06
4.20418e-06
-5.25937e-06
5.44947e-06
-5.22098e-06
6.65811e-06
-5.09872e-06
7.81406e-06
-4.91473e-06
8.90837e-06
-4.6931e-06
9.93867e-06
-4.4564e-06
1.09079e-05
-4.2229e-06
1.18227e-05
-4.00447e-06
1.26906e-05
-3.80454e-06
1.3517e-05
-3.6172e-06
1.43025e-05
-3.42827e-06
1.50407e-05
-3.21937e-06
1.57201e-05
-2.97466e-06
1.63273e-05
-2.68698e-06
1.68512e-05
-2.35911e-06
1.72851e-05
-2.00051e-06
1.76265e-05
-1.6229e-06
1.78764e-05
-1.23729e-06
1.80373e-05
-8.52367e-07
1.81119e-05
-4.73682e-07
1.80983e-05
-9.98593e-08
1.79937e-05
2.77193e-07
1.77904e-05
6.63491e-07
1.74753e-05
1.07686e-06
1.70235e-05
1.55868e-06
1.63923e-05
2.19069e-06
1.55176e-05
3.11276e-06
1.43197e-05
4.51924e-06
1.27396e-05
6.59001e-06
1.08163e-05
9.33241e-06
8.77974e-06
1.23158e-05
6.96036e-06
1.43061e-05
5.34518e-06
1.41336e-05
3.55682e-06
1.24565e-05
1.30308e-06
1.11701e-05
-1.41489e-06
8.51095e-06
-3.19728e-06
4.32089e-06
-4.12435e-06
7.78106e-07
-3.75602e-06
-3.20664e-06
-2.73632e-06
-6.27056e-06
-1.71113e-06
-6.74475e-06
-8.34559e-07
-5.98692e-06
-1.64184e-07
-4.72579e-06
3.78942e-07
-3.43453e-06
7.2769e-07
-2.40265e-06
9.00764e-07
-1.65847e-06
7.52238e-07
-5.83499e-07
-1.16183e-06
4.18683e-06
-2.82077e-06
1.05129e-05
-3.60788e-06
7.06617e-06
-3.99349e-06
1.25264e-06
-4.2928e-06
-1.01655e-06
-4.52893e-06
-1.52295e-06
-4.81772e-06
-1.12539e-06
-5.23668e-06
-3.21249e-08
-5.76628e-06
1.68298e-06
-6.26215e-06
3.90897e-06
-6.66737e-06
6.28714e-06
-7.21043e-06
7.90523e-06
-8.07266e-06
7.83231e-06
-9.02685e-06
6.33704e-06
-9.78039e-06
4.51804e-06
-1.02384e-05
3.04506e-06
-1.04366e-05
1.98988e-06
-1.04368e-05
1.19223e-06
-1.02778e-05
4.83519e-07
-9.96939e-06
-2.47721e-07
-9.54144e-06
-9.97007e-07
-9.03338e-06
-1.70402e-06
-8.50617e-06
-2.35892e-06
-8.01533e-06
-3.00865e-06
-7.56181e-06
-3.83281e-06
-7.00553e-06
-5.16844e-06
-6.07247e-06
-7.28406e-06
-4.63236e-06
-9.82671e-06
-2.91578e-06
-1.16918e-05
-1.16277e-06
-1.17788e-05
1.01226e-06
-7.56416e-06
7.90267e-06
-1.78812e-06
1.44895e-05
-2.89324e-06
7.64244e-06
-3.75282e-06
4.30676e-06
-4.4281e-06
2.71891e-06
-4.91649e-06
1.65713e-06
-5.243e-06
8.41072e-07
-5.44012e-06
1.94445e-07
-5.53203e-06
-3.23258e-07
-5.53345e-06
-7.638e-07
-5.44369e-06
-1.17829e-06
-5.25462e-06
-1.60166e-06
-4.95611e-06
-2.05408e-06
-4.53969e-06
-2.54225e-06
-4.0005e-06
-3.06323e-06
-3.3385e-06
-3.60803e-06
-2.55958e-06
-4.16386e-06
-1.67549e-06
-4.71473e-06
-6.99259e-07
-5.24127e-06
3.58184e-07
-5.7225e-06
1.4908e-06
-6.16101e-06
2.67179e-06
-6.37971e-06
3.86487e-06
-6.45246e-06
5.04097e-06
-6.39708e-06
6.17681e-06
-6.23456e-06
7.25645e-06
-5.99436e-06
8.27171e-06
-5.70836e-06
9.22179e-06
-5.40648e-06
1.01119e-05
-5.11299e-06
1.09512e-05
-4.84381e-06
1.17501e-05
-4.60341e-06
1.25158e-05
-4.38293e-06
1.32486e-05
-4.16104e-06
1.3939e-05
-3.90973e-06
1.45699e-05
-3.6056e-06
1.51235e-05
-3.24055e-06
1.55869e-05
-2.82252e-06
1.59546e-05
-2.36819e-06
1.62271e-05
-1.89541e-06
1.64087e-05
-1.41893e-06
1.65052e-05
-9.48835e-07
1.65212e-05
-4.89665e-07
1.64555e-05
-3.42303e-08
1.63053e-05
4.27453e-07
1.60633e-05
9.05508e-07
1.57143e-05
1.42584e-06
1.52283e-05
2.0447e-06
1.45559e-05
2.86309e-06
1.36315e-05
4.03714e-06
1.23951e-05
5.7556e-06
1.0848e-05
8.13711e-06
9.13667e-06
1.10438e-05
7.59688e-06
1.38556e-05
6.52365e-06
1.53793e-05
5.73015e-06
1.49271e-05
4.76067e-06
1.3426e-05
3.37159e-06
1.25591e-05
1.2281e-06
1.06544e-05
-7.3023e-07
6.27922e-06
-1.83591e-06
1.88378e-06
-1.47244e-06
-3.57011e-06
-1.00607e-06
-6.73693e-06
-4.985e-07
-7.25231e-06
-3.91949e-08
-6.44623e-06
3.23435e-07
-5.08842e-06
5.78321e-07
-3.68941e-06
6.88767e-07
-2.51309e-06
6.52296e-07
-1.622e-06
-1.74984e-08
8.62952e-08
-1.96783e-06
6.13716e-06
-3.32717e-06
1.18722e-05
-4.04666e-06
7.78566e-06
-4.6031e-06
1.80908e-06
-5.12362e-06
-4.96036e-07
-5.57888e-06
-1.06768e-06
-5.99226e-06
-7.12008e-07
-6.35412e-06
3.29737e-07
-6.60491e-06
1.93377e-06
-6.66543e-06
3.96949e-06
-6.52594e-06
6.14765e-06
-6.41652e-06
7.79581e-06
-6.64984e-06
8.06563e-06
-7.17093e-06
6.85812e-06
-7.67067e-06
5.01778e-06
-7.94662e-06
3.321e-06
-7.95938e-06
2.00265e-06
-7.74841e-06
9.81256e-07
-7.36548e-06
1.00588e-07
-6.8716e-06
-7.41606e-07
-6.32085e-06
-1.54776e-06
-5.7522e-06
-2.27267e-06
-5.22639e-06
-2.88473e-06
-4.8414e-06
-3.39364e-06
-4.67336e-06
-4.00084e-06
-4.61688e-06
-5.22492e-06
-4.28401e-06
-7.61694e-06
-3.46947e-06
-1.06412e-05
-2.36984e-06
-1.27914e-05
-1.05564e-06
-1.3093e-05
6.32816e-07
-9.25261e-06
8.53548e-06
-1.57023e-06
1.60597e-05
-2.59348e-06
8.66568e-06
-3.41287e-06
5.12616e-06
-4.06373e-06
3.36977e-06
-4.5529e-06
2.1463e-06
-4.90592e-06
1.19409e-06
-5.15117e-06
4.39693e-07
-5.30171e-06
-1.72725e-07
-5.3654e-06
-7.00106e-07
-5.33519e-06
-1.2085e-06
-5.19863e-06
-1.73822e-06
-4.94405e-06
-2.30865e-06
-4.56379e-06
-2.9225e-06
-4.05534e-06
-3.57168e-06
-3.42161e-06
-4.24176e-06
-2.67089e-06
-4.91459e-06
-1.81613e-06
-5.56949e-06
-8.72532e-07
-6.18486e-06
1.45266e-07
-6.74029e-06
1.20716e-06
-7.2229e-06
2.31568e-06
-7.48823e-06
3.43198e-06
-7.56875e-06
4.52789e-06
-7.49299e-06
5.58104e-06
-7.28771e-06
6.57622e-06
-6.98955e-06
7.50644e-06
-6.63857e-06
8.37287e-06
-6.27291e-06
9.18323e-06
-5.92336e-06
9.94975e-06
-5.61032e-06
1.06856e-05
-5.33924e-06
1.13998e-05
-5.09712e-06
1.20914e-05
-4.85272e-06
1.27458e-05
-4.5641e-06
1.33376e-05
-4.19739e-06
1.38425e-05
-3.74549e-06
1.42466e-05
-3.22657e-06
1.45472e-05
-2.66881e-06
1.47498e-05
-2.09795e-06
1.48633e-05
-1.53248e-06
1.48971e-05
-9.82602e-07
1.4856e-05
-4.48613e-07
1.47389e-05
8.28636e-08
1.45442e-05
6.22146e-07
1.42649e-05
1.18483e-06
1.38809e-05
1.80985e-06
1.33522e-05
2.57345e-06
1.2618e-05
3.59728e-06
1.16104e-05
5.04468e-06
1.02959e-05
7.0701e-06
8.754e-06
9.67903e-06
7.25365e-06
1.25441e-05
6.20373e-06
1.49055e-05
5.77458e-06
1.58085e-05
5.58463e-06
1.5117e-05
5.14486e-06
1.38658e-05
4.25942e-06
1.34446e-05
2.77489e-06
1.2139e-05
1.09223e-06
7.96188e-06
4.21328e-07
2.55469e-06
6.65901e-07
-3.81468e-06
7.00375e-07
-6.7714e-06
7.76488e-07
-7.32843e-06
8.30248e-07
-6.49999e-06
8.55163e-07
-5.11334e-06
8.13568e-07
-3.64782e-06
6.6082e-07
-2.36035e-06
3.78889e-07
-1.34007e-06
-7.2697e-07
1.19215e-06
-2.42257e-06
7.83276e-06
-3.71195e-06
1.31616e-05
-4.56391e-06
8.63763e-06
-5.35699e-06
2.60216e-06
-6.08945e-06
2.36431e-07
-6.69844e-06
-4.58696e-07
-7.15158e-06
-2.58863e-07
-7.40051e-06
5.7866e-07
-7.38741e-06
1.92067e-06
-7.0786e-06
3.66068e-06
-6.48582e-06
5.55486e-06
-5.80181e-06
7.1118e-06
-5.38712e-06
7.65095e-06
-5.38494e-06
6.85595e-06
-5.58025e-06
5.21309e-06
-5.71128e-06
3.45203e-06
-5.64828e-06
1.93965e-06
-5.37036e-06
7.03334e-07
-4.87827e-06
-3.91494e-07
-4.28674e-06
-1.33314e-06
-3.6771e-06
-2.15741e-06
-3.10022e-06
-2.84955e-06
-2.59928e-06
-3.38568e-06
-2.26124e-06
-3.73167e-06
-2.20452e-06
-4.05756e-06
-2.44825e-06
-4.98119e-06
-2.56611e-06
-7.49908e-06
-2.28196e-06
-1.09254e-05
-1.74362e-06
-1.33297e-05
-8.99552e-07
-1.3937e-05
2.46499e-07
-1.03987e-05
8.78198e-06
-1.41794e-06
1.74776e-05
-2.3862e-06
9.63394e-06
-3.17089e-06
5.91085e-06
-3.79947e-06
3.99834e-06
-4.28727e-06
2.6341e-06
-4.66045e-06
1.56727e-06
-4.94261e-06
7.21858e-07
-5.14283e-06
2.7496e-08
-5.25836e-06
-5.84582e-07
-5.27712e-06
-1.18973e-06
-5.18344e-06
-1.8319e-06
-4.96548e-06
-2.52662e-06
-4.61746e-06
-3.27052e-06
-4.13971e-06
-4.04943e-06
-3.53799e-06
-4.84348e-06
-2.82278e-06
-5.6298e-06
-2.00833e-06
-6.38394e-06
-1.11177e-06
-7.08142e-06
-1.53779e-07
-7.69829e-06
8.29725e-07
-8.20641e-06
1.8563e-06
-8.51481e-06
2.88643e-06
-8.59888e-06
3.89347e-06
-8.50004e-06
4.85696e-06
-8.25119e-06
5.76299e-06
-7.89558e-06
6.60603e-06
-7.48161e-06
7.3895e-06
-7.05638e-06
8.12376e-06
-6.65762e-06
8.82391e-06
-6.31048e-06
9.50582e-06
-6.02114e-06
1.01798e-05
-5.77107e-06
1.08428e-05
-5.51577e-06
1.14725e-05
-5.19374e-06
1.20317e-05
-4.75658e-06
1.24884e-05
-4.20227e-06
1.28295e-05
-3.56765e-06
1.30585e-05
-2.89775e-06
1.31878e-05
-2.22734e-06
1.32324e-05
-1.57706e-06
1.32042e-05
-9.54383e-07
1.31077e-05
-3.5207e-07
1.29402e-05
2.50356e-07
1.27034e-05
8.58956e-07
1.23873e-05
1.5009e-06
1.19609e-05
2.23623e-06
1.13686e-05
3.16573e-06
1.05377e-05
4.42826e-06
9.40713e-06
6.1752e-06
7.99332e-06
8.48391e-06
6.48243e-06
1.11899e-05
5.25868e-06
1.37679e-05
4.7168e-06
1.54474e-05
4.80809e-06
1.57172e-05
4.99467e-06
1.49304e-05
4.8408e-06
1.40196e-05
4.23986e-06
1.40455e-05
3.21513e-06
1.31637e-05
2.24475e-06
8.93226e-06
2.45638e-06
2.34306e-06
2.3795e-06
-3.7378e-06
2.21571e-06
-6.60761e-06
1.94355e-06
-7.05626e-06
1.65116e-06
-6.2076e-06
1.3613e-06
-4.82348e-06
1.03827e-06
-3.32478e-06
6.10921e-07
-1.933e-06
-3.28358e-08
-6.96313e-07
-1.28706e-06
2.44638e-06
-2.59055e-06
9.13624e-06
-3.92307e-06
1.44941e-05
-5.06201e-06
9.77657e-06
-6.14429e-06
3.68444e-06
-7.10128e-06
1.19342e-06
-7.85669e-06
2.96719e-07
-8.34618e-06
2.30626e-07
-8.50557e-06
7.38053e-07
-8.29795e-06
1.71304e-06
-7.70502e-06
3.06776e-06
-6.75095e-06
4.60079e-06
-5.58404e-06
5.9449e-06
-4.531e-06
6.5979e-06
-3.8697e-06
6.19465e-06
-3.5633e-06
4.90668e-06
-3.39249e-06
3.28122e-06
-3.18132e-06
1.72848e-06
-2.83253e-06
3.5454e-07
-2.34158e-06
-8.82443e-07
-1.78343e-06
-1.89128e-06
-1.26055e-06
-2.68028e-06
-8.27477e-07
-3.28262e-06
-5.21753e-07
-3.6914e-06
-3.84375e-07
-3.86905e-06
-4.38309e-07
-4.00362e-06
-7.54054e-07
-4.66545e-06
-1.08854e-06
-7.16459e-06
-1.20749e-06
-1.08065e-05
-1.151e-06
-1.33862e-05
-7.52677e-07
-1.43354e-05
-1.03787e-07
-1.10476e-05
8.6782e-06
-1.31275e-06
1.87904e-05
-2.2419e-06
1.05631e-05
-2.99679e-06
6.66573e-06
-3.60743e-06
4.60899e-06
-4.09508e-06
3.12175e-06
-4.4857e-06
1.95789e-06
-4.79986e-06
1.03602e-06
-5.04327e-06
2.70902e-07
-5.20227e-06
-4.25582e-07
-5.2616e-06
-1.1304e-06
-5.204e-06
-1.8895e-06
-5.01889e-06
-2.71172e-06
-4.70312e-06
-3.58629e-06
-4.25987e-06
-4.49268e-06
-3.69731e-06
-5.40604e-06
-3.02761e-06
-6.2995e-06
-2.26628e-06
-7.14528e-06
-1.43228e-06
-7.91542e-06
-5.48836e-07
-8.58173e-06
3.56074e-07
-9.11131e-06
1.28847e-06
-9.4472e-06
2.22479e-06
-9.5352e-06
3.13809e-06
-9.41334e-06
4.00959e-06
-9.12269e-06
4.82691e-06
-8.7129e-06
5.58619e-06
-8.24089e-06
6.2929e-06
-7.76309e-06
6.95974e-06
-7.32447e-06
7.60407e-06
-6.9548e-06
8.24355e-06
-6.66061e-06
8.8887e-06
-6.41623e-06
9.53346e-06
-6.16053e-06
1.01456e-05
-5.80585e-06
1.06727e-05
-5.28376e-06
1.10748e-05
-4.6043e-06
1.13431e-05
-3.83593e-06
1.14919e-05
-3.04657e-06
1.15434e-05
-2.27891e-06
1.15181e-05
-1.55168e-06
1.14281e-05
-8.64387e-07
1.12758e-05
-1.99803e-07
1.10603e-05
4.65873e-07
1.0785e-05
1.13425e-06
1.04297e-05
1.85617e-06
9.9456e-06
2.72035e-06
9.25869e-06
3.85264e-06
8.29104e-06
5.39591e-06
7.00977e-06
7.45647e-06
5.51684e-06
9.97684e-06
4.12562e-06
1.25811e-05
3.28012e-06
1.46134e-05
3.22528e-06
1.55022e-05
3.64311e-06
1.52993e-05
3.96193e-06
1.46116e-05
3.90683e-06
1.40747e-05
3.50262e-06
1.44497e-05
2.90548e-06
1.37608e-05
2.93991e-06
8.89782e-06
3.73571e-06
1.54726e-06
3.79773e-06
-3.79982e-06
3.41216e-06
-6.22205e-06
2.86272e-06
-6.50682e-06
2.30168e-06
-5.64656e-06
1.76923e-06
-4.29103e-06
1.22758e-06
-2.78313e-06
5.9358e-07
-1.299e-06
-3.17451e-07
2.14719e-07
-1.47746e-06
3.60638e-06
-2.50723e-06
1.0166e-05
-3.91883e-06
1.59057e-05
-5.43202e-06
1.12898e-05
-6.83639e-06
5.08882e-06
-8.0606e-06
2.41763e-06
-9.00881e-06
1.24493e-06
-9.58779e-06
8.09604e-07
-9.7493e-06
8.99563e-07
-9.46191e-06
1.42565e-06
-8.7054e-06
2.31124e-06
-7.50794e-06
3.40334e-06
-5.9872e-06
4.42415e-06
-4.39987e-06
5.01057e-06
-3.05195e-06
4.84674e-06
-2.06617e-06
3.9209e-06
-1.35212e-06
2.56718e-06
-7.32883e-07
1.10924e-06
-1.45151e-07
-2.33191e-07
4.12463e-07
-1.44006e-06
8.62988e-07
-2.34181e-06
1.15447e-06
-2.97176e-06
1.29406e-06
-3.42222e-06
1.2716e-06
-3.66895e-06
1.0472e-06
-3.64465e-06
7.19829e-07
-3.67626e-06
3.57492e-07
-4.30311e-06
3.69681e-08
-6.84407e-06
-3.33481e-07
-1.0436e-05
-6.45289e-07
-1.30744e-05
-6.50786e-07
-1.43299e-05
-3.82569e-07
-1.13158e-05
8.29563e-06
-1.23909e-06
2.00295e-05
-2.13959e-06
1.14636e-05
-2.86997e-06
7.39611e-06
-3.46771e-06
5.20673e-06
-3.95804e-06
3.61207e-06
-4.36654e-06
2.36639e-06
-4.71112e-06
1.38061e-06
-4.99225e-06
5.52032e-07
-5.1888e-06
-2.29033e-07
-5.2829e-06
-1.0363e-06
-5.25773e-06
-1.91468e-06
-5.1051e-06
-2.86435e-06
-4.82475e-06
-3.86664e-06
-4.42232e-06
-4.89512e-06
-3.90763e-06
-5.92072e-06
-3.29378e-06
-6.91335e-06
-2.59683e-06
-7.84222e-06
-1.83621e-06
-8.67604e-06
-1.03473e-06
-9.38321e-06
-2.14264e-07
-9.93178e-06
6.17026e-07
-1.02785e-05
1.45656e-06
-1.03747e-05
2.27634e-06
-1.02331e-05
3.05921e-06
-9.90556e-06
3.79429e-06
-9.44798e-06
4.47947e-06
-8.92606e-06
5.12135e-06
-8.40497e-06
5.73415e-06
-7.93727e-06
6.3359e-06
-7.55655e-06
6.94447e-06
-7.26919e-06
7.56906e-06
-7.04082e-06
8.1996e-06
-6.79107e-06
8.79373e-06
-6.39998e-06
9.28143e-06
-5.77147e-06
9.61447e-06
-4.93734e-06
9.79503e-06
-4.01649e-06
9.85356e-06
-3.10509e-06
9.8233e-06
-2.24865e-06
9.72779e-06
-1.45617e-06
9.57541e-06
-7.12005e-07
9.36643e-06
9.18079e-09
9.11396e-06
7.18338e-07
8.80541e-06
1.4428e-06
8.40341e-06
2.25817e-06
7.83811e-06
3.28565e-06
7.02103e-06
4.66972e-06
5.88727e-06
6.52966e-06
4.46144e-06
8.8823e-06
2.97255e-06
1.14657e-05
1.84153e-06
1.37122e-05
1.44476e-06
1.50101e-05
1.73201e-06
1.5215e-05
2.19898e-06
1.48324e-05
2.43534e-06
1.43752e-05
2.39821e-06
1.41119e-05
2.25793e-06
1.459e-05
2.09288e-06
1.39259e-05
3.36337e-06
7.62732e-06
4.51444e-06
3.96196e-07
4.67756e-06
-3.96295e-06
4.17117e-06
-5.71565e-06
3.44195e-06
-5.77761e-06
2.71067e-06
-4.91527e-06
2.02566e-06
-3.60603e-06
1.34541e-06
-2.10288e-06
5.83948e-07
-5.37537e-07
-4.43981e-07
1.24265e-06
-1.45116e-06
4.61357e-06
-2.24305e-06
1.09579e-05
-3.66229e-06
1.7325e-05
-5.55035e-06
1.31778e-05
-7.2333e-06
6.77177e-06
-8.69358e-06
3.8779e-06
-9.87201e-06
2.42337e-06
-1.0679e-05
1.61663e-06
-1.10283e-05
1.2488e-06
-1.0862e-05
1.25937e-06
-1.01504e-05
1.59963e-06
-8.90587e-06
2.15882e-06
-7.22336e-06
2.74164e-06
-5.30677e-06
3.09399e-06
-3.43395e-06
2.97391e-06
-1.79919e-06
2.28615e-06
-3.9312e-07
1.16111e-06
7.4168e-07
-2.55575e-08
1.67556e-06
-1.16707e-06
2.15359e-06
-1.91808e-06
2.43935e-06
-2.62758e-06
2.57987e-06
-3.11228e-06
2.60288e-06
-3.44523e-06
2.45288e-06
-3.51895e-06
1.97906e-06
-3.17082e-06
1.37615e-06
-3.07335e-06
9.44808e-07
-3.87177e-06
7.05597e-07
-6.60486e-06
2.64576e-07
-9.99498e-06
-2.43883e-07
-1.25659e-05
-5.28596e-07
-1.40451e-05
-4.24298e-07
-1.14201e-05
7.87133e-06
-1.18581e-06
2.12153e-05
-2.06416e-06
1.2342e-05
-2.77526e-06
8.10721e-06
-3.36553e-06
5.79701e-06
-3.86253e-06
4.10907e-06
-4.29119e-06
2.79505e-06
-4.66593e-06
1.75535e-06
-4.98069e-06
8.66787e-07
-5.21117e-06
1.45264e-09
-5.33661e-06
-9.1086e-07
-5.34301e-06
-1.90828e-06
-5.22519e-06
-2.98217e-06
-4.98555e-06
-4.10628e-06
-4.63142e-06
-5.24925e-06
-4.17341e-06
-6.37873e-06
-3.62466e-06
-7.46211e-06
-3.00073e-06
-8.46615e-06
-2.31986e-06
-9.35691e-06
-1.60301e-06
-1.01001e-05
-8.72804e-07
-1.0662e-05
-1.38923e-07
-1.10124e-05
6.02495e-07
-1.11161e-05
1.33312e-06
-1.09638e-05
2.03653e-06
-1.0609e-05
2.70136e-06
-1.01128e-05
3.32764e-06
-9.55235e-06
3.92083e-06
-8.99815e-06
4.49541e-06
-8.51184e-06
5.06757e-06
-8.12871e-06
5.6533e-06
-7.85492e-06
6.25861e-06
-7.64612e-06
6.8692e-06
-7.40166e-06
7.435e-06
-6.96578e-06
7.86851e-06
-6.20498e-06
8.11347e-06
-5.1823e-06
8.19057e-06
-4.0936e-06
8.15195e-06
-3.06646e-06
8.04081e-06
-2.13751e-06
7.87957e-06
-1.29494e-06
7.67119e-06
-5.03619e-07
7.422e-06
2.58373e-07
7.13818e-06
1.00216e-06
6.79462e-06
1.78635e-06
6.32999e-06
2.72281e-06
5.65582e-06
3.95982e-06
4.68116e-06
5.64439e-06
3.38626e-06
7.82456e-06
1.87292e-06
1.03956e-05
5.5425e-07
1.27844e-05
-1.79109e-07
1.44455e-05
-2.07957e-07
1.5039e-05
1.05431e-07
1.49016e-05
3.51615e-07
1.45862e-05
4.24111e-07
1.43027e-05
4.71338e-07
1.40646e-05
7.81492e-07
1.42799e-05
1.19128e-06
1.35161e-05
3.70848e-06
5.11013e-06
5.05722e-06
-9.52544e-07
5.0821e-06
-3.98783e-06
4.45296e-06
-5.08651e-06
3.63326e-06
-4.95791e-06
2.83234e-06
-4.11434e-06
2.08522e-06
-2.85891e-06
1.34884e-06
-1.3665e-06
5.33638e-07
2.77662e-07
-4.5759e-07
2.23388e-06
-1.3158e-06
5.47178e-06
-1.88319e-06
1.15253e-05
-3.15428e-06
1.85961e-05
-5.3435e-06
1.5367e-05
-7.19448e-06
8.62275e-06
-8.77426e-06
5.45768e-06
-1.01048e-05
3.75396e-06
-1.1143e-05
2.65479e-06
-1.1809e-05
1.91482e-06
-1.20131e-05
1.46348e-06
-1.16805e-05
1.26697e-06
-1.07765e-05
1.25485e-06
-9.3369e-06
1.30203e-06
-7.50702e-06
1.26411e-06
-5.53741e-06
1.0043e-06
-3.70832e-06
4.5706e-07
-2.2132e-06
-3.34016e-07
-1.05104e-06
-1.18772e-06
-9.11008e-08
-2.12701e-06
7.10368e-07
-2.71955e-06
1.27694e-06
-3.19415e-06
1.67948e-06
-3.51481e-06
1.98558e-06
-3.75133e-06
2.13902e-06
-3.67239e-06
1.79737e-06
-2.82917e-06
1.30394e-06
-2.57992e-06
1.05979e-06
-3.62762e-06
9.4873e-07
-6.4938e-06
5.67802e-07
-9.61405e-06
3.09092e-08
-1.20291e-05
-3.73354e-07
-1.36409e-05
-3.49284e-07
-1.14441e-05
7.52204e-06
-1.14568e-06
2.2361e-05
-2.00544e-06
1.32017e-05
-2.7017e-06
8.80347e-06
-3.28961e-06
6.38491e-06
-3.7973e-06
4.61676e-06
-4.2485e-06
3.24625e-06
-4.65348e-06
2.16034e-06
-5.00005e-06
1.21335e-06
-5.26322e-06
2.6462e-07
-5.41869e-06
-7.55388e-07
-5.4581e-06
-1.86887e-06
-5.37924e-06
-3.06102e-06
-5.18655e-06
-4.29897e-06
-4.88821e-06
-5.54759e-06
-4.4947e-06
-6.77224e-06
-4.0184e-06
-7.93841e-06
-3.4736e-06
-9.01095e-06
-2.87663e-06
-9.95388e-06
-2.24551e-06
-1.07312e-05
-1.59878e-06
-1.13087e-05
-9.53401e-07
-1.16578e-05
-3.08782e-07
-1.17608e-05
3.39531e-07
-1.16121e-05
9.76054e-07
-1.12455e-05
1.58652e-06
-1.07233e-05
2.17222e-06
-1.01381e-05
2.73377e-06
-9.5597e-06
3.28492e-06
-9.06299e-06
3.83664e-06
-8.68044e-06
4.40108e-06
-8.41935e-06
4.97953e-06
-8.22458e-06
5.55389e-06
-7.97602e-06
6.07177e-06
-7.48366e-06
6.43341e-06
-6.56662e-06
6.57241e-06
-5.32129e-06
6.53608e-06
-4.05728e-06
6.40274e-06
-2.93312e-06
6.2203e-06
-1.95507e-06
6.00331e-06
-1.07795e-06
5.75471e-06
-2.55022e-07
5.48329e-06
5.29792e-07
5.17637e-06
1.30908e-06
4.78954e-06
2.17317e-06
4.23949e-06
3.27286e-06
3.43807e-06
4.76124e-06
2.27162e-06
6.81084e-06
8.34489e-07
9.26169e-06
-5.65252e-07
1.17954e-05
-1.50976e-06
1.37289e-05
-1.83337e-06
1.47691e-05
-1.7896e-06
1.49952e-05
-1.77209e-06
1.48841e-05
-1.85624e-06
1.46703e-05
-1.85971e-06
1.43062e-05
-1.57097e-06
1.37759e-05
-6.56285e-07
1.33652e-05
6.71673e-07
1.21881e-05
3.89757e-06
1.88423e-06
4.92898e-06
-1.98395e-06
4.78278e-06
-3.84163e-06
4.13871e-06
-4.44243e-06
3.37191e-06
-4.19112e-06
2.6228e-06
-3.36522e-06
1.90766e-06
-2.14377e-06
1.19383e-06
-6.52672e-07
4.01812e-07
1.06968e-06
-4.59179e-07
3.09487e-06
-1.15643e-06
6.16904e-06
-1.51452e-06
1.18834e-05
-2.45734e-06
1.95389e-05
-4.82754e-06
1.77372e-05
-6.71737e-06
1.05126e-05
-8.26402e-06
7.00433e-06
-9.56646e-06
5.05639e-06
-1.06375e-05
3.72585e-06
-1.14393e-05
2.7166e-06
-1.1905e-05
1.92922e-06
-1.19736e-05
1.33551e-06
-1.15966e-05
8.77917e-07
-1.07678e-05
4.73171e-07
-9.54601e-06
4.23359e-08
-8.08893e-06
-4.52783e-07
-6.5947e-06
-1.03716e-06
-5.23874e-06
-1.68999e-06
-4.07298e-06
-2.35348e-06
-3.19495e-06
-3.00504e-06
-2.37003e-06
-3.54446e-06
-1.58007e-06
-3.98411e-06
-8.3647e-07
-4.25841e-06
-1.98801e-07
-4.389e-06
3.38384e-07
-4.20957e-06
4.66406e-07
-2.95719e-06
5.93282e-07
-2.7068e-06
8.47721e-07
-3.88206e-06
9.24894e-07
-6.57097e-06
6.35433e-07
-9.32459e-06
1.7072e-07
-1.15643e-05
-2.21095e-07
-1.32491e-05
-2.53203e-07
-1.1412e-05
7.26884e-06
-1.11388e-06
2.34748e-05
-1.95663e-06
1.40445e-05
-2.64178e-06
9.48862e-06
-3.23198e-06
6.9751e-06
-3.75424e-06
5.13902e-06
-4.23028e-06
3.72229e-06
-4.66597e-06
2.59602e-06
-5.04405e-06
1.59144e-06
-5.33852e-06
5.59084e-07
-5.52478e-06
-5.69126e-07
-5.60026e-06
-1.79339e-06
-5.56539e-06
-3.09589e-06
-5.42584e-06
-4.43852e-06
-5.18979e-06
-5.78365e-06
-4.86686e-06
-7.09517e-06
-4.46804e-06
-8.33723e-06
-4.00582e-06
-9.47317e-06
-3.4941e-06
-1.04656e-05
-2.94774e-06
-1.12775e-05
-2.38147e-06
-1.1875e-05
-1.8082e-06
-1.2231e-05
-1.23713e-06
-1.23318e-05
-6.65548e-07
-1.21836e-05
-8.94277e-08
-1.18216e-05
4.842e-07
-1.12969e-05
1.04499e-06
-1.06988e-05
1.58991e-06
-1.01046e-05
2.12834e-06
-9.60142e-06
2.66282e-06
-9.21492e-06
3.20065e-06
-8.95717e-06
3.73745e-06
-8.76138e-06
4.25238e-06
-8.49095e-06
4.69729e-06
-7.92856e-06
4.97302e-06
-6.84236e-06
4.99807e-06
-5.34634e-06
4.85173e-06
-3.91094e-06
4.64151e-06
-2.7229e-06
4.40965e-06
-1.72321e-06
4.15923e-06
-8.27523e-07
3.89635e-06
7.85932e-09
3.61421e-06
8.11929e-07
3.27635e-06
1.64695e-06
2.83224e-06
2.61728e-06
2.14312e-06
3.96199e-06
1.12726e-06
5.7771e-06
-1.64829e-07
8.10292e-06
-1.47859e-06
1.05754e-05
-2.47915e-06
1.2796e-05
-3.02018e-06
1.42699e-05
-3.1927e-06
1.49416e-05
-3.40305e-06
1.52056e-05
-3.79266e-06
1.52737e-05
-4.09138e-06
1.49691e-05
-4.00928e-06
1.42241e-05
-3.34237e-06
1.3109e-05
-1.78319e-06
1.1806e-05
7.35651e-07
9.66931e-06
3.31533e-06
-6.95449e-07
4.03112e-06
-2.69974e-06
3.86313e-06
-3.67365e-06
3.35097e-06
-3.93028e-06
2.74039e-06
-3.58054e-06
2.11802e-06
-2.74286e-06
1.4953e-06
-1.52104e-06
8.5275e-07
-1.0122e-08
1.74102e-07
1.74833e-06
-5.05736e-07
3.77471e-06
-1.04432e-06
6.70762e-06
-1.22335e-06
1.20624e-05
-1.70467e-06
2.00202e-05
-4.09043e-06
2.0123e-05
-5.90102e-06
1.23232e-05
-7.3063e-06
8.40961e-06
-8.44497e-06
6.19506e-06
-9.3659e-06
4.64677e-06
-1.00732e-05
3.42392e-06
-1.05119e-05
2.36787e-06
-1.06219e-05
1.44553e-06