# vtk DataFile Version 2.0
fixedWalls
ASCII
DATASET POLYDATA
POINTS 84 float
0 0 0 0 0 0.1 0 0.05 0.1 0 0.05
0 0 0.1 0.1 0 0.1 0 0 0.15 0.1
0 0.15 0 0 0.2 0.1 0 0.2 0 0
0.25 0.1 0 0.25 0 0 0.3 0.1 0 0.3
0 0 0.35 0.1 0 0.35 0 0 0.4 0.1
0 0.4 0 0 0.45 0.1 0 0.45 0 0
0.5 0.1 0 0.5 0 0 0.55 0.1 0 0.55
0 0 0.6 0.1 0 0.6 0 0 0.65 0.1
0 0.65 0 0 0.7 0.1 0 0.7 0 0
0.75 0.1 0 0.75 0 0 0.8 0.1 0 0.8
0 0 0.85 0.1 0 0.85 0 0 0.9 0.1
0 0.9 0 0 0.95 0.1 0 0.95 0 0
1 0.1 0 1 0 1 0 0 1 0.05
0 1 0.05 0.1 1 0 0.1 1 0.1 0
1 0.1 0.1 1 0.15 0 1 0.15 0.1 1
0.2 0 1 0.2 0.1 1 0.25 0 1 0.25
0.1 1 0.3 0 1 0.3 0.1 1 0.35 0
1 0.35 0.1 1 0.4 0 1 0.4 0.1 1
0.45 0 1 0.45 0.1 1 0.5 0 1 0.5
0.1 1 0.55 0 1 0.55 0.1 1 0.6 0
1 0.6 0.1 1 0.65 0 1 0.65 0.1 1
0.7 0 1 0.7 0.1 1 0.75 0 1 0.75
0.1 1 0.8 0 1 0.8 0.1 1 0.85 0
1 0.85 0.1 1 0.9 0 1 0.9 0.1 1
0.95 0 1 0.95 0.1 1 1 0 1 1
0.1 
POLYGONS 40 200
4 0 1 2 3 4 3 2 4 5 4
5 4 6 7 4 7 6 8 9 4
9 8 10 11 4 11 10 12 13 4
13 12 14 15 4 15 14 16 17 4
17 16 18 19 4 19 18 20 21 4
21 20 22 23 4 23 22 24 25 4
25 24 26 27 4 27 26 28 29 4
29 28 30 31 4 31 30 32 33 4
33 32 34 35 4 35 34 36 37 4
37 36 38 39 4 39 38 40 41 4
42 43 44 45 4 43 46 47 44 4
46 48 49 47 4 48 50 51 49 4
50 52 53 51 4 52 54 55 53 4
54 56 57 55 4 56 58 59 57 4
58 60 61 59 4 60 62 63 61 4
62 64 65 63 4 64 66 67 65 4
66 68 69 67 4 68 70 71 69 4
70 72 73 71 4 72 74 75 73 4
74 76 77 75 4 76 78 79 77 4
78 80 81 79 4 80 82 83 81 
CELL_DATA 40
FIELD attributes 6
patchID 1 40 float
2 2 2 2 2 2 2 2 2 2 2
2 2 2 2 2 2 2 2 2 2
2 2 2 2 2 2 2 2 2 2
2 2 2 2 2 2 2 2 2 
alphat 1 40 float
0 0 0 0 0 0 0 0 0 0 0
0 0 0 0 0 0 0 0 0 0
0 0 0 0 0 0 0 0 0 0
0 0 0 0 0 0 0 0 0 
p 1 40 float
8.32667e-17 -0.492597 -0.985196 -1.4778 -1.9704 -2.46299 -2.95559 -3.44819 -3.94079 -4.43339 -4.92599
-5.41859 -5.91119 -6.40379 -6.89639 -7.38899 -7.88159 -8.37419 -8.86679 -9.35939 3.11901e-12
-0.492597 -0.985196 -1.4778 -1.9704 -2.46299 -2.95559 -3.44819 -3.94079 -4.43339 -4.92599
-5.41859 -5.91119 -6.40379 -6.89639 -7.38899 -7.88159 -8.37419 -8.86679 -9.35939 
T 1 40 float
280.042 280 280 280 280 280 280 280 280 280 280
280 280 280 280 280 280 280 280 280 280.042
280 280 280 280 280 280 280 280 280 280
280 280 280 280 280 280 280 280 280 
p_rgh 1 40 float
0.246297 0.246302 0.246302 0.246302 0.246302 0.246302 0.246302 0.246302 0.246302 0.246302 0.246302
0.246302 0.246302 0.246302 0.246302 0.246302 0.246302 0.246302 0.246302 0.246302 0.246297
0.246302 0.246302 0.246302 0.246302 0.246302 0.246302 0.246302 0.246302 0.246302 0.246302
0.246302 0.246302 0.246302 0.246302 0.246302 0.246302 0.246302 0.246302 0.246302 
U 3 40 float
0 0 0 0 0 0 0 0 0 0 0
0 0 0 0 0 0 0 0 0 0
0 0 0 0 0 0 0 0 0 0
0 0 0 0 0 0 0 0 0 0
0 0 0 0 0 0 0 0 0 0
0 0 0 0 0 0 0 0 0 0
0 0 0 0 0 0 0 0 0 0
0 0 0 0 0 0 0 0 0 0
0 0 0 0 0 0 0 0 0 0
0 0 0 0 0 0 0 0 0 0
0 0 0 0 0 0 0 0 0 0
0 0 0 0 0 0 0 0 0 
POINT_DATA  84
FIELD attributes 5
alphat 1 84 float
0 0 0 0 0 0 0 0 0 0 0
0 0 0 0 0 0 0 0 0 0
0 0 0 0 0 0 0 0 0 0
0 0 0 0 0 0 0 0 0 0
0 0 0 0 0 0 0 0 0 0
0 0 0 0 0 0 0 0 0 0
0 0 0 0 0 0 0 0 0 0
0 0 0 0 0 0 0 0 0 0
0 0 0 
p 1 84 float
8.32667e-17 8.32667e-17 -0.246299 -0.246299 -0.738896 -0.738896 -1.2315 -1.2315 -1.7241 -1.7241 -2.2167
-2.2167 -2.70929 -2.70929 -3.20189 -3.20189 -3.69449 -3.69449 -4.18709 -4.18709 -4.67969
-4.67969 -5.17229 -5.17229 -5.66489 -5.66489 -6.15749 -6.15749 -6.65009 -6.65009 -7.14269
-7.14269 -7.63529 -7.63529 -8.12789 -8.12789 -8.62049 -8.62049 -9.11309 -9.11309 -9.35939
-9.35939 3.11901e-12 -0.246299 -0.246299 3.11901e-12 -0.738896 -0.738896 -1.2315 -1.2315 -1.7241
-1.7241 -2.2167 -2.2167 -2.70929 -2.70929 -3.20189 -3.20189 -3.69449 -3.69449 -4.18709
-4.18709 -4.67969 -4.67969 -5.17229 -5.17229 -5.66489 -5.66489 -6.15749 -6.15749 -6.65009
-6.65009 -7.14269 -7.14269 -7.63529 -7.63529 -8.12789 -8.12789 -8.62049 -8.62049 -9.11309
-9.11309 -9.35939 -9.35939 
T 1 84 float
280.042 280.042 280.021 280.021 280 280 280 280 280 280 280
280 280 280 280 280 280 280 280 280 280
280 280 280 280 280 280 280 280 280 280
280 280 280 280 280 280 280 280 280 280
280 280.042 280.021 280.021 280.042 280 280 280 280 280
280 280 280 280 280 280 280 280 280 280
280 280 280 280 280 280 280 280 280 280
280 280 280 280 280 280 280 280 280 280
280 280 280 
p_rgh 1 84 float
0.246297 0.246297 0.2463 0.2463 0.246302 0.246302 0.246302 0.246302 0.246302 0.246302 0.246302
0.246302 0.246302 0.246302 0.246302 0.246302 0.246302 0.246302 0.246302 0.246302 0.246302
0.246302 0.246302 0.246302 0.246302 0.246302 0.246302 0.246302 0.246302 0.246302 0.246302
0.246302 0.246302 0.246302 0.246302 0.246302 0.246302 0.246302 0.246302 0.246302 0.246302
0.246302 0.246297 0.2463 0.2463 0.246297 0.246302 0.246302 0.246302 0.246302 0.246302
0.246302 0.246302 0.246302 0.246302 0.246302 0.246302 0.246302 0.246302 0.246302 0.246302
0.246302 0.246302 0.246302 0.246302 0.246302 0.246302 0.246302 0.246302 0.246302 0.246302
0.246302 0.246302 0.246302 0.246302 0.246302 0.246302 0.246302 0.246302 0.246302 0.246302
0.246302 0.246302 0.246302 
U 3 84 float
0 0 0 0 0 0 0 0 0 0 0
0 0 0 0 0 0 0 0 0 0
0 0 0 0 0 0 0 0 0 0
0 0 0 0 0 0 0 0 0 0
0 0 0 0 0 0 0 0 0 0
0 0 0 0 0 0 0 0 0 0
0 0 0 0 0 0 0 0 0 0
0 0 0 0 0 0 0 0 0 0
0 0 0 0 0 0 0 0 0 0
0 0 0 0 0 0 0 0 0 0
0 0 0 0 0 0 0 0 0 0
0 0 0 0 0 0 0 0 0 0
0 0 0 0 0 0 0 0 0 0
0 0 0 0 0 0 0 0 0 0
0 0 0 0 0 0 0 0 0 0
0 0 0 0 0 0 0 0 0 0
0 0 0 0 0 0 0 0 0 0
0 0 0 0 0 0 0 0 0 0
0 0 0 0 0 0 0 0 0 0
0 0 0 0 0 0 0 0 0 0
0 0 0 0 0 0 0 0 0 0
0 0 0 0 0 0 0 0 0 0
0 0 0 0 0 0 0 0 0 0
0 0 0 0 0 0 0 0 0 0
0 0 0 0 0 0 0 0 0 0
0 
