/*--------------------------------*- C++ -*----------------------------------*\
| =========                 |                                                 |
| \\      /  F ield         | OpenFOAM: The Open Source CFD Toolbox           |
|  \\    /   O peration     | Version:  4.1                                   |
|   \\  /    A nd           | Web:      www.OpenFOAM.org                      |
|    \\/     M anipulation  |                                                 |
\*---------------------------------------------------------------------------*/
FoamFile
{
    version     2.0;
    format      ascii;
    class       volScalarField;
    location    "1640";
    object      mag(U);
}
// * * * * * * * * * * * * * * * * * * * * * * * * * * * * * * * * * * * * * //

dimensions      [0 1 -1 0 0 0 0];

internalField   nonuniform List<scalar> 
5000
(
0.00574219
0.00788345
0.0106135
0.0126329
0.0141526
0.0153005
0.0161449
0.016708
0.0169786
0.0169164
0.0164839
0.0156211
0.0142734
0.0124063
0.0100452
0.00733942
0.00465659
0.00260846
0.00421488
0.00699672
0.00988993
0.0125867
0.0150058
0.0171348
0.0189741
0.0205305
0.0218156
0.022845
0.0236355
0.0242048
0.0245702
0.0247491
0.0247625
0.0246311
0.024371
0.0239977
0.0235257
0.0229688
0.0223404
0.0216536
0.020921
0.0201547
0.0193659
0.018565
0.0177609
0.0169618
0.0161739
0.0154021
0.0146486
0.0139119
0.0131812
0.0124163
0.0114917
0.0101356
0.00784739
0.00311199
0.00318364
0.00472862
0.00626401
0.00752915
0.00862655
0.00961673
0.0105288
0.0113743
0.0121544
0.0128641
0.0134948
0.014036
0.0144763
0.0148047
0.0150101
0.0150812
0.0150078
0.0147818
0.0144013
0.0138705
0.013199
0.0124001
0.0114905
0.0104887
0.00941415
0.00828651
0.0071251
0.00594881
0.0047764
0.00362695
0.00252445
0.00149509
0.000619772
0.000603572
0.00129001
0.00199855
0.00268781
0.00338104
0.00409754
0.00483267
0.00552824
0.00599894
0.00565072
0.0053548
0.00827057
0.00799426
0.00969553
0.0113786
0.0127977
0.0139096
0.0147228
0.0152409
0.0154502
0.0153135
0.0148316
0.0139602
0.0126711
0.0109767
0.00899159
0.00704722
0.00574549
0.005627
0.00684735
0.00899849
0.0114607
0.0138939
0.0161608
0.0182091
0.020019
0.0215862
0.0229151
0.0240157
0.0249004
0.0255824
0.0260749
0.0263908
0.0265397
0.0265328
0.026385
0.0261111
0.0257252
0.0252413
0.0246735
0.0240358
0.0233422
0.0226056
0.0218384
0.0210514
0.0202537
0.0194517
0.0186491
0.0178449
0.0170322
0.0161941
0.0152967
0.0142754
0.0130286
0.0115551
0.0102397
0.00812392
0.00471402
0.00470049
0.00600959
0.00735392
0.00857781
0.00968775
0.0107
0.0116237
0.0124609
0.013208
0.0138584
0.0144037
0.0148348
0.0151418
0.0153158
0.0153457
0.0152284
0.0149646
0.0145537
0.0140014
0.0133176
0.0125162
0.0116141
0.0106302
0.00958451
0.00849703
0.00738762
0.00627543
0.00517895
0.00411625
0.00311162
0.00220476
0.00153086
0.00144434
0.0019448
0.00268237
0.00345885
0.00419681
0.0048472
0.00535368
0.00564025
0.00557755
0.00510093
0.00723164
0.0116317
0.00940911
0.00936081
0.0101164
0.0111003
0.0120066
0.0127169
0.0131831
0.0133756
0.0132701
0.0128828
0.0122034
0.0112619
0.0101651
0.00915186
0.00857631
0.00853787
0.00890591
0.00984134
0.0113753
0.0132351
0.0151862
0.0170867
0.0188595
0.0204652
0.0218857
0.0231155
0.0241562
0.0250134
0.0256942
0.0262056
0.0265546
0.026749
0.0267926
0.0266956
0.0264703
0.0261279
0.0256807
0.0251414
0.0245231
0.0238394
0.0231032
0.0223272
0.0215223
0.0206979
0.0198605
0.0190131
0.0181538
0.0172744
0.0163583
0.0153809
0.0143205
0.0132189
0.0124098
0.012592
0.0124021
0.00862675
0.00563087
0.00558714
0.00644721
0.00751467
0.00858723
0.00960538
0.0105491
0.0114091
0.0121787
0.0128504
0.0134164
0.0138683
0.0141975
0.0143957
0.0144533
0.0143671
0.0141382
0.0137676
0.0132618
0.0126319
0.0118926
0.0110613
0.0101578
0.00920242
0.00821622
0.00721999
0.00623445
0.00528081
0.00438352
0.00357698
0.00291493
0.00249026
0.00242386
0.00269707
0.00318572
0.00375441
0.00430753
0.00476695
0.00504533
0.00502732
0.00462514
0.00511665
0.0099537
0.0145698
0.011237
0.0098579
0.009601
0.00996187
0.0105009
0.0109842
0.0113086
0.0114312
0.0113437
0.011094
0.0107253
0.0103448
0.0101299
0.0102692
0.0108027
0.0113907
0.0118985
0.0126633
0.013741
0.0150527
0.0164868
0.0179458
0.0193596
0.020683
0.0218894
0.0229646
0.0239026
0.0247017
0.0253624
0.0258856
0.0262715
0.0265215
0.0266317
0.026604
0.0264461
0.0261659
0.0257721
0.0252753
0.0246875
0.0240212
0.0232893
0.0225045
0.0216786
0.020822
0.0199429
0.0190462
0.0181334
0.0172012
0.0162432
0.0152567
0.0142714
0.0134507
0.0133526
0.0147297
0.0157616
0.0128205
0.00793313
0.00626502
0.00623003
0.00683364
0.00767679
0.00857958
0.00946327
0.0102914
0.0110446
0.0117099
0.012277
0.0127366
0.0130794
0.0132976
0.0133818
0.0133287
0.0131431
0.0128252
0.0123826
0.0118265
0.0111718
0.0104364
0.00963999
0.00880358
0.00794867
0.00709695
0.00627021
0.00549078
0.00478335
0.00417724
0.00370627
0.00341043
0.00332983
0.00345553
0.00373261
0.00408298
0.00442661
0.0046795
0.0047474
0.00453525
0.00424875
0.00592808
0.0124232
0.0168725
0.0128952
0.0107403
0.0096945
0.00938833
0.00942726
0.00955213
0.00963404
0.00962821
0.00955784
0.00951219
0.00959529
0.00997452
0.0107723
0.011938
0.0131874
0.0140483
0.0146594
0.015282
0.015992
0.0168132
0.0177299
0.0187056
0.0196991
0.0206744
0.0216045
0.0224706
0.0232602
0.0239654
0.0245803
0.0250995
0.0255171
0.0258273
0.026022
0.0260887
0.0260292
0.0258461
0.0255432
0.0251274
0.0246077
0.0239952
0.0233019
0.0225402
0.0217228
0.0208614
0.0199664
0.0190466
0.0181084
0.0171567
0.016198
0.0152514
0.0143868
0.0138464
0.0143055
0.016482
0.0183699
0.0162632
0.0111885
0.00772984
0.00685465
0.00683033
0.00724353
0.00786358
0.00855811
0.0092555
0.00991641
0.0105171
0.011041
0.0114757
0.0118101
0.0120353
0.0121416
0.0121231
0.0119902
0.0117417
0.0113845
0.0109292
0.0103894
0.00978146
0.00912393
0.00843674
0.00774057
0.00705629
0.00640451
0.00580459
0.00527546
0.00483378
0.00448955
0.00426323
0.00416182
0.00418212
0.00429383
0.00445065
0.00459213
0.00464042
0.0045086
0.00416131
0.00419695
0.00694213
0.014501
0.0186718
0.0142858
0.011718
0.0101484
0.00925412
0.00874508
0.008422
0.00817856
0.00799172
0.0079456
0.00817581
0.00884116
0.0100876
0.0118456
0.013801
0.0154721
0.0165017
0.0171862
0.0176721
0.0180601
0.0184337
0.0188474
0.0193232
0.0198592
0.0204395
0.0210444
0.0216547
0.0222541
0.0228291
0.0233682
0.0238606
0.0242953
0.0246595
0.0249467
0.025124
0.0251863
0.0251304
0.0249534
0.0246567
0.0242451
0.023727
0.0231126
0.022414
0.021644
0.0208159
0.0199427
0.0190371
0.0181114
0.0171789
0.0162583
0.0153864
0.0146592
0.0143615
0.0152165
0.0179012
0.0203961
0.0190883
0.0143871
0.0099558
0.00801968
0.00743227
0.00734464
0.00755423
0.00792984
0.00838344
0.00885892
0.00931989
0.00974142
0.0101055
0.0103977
0.0106077
0.0107252
0.0107415
0.0106744
0.0105191
0.0102802
0.00996447
0.00958118
0.00914199
0.00866105
0.00815451
0.00763988
0.0071348
0.00665558
0.00621791
0.00583221
0.00550419
0.00523835
0.00504063
0.00491322
0.00484966
0.00483065
0.00482555
0.0047875
0.00464611
0.00432558
0.00388879
0.00435894
0.00801342
0.0163332
0.0201016
0.0154366
0.0126659
0.0107701
0.00940862
0.00837593
0.00756257
0.00692971
0.00652347
0.00654509
0.00713583
0.0084684
0.010565
0.0131294
0.0156663
0.0175535
0.0187486
0.019471
0.0198206
0.0199135
0.0198728
0.0198049
0.0197838
0.0198481
0.0200082
0.020257
0.0205788
0.0209553
0.0213687
0.0218023
0.0222404
0.0226678
0.0230679
0.0234287
0.0237238
0.0239243
0.0240167
0.0239937
0.0238486
0.0235811
0.0231953
0.0226989
0.0221025
0.0214192
0.0206634
0.0198507
0.0189974
0.0181216
0.017244
0.0163937
0.0156199
0.0150346
0.0149405
0.0160668
0.0190573
0.0219876
0.0214112
0.0172849
0.0125444
0.0096334
0.0084245
0.00789652
0.00767248
0.00765329
0.0077658
0.00795696
0.00818669
0.00842562
0.00865245
0.00885084
0.00901014
0.00912108
0.00917199
0.00919109
0.00916566
0.00909395
0.00897322
0.00880192
0.00858146
0.00831711
0.00801805
0.00769602
0.0073656
0.00703885
0.00672773
0.00643773
0.00617621
0.00594631
0.00574944
0.00558598
0.00544805
0.00532122
0.00518229
0.00499213
0.00468468
0.0041924
0.00370773
0.00467421
0.00911285
0.0180137
0.0212491
0.0163851
0.0135334
0.0114402
0.00972346
0.00822941
0.0069255
0.00586797
0.00524108
0.00541278
0.00645006
0.00844526
0.0112734
0.0144699
0.0173934
0.019442
0.0207833
0.0215133
0.0217231
0.0215383
0.0211099
0.0205864
0.0200863
0.0196868
0.0194254
0.0193103
0.0193314
0.0194695
0.0197026
0.0200088
0.0203677
0.0207606
0.0211693
0.0215736
0.0219693
0.0223009
0.0225485
0.0226948
0.0227239
0.022628
0.0224054
0.0220601
0.0216006
0.0210391
0.0203908
0.0196733
0.0189064
0.0181128
0.0173198
0.0165639
0.0159033
0.0154578
0.0155332
0.01684
0.0199941
0.023231
0.0233084
0.0198461
0.0151382
0.0115952
0.00972659
0.00874592
0.0081536
0.00775236
0.00748421
0.0073186
0.0072252
0.00718241
0.00717633
0.0071988
0.00724732
0.00731997
0.00740696
0.00754438
0.0077066
0.00787429
0.00802302
0.00812989
0.00817871
0.00816199
0.00808158
0.00794503
0.00776516
0.00755461
0.00732208
0.00708543
0.00684882
0.00661872
0.00639871
0.00618683
0.00597633
0.00575517
0.00550365
0.00518673
0.00473983
0.00409987
0.00360632
0.0050989
0.0102261
0.019582
0.0221718
0.0171638
0.0143
0.0120899
0.0101064
0.0082216
0.00644983
0.00494745
0.00415285
0.00464376
0.006165
0.0087155
0.0121008
0.0157878
0.0189008
0.0211506
0.0226007
0.0233145
0.0233807
0.0229307
0.0221383
0.0211885
0.02024
0.0194049
0.0187459
0.0182854
0.0180185
0.0179247
0.0179773
0.0181483
0.0184123
0.018747
0.0191333
0.0195491
0.0200026
0.0204363
0.0208206
0.0211285
0.0213368
0.0214261
0.0213867
0.0212167
0.0209207
0.0205091
0.019997
0.0194032
0.0187503
0.0180646
0.0173782
0.0167333
0.0161936
0.0158821
0.0160987
0.0175217
0.0207419
0.0241855
0.0248371
0.0220511
0.0176052
0.0136809
0.0112458
0.00986124
0.00888405
0.00816769
0.00756406
0.00704217
0.0065795
0.00616799
0.00581254
0.00553079
0.00535393
0.00532348
0.00545332
0.00576648
0.00621195
0.00672171
0.00722635
0.00767064
0.00801939
0.00825581
0.00837905
0.00839835
0.00832605
0.00818524
0.00799417
0.00776827
0.0075218
0.0072635
0.00699786
0.00672472
0.00643905
0.0061304
0.00578093
0.00535788
0.004797
0.00403798
0.00357919
0.00560307
0.0113467
0.0210588
0.0229109
0.0177989
0.0149577
0.0126793
0.0104949
0.00828378
0.00607287
0.00410955
0.00329737
0.00433159
0.00628157
0.00921681
0.0129963
0.0169375
0.0202405
0.0226745
0.0241998
0.0248783
0.0247979
0.0240936
0.0229597
0.0216163
0.0202605
0.0190358
0.0180263
0.0172648
0.0167483
0.0164525
0.0163441
0.0163882
0.0165536
0.0168144
0.0171502
0.0175428
0.0179819
0.0184769
0.0189614
0.0194028
0.0197735
0.0200425
0.0201904
0.0202066
0.02009
0.0198471
0.0194914
0.019042
0.0185229
0.0179629
0.0173979
0.0168737
0.0164573
0.0162719
0.0166072
0.0181029
0.021324
0.0248968
0.0260418
0.0239129
0.0198529
0.0157799
0.0128663
0.0110782
0.00983467
0.00886238
0.00795761
0.00715392
0.00637179
0.00559181
0.0048197
0.00408189
0.00347036
0.0031705
0.00333972
0.00397083
0.00486065
0.00582772
0.00674765
0.00754351
0.00817673
0.00863366
0.00891333
0.00903381
0.00902577
0.00891435
0.00872522
0.00847984
0.00819555
0.00788482
0.00755518
0.00720908
0.00684362
0.00645007
0.00601197
0.00549826
0.00484557
0.00399836
0.00362413
0.0061704
0.0124755
0.0224584
0.0234953
0.0183078
0.0155002
0.0131816
0.0108468
0.00836694
0.00574344
0.00327224
0.00276482
0.00448586
0.0067548
0.00992287
0.0138577
0.0179032
0.0214287
0.0240108
0.0255828
0.0262105
0.025982
0.0250341
0.0235815
0.0218805
0.0201665
0.0186126
0.0173188
0.016322
0.0156149
0.015165
0.0149297
0.0148666
0.0149391
0.0151186
0.0153846
0.0157228
0.0161175
0.0166024
0.0171194
0.0176429
0.0181358
0.0185595
0.0188814
0.0190801
0.019146
0.0190796
0.018891
0.0185977
0.0182239
0.0178002
0.0173643
0.0169647
0.01667
0.0166023
0.0170392
0.018579
0.0217598
0.0254014
0.0269614
0.0254459
0.0218384
0.0177914
0.0145344
0.0123489
0.0108397
0.00966881
0.00860581
0.00761944
0.00664801
0.0056543
0.00459589
0.00345879
0.00222574
0.00106205
0.00124665
0.00258995
0.00406218
0.00548622
0.00677226
0.00784421
0.00867612
0.00927153
0.00964388
0.00982114
0.00983545
0.00971863
0.00950122
0.00920957
0.00886509
0.00848386
0.00807654
0.00764828
0.00719856
0.0067206
0.00619956
0.00560621
0.00487966
0.00397604
0.0037419
0.00679402
0.0136158
0.0237905
0.0239433
0.0186975
0.0159175
0.013574
0.0111304
0.00844013
0.00544754
0.00234815
0.00267071
0.00502128
0.00754113
0.0106925
0.0145856
0.0187731
0.0224666
0.0251602
0.0267542
0.0273183
0.0269416
0.0257619
0.0240144
0.0219946
0.0199781
0.0181655
0.0166661
0.0155123
0.0146842
0.014135
0.0138107
0.0136618
0.0136486
0.0137426
0.013925
0.0141845
0.0145111
0.0149174
0.0154168
0.0159639
0.0165248
0.0170611
0.0175276
0.017891
0.0181302
0.0182373
0.0182166
0.0180825
0.0178579
0.0175736
0.0172686
0.0169928
0.0168155
0.0168571
0.0173825
0.0189489
0.0220652
0.0257292
0.0276294
0.0266712
0.0235392
0.0196432
0.0161818
0.0136476
0.0118634
0.0105097
0.00933538
0.00825286
0.00720544
0.00615686
0.00507059
0.0039364
0.00276858
0.0017166
0.00158915
0.00277119
0.00432081
0.00588416
0.00731287
0.00851843
0.00945919
0.0101281
0.0105408
0.0107279
0.0107263
0.0105727
0.0103017
0.00994339
0.00952262
0.00905857
0.00856466
0.0080485
0.00751182
0.00694993
0.00634991
0.00568501
0.0048993
0.0039716
0.00393523
0.00747177
0.0147706
0.0250597
0.0242652
0.0189664
0.0161952
0.0138341
0.0113208
0.008487
0.00524633
0.00131459
0.00303555
0.00584776
0.00835139
0.0114192
0.0152876
0.0195446
0.0233573
0.0261275
0.0277203
0.02821
0.0276866
0.026288
0.024271
0.0219739
0.0197152
0.0177198
0.0160983
0.0148675
0.0139853
0.0133858
0.013003
0.0127828
0.0126864
0.012689
0.0127764
0.0129418
0.0131819
0.0134955
0.0139251
0.0144378
0.0150146
0.0156148
0.0161879
0.016688
0.0170816
0.0173501
0.0174898
0.0175102
0.0174316
0.017284
0.0171066
0.01695
0.0168839
0.0170266
0.0176308
0.0192138
0.0222539
0.0259054
0.0280767
0.0276112
0.0249492
0.0212841
0.017743
0.0149361
0.0128846
0.0113475
0.0100794
0.00895338
0.0079052
0.00690309
0.00593416
0.00501578
0.00420737
0.00364544
0.00357259
0.00422891
0.00544325
0.00688257
0.0082927
0.00951711
0.0104784
0.0111541
0.0115556
0.0117127
0.0116639
0.0114488
0.0111049
0.0106654
0.0101578
0.00960384
0.00901908
0.00841319
0.00778979
0.00714609
0.00647123
0.00574157
0.00490913
0.00399147
0.0042078
0.00820355
0.0159413
0.0262672
0.0244684
0.0191111
0.0163229
0.0139511
0.0114087
0.00850622
0.00505915
0.000361952
0.0037184
0.00658652
0.0091474
0.0121386
0.0159401
0.0202228
0.0241092
0.0269206
0.0284894
0.0288948
0.0282274
0.0266239
0.0243643
0.0218342
0.0193964
0.0172954
0.0156321
0.0143951
0.0135123
0.0128966
0.0124723
0.0121852
0.0120016
0.0119042
0.011886
0.0119467
0.0120883
0.0123096
0.012648
0.0130934
0.0136419
0.014262
0.0149027
0.015508
0.0160317
0.0164433
0.0167297
0.0168939
0.0169526
0.016934
0.0168771
0.0168326
0.0168702
0.0171061
0.0177819
0.0193773
0.0223383
0.0259526
0.028332
0.0282911
0.0260727
0.0226824
0.0191601
0.016169
0.0138805
0.0121598
0.0107964
0.00964574
0.00863115
0.00771932
0.00690467
0.00620488
0.00565886
0.00534049
0.00536328
0.00588663
0.00690296
0.00820298
0.00953723
0.0107198
0.0116481
0.0122858
0.0126384
0.0127348
0.0126144
0.012319
0.0118884
0.0113583
0.0107582
0.0101118
0.0094364
0.00874301
0.00803671
0.00731618
0.00657242
0.00578523
0.00491733
0.00404896
0.00456479
0.00898993
0.0171275
0.0274115
0.0245628
0.0191362
0.0162935
0.0138936
0.0113435
0.00841602
0.00470394
0.0013257
0.0044025
0.00734435
0.00989852
0.0128032
0.0165322
0.0208132
0.024733
0.0275496
0.0290713
0.0293828
0.0285746
0.0267812
0.0243079
0.0215912
0.0190389
0.0169066
0.0152717
0.0140828
0.0132338
0.0126189
0.012158
0.0118009
0.0115227
0.0113154
0.0111819
0.011129
0.0111642
0.0112912
0.0115281
0.0119022
0.0124026
0.0130135
0.0136907
0.0143723
0.0150013
0.0155352
0.015951
0.0162445
0.0164279
0.0165274
0.0165811
0.0166398
0.0167731
0.0170951
0.0178374
0.0194448
0.0223303
0.0258907
0.0284222
0.0287367
0.0269213
0.0238218
0.020389
0.0172985
0.014823
0.0129309
0.0114664
0.0102893
0.00931265
0.0084946
0.00782179
0.0072973
0.00693529
0.00677993
0.00691077
0.0074488
0.00841162
0.00964091
0.0109099
0.0120321
0.0128982
0.0134672
0.0137432
0.0137555
0.013545
0.0131556
0.0126293
0.0120035
0.0113096
0.0105725
0.00981063
0.00903604
0.00825457
0.0074658
0.00666212
0.00582674
0.00493701
0.00415997
0.00500809
0.00983077
0.018327
0.0284898
0.024564
0.019032
0.016101
0.0136788
0.0111388
0.00822133
0.00450009
0.00223114
0.00515231
0.00803612
0.0105534
0.0133855
0.0170559
0.0213227
0.0252405
0.0280263
0.0294767
0.0296846
0.0287391
0.0267716
0.024115
0.0212605
0.0186578
0.016562
0.015011
0.0139053
0.0131062
0.0124958
0.0119955
0.0115629
0.0111824
0.0108572
0.0105999
0.0104261
0.0103494
0.0103786
0.0105252
0.0108228
0.011267
0.011856
0.0125504
0.0132871
0.0140001
0.0146364
0.0151633
0.0155696
0.0158631
0.0160677
0.0162209
0.0163731
0.0165938
0.0169958
0.0178013
0.0194235
0.0222418
0.0257384
0.0283728
0.0289743
0.0275117
0.0246978
0.0213995
0.0182818
0.0156789
0.0136436
0.012081
0.0108711
0.00992403
0.00918704
0.00863277
0.00824731
0.00802662
0.00800645
0.00826052
0.00888748
0.00988654
0.0111052
0.0123304
0.0133869
0.0141724
0.0146505
0.0148284
0.0147385
0.0144242
0.0139315
0.0133044
0.0125818
0.0117964
0.0109741
0.0101338
0.00928809
0.00844307
0.00759855
0.00674761
0.00587663
0.00498574
0.00434432
0.00553797
0.0107244
0.0195354
0.029499
0.024473
0.0188329
0.0157735
0.0133287
0.0108199
0.00793498
0.00436399
0.00297923
0.00582497
0.00862114
0.0110922
0.0138741
0.0175112
0.0217602
0.0256442
0.0283629
0.0297172
0.0298114
0.0287317
0.0266067
0.0237989
0.0208574
0.0182668
0.0162657
0.0148372
0.0138314
0.0130844
0.0124748
0.0119303
0.0114174
0.0109301
0.0104815
0.0100945
0.00979336
0.00959851
0.00952459
0.00958263
0.00980739
0.0101981
0.0107628
0.0114673
0.012247
0.013029
0.0137508
0.0143715
0.0148739
0.0152621
0.0155583
0.0157991
0.0160351
0.0163357
0.0168124
0.0176796
0.0193219
0.0220845
0.0255131
0.0282074
0.0290296
0.0278633
0.0253143
0.0221742
0.0190855
0.0164147
0.0142767
0.0126322
0.0113895
0.0104636
0.00979304
0.00933666
0.00906592
0.00896629
0.00908117
0.00947821
0.0102405
0.0113263
0.0125666
0.0137567
0.0147389
0.0154265
0.015794
0.015856
0.0156495
0.0152212
0.0146196
0.0138903
0.0130735
0.0122025
0.0113037
0.0103965
0.00949324
0.00859982
0.00771553
0.00683291
0.00594109
0.00508281
0.00462285
0.0061524
0.0116675
0.020747
0.0304368
0.0243012
0.0185561
0.0153392
0.0128743
0.0104197
0.00757757
0.00419771
0.00356637
0.00638769
0.00909061
0.0115167
0.0142735
0.0179063
0.0221371
0.0259565
0.0285715
0.0298043
0.0297743
0.0285637
0.026298
0.0233737
0.0203974
0.0178777
0.0160171
0.0147331
0.0138295
0.0131288
0.0125138
0.0119216
0.0113274
0.0107325
0.0101586
0.00963825
0.0092041
0.00888335
0.00869716
0.00866147
0.0088147
0.00915697
0.00970281
0.0104199
0.01124
0.0120825
0.0128772
0.0135768
0.0141595
0.0146275
0.0150018
0.0153189
0.0156297
0.0160034
0.016551
0.0174803
0.0191501
0.021871
0.0252311
0.0279477
0.0289266
0.0279966
0.0256806
0.0227058
0.0196861
0.017001
0.0148065
0.0131081
0.0118436
0.0109374
0.0103243
0.00995245
0.00978286
0.00979894
0.0100598
0.0106313
0.0115607
0.0127531
0.0140186
0.0151635
0.0160533
0.0166223
0.0168597
0.0167897
0.016455
0.0159061
0.0151934
0.014364
0.0134587
0.0125113
0.0115482
0.0105886
0.00964439
0.00872057
0.00781456
0.00691583
0.00602668
0.00524396
0.00500538
0.00684584
0.0126554
0.0219549
0.0313022
0.0240587
0.0182176
0.0148318
0.012356
0.00997775
0.00716751
0.00396829
0.00402942
0.00684283
0.00945651
0.0118434
0.0145994
0.0182552
0.022465
0.026188
0.0286627
0.0297491
0.0295845
0.0282462
0.025858
0.022854
0.0198965
0.0175005
0.0158124
0.0146794
0.0138708
0.0132076
0.0125826
0.011943
0.0112706
0.0105717
0.00987462
0.00921976
0.0086472
0.00819003
0.00787676
0.00773367
0.00780842
0.00810707
0.00864449
0.00938533
0.0102514
0.0111526
0.0120118
0.0127777
0.0134268
0.0139607
0.0144007
0.0147839
0.0151613
0.0156029
0.0162192
0.0172128
0.0189197
0.0216144
0.024908
0.027613
0.0286868
0.0279312
0.0258093
0.0229945
0.0200701
0.0174156
0.0152109
0.0134943
0.0122292
0.0113517
0.0107965
0.0105053
0.0104338
0.0105757
0.0110092
0.0117881
0.0128966
0.0141864
0.015454
0.016526
0.0172958
0.0177219
0.0178097
0.0175935
0.017122
0.016449
0.0156266
0.0147027
0.0137183
0.012707
0.0116947
0.0107
0.00973386
0.0087992
0.00788854
0.00699128
0.00614309
0.00548709
0.00548996
0.00760841
0.0136814
0.0231512
0.0320961
0.0237536
0.0178321
0.014284
0.0118167
0.00953417
0.00671699
0.00370218
0.00442503
0.00721315
0.00973997
0.0120927
0.0148707
0.0185727
0.0227531
0.0263461
0.0286451
0.0295614
0.0292528
0.0277906
0.0252998
0.0222566
0.0193707
0.0171428
0.0156441
0.0146566
0.0139312
0.0132977
0.0126619
0.0119795
0.0112369
0.0104423
0.00962833
0.00884077
0.0081249
0.00751746
0.00705408
0.00677824
0.00675604
0.00701445
0.00755898
0.00834312
0.00926872
0.010232
0.0111508
0.0119727
0.0126757
0.013263
0.0137578
0.0141982
0.0146359
0.0151414
0.0158261
0.0168886
0.0186441
0.0213291
0.0245588
0.0272197
0.0283282
0.0276842
0.0257135
0.0230454
0.020232
0.0176438
0.015472
0.0137764
0.0125399
0.01171
0.0112232
0.0110198
0.0110556
0.011357
0.0119995
0.0130045
0.0142768
0.0156262
0.016852
0.0178104
0.0184268
0.0186842
0.0186042
0.0182306
0.0176174
0.0168208
0.0158942
0.0148852
0.0138346
0.012775
0.0117315
0.0107214
0.00975375
0.0088264
0.00792506
0.00705958
0.0063037
0.00581764
0.00606349
0.008428
0.0147366
0.0243278
0.0328213
0.0233928
0.0174094
0.0137208
0.0112896
0.00911348
0.00623622
0.00348836
0.00478991
0.00751523
0.00995559
0.0122806
0.015105
0.0188711
0.0230066
0.0264342
0.0285243
0.0292495
0.0287891
0.0272086
0.0246383
0.0215989
0.0188359
0.0168091
0.0155022
0.014647
0.0139926
0.0133847
0.0127415
0.0120259
0.0112255
0.0103485
0.00942914
0.0085145
0.00765221
0.00687899
0.00623392
0.00578399
0.00563245
0.00584555
0.006422
0.00728065
0.00828616
0.00931833
0.0102929
0.0111615
0.0119071
0.012537
0.0130772
0.0135676
0.0140607
0.0146281
0.0153828
0.0165214
0.0183392
0.0210308
0.0241974
0.0267809
0.027864
0.0272696
0.0254056
0.0228663
0.0201725
0.0176789
0.0155784
0.0139431
0.0127693
0.0120135
0.0116153
0.0115165
0.0116863
0.0121951
0.0130816
0.0143065
0.0156987
0.0170461
0.0181722
0.0189702
0.0193987
0.0194637
0.0192014
0.0186637
0.0179086
0.0169938
0.0159729
0.0148926
0.0137924
0.0127035
0.0116494
0.0106452
0.0096957
0.00878831
0.00791776
0.00713427
0.00652016
0.0062275
0.00670675
0.00929106
0.0158105
0.0254767
0.0334827
0.0229827
0.0169544
0.0131573
0.0107923
0.00871387
0.00573804
0.00339681
0.00512014
0.00775013
0.010108
0.0124184
0.0153175
0.0191591
0.0232258
0.0264522
0.0283036
0.0288204
0.0282034
0.0265126
0.0238892
0.0209011
0.018306
0.0164997
0.015375
0.0146354
0.0140429
0.0134609
0.012819
0.0120842
0.0112428
0.0103022
0.00929478
0.00826419
0.00725711
0.00630656
0.00544501
0.00475862
0.00442019
0.00457855
0.00522675
0.00620331
0.00731193
0.0084178
0.00944239
0.0103475
0.0111247
0.0117874
0.0123652
0.0128999
0.0134452
0.0140746
0.0149036
0.0161281
0.018024
0.0207372
0.0238368
0.0263051
0.0273019
0.0266965
0.0248963
0.0224669
0.0198969
0.0175205
0.0155252
0.013988
0.0129134
0.0122635
0.0119813
0.0120142
0.0123691
0.0131331
0.0142855
0.0156876
0.0171245
0.0183927
0.0193556
0.0199471
0.0201569
0.0200113
0.0195585
0.0188563
0.0179654
0.0169436
0.0158434
0.01471
0.0135807
0.0124846
0.0114427
0.0104662
0.00954875
0.00867445
0.00788475
0.00723362
0.00679071
0.00670046
0.00739992
0.0101832
0.0168914
0.0265907
0.0340864
0.0225286
0.0164695
0.0126026
0.0103311
0.00831149
0.00522801
0.00340627
0.00539279
0.00791108
0.010201
0.0125193
0.0155238
0.0194412
0.0234073
0.0263969
0.0279845
0.0282802
0.0275049
0.025716
0.0230716
0.0201819
0.0177928
0.0162116
0.0152494
0.0146102
0.0140751
0.013525
0.0128977
0.0121622
0.011301
0.0103214
0.00924979
0.00812244
0.00698203
0.00585653
0.00475921
0.00376377
0.00312842
0.00320913
0.00400081
0.00514848
0.00637488
0.00754903
0.00861105
0.00953927
0.0103364
0.0110227
0.0116315
0.0122065
0.0128028
0.0134963
0.0144069
0.0157308
0.017722
0.0204679
0.0234874
0.0257954
0.0266431
0.0259694
0.0241942
0.0218576
0.0194142
0.0171739
0.015314
0.013911
0.0129725
0.0124636
0.0123313
0.0125401
0.0131615
0.014215
0.0156007
0.0170978
0.0184825
0.0195893
0.0203289
0.0206748
0.0206435
0.0202779
0.0196347
0.0187757
0.0177621
0.0166508
0.0154922
0.0143287
0.0131946
0.0121161
0.0111105
0.0101791
0.00929955
0.00850876
0.00784966
0.00736222
0.00710603
0.0072191
0.00812364
0.01109
0.0179673
0.0276637
0.0346399
0.0220326
0.0159581
0.0120672
0.0099122
0.00787934
0.0047049
0.00345447
0.00557858
0.0079988
0.0102489
0.0126034
0.0157387
0.0197177
0.0235442
0.0262633
0.0275674
0.0276346
0.0267036
0.0248331
0.0222038
0.0194624
0.0173009
0.0159349
0.0151119
0.0145622
0.0140857
0.0135779
0.012982
0.0122673
0.0114121
0.0104237
0.00931959
0.0081274
0.00688346
0.00561314
0.00431296
0.00297912
0.00185161
0.0017763
0.0028462
0.00419879
0.00552596
0.00674271
0.00781864
0.00875194
0.00955614
0.0102571
0.0108914
0.0115042
0.0121523
0.0129151
0.0139184
0.0153587
0.0174622
0.0202434
0.0231555
0.0252469
0.0258819
0.0250886
0.0233065
0.0210497
0.0187364
0.0166497
0.0149529
0.0137184
0.012953
0.0126223
0.0126805
0.0131393
0.0140842
0.0154317
0.016967
0.018446
0.0196753
0.0205443
0.0210116
0.0210849
0.0208023
0.0202184
0.0193955
0.0183965
0.0172816
0.0161052
0.0149145
0.0137483
0.0126372
0.0116032
0.0106556
0.00977205
0.00897954
0.00832163
0.00782534
0.00751885
0.00745571
0.00776539
0.00886014
0.0119981
0.019027
0.0286915
0.035151
0.0214906
0.0154262
0.011568
0.00954896
0.00740434
0.00417693
0.0034905
0.00567781
0.00803873
0.0102795
0.0126942
0.015973
0.0199838
0.0236268
0.0260457
0.0270526
0.0268891
0.0258101
0.0238799
0.0213083
0.0187517
0.0168259
0.0156578
0.0149599
0.0144894
0.0140754
0.0136211
0.0130726
0.0123989
0.0115845
0.0106237
0.00952712
0.00831643
0.00702099
0.00566855
0.00427152
0.00279845
0.00113282
0.000516124
0.00204565
0.00350452
0.00484555
0.00604159
0.00709328
0.00800863
0.00880588
0.00951259
0.0101679
0.0108181
0.0115217
0.0123634
0.0134756
0.0150521
0.0172798
0.0200823
0.0228385
0.0246454
0.0250057
0.0240509
0.0222396
0.0200559
0.0178788
0.0159629
0.0144561
0.0134237
0.0128687
0.0127576
0.0130676
0.0138802
0.0151657
0.0167239
0.0182787
0.0196117
0.0205904
0.0211608
0.021324
0.0211144
0.0205852
0.0197984
0.0188178
0.0177055
0.0165188
0.0153085
0.0141175
0.01298
0.011922
0.0109593
0.0100761
0.00928029
0.0086263
0.00813441
0.00781822
0.00770032
0.00782739
0.00832238
0.00959413
0.0128956
0.0200604
0.0296712
0.0356278
0.0208898
0.0148816
0.0111262
0.00925655
0.00689541
0.00367854
0.00349703
0.0057253
0.00807406
0.0103227
0.0128104
0.0162295
0.0202291
0.023644
0.0257381
0.0264409
0.0260506
0.0248366
0.0228724
0.0203995
0.0180546
0.0163932
0.0153697
0.0147776
0.01439
0.014049
0.0136647
0.0131856
0.0125801
0.0118291
0.0109248
0.00987238
0.00868867
0.00740114
0.00604364
0.00465165
0.00326444
0.00196257
0.00121821
0.00193803
0.00314238
0.00436772
0.00550576
0.00648306
0.0073501
0.00812132
0.00882389
0.0094974
0.0101874
0.0109554
0.0118919
0.0131349
0.0148663
0.0172141
0.0199932
0.0225182
0.0239649
0.0239966
0.0228523
0.0210015
0.0188911
0.0168597
0.0151333
0.0138442
0.0130484
0.0127436
0.0129039
0.0135649
0.01478
0.0163504
0.01797
0.0193912
0.0204602
0.0211137
0.0213484
0.0211977
0.0207146
0.0199609
0.0190007
0.0178968
0.0167077
0.0154865
0.0142792
0.0131237
0.012049
0.0110752
0.0101989
0.00940143
0.00875383
0.00827169
0.00796151
0.00783218
0.00790065
0.00820827
0.00887538
0.0103132
0.0137726
0.0210596
0.0306018
0.0360777
0.0202087
0.0143314
0.0107567
0.00903401
0.00639229
0.00327228
0.00350175
0.00578074
0.00814387
0.0103956
0.0129584
0.0165011
0.0204388
0.0235837
0.0253355
0.025734
0.025127
0.0237961
0.0218285
0.0194885
0.0174298
0.0159452
0.0150543
0.0145647
0.0142634
0.0140046
0.0137046
0.0133146
0.0128029
0.0121484
0.0113397
0.0103774
0.00927467
0.00805845
0.00676977
0.00546443
0.00421969
0.0031626
0.00251831
0.00263953
0.00331552
0.00421946
0.0051464
0.00600583
0.00680684
0.00755701
0.00824725
0.00893714
0.009672
0.010517
0.0115691
0.0129666
0.0148622
0.0172965
0.0199705
0.0221613
0.0231718
0.0228366
0.0214917
0.0196027
0.0175734
0.0157014
0.0141865
0.0131457
0.0126247
0.0126195
0.0131376
0.0142616
0.015829
0.0175064
0.0190014
0.0201423
0.0208579
0.0211439
0.0210356
0.0205874
0.0198623
0.0189241
0.0178349
0.016653
0.0154319
0.0142192
0.0130557
0.0119735
0.0109958
0.0101302
0.00934118
0.00870491
0.00823583
0.0079377
0.00781321
0.00786692
0.00811172
0.00858642
0.00941259
0.0110078
0.0146213
0.0220183
0.0314833
0.036507
0.019421
0.0137772
0.0104579
0.00885135
0.0059619
0.00302504
0.00356022
0.00589143
0.00826078
0.0104946
0.0131306
0.0167719
0.0205948
0.0234339
0.024834
0.0249364
0.0241295
0.0227057
0.0207584
0.0186513
0.0168026
0.0154814
0.0147126
0.0143201
0.0141069
0.0139373
0.0137335
0.0134494
0.0130541
0.0125247
0.0118469
0.0110165
0.0100426
0.00894868
0.00777531
0.00658286
0.00545616
0.00450644
0.00386313
0.00369363
0.00394359
0.00447008
0.00512564
0.00581122
0.00649827
0.0071823
0.00786053
0.00857455
0.00937376
0.0103298
0.0115426
0.0131274
0.0151569
0.0175453
0.0199276
0.0216711
0.0222267
0.0215131
0.019973
0.0180584
0.0161247
0.0144311
0.0131548
0.0123992
0.0122029
0.0125766
0.0135853
0.0151413
0.016872
0.0184288
0.0196229
0.0203781
0.0206939
0.02061
0.0201854
0.0194846
0.0185715
0.0175062
0.0163446
0.0151383
0.0139348
0.0127762
0.0116974
0.0107248
0.00987365
0.0091088
0.00848811
0.00803622
0.00775298
0.00763831
0.00769277
0.00791781
0.00832446
0.00895171
0.00992502
0.0116708
0.0154359
0.0229328
0.0323167
0.0369203
0.0185013
0.0132138
0.010208
0.00865927
0.00565389
0.00296755
0.00371747
0.00606459
0.00840649
0.0105976
0.0133084
0.0170197
0.0206773
0.0231832
0.024232
0.024055
0.0230723
0.021582
0.0197261
0.0178387
0.0161748
0.0150011
0.0143421
0.0140402
0.0139138
0.0138367
0.0137364
0.0135704
0.0133089
0.0129286
0.0124121
0.0117511
0.0109489
0.0100229
0.00900685
0.00795321
0.00693432
0.00604047
0.0053684
0.00500334
0.00497227
0.00517809
0.00555775
0.00604179
0.00659401
0.00720062
0.00786305
0.00861371
0.00950221
0.0105947
0.0119666