/*--------------------------------*- C++ -*----------------------------------*\
| =========                 |                                                 |
| \\      /  F ield         | OpenFOAM: The Open Source CFD Toolbox           |
|  \\    /   O peration     | Version:  4.1                                   |
|   \\  /    A nd           | Web:      www.OpenFOAM.org                      |
|    \\/     M anipulation  |                                                 |
\*---------------------------------------------------------------------------*/
FoamFile
{
    version     2.0;
    format      ascii;
    class       volScalarField;
    location    "1640";
    object      p_rgh;
}
// * * * * * * * * * * * * * * * * * * * * * * * * * * * * * * * * * * * * * //

dimensions      [0 2 -2 0 0 0 0];

internalField   nonuniform List<scalar> 
5000
(
0.0491835
0.0491676
0.0491537
0.0491424
0.0491342
0.0491293
0.0491286
0.0491327
0.0491426
0.0491593
0.0491835
0.0492154
0.0492539
0.0492965
0.0493389
0.049375
0.0494001
0.0494155
0.0494214
0.0494149
0.0493956
0.049367
0.0493321
0.0492935
0.0492533
0.0492133
0.0491749
0.049139
0.0491063
0.0490773
0.049052
0.0490304
0.0490124
0.048998
0.0489867
0.0489784
0.0489727
0.0489693
0.0489679
0.0489681
0.0489697
0.0489724
0.048976
0.0489803
0.0489852
0.0489904
0.0489959
0.0490015
0.0490073
0.0490132
0.049019
0.0490246
0.04903
0.0490354
0.0490413
0.0490424
0.049037
0.0490243
0.0490129
0.0490025
0.0489925
0.048983
0.0489737
0.0489649
0.0489567
0.0489495
0.0489436
0.0489394
0.0489371
0.0489373
0.04894
0.0489458
0.0489545
0.0489662
0.0489806
0.0489975
0.0490163
0.0490364
0.0490571
0.0490779
0.0490981
0.0491174
0.0491351
0.0491512
0.0491653
0.0491772
0.0491871
0.0491951
0.0492016
0.0492074
0.0492127
0.0492176
0.0492223
0.0492267
0.0492307
0.0492336
0.0492347
0.0492326
0.0492309
0.0492347
0.0491716
0.04917
0.0491656
0.0491596
0.0491538
0.0491493
0.0491475
0.0491496
0.0491566
0.0491698
0.0491909
0.0492197
0.0492553
0.0492952
0.049335
0.049369
0.0493934
0.0494102
0.0494175
0.0494115
0.0493938
0.049367
0.049334
0.0492973
0.049259
0.049221
0.0491845
0.0491507
0.04912
0.0490929
0.0490697
0.0490502
0.0490344
0.0490219
0.0490124
0.0490056
0.0490014
0.0489993
0.0489992
0.0490006
0.0490034
0.0490072
0.049012
0.0490174
0.0490233
0.0490297
0.0490363
0.0490431
0.04905
0.0490569
0.0490633
0.0490681
0.0490688
0.0490614
0.0490477
0.0490402
0.0490543
0.0490534
0.0490476
0.0490403
0.0490322
0.0490237
0.049015
0.0490063
0.0489981
0.0489907
0.0489843
0.0489793
0.0489762
0.0489752
0.0489766
0.0489807
0.0489877
0.0489981
0.0490116
0.0490278
0.0490462
0.0490661
0.0490869
0.049108
0.0491287
0.0491487
0.0491674
0.0491846
0.0492001
0.0492139
0.0492259
0.0492362
0.0492452
0.0492532
0.0492601
0.0492657
0.0492701
0.0492737
0.0492764
0.0492786
0.0492804
0.0492798
0.0492618
0.0492334
0.0491332
0.0491535
0.0491602
0.0491583
0.0491524
0.0491456
0.0491408
0.0491401
0.0491449
0.0491566
0.0491761
0.0492033
0.0492373
0.0492756
0.0493138
0.0493466
0.049372
0.0493896
0.049397
0.0493918
0.0493753
0.0493498
0.049318
0.0492825
0.0492455
0.0492087
0.0491734
0.0491406
0.0491109
0.0490848
0.0490623
0.0490436
0.0490286
0.0490172
0.0490089
0.0490036
0.049001
0.0490006
0.0490023
0.0490057
0.0490105
0.0490164
0.0490231
0.0490305
0.0490384
0.0490465
0.0490549
0.0490633
0.0490716
0.0490797
0.0490868
0.0490913
0.0490888
0.049071
0.0490361
0.0490135
0.0490407
0.0490647
0.0490642
0.0490585
0.04905
0.04904
0.0490292
0.0490181
0.0490072
0.048997
0.0489879
0.0489805
0.0489752
0.0489724
0.0489725
0.0489758
0.0489826
0.0489929
0.0490065
0.0490229
0.0490417
0.0490621
0.0490835
0.0491051
0.0491265
0.049147
0.0491664
0.0491842
0.0492003
0.0492147
0.0492273
0.0492381
0.0492475
0.0492558
0.0492628
0.0492685
0.049273
0.0492765
0.0492792
0.0492812
0.0492826
0.0492815
0.0492621
0.0492074
0.0490844
0.0491274
0.0491446
0.0491465
0.0491409
0.049133
0.0491267
0.0491245
0.049128
0.0491381
0.0491557
0.0491809
0.0492131
0.04925
0.0492871
0.0493197
0.0493461
0.0493645
0.0493716
0.0493666
0.0493507
0.049326
0.0492951
0.0492606
0.0492248
0.0491892
0.0491553
0.0491239
0.0490955
0.0490706
0.0490493
0.0490316
0.0490176
0.049007
0.0489997
0.0489953
0.0489935
0.0489942
0.048997
0.0490016
0.0490077
0.049015
0.0490231
0.049032
0.0490413
0.0490509
0.0490606
0.0490703
0.0490798
0.0490887
0.0490964
0.0491006
0.0490956
0.0490695
0.0490164
0.0489758
0.0490039
0.0490558
0.0490663
0.0490621
0.0490532
0.049042
0.0490295
0.0490165
0.0490039
0.048992
0.0489815
0.0489728
0.0489664
0.0489628
0.0489622
0.048965
0.0489714
0.0489817
0.0489954
0.0490123
0.0490317
0.0490529
0.0490752
0.0490979
0.0491203
0.0491418
0.0491622
0.049181
0.0491981
0.0492133
0.0492267
0.0492382
0.0492484
0.0492572
0.0492645
0.0492704
0.049275
0.0492785
0.049281
0.0492825
0.0492828
0.0492794
0.0492545
0.049174
0.0490363
0.0490998
0.049125
0.0491298
0.0491248
0.0491166
0.0491096
0.0491064
0.0491086
0.049117
0.0491324
0.0491553
0.0491855
0.0492209
0.0492573
0.0492907
0.0493176
0.049336
0.0493429
0.0493377
0.0493218
0.0492974
0.049267
0.0492333
0.0491984
0.0491641
0.0491316
0.0491016
0.0490747
0.0490512
0.0490312
0.0490147
0.0490018
0.0489923
0.048986
0.0489825
0.0489817
0.0489833
0.0489871
0.0489927
0.0489999
0.0490083
0.0490176
0.0490276
0.049038
0.0490487
0.0490594
0.04907
0.0490802
0.0490896
0.0490974
0.0491013
0.0490945
0.0490628
0.0489964
0.0489387
0.0489587
0.0490242
0.0490579
0.0490561
0.0490476
0.0490358
0.0490224
0.0490084
0.0489946
0.0489816
0.04897
0.0489603
0.0489529
0.0489483
0.048947
0.0489491
0.0489551
0.0489653
0.0489793
0.0489968
0.049017
0.0490393
0.0490629
0.0490868
0.0491106
0.0491335
0.0491552
0.0491753
0.0491937
0.0492101
0.0492246
0.0492372
0.0492484
0.0492579
0.0492658
0.0492721
0.049277
0.0492805
0.0492828
0.0492835
0.0492822
0.0492755
0.049244
0.0491405
0.0489922
0.0490738
0.0491044
0.0491111
0.0491067
0.0490984
0.049091
0.0490872
0.0490883
0.0490948
0.0491077
0.049128
0.0491561
0.0491903
0.0492266
0.0492606
0.049288
0.0493061
0.0493124
0.0493067
0.0492902
0.0492653
0.0492348
0.0492013
0.0491671
0.0491338
0.0491026
0.0490741
0.0490487
0.0490266
0.0490079
0.0489926
0.0489807
0.0489724
0.0489672
0.0489649
0.0489652
0.048968
0.0489729
0.0489796
0.048988
0.0489975
0.049008
0.0490191
0.0490306
0.0490422
0.0490538
0.049065
0.0490757
0.0490853
0.0490931
0.0490964
0.0490885
0.0490535
0.0489784
0.0489059
0.0489125
0.0489815
0.0490348
0.0490441
0.0490363
0.0490245
0.0490107
0.0489961
0.0489815
0.0489676
0.048955
0.0489441
0.0489355
0.0489299
0.0489275
0.048929
0.0489345
0.0489446
0.048959
0.0489772
0.0489985
0.0490221
0.0490471
0.0490727
0.0490981
0.0491227
0.0491459
0.0491676
0.0491874
0.0492052
0.0492211
0.0492352
0.0492474
0.0492579
0.0492666
0.0492735
0.0492789
0.0492826
0.0492847
0.0492845
0.0492811
0.0492704
0.0492318
0.0491074
0.0489527
0.0490503
0.0490843
0.0490919
0.0490879
0.0490798
0.0490723
0.049068
0.049068
0.0490729
0.0490832
0.0491006
0.0491265
0.0491597
0.0491964
0.0492305
0.0492583
0.0492762
0.0492818
0.049275
0.0492572
0.0492312
0.0491998
0.0491661
0.0491322
0.0490997
0.0490696
0.0490423
0.0490183
0.0489976
0.0489801
0.048966
0.0489551
0.0489477
0.0489435
0.0489424
0.048944
0.0489481
0.0489543
0.0489624
0.0489721
0.048983
0.0489948
0.0490071
0.0490197
0.0490323
0.0490447
0.0490565
0.0490676
0.0490774
0.049085
0.049088
0.0490794
0.0490428
0.0489627
0.0488782
0.0488687
0.048933
0.049
0.0490251
0.0490215
0.0490101
0.0489962
0.0489813
0.048966
0.0489512
0.0489374
0.0489253
0.0489155
0.0489086
0.0489052
0.0489059
0.0489109
0.0489209
0.0489357
0.0489547
0.0489772
0.0490023
0.049029
0.0490563
0.0490835
0.0491099
0.0491349
0.0491583
0.0491797
0.0491992
0.0492167
0.0492322
0.0492458
0.0492574
0.0492671
0.0492749
0.0492809
0.0492849
0.0492867
0.0492855
0.0492796
0.0492646
0.0492183
0.0490741
0.0489177
0.0490295
0.0490652
0.049073
0.0490692
0.0490612
0.0490537
0.0490494
0.0490489
0.0490523
0.0490599
0.0490743
0.049098
0.0491305
0.0491674
0.0492018
0.0492299
0.0492476
0.0492524
0.0492441
0.0492244
0.0491964
0.0491636
0.0491291
0.0490951
0.0490631
0.049034
0.049008
0.0489853
0.0489658
0.0489495
0.0489363
0.0489263
0.0489195
0.0489161
0.048916
0.0489188
0.048924
0.0489316
0.0489412
0.0489524
0.0489648
0.048978
0.0489918
0.0490056
0.0490194
0.0490327
0.0490452
0.0490567
0.0490667
0.0490743
0.0490771
0.0490683
0.0490314
0.0489492
0.0488557
0.0488295
0.0488833
0.0489572
0.0489982
0.0490035
0.0489939
0.0489803
0.0489651
0.0489493
0.0489337
0.0489188
0.0489054
0.0488942
0.0488859
0.0488814
0.0488813
0.0488858
0.0488957
0.0489108
0.0489306
0.0489543
0.048981
0.0490095
0.0490387
0.0490678
0.0490961
0.0491229
0.049148
0.0491713
0.0491924
0.0492115
0.0492286
0.0492436
0.0492565
0.0492674
0.0492763
0.049283
0.0492875
0.0492892
0.0492868
0.0492781
0.0492581
0.0492037
0.0490406
0.0488871
0.0490114
0.0490473
0.0490547
0.0490508
0.0490427
0.0490354
0.0490314
0.0490312
0.0490336
0.0490386
0.0490502
0.0490718
0.0491036
0.04914
0.0491753
0.049204
0.0492216
0.0492254
0.0492151
0.0491928
0.0491622
0.0491274
0.0490916
0.0490573
0.0490257
0.0489975
0.0489728
0.0489515
0.0489334
0.0489182
0.048906
0.0488966
0.0488901
0.0488871
0.0488874
0.0488909
0.0488972
0.048906
0.0489169
0.0489295
0.0489435
0.0489583
0.0489736
0.0489888
0.0490038
0.0490182
0.0490316
0.0490437
0.0490541
0.0490618
0.0490646
0.0490559
0.0490198
0.0489379
0.0488382
0.0487961
0.0488357
0.0489101
0.0489643
0.0489814
0.0489765
0.048964
0.0489488
0.0489328
0.0489164
0.0489005
0.0488859
0.0488733
0.0488636
0.0488578
0.0488567
0.0488608
0.0488705
0.0488859
0.0489064
0.0489314
0.0489595
0.0489897
0.0490208
0.0490518
0.0490819
0.0491107
0.0491376
0.0491625
0.0491853
0.049206
0.0492246
0.0492411
0.0492555
0.0492677
0.0492776
0.0492853
0.0492903
0.0492919
0.0492884
0.0492766
0.0492511
0.049188
0.0490068
0.0488607
0.0489956
0.0490307
0.0490371
0.0490325
0.049024
0.0490166
0.0490135
0.0490146
0.0490169
0.0490199
0.0490289
0.0490485
0.049079
0.0491155
0.0491518
0.0491813
0.0491989
0.0492015
0.0491888
0.0491633
0.0491295
0.049092
0.0490547
0.04902
0.048989
0.0489621
0.0489389
0.0489193
0.0489027
0.0488889
0.0488776
0.0488688
0.0488626
0.0488591
0.0488593
0.0488629
0.0488696
0.0488791
0.048891
0.0489048
0.0489201
0.0489364
0.0489532
0.04897
0.0489863
0.0490018
0.0490162
0.0490291
0.04904
0.0490481
0.0490511
0.049043
0.0490084
0.0489286
0.0488253
0.048769
0.0487924
0.0488619
0.0489251
0.048955
0.0489576
0.0489478
0.0489337
0.0489175
0.0489007
0.0488841
0.0488683
0.0488544
0.0488434
0.0488364
0.0488343
0.0488379
0.0488473
0.0488627
0.0488838
0.0489096
0.0489391
0.0489708
0.0490035
0.0490364
0.0490683
0.0490987
0.0491273
0.0491539
0.0491783
0.0492005
0.0492206
0.0492385
0.0492543
0.0492678
0.049279
0.0492877
0.0492933
0.049295
0.0492903
0.0492753
0.0492437
0.0491713
0.0489727
0.0488382
0.0489822
0.0490153
0.04902
0.0490141
0.0490044
0.0489967
0.0489948
0.0489988
0.049002
0.0490038
0.0490108
0.0490282
0.0490572
0.0490945
0.0491322
0.0491626
0.0491802
0.0491815
0.049166
0.0491366
0.0490989
0.0490584
0.0490195
0.0489845
0.0489545
0.0489292
0.0489081
0.0488906
0.0488759
0.0488636
0.0488535
0.0488454
0.0488393
0.0488354
0.0488347
0.0488375
0.0488438
0.0488531
0.0488653
0.0488798
0.0488961
0.0489135
0.0489316
0.0489498
0.0489675
0.0489842
0.0489997
0.0490136
0.0490252
0.0490338
0.0490373
0.04903
0.0489975
0.048921
0.0488166
0.0487483
0.0487551
0.0488155
0.0488828
0.0489243
0.0489367
0.0489317
0.0489196
0.0489042
0.0488877
0.0488709
0.0488547
0.0488396
0.0488273
0.048819
0.0488161
0.0488191
0.048828
0.048843
0.0488641
0.0488904
0.0489207
0.0489536
0.0489877
0.0490221
0.0490556
0.0490877
0.0491179
0.0491459
0.0491717
0.0491953
0.0492167
0.049236
0.0492531
0.0492679
0.0492804
0.0492901
0.0492965
0.0492984
0.0492926
0.0492741
0.0492359
0.0491536
0.0489381
0.0488195
0.0489708
0.0490012
0.0490034
0.0489954
0.0489835
0.0489745
0.0489747
0.0489835
0.0489886
0.0489902
0.0489957
0.0490108
0.0490394
0.0490777
0.0491168
0.0491483
0.049166
0.0491658
0.0491469
0.049113
0.0490707
0.049027
0.0489865
0.0489517
0.0489232
0.0489002
0.0488817
0.0488668
0.0488544
0.048844
0.0488352
0.0488278
0.048822
0.0488178
0.0488158
0.048817
0.0488219
0.0488303
0.0488418
0.0488562
0.0488727
0.0488909
0.04891
0.0489293
0.0489482
0.0489662
0.0489828
0.0489976
0.04901
0.0490193
0.0490236
0.0490173
0.0489872
0.0489149
0.0488114
0.0487335
0.0487244
0.0487732
0.04884
0.0488903
0.048913
0.0489149
0.0489062
0.0488926
0.048877
0.0488607
0.0488447
0.0488297
0.0488172
0.0488083
0.0488043
0.048806
0.0488137
0.0488278
0.0488482
0.0488743
0.0489049
0.0489387
0.0489741
0.0490098
0.0490447
0.0490782
0.0491097
0.0491389
0.0491659
0.0491907
0.0492133
0.0492337
0.049252
0.0492681
0.0492817
0.0492924
0.0492997
0.0493019
0.0492952
0.0492731
0.0492277
0.0491348
0.048903
0.0488044
0.0489615
0.0489886
0.0489877
0.0489765
0.0489612
0.0489497
0.0489543
0.0489688
0.0489767
0.0489792
0.0489836
0.0489974
0.0490259
0.0490655
0.0491062
0.0491388
0.0491564
0.0491544
0.0491316
0.0490925
0.0490452
0.048998
0.0489563
0.0489222
0.0488958
0.0488757
0.0488603
0.0488483
0.0488384
0.0488301
0.0488228
0.0488164
0.0488109
0.0488064
0.0488034
0.0488028
0.0488057
0.0488121
0.0488221
0.0488355
0.0488516
0.0488698
0.0488893
0.0489094
0.0489293
0.0489483
0.048966
0.0489818
0.0489951
0.0490053
0.0490103
0.0490053
0.0489778
0.0489102
0.048809
0.0487242
0.0487005
0.0487364
0.0487991
0.0488547
0.0488868
0.0488968
0.048893
0.0488822
0.0488683
0.0488531
0.0488378
0.0488235
0.0488113
0.0488024
0.0487977
0.048798
0.0488043
0.048817
0.0488365
0.0488621
0.0488928
0.0489271
0.0489633
0.049
0.049036
0.0490705
0.049103
0.0491332
0.0491612
0.0491868
0.0492103
0.0492317
0.0492511
0.0492682
0.0492829
0.0492947
0.0493027
0.0493053
0.0492979
0.0492721
0.0492189
0.0491149
0.0488672
0.0487925
0.0489543
0.0489775
0.0489731
0.0489582
0.0489389
0.0489243
0.0489366
0.0489554
0.0489668
0.0489711
0.0489749
0.048988
0.0490169
0.0490582
0.0491006
0.0491341
0.0491516
0.0491474
0.04912
0.0490749
0.0490222
0.0489717
0.0489291
0.0488964
0.0488727
0.0488558
0.0488438
0.0488347
0.0488275
0.0488213
0.0488156
0.0488102
0.0488052
0.0488007
0.048797
0.0487948
0.0487953
0.0487994
0.0488072
0.0488187
0.0488336
0.0488512
0.0488706
0.048891
0.0489115
0.0489314
0.04895
0.0489667
0.048981
0.048992
0.0489979
0.0489941
0.0489692
0.0489065
0.0488089
0.0487196
0.0486833
0.0487061
0.0487621
0.0488195
0.048859
0.048877
0.0488792
0.0488723
0.0488608
0.0488472
0.0488331
0.0488198
0.0488083
0.0487995
0.0487943
0.0487937
0.0487988
0.0488104
0.0488289
0.048854
0.0488846
0.0489191
0.0489558
0.0489931
0.0490298
0.0490649
0.0490981
0.0491289
0.0491574
0.0491837
0.0492079
0.0492301
0.0492502
0.0492683
0.0492839
0.0492967
0.0493056
0.0493087
0.0493006
0.0492711
0.0492096
0.0490937
0.0488307
0.0487837
0.0489489
0.048968
0.0489594
0.0489404
0.0489179
0.0489057
0.0489214
0.0489456
0.0489612
0.0489668
0.0489701
0.0489828
0.0490128
0.049056
0.0491001
0.0491344
0.0491513
0.0491444
0.0491118
0.0490601
0.0490016
0.0489479
0.0489051
0.0488744
0.0488537
0.0488403
0.0488316
0.0488254
0.0488207
0.0488165
0.0488125
0.0488083
0.0488041
0.0487997
0.0487956
0.0487921
0.0487905
0.048792
0.0487973
0.0488065
0.0488195
0.0488358
0.0488546
0.0488749
0.0488956
0.0489161
0.0489354
0.0489529
0.048968
0.0489798
0.0489866
0.0489841
0.0489617
0.0489038
0.0488106
0.0487188
0.0486722
0.0486825
0.0487301
0.0487865
0.0488308
0.0488559
0.0488645
0.0488622
0.0488537
0.0488423
0.0488298
0.0488176
0.0488069
0.0487984
0.048793
0.0487919
0.0487962
0.048807
0.0488249
0.0488496
0.0488801
0.0489147
0.0489516
0.0489892
0.0490261
0.0490616
0.0490949
0.049126
0.0491548
0.0491814
0.049206
0.0492287
0.0492495
0.0492682
0.0492847
0.0492984
0.0493081
0.0493117
0.0493032
0.04927
0.0491998
0.0490713
0.0487935
0.0487773
0.0489449
0.0489589
0.0489461
0.0489237
0.0489002
0.0488936
0.0489138
0.0489429
0.048961
0.0489667
0.0489691
0.0489818
0.0490135
0.049059
0.0491046
0.0491393
0.0491552
0.0491451
0.0491066
0.0490476
0.0489832
0.0489266
0.0488843
0.048856
0.0488387
0.0488286
0.0488228
0.0488194
0.048817
0.0488148
0.0488125
0.0488098
0.0488064
0.0488026
0.0487983
0.0487939
0.0487905
0.0487896
0.0487921
0.0487987
0.0488095
0.0488241
0.0488417
0.0488614
0.0488821
0.0489028
0.0489226
0.0489407
0.0489565
0.048969
0.0489766
0.0489753
0.0489553
0.048902
0.0488135
0.0487211
0.0486665
0.0486654
0.0487042
0.0487573
0.0488038
0.0488344
0.0488489
0.0488514
0.0488465
0.0488376
0.0488269
0.0488161
0.0488062
0.0487982
0.0487929
0.0487916
0.0487956
0.0488061
0.0488238
0.0488484
0.0488789
0.0489136
0.0489506
0.0489881
0.049025
0.0490603
0.0490935
0.0491245
0.0491532
0.0491798
0.0492046
0.0492275
0.0492487
0.049268
0.0492852
0.0492996
0.0493101
0.0493142
0.0493053
0.0492687
0.0491893
0.0490476
0.0487557
0.0487729
0.0489405
0.0489494
0.0489327
0.0489082
0.0488865
0.048887
0.0489148
0.048948
0.0489663
0.0489705
0.0489717
0.0489849
0.049019
0.049067
0.049114
0.0491487
0.0491631
0.0491491
0.0491039
0.0490371
0.0489668
0.048908
0.0488667
0.0488412
0.048827
0.0488199
0.0488168
0.0488157
0.0488154
0.0488153
0.0488148
0.0488137
0.0488116
0.0488085
0.0488044
0.0487995
0.0487946
0.0487915
0.0487913
0.0487952
0.0488035
0.0488161
0.0488323
0.048851
0.0488713
0.0488919
0.0489119
0.0489305
0.0489468
0.0489599
0.0489682
0.0489678
0.0489499
0.0489008
0.0488173
0.0487256
0.0486652
0.0486545
0.0486844
0.0487328
0.0487795
0.0488135
0.0488328
0.0488399
0.0488386
0.0488325
0.0488239
0.0488145
0.0488056
0.0487982
0.0487933
0.0487922
0.0487964
0.0488071
0.0488252
0.0488503
0.048881
0.0489158
0.0489526
0.0489899
0.0490263
0.0490611
0.0490937
0.0491241
0.0491524
0.0491788
0.0492034
0.0492264
0.0492478
0.0492676
0.0492853
0.0493004
0.0493115
0.0493162
0.049307
0.0492671
0.0491782
0.0490227
0.0487174
0.0487698
0.0489344
0.0489388
0.0489191
0.0488943
0.0488773
0.0488873
0.0489253
0.0489603
0.0489759
0.0489773
0.048977
0.0489916
0.049029
0.0490797
0.0491277
0.0491619
0.0491743
0.0491559
0.0491033
0.0490284
0.0489524
0.0488921
0.0488523
0.0488296
0.0488183
0.0488136
0.0488127
0.0488137
0.0488154
0.0488173
0.0488188
0.0488195
0.0488191
0.0488171
0.0488134
0.0488082
0.0488021
0.0487969
0.0487943
0.0487955
0.0488013
0.0488117
0.0488263
0.0488439
0.0488634
0.0488837
0.0489037
0.0489225
0.0489391
0.0489526
0.0489614
0.0489618
0.0489457
0.0489002
0.0488215
0.0487317
0.0486674
0.0486489
0.0486707
0.0487137
0.0487588
0.0487945
0.0488171
0.0488279
0.0488301
0.0488267
0.0488201
0.0488123
0.0488046
0.0487979
0.0487935
0.048793
0.048798
0.0488098
0.048829
0.0488549
0.0488863
0.0489211
0.0489576
0.0489942
0.0490297
0.0490635
0.0490951
0.0491246
0.0491521
0.0491779
0.0492022
0.0492251
0.0492466
0.0492667
0.0492849
0.0493005
0.0493123
0.0493175
0.0493082
0.049265
0.0491666
0.0489967
0.0486788
0.0487672
0.0489258
0.0489266
0.0489053
0.0488827
0.0488734
0.048897
0.0489445
0.0489771
0.0489879
0.0489857
0.0489845
0.0490016
0.0490432
0.0490968
0.0491453
0.0491784
0.0491884
0.0491649
0.0491045
0.0490212
0.0489401
0.048879
0.0488411
0.048821
0.048812
0.0488092
0.04881
0.0488127
0.0488164
0.0488203
0.0488239
0.0488266
0.0488281
0.0488277
0.0488249
0.0488196
0.0488125
0.0488055
0.0488005
0.0487992
0.0488025
0.0488108
0.0488236
0.04884
0.0488587
0.0488784
0.0488982
0.0489168
0.0489335
0.0489472
0.0489563
0.0489573
0.0489425
0.0489001
0.0488258
0.0487385
0.0486723
0.0486479
0.0486627
0.0487001
0.0487425
0.0487782
0.0488027
0.0488163
0.0488212
0.0488202
0.0488157
0.0488095
0.0488029
0.0487971
0.0487934
0.0487941
0.0488007
0.0488144
0.0488353
0.0488626
0.0488946
0.0489294
0.0489653
0.0490008
0.049035
0.0490672
0.0490974
0.0491256
0.0491521
0.049177
0.0492008
0.0492235
0.049245
0.0492653
0.0492839
0.0493001
0.0493125
0.0493182
0.0493086
0.0492625
0.0491543
0.0489698
0.0486399
0.0487642
0.048914
0.0489126
0.0488921
0.0488743
0.0488764
0.0489172
0.0489681
0.0489948
0.0490002
0.0489949
0.0489935
0.0490145
0.0490613
0.0491177
0.0491663
0.0491978
0.0492048
0.0491758
0.049107
0.0490156
0.0489302
0.048869
0.0488332
0.0488152
0.0488077
0.0488062
0.0488083
0.0488125
0.0488178
0.0488237
0.0488294
0.0488344
0.0488381
0.0488395
0.0488378
0.0488328
0.048825
0.0488162
0.0488091
0.0488055
0.0488067
0.048813
0.0488242
0.0488393
0.048857
0.0488761
0.0488954
0.0489137
0.0489302
0.0489439
0.048953
0.0489541
0.0489402
0.0489003
0.0488299
0.0487457
0.048679
0.0486506
0.0486597
0.0486919
0.0487308
0.0487654
0.0487905
0.0488056
0.0488125
0.0488135
0.0488107
0.0488059
0.0488004
0.0487955
0.0487931
0.0487957
0.0488049
0.0488214
0.0488447
0.0488736
0.0489062
0.0489406
0.0489754
0.0490092
0.0490414
0.0490717
0.0491
0.0491266
0.0491517
0.0491758
0.0491989
0.0492213
0.0492428
0.0492633
0.0492823
0.0492991
0.0493121
0.0493181
0.0493082
0.0492593
0.0491416
0.048942
0.0486012
0.0487602
0.048899
0.0488979
0.048881
0.0488705
0.0488876
0.0489431
0.0489907
0.049011
0.0490119
0.0490041
0.0490038
0.0490303
0.0490829
0.0491418
0.0491899
0.0492194
0.049223
0.0491881
0.0491108
0.0490118
0.048923
0.0488624
0.0488284
0.0488117
0.0488051
0.0488043
0.0488072
0.0488125
0.0488193
0.048827
0.0488348
0.0488421
0.048848
0.0488515
0.0488512
0.0488466
0.0488384
0.0488282
0.0488193
0.0488138
0.0488132
0.048818
0.0488278
0.0488417
0.0488584
0.0488767
0.0488953
0.0489131
0.0489292
0.0489425
0.0489513
0.0489523
0.0489388
0.0489006
0.0488335
0.0487525
0.0486867
0.0486561
0.048661
0.0486886
0.0487239
0.0487564
0.048781
0.0487967
0.0488047
0.048807
0.0488055
0.0488019
0.0487973
0.0487935
0.0487934
0.0487992
0.048812
0.0488319
0.0488579
0.0488882
0.0489209
0.0489544
0.0489874
0.0490189
0.0490485
0.0490762
0.0491023
0.049127
0.0491507
0.0491737
0.0491963
0.0492184
0.04924
0.0492607
0.0492802
0.0492976
0.049311
0.0493172
0.0493071
0.0492555
0.0491283
0.0489136
0.0485629
0.0487545
0.0488815
0.0488842
0.0488739
0.0488726
0.0489063
0.0489683
0.0490106
0.0490259
0.049023
0.0490131
0.0490154
0.049049
0.0491078
0.0491687
0.0492156
0.0492426
0.0492426
0.0492016
0.0491159
0.0490101
0.048919
0.0488594
0.0488266
0.0488105
0.0488039
0.0488031
0.0488063
0.0488124
0.0488204
0.0488297
0.0488394
0.0488487
0.0488569
0.0488624
0.0488636
0.0488596
0.0488512
0.04884
0.0488299
0.0488233
0.0488216
0.0488254
0.0488342
0.048847
0.0488628
0.0488801
0.0488978
0.0489149
0.0489303
0.0489429
0.0489511
0.0489516
0.048938
0.0489008
0.0488363
0.0487587
0.0486949
0.0486638
0.0486659
0.0486897
0.0487215
0.0487514
0.0487747
0.0487901
0.0487984
0.0488014
0.0488007
0.0487978
0.0487942
0.0487924
0.0487958
0.0488061
0.0488236
0.0488473
0.0488756
0.0489066
0.0489386
0.0489702
0.0490004
0.0490288
0.0490552
0.04908
0.0491035
0.0491262
0.0491485
0.0491706
0.0491926
0.0492146
0.0492364
0.0492575
0.0492776
0.0492954
0.0493092
0.0493155
0.0493051
0.0492511
0.0491145
0.0488849
0.0485253
0.0487468
0.0488634
0.0488739
0.0488725
0.0488817
0.0489299
0.0489929
0.0490301
0.0490403
0.0490335
0.0490219
0.0490283
0.0490705
0.0491354
0.0491976
0.0492427
0.0492669
0.0492632
0.049216
0.0491225
0.0490112
0.0489189
0.0488603
0.0488279
0.0488113
0.0488039
0.0488026
0.0488056
0.0488119
0.0488208
0.0488313
0.0488425
0.0488537
0.0488637
0.0488712
0.048874
0.0488706
0.048862
0.0488505
0.0488402
0.0488334
0.0488315
0.0488348
0.048843
0.048855
0.0488698
0.0488861
0.0489028
0.0489189
0.0489333
0.0489449
0.0489522
0.0489517
0.0489373
0.0489004
0.0488379
0.0487636
0.0487029
0.0486729
0.0486738
0.0486946
0.0487231
0.0487503
0.0487717
0.0487861
0.0487941
0.0487971
0.0487967
0.0487943
0.0487922
0.0487943
0.048803
0.048819
0.0488413
0.0488683
0.048898
0.0489285
0.0489584
0.0489868
0.0490132
0.0490377
0.0490605
0.049082
0.0491029
0.0491237
0.0491446
0.049166
0.0491879
0.04921
0.0492321
0.0492538
0.0492744
0.0492926
0.0493067
0.0493131
0.0493024
0.049246
0.0491005
0.0488561
0.0484886
0.0487371
0.048847
0.0488694
0.0488781
0.0488981
0.0489573
0.0490189
0.0490501
0.0490541
0.0490426
0.0490302
0.0490429
0.0490948
0.0491655
0.049228
0.0492706
0.0492919
0.0492844
0.0492313
0.049131
0.0490158
0.0489233
0.0488654
0.0488322
0.0488142
0.0488053
0.0488026
0.0488048
0.0488108
0.04882
0.0488312
0.0488435
0.0488561
0.0488677
0.0488769
0.0488813
0.0488789
0.0488704
0.0488595
0.0488501
0.0488442
0.0488428
0.0488462
0.048854
0.0488654
0.0488792
0.0488944
0.0489098
0.0489246
0.0489377
0.0489481
0.048954
0.0489521
0.0489364
0.0488989
0.0488377
0.048767
0.0487104
0.048683
0.0486839
0.0487028
0.0487283
0.0487527
0.0487719
0.0487848
0.0487919
0.0487945
0.0487941
0.0487928
0.0487944
0.0488025
0.0488179
0.0488399
0.0488663
0.0488951
0.0489243
0.0489525
0.0489787
0.0490026
0.0490243
0.0490443
0.0490631
0.0490814
0.0490999
0.049119
0.049139
0.0491601
0.049182
0.0492045
0.0492272
0.0492496
0.0492707
0.0492893
0.0493037
0.0493102
0.049299
0.0492403
0.0490862
0.0488275
0.0484532
0.0487262
0.0488349
0.0488722
0.0488906
0.0489216
0.0489889
0.0490467
0.0490692
0.0490658
0.0490499
0.049038
0.0490594
0.049122
0.0491976
0.0492593
0.049299
0.0493171
0.0493061
0.0492476
0.0491418
0.0490247
0.0489329
0.0488748
0.0488398
0.0488192
0.0488079
0.0488033
0.0488041
0.0488093
0.0488179
0.0488292
0.048842
0.0488554
0.0488682
0.0488788
0.0488849
0.0488848
0.0488776
0.0488682
0.0488606
0.0488562
0.0488558
0.0488595
0.0488671
0.0488777
0.0488904
0.0489043
0.0489183
0.0489315
0.048943
0.0489518
0.0489559
0.0489521
0.0489343
0.0488955
0.0488353
0.0487684
0.0487171
0.0486937
0.0486958
0.0487135
0.0487367
0.0487583
0.0487751
0.0487862
0.0487922
0.0487942
0.0487942
0.0487962
0.0488045
0.0488204
0.048843
0.0488698
0.0488984
0.0489266
0.0489529
0.0489765
0.0489973
0.0490155
0.0490318
0.049047
0.0490619
0.0490774
0.0490939
0.049112
0.0491317
0.0491529
0.0491753
0.0491985
0.0492221
0.0492452
0.0492668
0.0492859
0.0493004
0.0493068
0.049295
0.0492341
0.0490719
0.0487993
0.0484192
0.0487156
0.0488294
0.0488824
0.0489088
0.0489514
0.0490239
0.0490732
0.049085
0.0490744
0.0490549
0.0490457
0.0490783
0.0491518
0.0492311
0.049291
0.0493273
0.0493424
0.0493279
0.0492648
0.0491558
0.049039
0.0489493
0.0488885
0.0488502
0.0488262
0.0488117
0.0488044
0.0488031
0.0488068
0.0488146
0.0488255
0.0488384
0.0488523
0.0488658
0.0488774
0.0488851
0.0488875
0.0488846
0.0488784
0.0488729
0.0488699
0.0488701
0.048874
0.0488813
0.0488911
0.0489026
0.0489149
0.0489272
0.0489386
0.0489483
0.048955
0.0489569
0.0489506
0.0489301
0.0488895
0.0488302
0.0487678
0.048723
0.0487048
0.0487092
0.0487264
0.0487475
0.0487666
0.0487811
0.0487903
0.048795
0.048797
0.0488
0.0488092
0.0488267
0.048851
0.0488791
0.048908
0.0489354
0.0489597
0.0489804
0.0489974
0.0490113
0.0490232
0.049034
0.0490447
0.0490564
0.0490698
0.0490854
0.0491032
0.0491232
0.0491451
0.0491685
0.0491927
0.0492172
0.049241
0.0492631
0.0492824
0.0492969
0.0493031
0.0492907
0.0492275
0.0490575
0.0487717
0.0483869
0.0487074
0.048832
0.0488991
0.0489309
0.0489851
0.0490574
0.0490942
0.0490962
0.0490797
0.0490582
0.0490542
0.0491002
0.0491843
0.0492657
0.0493227
0.0493552
0.0493673
0.0493498
0.0492834
0.0491739
0.0490618
0.0489705
0.0489065
0.048864
0.0488358
0.0488172
0.0488063
0.048802
0.0488035
0.0488098
0.0488197
0.0488322
0.0488461
0.0488603
0.0488732
0.0488833
0.0488892
0.0488905
0.0488882
0.0488851
0.0488837
0.0488848
0.0488889
0.0488956
0.0489043
0.0489144
0.048925
0.0489354
0.0489447
0.0489521
0.0489564
0.0489556
0.0489461
0.0489226
0.04888
0.0488221
0.0487654
0.0487283
0.0487164
0.0487237
0.0487409
0.0487603
0.0487771
0.0487893
0.0487969
0.0488012
0.0488057
0.048817
0.0488372
0.0488643
0.0488946
0.0489244
0.0489511
0.0489732
0.0489903
0.0490028
0.0490118
0.0490184
0.0490241
0.0490301
0.0490375
0.0490471
0.0490596
0.0490752
0.0490938
0.0491149
0.049138
0.0491627
0.0491881
0.0492134
0.0492376
0.04926
0.0492792
0.0492935
0.0492993
0.049286
0.0492205
0.0490431
0.0487448
0.0483563
0.0487046
0.0488432
0.0489205
0.0489553
0.0490181
0.0490834
0.0491085
0.0491028
0.0490822
0.0490603
0.0490643
0.0491257
0.0492193
0.049301
0.049354
0.0493825
0.0493917
0.0493717
0.0493036
0.0491995
0.0490899
0.0489972
0.0489295
0.0488822
0.0488489
0.0488252
0.0488097
0.0488014
0.0487996
0.0488035
0.0488117
0.0488232
0.0488367
0.0488511
0.0488651
0.0488776
0.0488871
0.0488928
0.0488951
0.0488948
0.0488953
0.0488975
0.0489017
0.0489078
0.0489154
0.0489239
0.0489326
0.0489407
0.0489476
0.0489523
0.0489534
0.0489488
0.0489355
0.0489094
0.0488675
0.048814
0.0487617
0.0487335
0.0487285
0.0487391
0.0487565
0.0487744
0.0487892
0.0487997
0.0488068
0.0488136
0.0488275
0.048852
0.0488834
0.0489169
0.048948
0.0489738
0.0489931
0.0490059
0.0490132
0.0490165
0.0490174
0.0490175
0.0490183
0.049021
0.0490266
0.0490358
0.0490489
0.0490657
0.0490858
0.0491086
0.0491334
0.0491594
0.0491856
0.0492112
0.0492354
0.0492575
0.0492764
0.0492902
0.0492953
0.049281
0.0492133
0.0490289
0.0487187
0.0483274
0.0487105
0.0488623
0.0489446
0.0489806
0.0490459
0.049101
0.0491171
0.049106
0.0490829
0.0490622
0.0490773
0.0491555
0.0492567
0.0493366
0.0493845
0.0494088
0.0494152
0.0493934
0.0493274
0.0492303
0.0491237
0.0490302
0.0489586
0.0489061
0.0488667
0.048837
0.0488155
0.0488019
0.0487958
0.0487962
0.0488019
0.0488115
0.0488239
0.0488379
0.0488525
0.0488664
0.0488787
0.0488884
0.048895
0.0488986
0.0489014
0.0489049
0.0489094
0.048915
0.0489214
0.0489282
0.0489347
0.0489403
0.0489443
0.0489457
0.0489433
0.0489351
0.0489188
0.0488917
0.0488521
0.0488048
0.0487605
0.0487391
0.0487413
0.0487551
0.0487729
0.0487896
0.048803
0.0488133
0.0488234
0.0488405
0.0488713
0.0489087
0.0489463
0.0489789
0.0490034
0.049019
0.0490265
0.0490277
0.0490247
0.0490196
0.0490142
0.0490101
0.0490083
0.0490099
0.0490157
0.0490261
0.049041
0.0490598
0.0490821
0.049107
0.0491332
0.0491597
0.0491858
0.049211
0.0492346
0.0492559
0.049274
0.0492871
0.0492914
0.0492759
0.0492057
0.0490147
0.0486933
0.0483002
0.0487278
0.048888
0.0489698
0.0490062
0.0490673
0.0491123
0.0491215
0.0491065
0.0490824
0.0490648
0.0490945
0.04919
0.0492963
0.049372
0.049414
0.0494339
0.0494377
0.0494147
0.0493551
0.0492653
0.0491636
0.0490703
0.0489952
0.0489371
0.0488911
0.0488543
0.0488256
0.0488053
0.0487933
0.0487888
0.0487908
0.0487977
0.0488081
0.0488209
0.0488349
0.0488493
0.0488631
0.0488754
0.0488855
0.0488933
0.0488984
0.0489033
0.0489084
0.0489136
0.048919
0.0489241
0.0489285
0.0489316