/*--------------------------------*- C++ -*----------------------------------*\
| =========                 |                                                 |
| \\      /  F ield         | OpenFOAM: The Open Source CFD Toolbox           |
|  \\    /   O peration     | Version:  4.1                                   |
|   \\  /    A nd           | Web:      www.OpenFOAM.org                      |
|    \\/     M anipulation  |                                                 |
\*---------------------------------------------------------------------------*/
FoamFile
{
    version     2.0;
    format      ascii;
    class       surfaceScalarField;
    location    "1640";
    object      phi;
}
// * * * * * * * * * * * * * * * * * * * * * * * * * * * * * * * * * * * * * //

dimensions      [0 3 -1 0 0 0 0];

internalField   nonuniform List<scalar> 
9850
(
-5.47064e-06
5.47064e-06
-9.06952e-06
3.59887e-06
-1.15575e-05
2.48795e-06
-1.33634e-05
1.8059e-06
-1.4708e-05
1.34464e-06
-1.57078e-05
9.99745e-07
-1.64122e-05
7.04474e-07
-1.68302e-05
4.18001e-07
-1.69349e-05
1.04675e-07
-1.66963e-05
-2.3865e-07
-1.60553e-05
-6.40909e-07
-1.49576e-05
-1.09775e-06
-1.33571e-05
-1.60049e-06
-1.12298e-05
-2.12731e-06
-8.58288e-06
-2.64693e-06
-5.45377e-06
-3.12911e-06
-1.91849e-06
-3.53528e-06
1.71375e-06
-3.63224e-06
5.15097e-06
-3.43722e-06
8.30185e-06
-3.15088e-06
1.11715e-05
-2.86969e-06
1.37574e-05
-2.58586e-06
1.60492e-05
-2.29183e-06
1.8044e-05
-1.99475e-06
1.97472e-05
-1.70321e-06
2.11705e-05
-1.42328e-06
2.23289e-05
-1.15845e-06
2.32394e-05
-9.10465e-07
2.39193e-05
-6.79953e-07
2.43863e-05
-4.66992e-07
2.46581e-05
-2.71812e-07
2.4754e-05
-9.58934e-08
2.46941e-05
5.98864e-08
2.44975e-05
1.96597e-07
2.41804e-05
3.17197e-07
2.37572e-05
4.23106e-07
2.32423e-05
5.14951e-07
2.26491e-05
5.9316e-07
2.19911e-05
6.58059e-07
2.1281e-05
7.10057e-07
2.05313e-05
7.49696e-07
1.97536e-05
7.77691e-07
1.89587e-05
7.94933e-07
1.81562e-05
8.02469e-07
1.73547e-05
8.01492e-07
1.65614e-05
7.9336e-07
1.57817e-05
7.7968e-07
1.50192e-05
7.62525e-07
1.42742e-05
7.44977e-07
1.3541e-05
7.33211e-07
1.27954e-05
7.45625e-07
1.19495e-05
8.45865e-07
1.07241e-05
1.2254e-06
8.4324e-06
2.2917e-06
4.1531e-06
4.2793e-06
-7.28784e-07
4.88188e-06
-3.57271e-06
2.84392e-06
-5.44573e-06
1.87302e-06
-6.87545e-06
1.42972e-06
-8.06288e-06
1.18743e-06
-9.10794e-06
1.04505e-06
-1.00595e-05
9.51529e-07
-1.09389e-05
8.79426e-07
-1.17526e-05
8.13672e-07
-1.24985e-05
7.45912e-07
-1.31698e-05
6.71343e-07
-1.37571e-05
5.87238e-07
-1.42493e-05
4.92207e-07
-1.46352e-05
3.8589e-07
-1.49037e-05
2.68519e-07
-1.50438e-05
1.40103e-07
-1.50448e-05
1.07197e-09
-1.48979e-05
-1.46927e-07
-1.45965e-05
-3.0142e-07
-1.41417e-05
-4.54764e-07
-1.35403e-05
-6.01424e-07
-1.28036e-05
-7.36732e-07
-1.19466e-05
-8.56989e-07
-1.0987e-05
-9.59598e-07
-9.94388e-06
-1.04312e-06
-8.83673e-06
-1.10715e-06
-7.68462e-06
-1.15211e-06
-6.50582e-06
-1.1788e-06
-5.31803e-06
-1.18779e-06
-4.13945e-06
-1.17858e-06
-2.99098e-06
-1.14847e-06
-1.8966e-06
-1.09438e-06
-8.82909e-07
-1.01369e-06
3.47896e-08
-9.17699e-07
8.63946e-07
-8.29156e-07
1.61799e-06
-7.54042e-07
2.32236e-06
-7.04373e-07
3.01066e-06
-6.88295e-07
3.71206e-06
-7.01399e-07
4.43953e-06
-7.27471e-07
5.17581e-06
-7.36283e-07
5.82345e-06
-6.47644e-07
5.98999e-06
-1.66532e-07
4.57296e-06
1.41702e-06
4.57296e-06
-4.28923e-06
9.75988e-06
-7.55737e-06
6.86701e-06
-9.9978e-06
4.92838e-06
-1.18355e-05
3.64357e-06
-1.32212e-05
2.73036e-06
-1.4244e-05
2.02257e-06
-1.49428e-05
1.40327e-06
-1.53216e-05
7.96748e-07
-1.53705e-05
1.53626e-07
-1.50591e-05
-5.50042e-07
-1.43511e-05
-1.34893e-06
-1.31984e-05
-2.25041e-06
-1.15567e-05
-3.24223e-06
-9.4023e-06
-4.28169e-06
-6.75196e-06
-5.29726e-06
-3.67979e-06
-6.20128e-06
-3.16928e-07
-6.89814e-06
3.00282e-06
-6.95199e-06
6.18402e-06
-6.61842e-06
9.22081e-06
-6.18767e-06
1.20439e-05
-5.69282e-06
1.46126e-05
-5.15452e-06
1.69104e-05
-4.58962e-06
1.8933e-05
-4.01735e-06
2.06846e-05
-3.4548e-06
2.21754e-05
-2.91407e-06
2.34192e-05
-2.40223e-06
2.44313e-05
-1.92256e-06
2.52272e-05
-1.47592e-06
2.58221e-05
-1.06184e-06
2.62299e-05
-6.79598e-07
2.64629e-05
-3.28908e-07
2.65329e-05
-1.01282e-08
2.64536e-05
2.75899e-07
2.62398e-05
5.31e-07
2.59063e-05
7.56617e-07
2.54674e-05
9.53813e-07
2.49376e-05
1.12301e-06
2.4331e-05
1.26459e-06
2.36619e-05
1.37919e-06
2.29438e-05
1.46782e-06
2.21894e-05
1.53203e-06
2.14105e-05
1.57391e-06
2.06168e-05
1.59617e-06
1.98161e-05
1.60214e-06
1.90135e-05
1.59602e-06
1.82099e-05
1.5832e-06
1.74013e-05
1.57112e-06
1.65751e-05
1.57126e-06
1.57037e-05
1.60456e-06
1.47309e-05
1.7184e-06
1.35411e-05
2.03571e-06
1.19093e-05
2.8572e-06
9.49674e-06
4.70425e-06
6.06064e-06
7.71541e-06
1.46411e-06
9.4784e-06
-2.36783e-06
6.67587e-06
-4.63561e-06
4.14079e-06
-6.35899e-06
3.15311e-06
-7.7746e-06
2.60304e-06
-8.99943e-06
2.26989e-06
-1.00923e-05
2.0444e-06
-1.10814e-05
1.86848e-06
-1.19778e-05
1.7101e-06
-1.27831e-05
1.55128e-06
-1.34935e-05
1.38169e-06
-1.41018e-05
1.19549e-06
-1.45991e-05
9.89543e-07
-1.49757e-05
7.62471e-07
-1.52214e-05
5.1422e-07
-1.53272e-05
2.45954e-07
-1.52872e-05
-3.89828e-08
-1.50965e-05
-3.37639e-07
-1.47545e-05
-6.43402e-07
-1.4264e-05
-9.4519e-07
-1.36328e-05
-1.23265e-06
-1.28729e-05
-1.49667e-06
-1.19999e-05
-1.72993e-06
-1.10322e-05
-1.92732e-06
-9.98924e-06
-2.08609e-06
-8.89074e-06
-2.20565e-06
-7.75572e-06
-2.28714e-06
-6.6018e-06
-2.33272e-06
-5.44491e-06
-2.34468e-06
-4.29885e-06
-2.32463e-06
-3.17395e-06
-2.27337e-06
-2.076e-06
-2.19233e-06
-1.00605e-06
-2.08364e-06
3.0232e-08
-1.95398e-06
1.02367e-06
-1.82259e-06
1.96811e-06
-1.69849e-06
2.85641e-06
-1.59267e-06
3.67492e-06
-1.5068e-06
4.40444e-06
-1.43093e-06
5.01405e-06
-1.33708e-06
5.45016e-06
-1.17239e-06
5.63045e-06
-8.2793e-07
5.3012e-06
1.62713e-07
3.65917e-06
3.05906e-06
8.23213e-06
-3.30012e-06
1.306e-05
-5.96643e-06
9.53332e-06
-8.10276e-06
7.06471e-06
-9.80532e-06
5.34613e-06
-1.11438e-05
4.06882e-06
-1.21582e-05
3.03696e-06
-1.28608e-05
2.10585e-06
-1.32496e-05
1.18554e-06
-1.33047e-05
2.088e-07
-1.30117e-05
-8.43083e-07
-1.23316e-05
-2.02905e-06
-1.1219e-05
-3.36301e-06
-9.62704e-06
-4.83415e-06
-7.53608e-06
-6.37266e-06
-4.97744e-06
-7.8559e-06
-2.04211e-06
-9.13661e-06
9.63681e-07
-9.90394e-06
3.9529e-06
-9.94121e-06
6.9354e-06
-9.60092e-06
9.80586e-06
-9.05812e-06
1.24919e-05
-8.37885e-06
1.4948e-05
-7.61063e-06
1.7153e-05
-6.7946e-06
1.91013e-05
-5.96567e-06
2.07973e-05
-5.15081e-06
2.22514e-05
-4.36815e-06
2.3477e-05
-3.62789e-06
2.44887e-05
-2.93418e-06
2.53e-05
-2.28725e-06
2.59234e-05
-1.68526e-06
2.63696e-05
-1.12582e-06
2.66479e-05
-6.07186e-07
2.67675e-05
-1.29778e-07
2.67372e-05
3.06205e-07
2.65694e-05
6.98868e-07
2.62763e-05
1.04973e-06
2.58707e-05
1.35938e-06
2.5366e-05
1.62768e-06
2.47759e-05
1.85468e-06
2.41143e-05
2.04082e-06
2.33948e-05
2.18731e-06
2.26305e-05
2.29632e-06
2.18333e-05
2.37108e-06
2.10135e-05
2.41604e-06
2.01786e-05
2.43705e-06
1.93329e-05
2.44173e-06
1.8476e-05
2.44008e-06
1.76013e-05
2.4458e-06
1.66934e-05
2.47917e-06
1.57241e-05
2.57389e-06
1.46462e-05
2.79628e-06
1.33839e-05
3.29797e-06
1.18151e-05
4.42604e-06
9.75275e-06
6.76658e-06
7.03021e-06
1.04379e-05
3.56109e-06
1.29475e-05
-3.60862e-07
1.05978e-05
-2.89625e-06
6.67618e-06
-4.71065e-06
4.96751e-06
-6.22889e-06
4.12128e-06
-7.55454e-06
3.59554e-06
-8.73967e-06
3.22952e-06
-9.80971e-06
2.93853e-06
-1.07757e-05
2.6761e-06
-1.16406e-05
2.41612e-06
-1.24022e-05
2.14333e-06
-1.30553e-05
1.84863e-06
-1.35925e-05
1.52674e-06
-1.40051e-05
1.17504e-06
-1.4284e-05
7.9312e-07
-1.44207e-05
3.82631e-07
-1.44083e-05
-5.13087e-08
-1.42424e-05
-5.03614e-07
-1.39223e-05
-9.63452e-07
-1.34523e-05
-1.41516e-06
-1.28415e-05
-1.8435e-06
-1.21034e-05
-2.23479e-06
-1.12553e-05
-2.57804e-06
-1.03168e-05
-2.86577e-06
-9.30871e-06
-3.0942e-06
-8.25135e-06
-3.26301e-06
-7.16384e-06
-3.37465e-06
-6.06317e-06
-3.43339e-06
-4.96374e-06
-3.44412e-06
-3.87691e-06
-3.41146e-06
-2.81064e-06
-3.33964e-06
-1.76997e-06
-3.233e-06
-7.57915e-07
-3.09569e-06
2.18439e-07
-2.93033e-06
1.15098e-06
-2.75513e-06
2.03222e-06
-2.57972e-06
2.8502e-06
-2.41065e-06
3.58758e-06
-2.24418e-06
4.2185e-06
-2.06185e-06
4.69943e-06
-1.81801e-06
4.95297e-06
-1.42594e-06
4.84632e-06
-7.21279e-07
4.18981e-06
8.19219e-07
2.75167e-06
4.49721e-06
1.09838e-05
-2.59335e-06
1.56534e-05
-4.71906e-06
1.1659e-05
-6.53182e-06
8.87748e-06
-8.06396e-06
6.87827e-06
-9.31656e-06
5.32143e-06
-1.02827e-05
4.00314e-06
-1.09515e-05
2.77465e-06
-1.13129e-05
1.54691e-06
-1.13612e-05
2.57062e-07
-1.10731e-05
-1.13116e-06
-1.0428e-05
-2.67414e-06
-9.3737e-06
-4.41733e-06
-7.85499e-06
-6.35285e-06
-5.85598e-06
-8.37167e-06
-3.43263e-06
-1.02793e-05
-7.1859e-07
-1.18506e-05
2.01439e-06
-1.26369e-05
4.77777e-06
-1.27046e-05
7.54956e-06
-1.23727e-05
1.02312e-05
-1.17397e-05
1.27467e-05
-1.08943e-05
1.50501e-05
-9.91408e-06
1.71202e-05
-8.8647e-06
1.89528e-05
-7.79825e-06
2.05544e-05
-6.75242e-06
2.19375e-05
-5.75122e-06
2.31167e-05
-4.80714e-06
2.41067e-05
-3.92414e-06
2.49201e-05
-3.10067e-06
2.55672e-05
-2.33233e-06
2.60554e-05
-1.61401e-06
2.63897e-05
-9.41515e-07
2.65727e-05
-3.1272e-07
2.66085e-05
2.70349e-07
2.65037e-05
8.03702e-07
2.6267e-05
1.2864e-06
2.59089e-05
1.71746e-06
2.5441e-05
2.09563e-06
2.48758e-05
2.4199e-06
2.42266e-05
2.68995e-06
2.35072e-05
2.90673e-06
2.27309e-05
3.07262e-06
2.19103e-05
3.19171e-06
2.10563e-05
3.27003e-06
2.01776e-05
3.31577e-06
1.92795e-05
3.33985e-06
1.83629e-05
3.35665e-06
1.74231e-05
3.3856e-06
1.64482e-05
3.45407e-06
1.54177e-05
3.60432e-06
1.43021e-05
3.91194e-06
1.30616e-05
4.53843e-06
1.16376e-05
5.8501e-06
9.9185e-06
8.48564e-06
7.75946e-06
1.2597e-05
5.06814e-06
1.56388e-05
1.63891e-06
1.40271e-05
-1.21828e-06
9.53336e-06
-3.04412e-06
6.79335e-06
-4.60285e-06
5.68001e-06
-5.98849e-06
4.98118e-06
-7.23837e-06
4.47941e-06
-8.37081e-06
4.07097e-06
-9.39426e-06
3.69955e-06
-1.03113e-05
3.33312e-06
-1.11205e-05
2.95255e-06
-1.18176e-05
2.54578e-06
-1.23961e-05
2.10519e-06
-1.28475e-05
1.62643e-06
-1.31628e-05
1.1084e-06
-1.33327e-05
5.52567e-07
-1.33504e-05
-3.35778e-08
-1.32115e-05
-6.42507e-07
-1.29156e-05
-1.25937e-06
-1.24675e-05
-1.86323e-06
-1.18777e-05
-2.43336e-06
-1.11614e-05
-2.95111e-06
-1.03378e-05
-3.40161e-06
-9.42852e-06
-3.77504e-06
-8.45585e-06
-4.06687e-06
-7.44133e-06
-4.27753e-06
-6.40459e-06
-4.41139e-06
-5.36255e-06
-4.47543e-06
-4.32882e-06
-4.47784e-06
-3.31353e-06
-4.42675e-06
-2.32345e-06
-4.32972e-06
-1.36306e-06
-4.1934e-06
-4.3621e-07
-4.02254e-06
4.53001e-07
-3.81955e-06
1.2965e-06
-3.59863e-06
2.08799e-06
-3.37122e-06
2.8146e-06
-3.13726e-06
3.45876e-06
-2.88834e-06
3.99451e-06
-2.59759e-06
4.37774e-06
-2.20124e-06
4.53014e-06
-1.57834e-06
4.32026e-06
-5.11403e-07
3.60931e-06
1.53018e-06
2.2938e-06
5.81272e-06
1.32776e-05
-2.05654e-06
1.77099e-05
-3.75831e-06
1.33608e-05
-5.28921e-06
1.04084e-05
-6.64487e-06
8.23393e-06
-7.78029e-06
6.45685e-06
-8.6558e-06
4.87866e-06
-9.2461e-06
3.36495e-06
-9.54313e-06
1.84394e-06
-9.54559e-06
2.59521e-07
-9.25092e-06
-1.42584e-06
-8.64047e-06
-3.28458e-06
-7.65307e-06
-5.40473e-06
-6.2223e-06
-7.78362e-06
-4.33495e-06
-1.0259e-05
-2.06183e-06
-1.25524e-05
3.83099e-07
-1.42956e-05
2.86582e-06
-1.51196e-05
5.43185e-06
-1.52706e-05
7.9953e-06
-1.49361e-05
1.04694e-05
-1.42138e-05
1.27854e-05
-1.32104e-05
1.49011e-05
-1.20297e-05
1.67982e-05
-1.07618e-05
1.84765e-05
-9.47654e-06
1.99466e-05
-8.22255e-06
2.12247e-05
-7.02931e-06
2.23281e-05
-5.91056e-06
2.32727e-05
-4.86874e-06
2.40712e-05
-3.89911e-06
2.47322e-05
-2.99338e-06
2.52606e-05
-2.14241e-06
2.56574e-05
-1.33828e-06
2.59202e-05
-5.75521e-07
2.60454e-05
1.45147e-07
2.6032e-05
8.17079e-07
2.58834e-05
1.43499e-06
2.56061e-05
1.99478e-06
2.52085e-05
2.49326e-06
2.4701e-05
2.92734e-06
2.40958e-05
3.29517e-06
2.34059e-05
3.5966e-06
2.26449e-05
3.83367e-06
2.18257e-05
4.01086e-06
2.09605e-05
4.13529e-06
2.00592e-05
4.2171e-06
1.9129e-05
4.26995e-06
1.81738e-05
4.31191e-06
1.71924e-05
4.36695e-06
1.61788e-05
4.4677e-06
1.51215e-05
4.66165e-06
1.40053e-05
5.02811e-06
1.28141e-05
5.72966e-06
1.15256e-05
7.1386e-06
1.00812e-05
9.93004e-06
8.37612e-06
1.4302e-05
6.25129e-06
1.77637e-05
3.45968e-06
1.68187e-05
4.88942e-07
1.25041e-05
-1.5475e-06
8.8298e-06
-3.08213e-06
7.21463e-06
-4.47247e-06
6.37152e-06
-5.73974e-06
5.74668e-06
-6.89377e-06
5.225e-06
-7.9399e-06
4.74568e-06
-8.88021e-06
4.27344e-06
-9.71399e-06
3.78632e-06
-1.04376e-05
3.26944e-06
-1.10449e-05
2.71244e-06
-1.15271e-05
2.10866e-06
-1.18741e-05
1.45543e-06
-1.2076e-05
7.54406e-07
-1.2123e-05
1.34279e-08
-1.20115e-05
-7.54036e-07
-1.17404e-05
-1.53043e-06
-1.13151e-05
-2.28851e-06
-1.07471e-05
-3.00144e-06
-1.00532e-05
-3.64496e-06
-9.25484e-06
-4.19997e-06
-8.37565e-06
-4.65422e-06
-7.43982e-06
-5.00271e-06
-6.47032e-06
-5.24703e-06
-5.48762e-06
-5.3941e-06
-4.50887e-06
-5.45417e-06
-3.54748e-06
-5.43923e-06
-2.61285e-06
-5.36137e-06
-1.71079e-06
-5.23178e-06
-8.44298e-07
-5.05989e-06
-1.9764e-08
-4.84708e-06
7.63014e-07
-4.60232e-06
1.50208e-06
-4.33769e-06
2.18961e-06
-4.05875e-06
2.81443e-06
-3.76208e-06
3.36111e-06
-3.43502e-06
3.80687e-06
-3.04336e-06
4.11224e-06
-2.50661e-06
4.20374e-06
-1.66983e-06
3.95634e-06
-2.64008e-07
3.25371e-06
2.2328e-06
2.01043e-06
7.056e-06
1.5288e-05
-1.63495e-06
1.93448e-05
-3.00448e-06
1.47303e-05
-4.30033e-06
1.17042e-05
-5.48913e-06
9.42273e-06
-6.4966e-06
7.46431e-06
-7.26287e-06
5.64493e-06
-7.75278e-06
3.85486e-06
-7.95852e-06
2.04969e-06
-7.88802e-06
1.89016e-07
-7.56302e-06
-1.75083e-06
-6.97844e-06
-3.86917e-06
-6.05935e-06
-6.32382e-06
-4.72594e-06
-9.11702e-06
-2.97118e-06
-1.20138e-05
-8.81858e-07
-1.46417e-05
1.30543e-06
-1.64829e-05
3.57662e-06
-1.73908e-05
5.9306e-06
-1.76246e-05
8.27439e-06
-1.72799e-05
1.05243e-05
-1.64637e-05
1.26171e-05
-1.53032e-05
1.45157e-05
-1.39283e-05
1.62071e-05
-1.24533e-05
1.7697e-05
-1.09664e-05
1.90018e-05
-9.52734e-06
2.01426e-05
-8.17013e-06
2.11406e-05
-6.90849e-06
2.20136e-05
-5.74179e-06
2.27752e-05
-4.66068e-06
2.34335e-05
-3.65165e-06
2.39915e-05
-2.70044e-06
2.44476e-05
-1.79443e-06
2.47963e-05
-9.24143e-07
2.5026e-05
-8.46228e-08
2.51248e-05
7.18312e-07
2.50905e-05
1.46925e-06
2.49242e-05
2.16113e-06
2.46296e-05
2.78788e-06
2.42139e-05
3.34301e-06
2.3687e-05
3.82203e-06
2.30609e-05
4.22269e-06
2.23487e-05
4.54585e-06
2.1564e-05
4.79561e-06
2.07197e-05
4.97962e-06
1.98274e-05
5.10937e-06
1.88967e-05
5.20062e-06
1.79344e-05
5.27426e-06
1.69436e-05
5.35768e-06
1.59241e-05
5.48726e-06
1.48719e-05
5.7138e-06
1.37821e-05
6.11793e-06
1.26521e-05
6.85972e-06
1.14819e-05
8.30876e-06
1.02551e-05
1.11568e-05
8.90895e-06
1.56482e-05
7.2512e-06
1.94214e-05
4.9538e-06
1.91161e-05
2.20342e-06
1.52545e-05
-7.76772e-08
1.11109e-05
-1.67013e-06
8.80708e-06
-3.01825e-06
7.71964e-06
-4.25642e-06
6.98485e-06
-5.38972e-06
6.3583e-06
-6.42165e-06
5.77761e-06
-7.35409e-06
5.20588e-06
-8.18702e-06
4.61925e-06
-8.91733e-06
3.99975e-06
-9.53863e-06
3.33374e-06
-1.00415e-05
2.61148e-06
-1.0414e-05
1.828e-06
-1.06437e-05
9.84114e-07
-1.07184e-05
8.81227e-08
-1.0635e-05
-8.37494e-07
-1.0391e-05
-1.77438e-06
-9.99174e-06
-2.68779e-06
-9.44908e-06
-3.54409e-06
-8.7814e-06
-4.31265e-06
-8.01191e-06
-4.96946e-06
-7.16641e-06
-5.49972e-06
-6.27101e-06
-5.89811e-06
-5.3502e-06
-6.16784e-06
-4.42547e-06
-6.31883e-06
-3.51431e-06
-6.36533e-06
-2.63028e-06
-6.32326e-06
-1.78217e-06
-6.20948e-06
-9.75041e-07
-6.03891e-06
-2.1484e-07
-5.82009e-06
4.97551e-07
-5.55947e-06
1.16566e-06
-5.27043e-06
1.78936e-06
-4.96139e-06
2.36297e-06
-4.63236e-06
2.87817e-06
-4.27728e-06
3.32298e-06
-3.87984e-06
3.67941e-06
-3.39978e-06
3.91458e-06
-2.74179e-06
3.96091e-06
-1.71616e-06
3.6985e-06
-1.59447e-09
3.00585e-06
2.92545e-06
1.80403e-06
8.25783e-06
1.70921e-05
-1.30388e-06
2.06487e-05
-2.40944e-06
1.58359e-05
-3.50786e-06
1.28027e-05
-4.54494e-06
1.04598e-05
-5.42913e-06
8.3485e-06
-6.08672e-06
6.30253e-06
-6.47031e-06
4.23844e-06
-6.56355e-06
2.14293e-06
-6.39584e-06
2.13082e-08
-6.01461e-06
-2.13207e-06
-5.44097e-06
-4.44281e-06
-4.58488e-06
-7.17992e-06
-3.35358e-06
-1.03483e-05
-1.7385e-06
-1.36289e-05
1.27957e-07
-1.65082e-05
2.07435e-06
-1.84293e-05
4.14816e-06
-1.94646e-05
6.28503e-06
-1.97615e-05
8.399e-06
-1.93939e-05
1.04111e-05
-1.84758e-05
1.22626e-05
-1.71547e-05
1.3922e-05
-1.55877e-05
1.5383e-05
-1.39143e-05
1.66584e-05
-1.22419e-05
1.77718e-05
-1.06407e-05
1.87501e-05
-9.1484e-06
1.96184e-05
-7.77681e-06
2.03972e-05
-6.52054e-06
2.11006e-05
-5.36408e-06
2.17366e-05
-4.28762e-06
2.23071e-05
-3.271e-06
2.2809e-05
-2.29635e-06
2.32345e-05
-1.3496e-06
2.35696e-05
-4.19706e-07
2.37949e-05
4.92968e-07
2.38958e-05
1.36833e-06
2.38647e-05
2.19229e-06
2.37004e-05
2.95213e-06
2.3406e-05
3.63747e-06
2.29882e-05
4.23976e-06
2.24574e-05
4.75358e-06
2.18258e-05
5.17743e-06
2.11072e-05
5.51416e-06
2.03157e-05
5.77117e-06
1.94644e-05
5.96061e-06
1.85653e-05
6.09973e-06
1.76281e-05
6.21147e-06
1.666e-05
6.32578e-06
1.56655e-05
6.48176e-06
1.46468e-05
6.73249e-06
1.36058e-05
7.15897e-06
1.2548e-05
7.91749e-06
1.14876e-05
9.36913e-06
1.04398e-05
1.22046e-05
9.37911e-06
1.67089e-05
8.09856e-06
2.0702e-05
6.22086e-06
2.09938e-05
3.78954e-06
1.76858e-05
1.45111e-06
1.34493e-05
-2.82192e-07
1.05404e-05
-1.61942e-06
9.05687e-06
-2.79256e-06
8.15798e-06
-3.86805e-06
7.43379e-06
-4.85128e-06
6.76084e-06
-5.74388e-06
6.09848e-06
-6.54753e-06
5.4229e-06
-7.26016e-06
4.71238e-06
-7.8757e-06
3.94928e-06
-8.3842e-06
3.11997e-06
-8.7727e-06
2.2165e-06
-9.02494e-06
1.23636e-06
-9.12376e-06
1.86948e-07
-9.07029e-06
-8.90965e-07
-8.85776e-06
-1.98691e-06
-8.49059e-06
-3.05496e-06
-7.98041e-06
-4.05427e-06
-7.34632e-06
-4.94674e-06
-6.61311e-06
-5.70267e-06
-5.80842e-06
-6.30441e-06
-4.96011e-06
-6.74643e-06
-4.09427e-06
-7.03368e-06
-3.23348e-06
-7.17962e-06
-2.39541e-06
-7.2034e-06
-1.59276e-06
-7.12592e-06
-8.35138e-07
-6.9671e-06
-1.30741e-07
-6.74331e-06
5.16014e-07
-6.46685e-06
1.11219e-06
-6.15564e-06
1.66171e-06
-5.81995e-06
2.16416e-06
-5.46385e-06
2.61756e-06
-5.08575e-06
3.01741e-06
-4.67713e-06
3.35595e-06
-4.21838e-06
3.62053e-06
-3.66436e-06
3.78567e-06
-2.90693e-06
3.79043e-06
-1.72091e-06
3.51603e-06
2.72805e-07
2.82729e-06
3.61418e-06
1.65159e-06
9.43353e-06
1.87436e-05
-1.04397e-06
2.16927e-05
-1.93909e-06
1.6731e-05
-2.86891e-06
1.37325e-05
-3.7684e-06
1.13593e-05
-4.53956e-06
9.11966e-06
-5.09967e-06
6.86264e-06
-5.38687e-06
4.52564e-06
-5.3699e-06
2.12596e-06
-5.07131e-06
-2.77283e-07
-4.60992e-06
-2.59346e-06
-4.02523e-06
-5.0275e-06
-3.21907e-06
-7.98607e-06
-2.09394e-06
-1.14734e-05
-6.33429e-07
-1.50894e-05
9.84864e-07
-1.81264e-05
2.72733e-06
-2.01717e-05
4.59748e-06
-2.13348e-05
6.51218e-06
-2.16762e-05
8.38957e-06
-2.12713e-05
1.0155e-05
-2.02412e-05
1.17542e-05
-1.87539e-05
1.31611e-05
-1.69946e-05
1.43772e-05
-1.51305e-05
1.54238e-05
-1.32885e-05
1.63322e-05
-1.15491e-05
1.71351e-05
-9.95135e-06
1.78616e-05
-8.50325e-06
1.85334e-05
-7.19237e-06
1.91648e-05
-5.9955e-06
1.97628e-05
-4.8856e-06
2.03282e-05
-3.83641e-06
2.08568e-05
-2.82499e-06
2.13401e-05
-1.83283e-06
2.1766e-05
-8.45604e-07
2.21121e-05
1.46866e-07
2.23521e-05
1.12829e-06
2.24687e-05
2.07571e-06
2.24526e-05
2.9682e-06
2.23006e-05
3.78946e-06
2.20156e-05
4.52483e-06
2.1605e-05
5.16416e-06
2.10802e-05
5.70221e-06
2.04549e-05
6.13949e-06
1.97438e-05
6.48225e-06
1.89618e-05
6.74262e-06
1.81229e-05
6.93864e-06
1.72395e-05
7.09478e-06
1.63224e-05
7.24289e-06
1.538e-05
7.42419e-06
1.4419e-05
7.69351e-06
1.34459e-05
8.13206e-06
1.24713e-05
8.89204e-06
1.15178e-05
1.03227e-05
1.06224e-05
1.31e-05
9.79052e-06
1.75408e-05
8.8162e-06
2.16763e-05
7.30387e-06
2.25061e-05
5.19142e-06
1.97983e-05
2.95467e-06
1.56861e-05
1.14085e-06
1.23542e-05
-2.28698e-07
1.04264e-05
-1.35998e-06
9.28927e-06
-2.34654e-06
8.42035e-06
-3.25113e-06
7.66542e-06
-4.07101e-06
6.91837e-06
-4.81329e-06
6.16518e-06
-5.47798e-06
5.37707e-06
-6.06093e-06
4.53223e-06
-6.55352e-06
3.61257e-06
-6.94177e-06
2.60475e-06
-7.21025e-06
1.50484e-06
-7.32981e-06
3.0651e-07
-7.30842e-06
-9.12354e-07
-7.13293e-06
-2.1624e-06
-6.80633e-06
-3.38155e-06
-6.33849e-06
-4.52212e-06
-5.74838e-06
-5.53685e-06
-5.06212e-06
-6.38893e-06
-4.30897e-06
-7.05756e-06
-3.51808e-06
-7.53732e-06
-2.71633e-06
-7.83542e-06
-1.92654e-06
-7.96941e-06
-1.16676e-06
-7.96317e-06
-4.51177e-07
-7.8415e-06
2.05176e-07
-7.62346e-06
7.98484e-07
-7.33661e-06
1.33446e-06
-7.00283e-06
1.81563e-06
-6.63681e-06
2.24433e-06
-6.24864e-06
2.62297e-06
-5.84249e-06
2.95301e-06
-5.4158e-06
3.23396e-06
-4.95807e-06
3.46244e-06
-4.44686e-06
3.63111e-06
-3.83304e-06
3.72193e-06
-2.99775e-06
3.68117e-06
-1.68015e-06
3.38869e-06
5.65285e-07
2.6981e-06
4.30477e-06
1.53769e-06
1.05939e-05
2.02813e-05
-8.36878e-07
2.25296e-05
-1.56266e-06
1.74568e-05
-2.34497e-06
1.45148e-05
-3.11734e-06
1.21317e-05
-3.78522e-06
9.78754e-06
-4.2621e-06
7.33952e-06
-4.46901e-06
4.73255e-06
-4.35079e-06
2.00774e-06
-3.91191e-06
-7.1616e-07
-3.35063e-06
-3.15473e-06
-2.72635e-06
-5.65178e-06
-1.9498e-06
-8.76262e-06
-9.22441e-07
-1.25008e-05
3.34567e-07
-1.63464e-05
1.72306e-06
-1.95149e-05
3.28175e-06
-2.17304e-05
4.94488e-06
-2.29979e-05
6.63382e-06
-2.33651e-05
8.27148e-06
-2.2909e-05
9.78703e-06
-2.17568e-05
1.113e-05
-2.00969e-05
1.22808e-05
-1.81453e-05
1.32494e-05
-1.60991e-05
1.40664e-05
-1.41055e-05
1.47711e-05
-1.22538e-05
1.5402e-05
-1.05822e-05
1.59902e-05
-9.09152e-06
1.65576e-05
-7.75969e-06
1.71161e-05
-6.55401e-06
1.76701e-05
-5.43962e-06
1.82182e-05
-4.38455e-06
1.87552e-05
-3.36194e-06
1.92731e-05
-2.35078e-06
1.97634e-05
-1.33587e-06
2.02059e-05
-2.95688e-07
2.05672e-05
7.67039e-07
2.08234e-05
1.81955e-06
2.09557e-05
2.83588e-06
2.09533e-05
3.79187e-06
2.08128e-05
4.66531e-06
2.05378e-05
5.43912e-06
2.01376e-05
6.10249e-06
1.9625e-05
6.65209e-06
1.90153e-05
7.09194e-06
1.83246e-05
7.43329e-06
1.75688e-05
7.69445e-06
1.67627e-05
7.90089e-06
1.59196e-05
8.086e-06
1.5051e-05
8.29273e-06
1.4167e-05
8.57751e-06
1.32773e-05
9.02181e-06
1.23952e-05
9.77413e-06
1.15477e-05
1.11702e-05
1.07864e-05
1.38613e-05
1.01404e-05
1.81868e-05
9.41678e-06
2.24e-05
8.22105e-06
2.37018e-05
6.42487e-06
2.15944e-05
4.35931e-06
1.77516e-05
2.54543e-06
1.41681e-05
1.17144e-06
1.18004e-05
7.53952e-08
1.03853e-05
-8.47436e-07
9.34318e-06
-1.65737e-06
8.47536e-06
-2.37133e-06
7.63232e-06
-3.01932e-06
6.81317e-06
-3.60201e-06
5.95976e-06
-4.11904e-06
5.04926e-06
-4.5664e-06
4.05992e-06
-4.93192e-06
2.97027e-06
-5.19479e-06
1.7677e-06
-5.34179e-06
4.53509e-07
-5.34945e-06
-9.04693e-07
-5.21632e-06
-2.29553e-06
-4.94011e-06
-3.65777e-06
-4.52669e-06
-4.93553e-06
-3.99289e-06
-6.07065e-06
-3.36635e-06
-7.01546e-06
-2.67772e-06
-7.7462e-06
-1.95575e-06
-8.25928e-06
-1.2273e-06
-8.56388e-06
-5.17475e-07
-8.67924e-06
1.50345e-07
-8.63099e-06
7.60563e-07
-8.45172e-06
1.31161e-06
-8.17451e-06
1.80102e-06
-7.82602e-06
2.22753e-06
-7.42933e-06
2.59295e-06
-7.00223e-06
2.90089e-06
-6.55658e-06
3.15582e-06
-6.09742e-06
3.3621e-06
-5.62208e-06
3.52281e-06
-5.11878e-06
3.63874e-06
-4.56279e-06
3.7074e-06
-3.9017e-06
3.71763e-06
-3.00797e-06
3.62347e-06
-1.586e-06
3.30394e-06
8.84809e-07
2.60316e-06
5.00555e-06
1.44828e-06
1.17488e-05
2.17296e-05
-6.66448e-07
2.3196e-05
-1.25077e-06
1.80411e-05
-1.89736e-06
1.51614e-05
-2.54634e-06
1.27806e-05
-3.115e-06
1.03562e-05
-3.5205e-06
7.74502e-06
-3.6669e-06
4.87895e-06
-3.46114e-06
1.80198e-06
-2.89199e-06
-1.28531e-06
-2.22683e-06
-3.81989e-06
-1.53538e-06
-6.34323e-06
-7.65692e-07
-9.53231e-06
1.42571e-07
-1.34091e-05
1.17465e-06
-1.73785e-05
2.38281e-06
-2.07231e-05
3.75524e-06
-2.31029e-05
5.21021e-06
-2.44529e-05
6.67296e-06
-2.48279e-05
8.07165e-06
-2.43077e-05
9.33931e-06
-2.30245e-05
1.04297e-05
-2.11873e-05
1.133e-05
-1.90457e-05
1.206e-05
-1.68291e-05
1.26604e-05
-1.47058e-05
1.31786e-05
-1.2772e-05
1.36573e-05
-1.10609e-05
1.4128e-05
-9.56224e-06
1.46093e-05
-8.24099e-06
1.51085e-05
-7.05322e-06
1.56249e-05
-5.95604e-06
1.61531e-05
-4.91271e-06
1.66853e-05
-3.89421e-06
1.72133e-05
-2.87872e-06
1.77277e-05
-1.85026e-06
1.82233e-05
-7.91355e-07
1.86753e-05
3.15075e-07
1.90472e-05
1.4477e-06
1.93101e-05
2.5729e-06
1.94468e-05
3.65518e-06
1.94472e-05
4.66499e-06
1.93097e-05
5.57657e-06
1.90402e-05
6.372e-06
1.865e-05
7.04227e-06
1.81541e-05
7.58785e-06
1.75692e-05
8.0182e-06
1.69124e-05
8.3512e-06
1.62004e-05
8.61296e-06
1.54483e-05
8.83808e-06
1.46699e-05
9.07115e-06
1.38773e-05
9.37009e-06
1.30822e-05
9.81693e-06
1.22993e-05
1.0557e-05
1.15576e-05
1.19119e-05
1.09169e-05
1.4502e-05
1.04241e-05
1.86796e-05
9.90677e-06
2.29173e-05
8.98658e-06
2.4622e-05
7.49191e-06
2.30891e-05
5.64358e-06
1.96e-05
3.88733e-06
1.59243e-05
2.51327e-06
1.31745e-05
1.48106e-06
1.14175e-05
6.40755e-07
1.01835e-05
-7.64412e-08
9.19256e-06
-6.89538e-07
8.24542e-06
-1.22106e-06
7.34469e-06
-1.68847e-06
6.42716e-06
-2.0999e-06
5.46069e-06
-2.46332e-06
4.42334e-06
-2.77626e-06
3.28322e-06
-3.01917e-06
2.01061e-06
-3.17196e-06
6.063e-07
-3.20876e-06
-8.67895e-07
-3.12326e-06
-2.38103e-06
-2.90692e-06
-3.87411e-06
-2.55876e-06
-5.28369e-06
-2.0935e-06
-6.53591e-06
-1.5387e-06
-7.57026e-06
-9.2567e-07
-8.35924e-06
-2.85408e-07
-8.89954e-06
3.49187e-07
-9.19847e-06
9.54266e-07
-9.28432e-06
1.51767e-06
-9.1944e-06
2.02863e-06
-8.96268e-06
2.47799e-06
-8.62386e-06
2.86105e-06
-8.20909e-06
3.17665e-06
-7.74493e-06
3.42667e-06
-7.25226e-06
3.61539e-06
-6.74529e-06
3.74864e-06
-6.23067e-06
3.83291e-06
-5.70635e-06
3.8742e-06
-5.16007e-06
3.87681e-06
-4.5654e-06
3.8424e-06
-3.8673e-06
3.7656e-06
-2.93117e-06
3.60822e-06
-1.42861e-06
3.25123e-06
1.2418e-06
2.53077e-06
5.726e-06
1.37331e-06
1.29063e-05
2.31029e-05
-5.19432e-07
2.37155e-05
-9.76466e-07
1.84981e-05
-1.48792e-06
1.56728e-05
-2.00695e-06
1.32997e-05
-2.46876e-06
1.0818e-05
-2.80255e-06
8.07881e-06
-2.90691e-06
4.98332e-06
-2.62322e-06
1.51829e-06
-1.95882e-06
-1.94971e-06
-1.20319e-06
-4.57552e-06
-4.32752e-07
-7.11367e-06
3.14617e-07
-1.02797e-05
1.06957e-06
-1.4164e-05
1.92981e-06
-1.82387e-05
2.9783e-06
-2.17716e-05
4.16485e-06
-2.42894e-05
5.41238e-06
-2.57004e-05
6.65126e-06
-2.60668e-05
7.81532e-06
-2.54717e-05
8.84185e-06
-2.4051e-05
9.68939e-06
-2.20348e-05
1.03531e-05
-1.97094e-05
1.08637e-05
-1.73396e-05
1.12725e-05
-1.51147e-05
1.16345e-05
-1.3134e-05
1.19945e-05
-1.14209e-05
1.23811e-05
-9.9488e-06
1.28063e-05
-8.66623e-06
1.32699e-05
-7.51679e-06
1.37639e-05
-6.45009e-06
1.42777e-05
-5.42644e-06
1.48004e-05
-4.41697e-06
1.53232e-05
-3.40152e-06
1.58392e-05
-2.36619e-06
1.63476e-05
-1.29982e-06
1.68366e-05
-1.73917e-07
1.72736e-05
1.0107e-06
1.76289e-05
2.21761e-06
1.78762e-05
3.40787e-06
1.79976e-05
4.54361e-06
1.79852e-05
5.58899e-06
1.78402e-05
6.51698e-06
1.75712e-05
7.31122e-06
1.71919e-05
7.96715e-06
1.67188e-05
8.49129e-06
1.61696e-05
8.90044e-06
1.55617e-05
9.22088e-06
1.49115e-05
9.48827e-06
1.42339e-05
9.74871e-06
1.35423e-05
1.00617e-05
1.28492e-05
1.051e-05
1.21697e-05
1.12365e-05
1.15327e-05
1.25488e-05
1.1002e-05
1.50328e-05
1.06365e-05
1.90451e-05
1.02893e-05
2.32645e-05
9.60763e-06
2.53036e-05
8.39506e-06
2.43017e-05
6.78663e-06
2.12084e-05
5.14498e-06
1.7566e-05
3.79205e-06
1.45274e-05
2.79384e-06
1.24157e-05
2.03743e-06
1.09399e-05
1.44063e-06
9.78936e-06
9.4231e-07
8.74374e-06
5.32552e-07
7.75445e-06
1.90372e-07
6.76934e-06
-1.03276e-07
5.75434e-06
-3.43815e-07
4.66388e-06
-5.44348e-07
3.48375e-06
-7.18071e-07
2.18433e-06
-8.60184e-07
7.48414e-07
-9.1916e-07
-8.08919e-07
-8.83376e-07
-2.41682e-06
-7.31037e-07
-4.02645e-06
-4.59631e-07
-5.55509e-06
-7.81972e-08
-6.91734e-06
3.86677e-07
-8.03514e-06
9.02266e-07
-8.87482e-06
1.43691e-06
-9.43419e-06
1.9672e-06
-9.72876e-06
2.47284e-06
-9.78996e-06
2.9354e-06
-9.65696e-06
3.34233e-06
-9.3696e-06
3.68501e-06
-8.96654e-06
3.95877e-06
-8.48285e-06
4.16246e-06
-7.94862e-06
4.298e-06
-7.3878e-06
4.36995e-06
-6.81724e-06
4.38488e-06
-6.2456e-06
4.35061e-06
-5.67209e-06
4.27519e-06
-5.08465e-06
4.16558e-06
-4.45579e-06
4.02654e-06
-3.72825e-06
3.85748e-06
-2.76211e-06
3.62642e-06
-1.19755e-06
3.22138e-06
1.64683e-06
2.47226e-06
6.47513e-06
1.30621e-06
1.40723e-05
2.44091e-05
-3.86234e-07
2.41017e-05
-7.18929e-07
1.88308e-05
-1.08616e-06
1.60401e-05
-1.45888e-06
1.36724e-05
-1.79423e-06
1.11534e-05
-2.03728e-06
8.32186e-06
-2.11153e-06
5.05756e-06
-1.73404e-06
1.14081e-06
-1.03575e-06
-2.64801e-06
-2.16072e-07
-5.3952e-06
5.65983e-07
-7.89572e-06
1.24564e-06
-1.09593e-05
1.88502e-06
-1.48034e-05
2.62614e-06
-1.89798e-05
3.51926e-06
-2.26647e-05
4.52316e-06
-2.52933e-05
5.56672e-06
-2.6744e-05
6.58677e-06
-2.70868e-05
7.52356e-06
-2.64085e-05
8.31945e-06
-2.48469e-05
8.93875e-06
-2.26541e-05
9.38601e-06
-2.01567e-05
9.70386e-06
-1.76574e-05
9.95476e-06
-1.53655e-05
1.01993e-05
-1.33785e-05
1.04809e-05
-1.17026e-05
1.08213e-05
-1.02892e-05
1.12228e-05
-9.06768e-06
1.16752e-05
-7.96924e-06
1.2163e-05
-6.93784e-06
1.26699e-05
-5.93336e-06
1.31825e-05
-4.92961e-06
1.36913e-05
-3.91029e-06
1.41902e-05
-2.86509e-06
1.46768e-05
-1.7864e-06
1.51567e-05
-6.53872e-07
1.56134e-05
5.54006e-07
1.60155e-05
1.81554e-06
1.63322e-05
3.09118e-06
1.65413e-05
4.33444e-06
1.66289e-05
5.50146e-06
1.65907e-05
6.55511e-06
1.64316e-05
7.47033e-06
1.61629e-05
8.23593e-06
1.57997e-05
8.85444e-06
1.53594e-05
9.34077e-06
1.48593e-05
9.72093e-06
1.43162e-05
1.00314e-05
1.3745e-05
1.03198e-05
1.31595e-05
1.06472e-05
1.2572e-05
1.10975e-05
1.19972e-05
1.18113e-05
1.14629e-05
1.30832e-05
1.10327e-05
1.5463e-05
1.07735e-05
1.93042e-05
1.05654e-05
2.34726e-05
1.00886e-05
2.57805e-05
9.13475e-06
2.52555e-05
7.77402e-06
2.25691e-05
6.29005e-06
1.90499e-05
4.99289e-06
1.58246e-05
4.02244e-06
1.33862e-05
3.32963e-06
1.16327e-05
2.82964e-06
1.02893e-05
2.4488e-06
9.12458e-06
2.16267e-06
8.04057e-06
1.95306e-06
6.97896e-06
1.80786e-06
5.89954e-06
1.70424e-06
4.7675e-06
1.62701e-06
3.56099e-06
1.55101e-06
2.26033e-06
1.45681e-06
8.42608e-07
1.37989e-06
-7.31997e-07
1.37363e-06
-2.41056e-06
1.46624e-06
-4.11906e-06
1.66729e-06
-5.75615e-06
1.96405e-06
-7.2141e-06
2.33689e-06
-8.40797e-06
2.75763e-06
-9.29556e-06
3.19583e-06
-9.8724e-06
3.62598e-06
-1.01589e-05
4.02713e-06
-1.01911e-05
4.38246e-06
-1.00123e-05
4.68e-06
-9.66714e-06
4.91185e-06
-9.1984e-06
5.07384e-06
-8.64484e-06
5.16503e-06
-8.03982e-06
5.18746e-06