/*--------------------------------*- C++ -*----------------------------------*\
| =========                 |                                                 |
| \\      /  F ield         | OpenFOAM: The Open Source CFD Toolbox           |
|  \\    /   O peration     | Version:  4.1                                   |
|   \\  /    A nd           | Web:      www.OpenFOAM.org                      |
|    \\/     M anipulation  |                                                 |
\*---------------------------------------------------------------------------*/
FoamFile
{
    version     2.0;
    format      ascii;
    class       volScalarField;
    location    "1640";
    object      T;
}
// * * * * * * * * * * * * * * * * * * * * * * * * * * * * * * * * * * * * * //

dimensions      [0 0 0 1 0 0 0];

internalField   nonuniform List<scalar> 
5000
(
287.281
286.841
286.517
286.261
286.05
285.87
285.712
285.569
285.438
285.313
285.207
285.118
285.041
284.976
284.919
284.871
284.831
284.818
284.838
284.861
284.886
284.915
284.947
284.984
285.026
285.073
285.124
285.181
285.244
285.313
285.389
285.473
285.561
285.651
285.741
285.833
285.928
286.024
286.124
286.226
286.332
286.441
286.553
286.668
286.787
286.909
287.035
287.165
287.3
287.44
287.587
287.745
287.925
288.152
288.424
288.342
287.973
287.743
287.554
287.389
287.241
287.107
286.984
286.869
286.762
286.661
286.565
286.473
286.385
286.299
286.216
286.133
286.056
285.993
285.942
285.903
285.875
285.857
285.85
285.853
285.866
285.889
285.922
285.968
286.028
286.105
286.2
286.313
286.435
286.541
286.621
286.662
286.657
286.615
286.559
286.526
286.581
286.841
287.129
287.531
286.747
286.011
285.492
285.115
284.847
284.664
284.544
284.471
284.433
284.422
284.413
284.404
284.391
284.375
284.355
284.331
284.306
284.287
284.278
284.273
284.271
284.271
284.272
284.275
284.279
284.283
284.289
284.294
284.3
284.306
284.312
284.319
284.329
284.347
284.371
284.403
284.44
284.484
284.534
284.589
284.648
284.712
284.779
284.849
284.921
284.996
285.072
285.153
285.239
285.337
285.461
285.647
285.985
286.597
287.405
287.64
286.666
286.106
285.746
285.482
285.274
285.102
284.954
284.825
284.713
284.615
284.531
284.46
284.403
284.359
284.329
284.312
284.305
284.298
284.292
284.286
284.281
284.277
284.273
284.27
284.268
284.267
284.267
284.269
284.273
284.278
284.285
284.294
284.304
284.313
284.322
284.329
284.336
284.343
284.352
284.367
284.401
284.539
285.293
286.645
286.446
285.629
285.119
284.797
284.609
284.512
284.467
284.451
284.445
284.442
284.436
284.427
284.411
284.388
284.358
284.321
284.282
284.258
284.243
284.233
284.229
284.229
284.231
284.235
284.241
284.247
284.253
284.259
284.265
284.271
284.277
284.282
284.287
284.293
284.299
284.307
284.316
284.328
284.342
284.36
284.38
284.404
284.431
284.462
284.495
284.532
284.573
284.618
284.672
284.738
284.832
284.986
285.288
285.889
286.781
287.21
286.329
285.487
285.127
284.894
284.732
284.613
284.524
284.456
284.405
284.366
284.339
284.319
284.305
284.295
284.288
284.283
284.278
284.273
284.266
284.259
284.252
284.244
284.235
284.227
284.219
284.212
284.206
284.202
284.199
284.199
284.2
284.204
284.21
284.217
284.224
284.233
284.242
284.253
284.267
284.289
284.33
284.442
284.961
286.311
286.236
285.403
284.939
284.678
284.546
284.491
284.474
284.472
284.473
284.474
284.47
284.46
284.441
284.41
284.367
284.316
284.267
284.236
284.215
284.203
284.199
284.201
284.206
284.214
284.224
284.233
284.242
284.251
284.259
284.266
284.271
284.276
284.281
284.285
284.289
284.293
284.298
284.303
284.309
284.316
284.324
284.334
284.346
284.36
284.376
284.395
284.417
284.444
284.477
284.522
284.589
284.708
284.956
285.485
286.341
286.876
286.252
285.257
284.866
284.672
284.551
284.472
284.419
284.383
284.359
284.343
284.333
284.327
284.322
284.319
284.317
284.314
284.311
284.306
284.299
284.291
284.28
284.267
284.254
284.24
284.225
284.211
284.198
284.187
284.177
284.17
284.165
284.163
284.164
284.168
284.173
284.181
284.191
284.204
284.223
284.251
284.301
284.417
284.851
286.134
286.074
285.249
284.837
284.624
284.528
284.495
284.49
284.494
284.5
284.505
284.504
284.494
284.472
284.433
284.377
284.311
284.257
284.218
284.192
284.179
284.177
284.183
284.195
284.209
284.225
284.24
284.254
284.266
284.276
284.285
284.291
284.295
284.298
284.3
284.302
284.303
284.305
284.306
284.308
284.311
284.314
284.318
284.323
284.33
284.338
284.348
284.361
284.377
284.399
284.43
284.479
284.57
284.771
285.225
286.008
286.592
286.202
285.284
284.746
284.58
284.488
284.433
284.4
284.381
284.37
284.366
284.365
284.366
284.368
284.37
284.371
284.372
284.371
284.366
284.358
284.348
284.334
284.317
284.298
284.278
284.257
284.236
284.216
284.197
284.18
284.165
284.153
284.145
284.141
284.139
284.142
284.147
284.156
284.17
284.191
284.225
284.283
284.408
284.806
286.026
285.942
285.135
284.771
284.597
284.525
284.504
284.506
284.514
284.524
284.532
284.534
284.526
284.501
284.454
284.386
284.309
284.248
284.202
284.172
284.16
284.162
284.175
284.196
284.219
284.243
284.265
284.286
284.303
284.317
284.327
284.335
284.339
284.341
284.34
284.338
284.335
284.333
284.33
284.328
284.326
284.324
284.324
284.324
284.326
284.328
284.333
284.339
284.349
284.363
284.385
284.422
284.493
284.657
285.043
285.744
286.344
286.148
285.372
284.759
284.542
284.468
284.429
284.409
284.4
284.399
284.403
284.409
284.417
284.425
284.432
284.438
284.441
284.442
284.438
284.429
284.416
284.399
284.378
284.354
284.329
284.302
284.274
284.247
284.221
284.197
284.175
284.157
284.142
284.132
284.125
284.122
284.125
284.132
284.145
284.167
284.206
284.272
284.407
284.789
285.956
285.831
285.045
284.726
284.582
284.527
284.514
284.519
284.53
284.542
284.553
284.56
284.555
284.528
284.473
284.392
284.309
284.24
284.186
284.154
284.144
284.154
284.177
284.208
284.242
284.277
284.308
284.335
284.358
284.376
284.39
284.399
284.403
284.404
284.401
284.395
284.388
284.38
284.372
284.364
284.357
284.35
284.344
284.339
284.336
284.333
284.333
284.335
284.339
284.347
284.362
284.39
284.447
284.581
284.909
285.529
286.122
286.082
285.466
284.845
284.551
284.468
284.438
284.427
284.426
284.433
284.443
284.457
284.471
284.486
284.498
284.508
284.514
284.515
284.512
284.502
284.487
284.467
284.442
284.414
284.383
284.351
284.318
284.285
284.253
284.222
284.194
284.17
284.149
284.132
284.12
284.112
284.11
284.114
284.126
284.148
284.19
284.265
284.41
284.785
285.909
285.734
284.973
284.694
284.576
284.533
284.525
284.532
284.543
284.556
284.569
284.581
284.579
284.551
284.489
284.399
284.31
284.231
284.171
284.138
284.133
284.151
284.186
284.231
284.278
284.323
284.364
284.398
284.426
284.448
284.464
284.475
284.48
284.48
284.476
284.468
284.456
284.443
284.429
284.415
284.401
284.388
284.376
284.365
284.356
284.349
284.343
284.34
284.339
284.342
284.352
284.372
284.417
284.528
284.807
285.351
285.922
286.001
285.541
284.959
284.605
284.483
284.453
284.447
284.453
284.465
284.483
284.503
284.524
284.544
284.561
284.575
284.583
284.586
284.582
284.572
284.555
284.532
284.504
284.472
284.437
284.4
284.362
284.324
284.286
284.251
284.218
284.188
284.162
284.139
284.121
284.108
284.102
284.102
284.111
284.133
284.177
284.26
284.415
284.79
285.876
285.648
284.914
284.672
284.575
284.542
284.539
284.546
284.556
284.567
284.581
284.597
284.599
284.57
284.501
284.406
284.309
284.222
284.157
284.124
284.124
284.154
284.203
284.262
284.322
284.378
284.427
284.468
284.5
284.524
284.541
284.553
284.558
284.559
284.555
284.545
284.53
284.513
284.494
284.474
284.454
284.435
284.416
284.399
284.384
284.371
284.36
284.352
284.346
284.344
284.348
284.362
284.398
284.49
284.726
285.202
285.742
285.909
285.59
285.076
284.689
284.519
284.473
284.468
284.478
284.495
284.518
284.543
284.57
284.596
284.618
284.635
284.646
284.649
284.646
284.635
284.617
284.592
284.561
284.525
284.486
284.445
284.403
284.361
284.32
284.281
284.244
284.209
284.178
284.15
284.127
284.109
284.097
284.093
284.099
284.12
284.166
284.255
284.422
284.799
285.853
285.573
284.866
284.657
284.579
284.556
284.557
284.565
284.572
284.577
284.589
284.609
284.614
284.584
284.511
284.412
284.306
284.212
284.143
284.111
284.119
284.162
284.226
284.3
284.373
284.438
284.493
284.537
284.57
284.594
284.611
284.621
284.626
284.627
284.623
284.614
284.6
284.581
284.559
284.535
284.51
284.485
284.461
284.438
284.417
284.398
284.382
284.368
284.357
284.351
284.35
284.358
284.386
284.462
284.663
285.076
285.58
285.81
285.613
285.181
284.79
284.576
284.502
284.489
284.498
284.519
284.546
284.576
284.608
284.638
284.665
284.686
284.699
284.703
284.7
284.688
284.669
284.642
284.61
284.572
284.53
284.485
284.441
284.396
284.352
284.31
284.269
284.23
284.195
284.163
284.135
284.112
284.096
284.088
284.09
284.109
284.156
284.252
284.43
284.811
285.837
285.506
284.829
284.65
284.589
284.575
284.582
284.592
284.594
284.588
284.597
284.618
284.624
284.594
284.521
284.416
284.302
284.201
284.13
284.1
284.117
284.174
284.255
284.343
284.427
284.499
284.557
284.6
284.631
284.652
284.665
284.672
284.675
284.674
284.671
284.664
284.652
284.635
284.614
284.589
284.562
284.534
284.506
284.478
284.452
284.428
284.406
284.387
284.372
284.361
284.355
284.358
284.378
284.442
284.612
284.97
285.435
285.706
285.611
285.266
284.895
284.65
284.542
284.514
284.519
284.539
284.567
284.599
284.634
284.668
284.7
284.725
284.74
284.744
284.742
284.73
284.711
284.683
284.649
284.61
284.566
284.521
284.474
284.427
284.38
284.335
284.292
284.25
284.211
284.176
284.144
284.117
284.097
284.085
284.084
284.099
284.146
284.248
284.438
284.826
285.827
285.448
284.801
284.65
284.605
284.602
284.618
284.632
284.627
284.604
284.606
284.625
284.631
284.603
284.528
284.417
284.296
284.19
284.116
284.09
284.118
284.189
284.286
284.388
284.481
284.556
284.613
284.652
284.677
284.692
284.699
284.702
284.702
284.699
284.695
284.69
284.682
284.67
284.652
284.63
284.604
284.575
284.545
284.514
284.485
284.457
284.431
284.408
284.388
284.372
284.362
284.361
284.375
284.427
284.571
284.882
285.307
285.601
285.59
285.329
284.995
284.735
284.597
284.547
284.542
284.559
284.585
284.617
284.652
284.687
284.719
284.745
284.762
284.771
284.77
284.761
284.742
284.715
284.681
284.641
284.596
284.549
284.5
284.451
284.403
284.356
284.311
284.267
284.226
284.188
284.153
284.123
284.099
284.084
284.079
284.091
284.137
284.244
284.446
284.842
285.821
285.397
284.781
284.656
284.628
284.638
284.666
284.688
284.668
284.625
284.618
284.63
284.636
284.609
284.532
284.415
284.288
284.178
284.103
284.082
284.121
284.208
284.321
284.435
284.532
284.607
284.659
284.691
284.708
284.715
284.715
284.712
284.708
284.703
284.698
284.694
284.689
284.682
284.67
284.653
284.631
284.605
284.576
284.545
284.514
284.483
284.454
284.428
284.404
284.385
284.371
284.365
284.374
284.417
284.539
284.808
285.194
285.499
285.553
285.369
285.081
284.824
284.663
284.59
284.571
284.58
284.603
284.633
284.666
284.699
284.73
284.756
284.775
284.786
284.789
284.781
284.765
284.739
284.705
284.664
284.618
284.57
284.52
284.47
284.421
284.373
284.326
284.282
284.239
284.199
284.162
284.13
284.103
284.083
284.075
284.084
284.128
284.24
284.454
284.86
285.818
285.354
284.769
284.668
284.656
284.681
284.722
284.752
284.707
284.652
284.631
284.636
284.64
284.613
284.533
284.41
284.278
284.165
284.091
284.075
284.126
284.229
284.357
284.48
284.58
284.651
284.695
284.717
284.725
284.723
284.716
284.707
284.698
284.69
284.684
284.679
284.677
284.674
284.669
284.658
284.643
284.621
284.596
284.567
284.536
284.505
284.474
284.445
284.419
284.397
284.38
284.371
284.375
284.41
284.514
284.748
285.096
285.402
285.505
285.389
285.151
284.909
284.736
284.642
284.607
284.606
284.623
284.649
284.679
284.71
284.739
284.764
284.784
284.797
284.801
284.795
284.78
284.754
284.72
284.679
284.633
284.584
284.533
284.483
284.433
284.384
284.337
284.292
284.249
284.208
284.17
284.136
284.106
284.084
284.073
284.079
284.121
284.236
284.463
284.878
285.817
285.319
284.764
284.686
284.691
284.729
284.78
284.803
284.747
284.677
284.642
284.64
284.643
284.614
284.53
284.402
284.266
284.151
284.079
284.07
284.133
284.252
284.393
284.523
284.622
284.686
284.72
284.733
284.731
284.721
284.707
284.692
284.678
284.666
284.658
284.653
284.651
284.652
284.652
284.649
284.64
284.625
284.605
284.58
284.551
284.521
284.49
284.46
284.432
284.408
284.389
284.377
284.377
284.405
284.495
284.698
285.012
285.312
285.451
285.392
285.204
284.986
284.81
284.702
284.651
284.638
284.647
284.668
284.694
284.722
284.748
284.772
284.791
284.804
284.809
284.805
284.789
284.764
284.729
284.688
284.641
284.591
284.54
284.49
284.44
284.391
284.345
284.3
284.256
284.215
284.176
284.141
284.109
284.085
284.071
284.074
284.114
284.232
284.471
284.898
285.819
285.291
284.765
284.71
284.731
284.781
284.835
284.842
284.776
284.693
284.649
284.643
284.645
284.614
284.524
284.391
284.252
284.136
284.067
284.065
284.142
284.277
284.429
284.563
284.657
284.713
284.737
284.739
284.729
284.712
284.691
284.671
284.652
284.637
284.625
284.619
284.617
284.62
284.624
284.627
284.626
284.618
284.604
284.584
284.559
284.531
284.501
284.471
284.443
284.417
284.396
284.382
284.38
284.403
284.48
284.658
284.941
285.23
285.394
285.382
285.24
285.05
284.881
284.765
284.701
284.677
284.677
284.691
284.712
284.736
284.76
284.782
284.8
284.812
284.817
284.811
284.795
284.769
284.733
284.69
284.642
284.592
284.541
284.491
284.442
284.394
284.348
284.304
284.261
284.22
284.181
284.145
284.112
284.086
284.07
284.07
284.108
284.228
284.479
284.918
285.821
285.269
284.776
284.741
284.775
284.832
284.882
284.871
284.788
284.695
284.649
284.644
284.646
284.611
284.514
284.376
284.235
284.121
284.056
284.062
284.152
284.302
284.465
284.599
284.687
284.732
284.746
284.741
284.723
284.699
284.673
284.647
284.623
284.603
284.589
284.58
284.577
284.581
284.589
284.597
284.602
284.601
284.594
284.58
284.559
284.534
284.506
284.478
284.45
284.424
284.402
284.387
284.383
284.402
284.469
284.626
284.882
285.158
285.337
285.362
285.261
285.102
284.946
284.828
284.755
284.721
284.712
284.719
284.734
284.754
284.775
284.794
284.81
284.821
284.823
284.816
284.798
284.769
284.731
284.686
284.638
284.588
284.537
284.488
284.44
284.393
284.348
284.305
284.263
284.223
284.184
284.148
284.115
284.087
284.069
284.067
284.102
284.225
284.486
284.938
285.824
285.252
284.796
284.778
284.822
284.881
284.919
284.885
284.78
284.685
284.645
284.644
284.645
284.605
284.501
284.357
284.216
284.105
284.045
284.061
284.165
284.328
284.498
284.63
284.71
284.746
284.751
284.738
284.715
284.685
284.654
284.622
284.594
284.569
284.55
284.538
284.534
284.538
284.548
284.561
284.572
284.578
284.577
284.569
284.553
284.532
284.507
284.48
284.453
284.428
284.406
284.39
284.385
284.401
284.461
284.602
284.834
285.095
285.282
285.336
285.27
285.14
285.001
284.887
284.81
284.768
284.751
284.751
284.761
284.776
284.793
284.809
284.823
284.831
284.83
284.819
284.797
284.765
284.724
284.677
284.628
284.578
284.528
284.48
284.434
284.389
284.346
284.304
284.264
284.224
284.186
284.149
284.116
284.088
284.068
284.064
284.098
284.221
284.493
284.957
285.827
285.24
284.826
284.821
284.869
284.923
284.942
284.878
284.753
284.667
284.638
284.643
284.644
284.597
284.483
284.336
284.196
284.089
284.035
284.061
284.178
284.355
284.529
284.657
284.728
284.755
284.753
284.734
284.706
284.672
284.636
284.599
284.566
284.536
284.512
284.496
284.489
284.492
284.504
284.521
284.537
284.55
284.555
284.552
284.542
284.525
284.503
284.478
284.453
284.429
284.408
284.393
284.387
284.402
284.457
284.584
284.796
285.043
285.233
285.307
285.27
285.167
285.046
284.94
284.863
284.816
284.793
284.787
284.791
284.801
284.814
284.827
284.837
284.842
284.837
284.82
284.793
284.755
284.711
284.663
284.613
284.563
284.515
284.469
284.425
284.383
284.342
284.302
284.263
284.224
284.187
284.15
284.117
284.088
284.067
284.062
284.094
284.218
284.5
284.976
285.829
285.235
284.864
284.867
284.914
284.955
284.948
284.846
284.718
284.65
284.634
284.643
284.643
284.585
284.462
284.311
284.174
284.073
284.026
284.062
284.193
284.38
284.557
284.678
284.74
284.76
284.753
284.73
284.698
284.661
284.62
284.579
284.54
284.505
284.476
284.456
284.446
284.448
284.46
284.48
284.501
284.519
284.53
284.532
284.526
284.513
284.495
284.473
284.449
284.427
284.407
284.393
284.389
284.403
284.454
284.571
284.768
285.001
285.19
285.278
285.264
285.184
285.081
284.985
284.911
284.863
284.836
284.825
284.824
284.83
284.838
284.848
284.854
284.853
284.841
284.817
284.783
284.74
284.693
284.643
284.593
284.545
284.499
284.456
284.415
284.375
284.336
284.299
284.261
284.223
284.187
284.151
284.117
284.088
284.067
284.061
284.091
284.215
284.506
284.994
285.829
285.236
284.909
284.912
284.95
284.974
284.934
284.803
284.689
284.638
284.631
284.645
284.64
284.571
284.437
284.284
284.152
284.058
284.019
284.065
284.208
284.404
284.58
284.694
284.748
284.762
284.752
284.727
284.692
284.652
284.608
284.563
284.519
284.48
284.445
284.42
284.406
284.407
284.42
284.442
284.467
284.488
284.503
284.51
284.508
284.498
284.483
284.464
284.443
284.423
284.405
284.393
284.39
284.404
284.454
284.565
284.748
284.968
285.154
285.25
285.253
285.193
285.106
285.022
284.953
284.906
284.877
284.862
284.858
284.859
284.864
284.87
284.87
284.861
284.84
284.807
284.766
284.719
284.669
284.618
284.57
284.525
284.482
284.442
284.404
284.368
284.331
284.295
284.259
284.223
284.186
284.151
284.117
284.088
284.066
284.059
284.089
284.212
284.511
285.01
285.828
285.242
284.957
284.953
284.976
284.979
284.905
284.766
284.668
284.629
284.631
284.647
284.635
284.552
284.409
284.256
284.13
284.043
284.012
284.069
284.224
284.425
284.598
284.704
284.752
284.763
284.751
284.725
284.689
284.647
284.6
284.552
284.504
284.46
284.421
284.391
284.374
284.373
284.386
284.409
284.436
284.46
284.478
284.487
284.487
284.481
284.468
284.452
284.434
284.416
284.401
284.391
284.39
284.407
284.457
284.563
284.737
284.947
285.126
285.225
285.24
285.196
285.124
285.051
284.989
284.944
284.915
284.898
284.891
284.889
284.891
284.891
284.882
284.862
284.83
284.788
284.74
284.689
284.639
284.59
284.545
284.503
284.465
284.429
284.395
284.361
284.328
284.293
284.258
284.222
284.186
284.151
284.117
284.088
284.066
284.059
284.087
284.21
284.515
285.025
285.824
285.253
285.004
284.984
284.987
284.969
284.867
284.732
284.649
284.622
284.631
284.649
284.628
284.529
284.378
284.227
284.109
284.03
284.008
284.074
284.238
284.443
284.61
284.709
284.753
284.762
284.751
284.725
284.689
284.646
284.598
284.547
284.496
284.449
284.406
284.372
284.352
284.349
284.361
284.385
284.412
284.436
284.454
284.464
284.466
284.461
284.451
284.437
284.422
284.408
284.396
284.389
284.391
284.411
284.463
284.568
284.736
284.935
285.106
285.205
285.227
285.194
285.135
285.072
285.018
284.976
284.948
284.931
284.922
284.918
284.916
284.906
284.885
284.852
284.809
284.759
284.706
284.654
284.605
284.56
284.52
284.483
284.45
284.419
284.388
284.358
284.326
284.293
284.258
284.223
284.186
284.151
284.117
284.087
284.065
284.058
284.086
284.208
284.519
285.038
285.818
285.268
285.044
285
284.984
284.945
284.825
284.698
284.63
284.617
284.634
284.652
284.619
284.503
284.345
284.199
284.089
284.019
284.004
284.08
284.251
284.454
284.615
284.708
284.75
284.76
284.751
284.727
284.692
284.65
284.601
284.549
284.496
284.446
284.401
284.364
284.34
284.335
284.347
284.369
284.394
284.415
284.432
284.441
284.444
284.441
284.433
284.422
284.41
284.399
284.39
284.387
284.393
284.417
284.473
284.58
284.743
284.933
285.094
285.189
285.214
285.19
285.141
285.088
285.04
285.003
284.977
284.96
284.95
284.943
284.932
284.909
284.873
284.827
284.774
284.719
284.665
284.615
284.57
284.531
284.498
284.468
284.44
284.413
284.386
284.357
284.327
284.294
284.26
284.224
284.187
284.151
284.117
284.087
284.065
284.057
284.085
284.207
284.522
285.048
285.81
285.285
285.072
285.002
284.967
284.907
284.776
284.661
284.613
284.614
284.638
284.655
284.605
284.473
284.311
284.171
284.071
284.009
284.002
284.085
284.26
284.46
284.613
284.701
284.744
284.758
284.751
284.731
284.698
284.657
284.609
284.557
284.504
284.453
284.406
284.367
284.34
284.331
284.34
284.359
284.379
284.397
284.411
284.42
284.422
284.42
284.414
284.406
284.397
284.39
284.385
284.386
284.398
284.427
284.489
284.599
284.76
284.941
285.09
285.177
285.202
285.183
285.143
285.097
285.057
285.024
285.001
284.985
284.973
284.958
284.932
284.893
284.842
284.785
284.727
284.671
284.62
284.576
284.539
284.508
284.482
284.459
284.436
284.413
284.388
284.361
284.331
284.297
284.262
284.225
284.188
284.151
284.116
284.086
284.064
284.057
284.085
284.206
284.525
285.057
285.798
285.3
285.086
284.988
284.939
284.86
284.723
284.628
284.601
284.615
284.646
284.656
284.588
284.44
284.277
284.145
284.055
284.002
284.001
284.09
284.265
284.457
284.6
284.69
284.736
284.754
284.753
284.736
284.708
284.669
284.623
284.572
284.519
284.467
284.42
284.379
284.351
284.336
284.337
284.349
284.365
284.38
284.392
284.399
284.402
284.401
284.397
284.392
284.387
284.383
284.383
284.39
284.407
284.443
284.512
284.628
284.787
284.958
285.093
285.17
285.191
285.175
285.141
285.103
285.068
285.04
285.019
285.003
284.984
284.955
284.91
284.854
284.792
284.729
284.671
284.62
284.577
284.543
284.516
284.494
284.475
284.458
284.44
284.419
284.395
284.367
284.336
284.302
284.265
284.226
284.187
284.15
284.115
284.085
284.064
284.057
284.085
284.206
284.527
285.063
285.784
285.309
285.084
284.963
284.905
284.807
284.674
284.605
284.597
284.621
284.654
284.656
284.566
284.404
284.243
284.122
284.042
283.996
284.001
284.093
284.264
284.441
284.582
284.673
284.724
284.749
284.754
284.744
284.72
284.686
284.643
284.594
284.542
284.491
284.442
284.4
284.367
284.347
284.339
284.344
284.354
284.365
284.374
284.381
284.384
284.384
284.383
284.381
284.38
284.381
284.386
284.398
284.423
284.468
284.546
284.667
284.825
284.982
285.101
285.164
285.18
285.166
285.137
285.104
285.075
285.051
285.03
285.009
284.975
284.924
284.861
284.793
284.726
284.666
284.615
284.574
284.544
284.521
284.504
284.491
284.479
284.466
284.45
284.429
284.404
284.375
284.342
284.305
284.266
284.225
284.186
284.148
284.113
284.084
284.063
284.058
284.085
284.206
284.528
285.067
285.768
285.309
285.067
284.931
284.868
284.757
284.64
284.593
284.599
284.63
284.664
284.652
284.539
284.366
284.211
284.101
284.03
283.992
284.002
284.094
284.25
284.417
284.556
284.65
284.708
284.74
284.753
284.751
284.734
284.706
284.668
284.622
284.573
284.523
284.474
284.43
284.393
284.366
284.35
284.346
284.35
284.357
284.363
284.369
284.372
284.374
284.375
284.377
284.38
284.386
284.398
284.418
284.452
284.507
284.594
284.717
284.866
285.012
285.111
285.161
285.17
285.156
285.13
285.103
285.077
285.054
285.03
284.992
284.933
284.862
284.787
284.716
284.655
284.605
284.568
284.542
284.525
284.514
284.506
284.499
284.491
284.479
284.462
284.44
284.413
284.38
284.344
284.304
284.263
284.221
284.181
284.144
284.11
284.082
284.063
284.058
284.087
284.207
284.53
285.07
285.75
285.295
285.038
284.897
284.832
284.719
284.622
284.591
284.606
284.642
284.673
284.644
284.507
284.328
284.18
284.082
284.022
283.989
284.003
284.09
284.23
284.386
284.521
284.619
284.684
284.725
284.748
284.755
284.748
284.728
284.696
284.656
284.61
284.562
284.514
284.469
284.43
284.398
284.375
284.362
284.358
284.36
284.364
284.367
284.371
284.375
284.379
284.385
284.393
284.406
284.425
284.454
284.498
284.562
284.654
284.775
284.911
285.039
285.122
285.156
285.159
285.144
285.121
285.097
285.073
285.046
285.004
284.936
284.856
284.773
284.699
284.637
284.591
284.56
284.54
284.529
284.523
284.52
284.517
284.513
284.505
284.492
284.472
284.447
284.415
284.379
284.339
284.297
284.254
284.214
284.175
284.139
284.107
284.08
284.062
284.059
284.088
284.209
284.531
285.071
285.731
285.264
285.001
284.864
284.799
284.694
284.615
284.597
284.619
284.655
284.682
284.63
284.47
284.289
284.152
284.067
284.016
283.989
284.004
284.079
284.203
284.347
284.478
284.579
284.651
284.701
284.735
284.755
284.759
284.749
284.726
284.693
284.653
284.609
284.563
284.519
284.479
284.443
284.415
284.395
284.384
284.381
284.381
284.383
284.387
284.392
284.4
284.41
284.423
284.442
284.469
284.507
284.559
284.63
284.722
284.836
284.956
285.063
285.129
285.15
285.147
285.131
285.11
285.085
285.055
285.008
284.93
284.839
284.75
284.673
284.615
284.575
284.551
284.538
284.533
284.532
284.533
284.532
284.53
284.524
284.513
284.496
284.473
284.443
284.407
284.366
284.324
284.282
284.241
284.202
284.166
284.132
284.103
284.078
284.062
284.06
284.091
284.211
284.532
285.071
285.711
285.214
284.96
284.833
284.77
284.679
284.618
284.609
284.635
284.67
284.688
284.61
284.429
284.25
284.127
284.055
284.012
283.989
284.003
284.065
284.171
284.301
284.425
284.527
284.605
284.666
284.712
284.745
284.763
284.766
284.754
284.731
284.698
284.66
284.619
284.578
284.538
284.502
284.472
284.447
284.43
284.423
284.42
284.42
284.424
284.431
284.441
284.454
284.473
284.498
284.531
284.575
284.632
284.705
284.794
284.896
284.999
285.084
285.131
285.141
285.132
285.114
285.09
285.056
285.003
284.914
284.81
284.715
284.64
284.588
284.557
284.543
284.54
284.541
284.542
284.542
284.541
284.537
284.531
284.522
284.507
284.486
284.458
284.423
284.383
284.341
284.299
284.26
284.223
284.188
284.155
284.125
284.098
284.076
284.062
284.062
284.093
284.214
284.534
285.071
285.69
285.148
284.916
284.806
284.746
284.673
284.629
284.628
284.654
284.686
284.692
284.581
284.383
284.213
284.106
284.046
284.01
283.992
284.002
284.05
284.137
284.248
284.362
284.463
284.546
284.615
284.673
284.72
284.754
284.773
284.776
284.765
284.743
284.714
284.679
284.643
284.606
284.572
284.542
284.516
284.497
284.485
284.479
284.479
284.482
284.49
284.502
284.518
284.541
284.57
284.607
284.654
284.712
284.783
284.864
284.952
285.035
285.098
285.128
285.127
285.112
285.087
285.048
284.985
284.884
284.766
284.668
284.599
284.559
284.542
284.541
284.546
284.551
284.551
284.547
284.54
284.531
284.522
284.512
284.499
284.481
284.456
284.425
284.386
284.345
284.306
284.269
284.235
284.203
284.172
284.144
284.117
284.094
284.074
284.062
284.064
284.097
284.218
284.537
285.071
285.67
285.071
284.874
284.783
284.729
284.674
284.645
284.65
284.675
284.701
284.689
284.542
284.334
284.179
284.089
284.04
284.01
283.995
284.001
284.035
284.102
284.193
284.292
284.387
284.471
284.546
284.615
284.677
284.727
284.764
284.785
284.791
284.783
284.765
284.739
284.71
284.679
284.649
284.621
284.597
284.578
284.564
284.557
284.555
284.558
284.566
284.579
284.597
284.621
284.652
284.691
284.738
284.793
284.858
284.928
284.999
285.061
285.103
285.115
285.101
285.073
285.025
284.948
284.834
284.704
284.609
284.554
284.533
284.535
284.547
284.559
284.563
284.558
284.546
284.529
284.512
284.497
284.484
284.471
284.456
284.436
284.408
284.374
284.336
284.3
284.267
284.237
284.209
284.182
284.157
284.133
284.11
284.089
284.073
284.063
284.067
284.101
284.223
284.541
285.071
285.65
284.989
284.835
284.764
284.718
284.68
284.665
284.674
284.696
284.715
284.678
284.491
284.285
284.15
284.076
284.036
284.012
284
284.001
284.023
284.07
284.139
284.22
284.303
284.383
284.46
284.535
284.608
284.675
284.731
284.773
284.798
284.808
284.805
284.793
284.774
284.751
284.727
284.704
284.683
284.665
284.652
284.644
284.642
284.645
284.653
284.666
284.684
284.708
284.739
284.775
284.819
284.869
284.923
284.98
285.032
285.073
285.093
285.081
285.042
284.98
284.885
284.756
284.622
284.541
284.511
284.517
284.541
284.565
284.578
284.576
284.56
284.537
284.51
284.484
284.461
284.443
284.429
284.415
284.398
284.374
284.345
284.312
284.282
284.255
284.23
284.207
284.185
284.164
284.143
284.123
284.103
284.086
284.072
284.065
284.071
284.107
284.229
284.547
285.074
285.632
284.91
284.801
284.75
284.715
284.691
284.686
284.698
284.716
284.724
284.653
284.431
284.239
284.127
284.067
284.036
284.017
284.006
284.003
284.015
284.045
284.092
284.152
284.219
284.288
284.36
284.435
284.514
284.592
284.666
284.728
284.776
284.808
284.825
284.83
284.825
284.814
284.799
284.783
284.767
284.752
284.741
284.734
284.731
284.734
284.741
284.753
284.771
284.793
284.82
284.853
284.89
284.93
284.972
285.011
285.042
285.057
285.043
284.987
284.902
284.785
284.647
284.525
284.474
284.482
284.523
284.567
284.596
284.6
284.584
284.556
284.522
284.488
284.456
284.428
284.404
284.385
284.369
284.353
284.333
284.309
284.284
284.26
284.238
284.219
284.201
284.183
284.166
284.149
284.132
284.115
284.099
284.084
284.073
284.068
284.076
284.114
284.238
284.557
285.08
285.616
284.846
284.777
284.742
284.719
284.706
284.708
284.72
284.732
284.728
284.609
284.364
284.2
284.11
284.063
284.038
284.023
284.013
284.009
284.014
284.029
284.058
284.097
284.144
284.198
284.257
284.324
284.399
284.48
284.563
284.642
284.711
284.767
284.807
284.834
284.848
284.853
284.851
284.845
284.837
284.828
284.82
284.814
284.813
284.815
284.821
284.831
284.846
284.864
284.886
284.911
284.938
284.964
284.987
285.002
285.001
284.973
284.896
284.776
284.645
284.514
284.427
284.426
284.488
284.565
284.617
284.631
284.614
284.583
284.546
284.509
284.473
284.439
284.408
284.381
284.357
284.335
284.316
284.297
284.278
284.258
284.239
284.223
284.208
284.193
284.18
284.166
284.152
284.138
284.123
284.109
284.096
284.084
284.075
284.073
284.082
284.123
284.25
284.573
285.094
285.599
284.802
284.764
284.743
284.73
284.726
284.733
284.741
284.741
284.72
284.538
284.3
284.172
284.1
284.062
284.043
284.031
284.023
284.018
284.019
284.025
284.039
284.061
284.09
284.125
284.167
284.217
284.278
284.349
284.429
284.512
284.594
284.668
284.732
284.782
284.82
284.845
284.862
284.87
284.874
284.873
284.87
284.867
284.867
284.869
284.873
284.881
284.89
284.902
284.914
284.926
284.935
284.939
284.933
284.908
284.856
284.759
284.614
284.49
284.408
284.399
284.471
284.58
284.66
284.674
284.649
284.612
284.575
284.54
284.506
284.473
284.441
284.41
284.381
284.355
284.33
284.308
284.287
284.267
284.249
284.232
284.216
284.203
284.191
284.18
284.168
284.157
284.145
284.132
284.12
284.108
284.096
284.087
284.08
284.079
284.091