/*--------------------------------*- C++ -*----------------------------------*\
| =========                 |                                                 |
| \\      /  F ield         | OpenFOAM: The Open Source CFD Toolbox           |
|  \\    /   O peration     | Version:  4.1                                   |
|   \\  /    A nd           | Web:      www.OpenFOAM.org                      |
|    \\/     M anipulation  |                                                 |
\*---------------------------------------------------------------------------*/
FoamFile
{
    version     2.0;
    format      ascii;
    class       volScalarField;
    location    "1760";
    object      mag(U);
}
// * * * * * * * * * * * * * * * * * * * * * * * * * * * * * * * * * * * * * //

dimensions      [0 1 -1 0 0 0 0];

internalField   nonuniform List<scalar> 
5000
(
0.00596755
0.00672228
0.00823185
0.0089775
0.00936557
0.00953604
0.00953565
0.00937947
0.00907278
0.00862424
0.00804862
0.0073649
0.00659414
0.00575633
0.00486713
0.00393683
0.00297525
0.00201036
0.00112971
0.000674343
0.00145126
0.00232682
0.00321822
0.00407661
0.00488352
0.00564002
0.00635241
0.00702668
0.00766744
0.00827832
0.0088623
0.00942179
0.00995853
0.0104736
0.0109672
0.0114388
0.0118874
0.0123109
0.012707
0.0130725
0.013404
0.0136975
0.0139489
0.0141537
0.0143075
0.0144063
0.0144463
0.0144297
0.0143538
0.0142159
0.014014
0.013746
0.0134103
0.013006
0.0125327
0.0119905
0.0113799
0.0107008
0.0099511
0.00912365
0.00819922
0.00713028
0.00579789
0.00462967
0.00310494
0.00552123
0.00644038
0.00733026
0.00797441
0.00849632
0.0089426
0.00933341
0.00967443
0.00996333
0.0101942
0.0103601
0.010454
0.0104689
0.0103975
0.0102317
0.00996839
0.00960787
0.00915291
0.00860766
0.00797715
0.0072669
0.00648278
0.00563074
0.00471567
0.00374039
0.00271501
0.00170711
0.000999894
0.00157143
0.00243017
0.00328408
0.00394901
0.00435903
0.00414225
0.00392049
0.0080542
0.00649343
0.00753861
0.00830024
0.00876264
0.00897494
0.00898589
0.00883211
0.00853092
0.00809436
0.00753807
0.00688113
0.00614512
0.0053517
0.00452048
0.00367035
0.00283188
0.00208977
0.00164534
0.00178445
0.00228925
0.0029518
0.00369907
0.00447524
0.0052478
0.00600188
0.00673241
0.00743843
0.00812058
0.00878004
0.00941816
0.0100362
0.0106352
0.0112156
0.0117773
0.0123197
0.0128416
0.0133412
0.0138163
0.0142643
0.014682
0.0150661
0.0154131
0.0157193
0.0159807
0.0161932
0.0163531
0.0164513
0.0164822
0.0164423
0.016328
0.0161361
0.0158638
0.0155084
0.0150681
0.0145409
0.0139251
0.0132176
0.012413
0.0115006
0.0104617
0.00927182
0.00792789
0.00702739
0.00714593
0.00561997
0.00577236
0.0070306
0.00800042
0.00873084
0.00931231
0.009789
0.0101787
0.0104857
0.010708
0.0108416
0.0108825
0.0108264
0.0106741
0.0104291
0.0100901
0.00965863
0.00913833
0.00853422
0.00785238
0.00709984
0.00628486
0.0054176
0.00451116
0.00358631
0.00269912
0.00203164
0.00192297
0.00236224
0.00265172
0.00299225
0.00323806
0.00326883
0.00307388
0.00517794
0.0111679
0.00723558
0.00684269
0.00723896
0.00766367
0.00790367
0.00796221
0.00786431
0.0076311
0.00727575
0.00681425
0.00626621
0.00565483
0.00500559
0.00434595
0.00370938
0.00315018
0.00276267
0.00262332
0.00270898
0.00297775
0.0034367
0.00401384
0.00465385
0.00532118
0.00599413
0.00666084
0.00731553
0.00795567
0.00858044
0.00918982
0.00978411
0.0103636
0.0109281
0.0114774
0.0120104
0.0125256
0.0130212
0.0134947
0.0139436
0.0143647
0.0147548
0.0151104
0.015428
0.0157038
0.0159336
0.0161128
0.0162369
0.0163006
0.0162982
0.0162257
0.0160792
0.0158546
0.0155484
0.0151574
0.0146783
0.0141085
0.013445
0.0126852
0.0118277
0.0108778
0.00987282
0.00896389
0.00884557
0.0104767
0.00939097
0.00571677
0.00584345
0.0066857
0.00746096
0.00812269
0.00868155
0.0091455
0.00951602
0.00979117
0.00996814
0.0100446
0.010018
0.00988912
0.00966149
0.00933858
0.00892551
0.00842858
0.00785558
0.00721594
0.00652118
0.00578629
0.0050324
0.00429178
0.0036192
0.00311892
0.00294128
0.00309931
0.0032032
0.00310913
0.00299577
0.00284981
0.0025268
0.00273671
0.00690483
0.0141191
0.00864523
0.00692699
0.00671274
0.00690562
0.00706335
0.00711555
0.00705727
0.00689589
0.00663906
0.00629833
0.00588961
0.00543365
0.00495598
0.00448717
0.00406439
0.00373596
0.00355337
0.00348798
0.00347534
0.00360363
0.00389235
0.00430221
0.00479413
0.00533699
0.00590753
0.00649012
0.0070752
0.00765728
0.00823335
0.00880178
0.00936164
0.00991223
0.0104527
0.010982
0.0114985
0.0120004
0.0124854
0.0129507
0.0133935
0.0138106
0.0141987
0.0145546
0.0148746
0.0151552
0.0153926
0.0155831
0.0157222
0.015807
0.0158302
0.0157881
0.0156763
0.0154902
0.0152256
0.0148785
0.0144458
0.0139252
0.0133164
0.0126232
0.0118577
0.0110526
0.010295
0.00981464
0.0102595
0.0127047
0.0132768
0.008507
0.00566471
0.00574111
0.00635546
0.00700924
0.00760662
0.00811881
0.00853386
0.00884576
0.00905165
0.00915127
0.00914541
0.00903595
0.00883005
0.00853266
0.00815121
0.00769522
0.00717646
0.00660935
0.006012
0.00540843
0.00483229
0.00433222
0.003979
0.0038545
0.00396066
0.00406471
0.00390215
0.00352447
0.00306429
0.00262231
0.00230829
0.00306682
0.00831559
0.0166987
0.0101569
0.00741017
0.0065061
0.00636498
0.00639111
0.00641394
0.00638802
0.00630488
0.00616282
0.00596381
0.00571362
0.00542461
0.00511777
0.0048216
0.00456824
0.00438946
0.00430361
0.00425429
0.00418421
0.0042112
0.00436123
0.00461791
0.00496128
0.00537039
0.00582544
0.00631041
0.00681368
0.00732743
0.00784651
0.00836751
0.00888801
0.00940601
0.00991961
0.0104267
0.0109249
0.0114117
0.011884
0.0123388
0.0127727
0.0131825
0.0135648
0.0139162
0.0142334
0.0145132
0.0147524
0.0149477
0.0150956
0.0151949
0.0152387
0.0152239
0.0151463
0.0150018
0.0147861
0.0144952
0.0141263
0.0136782
0.0131532
0.0125605
0.0119223
0.0112875
0.0107628
0.0105869
0.0113202
0.0140894
0.0160088
0.0126923
0.00684264
0.00559504
0.00574243
0.00621865
0.00674866
0.00723595
0.00764329
0.00795551
0.00816669
0.00827606
0.0082861
0.00819866
0.00802243
0.00776413
0.00743397
0.00704522
0.00661431
0.00616128
0.00571075
0.00529313
0.00494571
0.00471656
0.00466646
0.00480952
0.00496808
0.00488503
0.00450669
0.00389182
0.00316799
0.00252565
0.00236794
0.00358508
0.00943046
0.019033
0.0116537
0.00804729
0.00644984
0.00593584
0.00581778
0.00581139
0.00581913
0.00582274
0.00580852
0.00576281
0.0056747
0.00554465
0.00538899
0.00523407
0.00510537
0.00502015
0.00497946
0.00494276
0.00485236
0.00480657
0.00484906
0.00497691
0.00518417
0.00546176
0.00579731
0.00617791
0.00659231
0.00703156
0.00748888
0.00795909
0.00843808
0.00892229
0.00940836
0.00989291
0.0103725
0.0108434
0.011302
0.0117446
0.0121674
0.0125669
0.0129396
0.0132822
0.0135917
0.0138652
0.0141
0.0142937
0.0144437
0.0145484
0.0146064
0.0146131
0.0145656
0.0144613
0.0142967
0.0140692
0.013777
0.0134203
0.0130038
0.0125395
0.0120539
0.0115992
0.0112785
0.0113054
0.0121523
0.014943
0.0177928
0.01611
0.00999217
0.00621856
0.00566833
0.00581914
0.00616367
0.00654048
0.00688071
0.00715397
0.00734636
0.0074528
0.00747518
0.00741487
0.00728134
0.00708335
0.00683329
0.00654734
0.00624533
0.00595063
0.00568968
0.00549014
0.00537915
0.00539586
0.00558617
0.00584558
0.00588731
0.00561928
0.00504122
0.00421625
0.00329861
0.00256809
0.00265609
0.00421537
0.0104013
0.0212014
0.0131113
0.00872474
0.00644053
0.00554482
0.00529314
0.00527042
0.00532189
0.00542286
0.0055453
0.00565402
0.00571786
0.00572745
0.00569867
0.00565739
0.00562279
0.0056019
0.00558947
0.00556391
0.00548478
0.00539677
0.00536002
0.00538624
0.00547811
0.00563621
0.00585694
0.00613326
0.00645668
0.00681884
0.00721217
0.00763005
0.00806664
0.0085166
0.00897483
0.00943641
0.00989648
0.0103503
0.0107933
0.0112211
0.0116297
0.0120151
0.012374
0.0127032
0.013
0.0132619
0.0134869
0.013673
0.013819
0.0139234
0.0139877
0.0140086
0.013985
0.013916
0.0138001
0.0136365
0.0134254
0.0131689
0.0128732
0.0125513
0.0122289
0.0119532
0.0118119
0.0119821
0.012856
0.0154997
0.0189132
0.0187037
0.0137648
0.00774585
0.00608306
0.00581466
0.00588086
0.00606398
0.00627259
0.00646166
0.00660713
0.00669695
0.00673037
0.00670768
0.00663741
0.00652892
0.0063945
0.00624987
0.00611376
0.00600736
0.00595216
0.00596551
0.00606099
0.00628021
0.00663177
0.00684187
0.00674141
0.00629714
0.00552336
0.00450935
0.0034607
0.00277471
0.00314777
0.00494633
0.0113094
0.0232066
0.0144959
0.00938751
0.00642083
0.00514377
0.00478371
0.00476454
0.00487425
0.00508255
0.0053447
0.00559961
0.00579735
0.00592524
0.00600331
0.00605711
0.00609963
0.0061315
0.00614647
0.00613392
0.00607878
0.00598335
0.00589498
0.00584499
0.0058445
0.00590074
0.00601792
0.00619589
0.00643079
0.00671644
0.00704559
0.00741071
0.00780438
0.00821937
0.00864871
0.00908575
0.00952416
0.00995803
0.0103819
0.010791
0.0111807
0.0115473
0.0118873
0.0121981
0.0124771
0.0127225
0.0129327
0.0131068
0.0132441
0.0133442
0.0134097
0.0134393
0.0134341
0.013395
0.0133232
0.0132204
0.0130889
0.012933
0.01276
0.0125824
0.0124218
0.0123165
0.012335
0.0126172
0.0134826
0.0158963
0.0195711
0.0205848
0.0170238
0.0106275
0.00689081
0.00614297
0.00589617
0.00582541
0.00584156
0.00589697
0.00596229
0.00601904
0.00606245
0.00609038
0.00610767
0.00612081
0.00613634
0.0061628
0.00621176
0.00629795
0.00643596
0.00663434
0.00689908
0.00728481
0.00767309
0.00778664
0.00754655
0.00692428
0.00595449
0.00477177
0.00366342
0.00314852
0.00380596
0.00577165
0.0121932
0.0250101
0.015758
0.010011
0.00636969
0.00470687
0.00426744
0.00427433
0.00445818
0.00478163
0.00518068
0.00556735
0.00587919
0.00610801
0.00627996
0.00641854
0.00653074
0.00661349
0.0066613
0.00666942
0.00663572
0.00655962
0.00645067
0.00634825
0.00627679
0.00625015
0.00627852
0.00636825
0.00652091
0.00673366
0.00700049
0.00731354
0.00766407
0.00804303
0.00844155
0.0088512
0.00926422
0.00967365
0.0100733
0.0104579
0.010823
0.0111647
0.0114801
0.0117666
0.0120224
0.0122463
0.0124373
0.0125953
0.0127205
0.0128132
0.012877
0.0129123
0.0129219
0.0129091
0.0128776
0.0128314
0.0127757
0.0127163
0.0126614
0.0126218
0.0126143
0.0126664
0.0128281
0.0132051
0.0140534
0.016212
0.0199198
0.0218915
0.0196893
0.0139887
0.00834337
0.00672637
0.00616654
0.00582074
0.00560078
0.00547421
0.00542073
0.00542319
0.00547404
0.00556654
0.00569698
0.00586098
0.00605056
0.00626
0.00649093
0.00675334
0.00705913
0.00741329
0.00781918
0.00831588
0.00866736
0.00868445
0.00829969
0.00749005
0.00631772
0.00498308
0.00389134
0.00364971
0.00459085
0.00668379
0.0130761
0.0265604
0.0168298
0.0105928
0.00631274
0.00423716
0.00374233
0.00378922
0.00405944
0.00450176
0.00503001
0.0055316
0.00594064
0.00625933
0.00651868
0.00673778
0.00691824
0.00705497
0.00714333
0.00718125
0.00717029
0.0071149
0.00701732
0.00688887
0.00676605
0.00667369
0.00662834
0.00664183
0.00672098
0.00686676
0.00707498
0.0073379
0.00764564
0.00798748
0.00835269
0.00873124
0.00911409
0.00949341
0.00986257
0.0102161
0.0105497
0.0108597
0.0111438
0.0113999
0.0116269
0.0118242
0.0119917
0.0121299
0.0122398
0.0123229
0.0123833
0.0124228
0.0124459
0.0124575
0.0124638
0.012471
0.0124864
0.0125178
0.0125731
0.0126614
0.0127942
0.0129891
0.0132789
0.0137411
0.0145767
0.0164916
0.0200724
0.0227474
0.0217863
0.0170799
0.0107987
0.00751906
0.00662794
0.00602258
0.00554975
0.00520324
0.00498955
0.00491001
0.00496275
0.00513388
0.00539961
0.00573431
0.00610597
0.00649152
0.00688617
0.00730145
0.00775166
0.00824012
0.00876476
0.00931048
0.00961088
0.00952857
0.00898865
0.00797454
0.006581
0.00510035
0.00410399
0.00422036
0.00545747
0.00766505
0.0139694
0.0278178
0.0176202
0.011128
0.00632831
0.00378512
0.00323197
0.0033075
0.0036676
0.00422771
0.00487399
0.00547444
0.00596901
0.00637257
0.00671743
0.0070166
0.00726725
0.00746312
0.00759982
0.007676
0.00769378
0.00765876
0.00757794
0.0074546
0.0073028
0.00716031
0.00705445
0.00700333
0.00701844
0.00710444
0.00725908
0.00747488
0.00774094
0.00804488
0.00837431
0.00871775
0.00906519
0.00940821
0.00974004
0.0100554
0.0103501
0.0106214
0.0108674
0.0110867
0.0112791
0.0114447
0.0115842
0.011699
0.011791
0.0118624
0.0119182
0.0119612
0.0119973
0.0120329
0.0120758
0.0121343
0.0122172
0.0123331
0.01249
0.0126949
0.0129542
0.0132768
0.0136818
0.0142227
0.0150551
0.0167578
0.0201115
0.0232592
0.023384
0.019768
0.0137429
0.00873419
0.00722534
0.00638757
0.00567228
0.00508773
0.00467701
0.00448273
0.00452622
0.00478467
0.00520106
0.00571296
0.00625865
0.00680104
0.00733671
0.00788484
0.0084636
0.00907148
0.00968748
0.0102508
0.0104992
0.0103107
0.00960268
0.00835956
0.00670598
0.00505928
0.00423862
0.00480048
0.00635492
0.00868159
0.0148678
0.0287851
0.0180326
0.0115877
0.00650462
0.00347459
0.00279864
0.00285663
0.00328274
0.00395083
0.0047006
0.00538633
0.00596016
0.00644781
0.00687878
0.00725951
0.00758376
0.00784429
0.00803633
0.00815817
0.00821143
0.00820135
0.00813632
0.00802571
0.0078739
0.00769983
0.0075452
0.0074391
0.00739889
0.00743236
0.00753896
0.00771131
0.00793741
0.00820318
0.00849464
0.00879914
0.00910599
0.00940657
0.00969425
0.00996415
0.0102129
0.0104383
0.0106393
0.0108156
0.0109676
0.0110965
0.0112037
0.0112916
0.0113629
0.0114207
0.011471
0.0115171
0.0115663
0.011626
0.0117054
0.011814
0.0119613
0.0121565
0.0124069
0.0127173
0.0130899
0.0135263
0.0140347
0.0146495
0.015489
0.0170185
0.0200944
0.0235165
0.0245563
0.0220224
0.0166139
0.0107155
0.00794089
0.00686972
0.00594068
0.00512213
0.00448961
0.00414433
0.00415909
0.00450889
0.0050806
0.00576241
0.00646274
0.00713853
0.00779581
0.00846396
0.00916179
0.00987691
0.0105612
0.0111278
0.0113271
0.0110292
0.0101448
0.00864592
0.00666879
0.00478455
0.00420979
0.00532515
0.00722251
0.00968113
0.0157465
0.0295219
0.0180121
0.0119033
0.00688139
0.00346677
0.00255786
0.00249606
0.00291952
0.00367113
0.00450613
0.00526625
0.00591685
0.00648953
0.00700782
0.00747202
0.00787339
0.00820359
0.00845692
0.00863072
0.00872573
0.00874646
0.00870115
0.00860122
0.00845881
0.00827959
0.00809062
0.00793779
0.00784896
0.00783617
0.00789998
0.00803268
0.00822082
0.00844851
0.00870023
0.00896236
0.00922384
0.00947618
0.00971324
0.0099309
0.0101267
0.0102994
0.0104489
0.0105761
0.0106823
0.0107695
0.0108404
0.010898
0.010946
0.0109885
0.0110322
0.0110812
0.0111435
0.0112279
0.011344
0.011502
0.0117116
0.0119816
0.0123184
0.0127245
0.0131984
0.0137363
0.0143377
0.0150222
0.015878
0.0172734
0.0200579
0.0235923
0.0253759
0.0238636
0.0192503
0.0132226
0.00889305
0.0074319
0.00632243
0.00529159
0.0044309
0.00390152
0.00386024
0.00429403
0.00501425
0.00584773
0.00667815
0.00746608
0.00823234
0.00901453
0.00982608
0.010638
0.0113782
0.0119322
0.0120951
0.011698
0.0106428
0.0088749
0.00649962
0.00421467
0.00394997
0.00573189
0.00798981
0.0105946
0.0165616
0.0301207
0.0175904
0.0120122
0.00738081
0.00382163
0.00263588
0.00231317
0.00261193
0.00339863
0.0042961
0.00512104
0.00584682
0.00650468
0.00711046
0.00765939
0.00814067
0.00854462
0.00886414
0.00909523
0.00923752
0.00929469
0.00927453
0.00918872
0.00905214
0.00888001
0.00867935
0.00848998
0.00835772
0.00830314
0.00832853
0.00842502
0.00857716
0.00876701
0.0089775
0.00919423
0.00940604
0.00960488
0.00978542
0.00994455
0.0100809
0.0101946
0.0102866
0.0103589
0.010414
0.010455
0.0104856
0.0105097
0.010532
0.0105574
0.0105937
0.0106453
0.0107211
0.0108305
0.0109839
0.011191
0.0114614
0.0118028
0.0122199
0.0127131
0.0132781
0.0139068
0.0145922
0.0153423
0.0162215
0.0175182
0.0200233
0.0235447
0.0259084
0.025328
0.021581
0.015811
0.0104291
0.00806257
0.00678588
0.005575
0.00449876
0.00376267
0.00362921
0.00412772
0.00497839
0.00593851
0.00687458
0.00775904
0.00862851
0.00952343
0.0104457
0.011347
0.0121351
0.0126792
0.0128145
0.0123488
0.0111618
0.00914643
0.00633762
0.00334521
0.00342492
0.00597248
0.00858238
0.0113422
0.0172536
0.0306617
0.0169328
0.0119397
0.00783844
0.00442826
0.00303687
0.00238883
0.00241878
0.00315527
0.00408578
0.004964
0.00576073
0.00650092
0.00719223
0.00782569
0.00838851
0.00886923
0.00925891
0.00955186
0.00974634
0.00984508
0.00985538
0.00978882
0.00966089
0.00949033
0.00929502
0.00908582
0.00891631
0.0088228
0.00881279
0.00887583
0.00899359
0.00914576
0.00931369
0.00948231
0.0096406
0.00978123
0.00989995
0.00999491
0.0100661
0.010115
0.0101439
0.010156
0.0101552
0.0101456
0.010132
0.0101195
0.0101138
0.0101207
0.0101482
0.0102024
0.0102922
0.0104275
0.0106187
0.0108751
0.011205
0.0116148
0.0121073
0.0126807
0.0133281
0.0140384
0.0147997
0.0156118
0.0165195
0.017747
0.0200004
0.0234187
0.0262118
0.0264599
0.0235907
0.0183197
0.0124801
0.00880895
0.00730676
0.00595008
0.00468467
0.00373587
0.00347098
0.00399966
0.00495335
0.00601217
0.00703293
0.00800458
0.00897626
0.0099845
0.0110158
0.0120039
0.0128423
0.0133961
0.0135099
0.0130276
0.0117916
0.00962186
0.00648463
0.00248525
0.00270501
0.00602616
0.00893155
0.011846
0.0177572
0.0311876
0.016205
0.011764
0.00821189
0.00512392
0.00364336
0.00270987
0.00240244
0.00298004
0.00389964
0.00481224
0.00566971
0.00648489
0.00725696
0.00797297
0.00861768
0.00917725
0.00964036
0.00999919
0.0102503
0.0103954
0.0104411
0.0103989
0.0102845
0.0101175
0.00992083
0.00971271
0.00951636
0.00938691
0.00934299
0.00937431
0.00945883
0.00957329
0.0096973
0.00981527
0.00991655
0.00999475
0.010047
0.0100728
0.0100737
0.0100527
0.0100135
0.00996078
0.00989948
0.00983517
0.00977378
0.00972162
0.00968542
0.00967207
0.00969049
0.00974733
0.00985147
0.0100135
0.0102433
0.0105492
0.010938
0.0114139
0.0119776
0.0126253
0.0133478
0.0141318
0.0149623
0.0158324
0.0167721
0.0179544
0.019991
0.0232475
0.026336
0.0273033
0.025286
0.0206471
0.0147655
0.00993687
0.00787123
0.00639458
0.00497491
0.00382559
0.00339281
0.00390463
0.00492625
0.0060558
0.00714499
0.00819921
0.00927374
0.0103956
0.0115355
0.0126141
0.0135179
0.0141123
0.0142498
0.0137771
0.0125475
0.0104228
0.00727875
0.00309021
0.00225064
0.00601136
0.00902475
0.0120562
0.0180209
0.0317078
0.0155149
0.01155
0.00853163
0.00581767
0.004334
0.00319374
0.00257631
0.0029131
0.00376359
0.00468207
0.00558264
0.00646062
0.00730583
0.00810065
0.00882648
0.00946625
0.0100056
0.0104341
0.0107461
0.0109421
0.011028
0.0110151
0.0109193
0.0107602
0.0105622
0.0103522
0.0101477
0.00998787
0.00991106
0.00991129
0.00996308
0.0100395
0.0101182
0.010183
0.0102241
0.0102361
0.0102176
0.0101701
0.0100965
0.0100013
0.00988984
0.00976799
0.00964217
0.00951921
0.00940639
0.00931137
0.00924217
0.00920689
0.00921539
0.00927497
0.00939431
0.00958425
0.00985376
0.0102097
0.0106569
0.0111971
0.0118287
0.0125456
0.0133371
0.0141882
0.0150817
0.016006
0.0169796
0.0181355
0.0199921
0.0230543
0.0263229
0.0278998
0.0266868
0.0227477
0.017095
0.0115289
0.00850304
0.00689333
0.00535474
0.00403085
0.00340641
0.0038448
0.00489334
0.00606677
0.00721194
0.00834573
0.00952224
0.0107562
0.0120056
0.0131837
0.0141766
0.0148549
0.0150789
0.0147029
0.0135791
0.0115713
0.008611
0.00486891
0.00248398
0.00578964
0.00875177
0.0119257
0.0179807
0.0322093
0.0149316
0.0113526
0.00881072
0.00650226
0.00503421
0.00375864
0.0029113
0.00297999
0.00369449
0.00458485
0.00550412
0.00642833
0.00733657
0.00820505
0.00901045
0.0097314
0.0103497
0.0108514
0.0112287
0.0114801
0.0116109
0.0116323
0.0115599
0.0114138
0.0112182
0.0110027
0.0107964
0.010617
0.0105097
0.0104789
0.0104978
0.0105356
0.0105673
0.0105766
0.0105544
0.0104968
0.0104043
0.0102797
0.0101281
0.00995542
0.00976826
0.00957386
0.00937992
0.00919464
0.00902673
0.00888545
0.00878039
0.00872114
0.00871869
0.00878117
0.00891673
0.00913609
0.00944686
0.00985388
0.0103594
0.0109625
0.011659
0.0124409
0.0132961
0.0142084
0.0151594
0.0161343
0.0171426
0.018286
0.0199978
0.0228536
0.0262072
0.0282875
0.027819
0.0246053
0.0193564
0.0135
0.0092933
0.00743684
0.00580946
0.00434469
0.00352328
0.00383103
0.00486064
0.00605181
0.0072416
0.00844977
0.00972315
0.0110645
0.0124236
0.0137122
0.0148203
0.015626
0.0159985
0.0158006
0.014893
0.0131511
0.0105154
0.00713685
0.00423513
0.00540882
0.00814365
0.0114633
0.0175633
0.0326624
0.0144927
0.0112215
0.00908546
0.00715475
0.00570944
0.00435182
0.00334687
0.00316792
0.00370639
0.00452637
0.00543327
0.00638357
0.00734299
0.00827918
0.00916229
0.00996538
0.0106654
0.0112444
0.0116915
0.0120031
0.0121836
0.012244
0.0122004
0.0120722
0.0118838
0.0116654
0.0114513
0.0112651
0.0111316
0.01107
0.0110555
0.0110537
0.0110368
0.0109882
0.0108998
0.0107696
0.0106
0.0103958
0.0101637
0.00991102
0.00964574
0.00937616
0.00911108
0.00886002
0.00863326
0.00844189
0.00829752
0.00821166
0.00819685
0.00826229
0.00841531
0.00866604
0.00902016
0.00947974
0.0100439
0.0107088
0.0114678
0.0123109
0.0132251
0.0141934
0.0151968
0.0162186
0.0172614
0.0184027
0.0200009
0.0226533
0.0260164
0.0285002
0.0287088
0.0262184
0.0214848
0.0156362
0.010455
0.00802582
0.0063247
0.00475649
0.00375224
0.00388063
0.004841
0.00602403
0.00724463
0.00851606
0.00987434
0.0113129
0.0127777
0.0141833
0.0154262
0.016393
0.0169622
0.0170051
0.01639
0.0149952
0.0127413
0.00968271
0.00639506
0.005233
0.00730152
0.0106607
0.0167357
0.033025
0.0142192
0.0111698
0.00939305
0.00776417
0.00634951
0.0049477
0.00384412
0.0034672
0.00380241
0.00449875
0.00536198
0.00631685
0.00731496
0.00831278
0.00927193
0.0101584
0.0109434
0.0116042
0.0121259
0.0125028
0.0127381
0.0128428
0.0128333
0.0127287
0.0125525
0.0123351
0.012113
0.0119196
0.0117684
0.0116777
0.0116294
0.0115866
0.0115192
0.0114103
0.0112532
0.0110479
0.010799
0.0105132
0.0101991
0.00986532
0.00952066
0.00917422
0.00883566
0.00851561
0.00822603
0.00798014
0.00779212
0.0076761
0.00764679
0.007715
0.00788688
0.00817151
0.00857175
0.00908598
0.00970964
0.0104357
0.0112549
0.0121558
0.0131245
0.014144
0.0151951
0.01626
0.0173363
0.0184827
0.0199941
0.0224557
0.0257716
0.0285673
0.029382
0.0275958
0.0234443
0.0178045
0.0120181
0.00869459
0.00689307
0.00525411
0.00409278
0.00401157
0.00485154
0.0059993
0.0072304
0.00854468
0.00996637
0.0114828
0.01304
0.0145573
0.0159393
0.0170815
0.0178717
0.0181898
0.0179103
0.0169087
0.0150799
0.0123819
0.00896961
0.00592371
0.00646957
0.00952904
0.0154398
0.033253
0.0141248
0.0111992
0.00973468
0.00833502
0.00695536
0.0055342
0.00436709
0.0038251
0.00394211
0.00448636
0.00527646
0.0062144
0.00723889
0.00829278
0.00932692
0.0102988
0.0111725
0.0119199
0.0125219
0.0129697
0.0132652
0.0134198
0.0134501
0.013375
0.0132168
0.0130051
0.0127779
0.0125736
0.0124116
0.0122951
0.0122129
0.0121277
0.012008
0.0118366
0.0116085
0.011326
0.010996
0.0106279
0.0102316
0.00981675
0.00939277
0.00896897
0.00855537
0.00816347
0.0078068
0.00750113
0.00726388
0.00711281
0.00706578
0.00713613
0.00732846
0.00765016
0.00810013
0.00867189
0.00935641
0.0101432
0.0110206
0.011976
0.012995
0.014061
0.0151551
0.0162591
0.0173672
0.0185235
0.01997
0.0222592
0.0254878
0.0285137
0.0298626
0.0287501
0.0252166
0.0199265
0.013908
0.00951997
0.00751356
0.00582385
0.00453384
0.00423177
0.00491309
0.00599212
0.00720296
0.00852808
0.00998002
0.0115428
0.0131649
0.0147717
0.0162756
0.0175818
0.018588
0.0191841
0.0192523
0.0186706
0.0173218
0.0151115
0.0120369
0.00839918
0.00615689
0.00812638
0.0135978
0.0333016
0.0141998
0.0113151
0.0101037
0.00887378
0.00753055
0.00610447
0.00489209
0.00421003
0.00411327
0.00447827
0.00516105
0.00605945
0.00709858
0.00820404
0.00931309
0.0103729
0.0113397
0.0121793
0.0128679
0.0133929
0.0137547
0.0139647
0.014041
0.0140022
0.0138684
0.0136679
0.0134397
0.0132249
0.0130511
0.0129144
0.0127991
0.0126706
0.0124968
0.0122609
0.0119597
0.0115985
0.011187
0.0107367
0.0102592
0.00976492
0.00926318
0.00876287
0.0082737
0.0078075
0.00737923
0.00700745
0.00671378
0.00652088
0.00645132
0.00652247
0.00673703
0.00709988
0.00760432
0.00823739
0.00898465
0.0098319
0.0107655
0.011772
0.0128371
0.0139449
0.0150773
0.0162164
0.0173538
0.0185228
0.0199218
0.0220595
0.0251748
0.0283597
0.0301718
0.0296942
0.026792
0.0219478
0.0160111
0.0106141
0.0081877
0.0064514
0.00506574
0.00455553
0.00503752
0.00600445
0.00715804
0.00845084
0.00988772
0.011452
0.0130962
0.0147513
0.0163377
0.0177698
0.0189559
0.0197977
0.020189
0.0200152
0.0191573
0.0174929
0.0149157
0.0113861
0.00731331
0.00664395
0.0111115
0.0332016
0.0143602
0.0115108
0.0104909
0.00938534
0.0080778
0.00665376
0.00540469
0.00460184
0.00430064
0.00445322
0.00499571
0.005833
0.00687646
0.00803064
0.00921577
0.0103666
0.011431
0.0123687
0.0131506
0.01376
0.0141947
0.0144665
0.0145952
0.0145999
0.014498
0.0143153
0.0140906
0.0138683
0.0136806
0.0135277
0.0133813
0.0132092
0.0129797
0.0126775
0.0123018
0.011861
0.0113681
0.0108371
0.010281
0.00971055
0.00913426
0.00855982
0.00799581
0.00745362
0.00694914
0.00650378
0.00614435
0.00590019
0.00580096
0.00587053
0.00610942
0.00651887
0.00708405
0.00778328
0.00859566
0.00950323
0.0104908
0.0115447
0.0126515
0.0137963
0.0149621
0.0161317
0.0172954
0.0184782
0.0198431
0.0218504
0.0248381
0.0281214
0.0303281
0.030441
0.0281692
0.0238346
0.0181346
0.0121144
0.00893286
0.00712326
0.00566454
0.00495946
0.00521205
0.00603394
0.00708645
0.00829425
0.0096611
0.0111719
0.0127832
0.0144317
0.016044
0.0175424
0.0188455
0.0198674
0.0205158
0.0206918
0.020288
0.0191958
0.0172847
0.0144101
0.0103634
0.00598779
0.00792825
0.0330052
0.0145498
0.0117632
0.0108829
0.00987063
0.00859748
0.00717783
0.00589389
0.00497899
0.004477
0.00439443
0.00476617
0.00551828
0.00655566
0.00775785
0.00902166
0.0102669
0.0114328
0.0124736
0.0133557
0.0140573
0.0145725
0.014913
0.0151012
0.0151572
0.0150957
0.0149382
0.014723
0.014497
0.0142962
0.0141259
0.0139526
0.0137372
0.013451
0.013081
0.0126299
0.0121095
0.0115365
0.0109275
0.010297
0.00965529
0.00900945
0.00836504
0.00772855
0.00710994
0.00652506
0.00599761
0.00556038
0.0052515
0.0051117
0.00517581
0.00544194
0.00590576
0.00654022
0.00731176
0.00819195
0.00915943
0.0101982
0.0112954
0.012439
0.0136154
0.0148095
0.0160048
0.0171913
0.0183874
0.0197281
0.0216249
0.0244791
0.0278108
0.0303474
0.0310034
0.0293509
0.0255673
0.0202139
0.0139523
0.00979813
0.00783582
0.00631425
0.00543826
0.00544898
0.00607081
0.00697336
0.00804442
0.00928372
0.0106834
0.0122049
0.013789
0.0153668
0.0168657
0.0182118
0.0193285
0.0201358
0.0205482
0.0204745
0.0198173
0.0184705
0.0162554
0.0129277
0.00809339
0.00493025
0.0327414
0.0147407
0.0120375
0.0112631
0.0103254
0.00908682
0.00767203
0.00635174
0.00532958
0.00463378
0.00430047
0.00445218
0.00509887
0.00612125
0.00737488
0.00872193
0.0100643
0.0113333
0.0124803
0.0134684
0.0142704
0.0148747
0.0152915
0.0155465
0.0156626
0.0156508
0.0155273
0.0153283
0.0151034
0.0148925
0.0147033
0.0145055
0.0142482
0.0139052
0.0134667
0.0129397
0.0123406
0.01169
0.0110072
0.010308
0.00960161
0.00889303
0.0081848
0.00748031
0.00678699
0.00611904
0.00550086
0.00497075
0.00457733
0.00437917
0.00443114
0.00472938
0.0052599
0.00597585
0.00682739
0.00777801
0.00880411
0.00989041
0.0110259
0.0122005
0.0134029
0.0146194
0.0158353
0.0170401
0.018248
0.0195713
0.0213754
0.0240968
0.0274366
0.030243
0.0313924
0.0303396
0.0271291
0.0222052
0.0160405
0.0108593
0.00858937
0.0069963
0.00596482
0.00572823
0.00610429
0.00680681
0.0077024
0.00876504
0.0100043
0.0113892
0.0128636
0.0143609
0.0158109
0.0171433
0.0182874
0.0191708
0.0197179
0.0198497
0.0194834
0.0185224
0.0168191
0.0141241
0.0103294
0.00541809
0.0324315
0.014911
0.0123022
0.0116135
0.0107413
0.00954039
0.00813133
0.00677254
0.00564695
0.00476628
0.00416876
0.00404824
0.00455991
0.00556487
0.00687973
0.00831686
0.00975663
0.0111258
0.0123774
0.0134744
0.0143843
0.0150873
0.015589
0.0159187
0.0161039
0.0161524
0.0160729
0.0158982
0.0156801
0.0154627
0.0152562
0.0150312
0.0147369
0.0143367
0.01383
0.0132277
0.0125517
0.011827
0.0110761
0.0103153
0.00955256
0.00878991
0.00802616
0.00726091
0.00649793
0.00574777
0.00503244
0.00439222
0.00388554
0.0035976
0.00362425
0.0039643
0.00458326
0.00539871
0.0063391
0.00736148
0.00844302
0.00957135
0.0107386
0.0119375
0.0131593
0.014392
0.0156225
0.0168409
0.0180578
0.0193678
0.0210942
0.0236878
0.027004
0.0300252
0.0316169
0.0311373
0.0285083
0.0240682
0.0182367
0.0122453
0.00939035
0.00769648
0.00652021
0.006047
0.00616211
0.00661628
0.0072906
0.00814711
0.00919245
0.0104118
0.0117522
0.013148
0.0145301
0.0158297
0.0169797
0.017913
0.0185618
0.0188574
0.0187304
0.0181026
0.0168656
0.0149012
0.0123234
0.00975796
0.0320909
0.0150457
0.012534
0.0119126
0.0111066
0.00995106
0.00855121
0.00715337
0.00592942
0.00487657
0.00401215
0.00357355
0.00389866
0.00489079
0.00628553
0.00782149
0.00935417
0.0108124
0.0121589
0.013362
0.0143849
0.0151961
0.0157925
0.0162056
0.0164693
0.0165894
0.0165651
0.016424
0.0162194
0.0160002
0.0157793
0.0155267
0.0151943
0.0147418
0.014167
0.0134903
0.0127406
0.011947
0.0111347
0.010321
0.0095117
0.00870542
0.00789687
0.00708151
0.00625875
0.00543358
0.00462156
0.00385653
0.00319938
0.00276491
0.00273693
0.00313995
0.00388761
0.00482734
0.00586372
0.00695511
0.00808513
0.00924707
0.0104375
0.0116526
0.012886
0.0141278
0.0153663
0.0165924
0.0178145
0.0191131
0.020774
0.0232472
0.0265158
0.0297019
0.0316853
0.0317467
0.029699
0.0257798
0.020366
0.0140446
0.0102747
0.00841148
0.00709412
0.00639496
0.00624964
0.00644173
0.00685739
0.00749499
0.00832886
0.00936854
0.0105661
0.0118575
0.0131744
0.0144502
0.0156212
0.0166265
0.0174076
0.017909
0.0180779
0.0178597
0.0171912
0.0160339
0.0144957
0.0126347
0.0317309
0.0151321
0.0127068
0.0121452
0.0114082
0.0103107
0.00892854
0.00749454
0.00618026
0.00497456
0.00385696
0.00305183
0.00312203
0.00411986
0.00562669
0.00727035
0.00888318
0.0104079
0.0118278
0.0131243
0.0142598
0.015188
0.0158898
0.0163953
0.0167476
0.0169512
0.0169945
0.0168975
0.016714
0.0164983
0.0162668
0.0159888
0.0156153
0.015113
0.0144756
0.0137264
0.0129069
0.0120498
0.0111843
0.0103275
0.00948269
0.00864493
0.00780483
0.00695398
0.00608756
0.00520428
0.00431
0.00342141
0.00258136
0.00190074
0.00174606
0.00228327
0.00322617
0.00430622
0.00543168
0.00657883
0.00774375
0.00892654
0.0101285
0.0113495
0.0125854
0.0138279
0.0150668
0.016294
0.0175163
0.0188032
0.0204079
0.0227693
0.0259726
0.0292793
0.0316045
0.0321711
0.0306966
0.0273221
0.0223781
0.0161626
0.0113212
0.00914992
0.00768282
0.00676826
0.00637443
0.00631656
0.00647973
0.00686481
0.00748985
0.00834121
0.00939153
0.0105783
0.0118362
0.0131011
0.0143137
0.0154194
0.0163694
0.0171219
0.0176424
0.0179018