/*--------------------------------*- C++ -*----------------------------------*\
| =========                 |                                                 |
| \\      /  F ield         | OpenFOAM: The Open Source CFD Toolbox           |
|  \\    /   O peration     | Version:  4.1                                   |
|   \\  /    A nd           | Web:      www.OpenFOAM.org                      |
|    \\/     M anipulation  |                                                 |
\*---------------------------------------------------------------------------*/
FoamFile
{
    version     2.0;
    format      ascii;
    class       volScalarField;
    location    "1760";
    object      p;
}
// * * * * * * * * * * * * * * * * * * * * * * * * * * * * * * * * * * * * * //

dimensions      [0 2 -2 0 0 0 0];

internalField   nonuniform List<scalar> 
5000
(
0
-1.94174e-05
-3.25347e-05
-4.23988e-05
-4.97982e-05
-5.50505e-05
-5.83109e-05
-5.97491e-05
-5.96178e-05
-5.82608e-05
-5.60649e-05
-5.34162e-05
-5.06509e-05
-4.80325e-05
-4.57536e-05
-4.3959e-05
-4.27888e-05
-4.24078e-05
-4.28858e-05
-4.38086e-05
-4.49652e-05
-4.68575e-05
-4.95966e-05
-5.29431e-05
-5.66363e-05
-6.0523e-05
-6.45253e-05
-6.85962e-05
-7.27002e-05
-7.6809e-05
-8.09018e-05
-8.49637e-05
-8.89836e-05
-9.2951e-05
-9.68539e-05
-0.000100676
-0.000104396
-0.000107986
-0.00011141
-0.000114624
-0.000117577
-0.000120212
-0.000122467
-0.000124277
-0.000125577
-0.000126306
-0.000126417
-0.000125849
-0.000124542
-0.000122464
-0.000119612
-0.00011599
-0.000111622
-0.000106549
-0.000100833
-9.45596e-05
-8.78323e-05
-8.07652e-05
-7.34737e-05
-6.60556e-05
-5.85616e-05
-5.09403e-05
-4.29197e-05
-3.35499e-05
-3.00419e-05
-3.27065e-05
-3.81439e-05
-4.24056e-05
-4.64284e-05
-5.05229e-05
-5.47951e-05
-5.92258e-05
-6.37153e-05
-6.81209e-05
-7.22883e-05
-7.60716e-05
-7.93384e-05
-8.19724e-05
-8.38987e-05
-8.50834e-05
-8.55499e-05
-8.5373e-05
-8.46626e-05
-8.35509e-05
-8.21806e-05
-8.06957e-05
-7.92345e-05
-7.79217e-05
-7.68585e-05
-7.61302e-05
-7.58715e-05
-7.63173e-05
-7.74974e-05
-7.88368e-05
-8.09108e-05
-8.40201e-05
-8.71504e-05
-8.9535e-05
-9.08846e-05
-8.82849e-05
-0.0983881
-0.0984127
-0.0984286
-0.098441
-0.0984503
-0.098457
-0.0984615
-0.098464
-0.0984648
-0.0984643
-0.0984628
-0.0984607
-0.0984584
-0.0984562
-0.0984543
-0.0984527
-0.0984518
-0.0984515
-0.0984522
-0.0984532
-0.0984544
-0.0984563
-0.0984587
-0.0984615
-0.0984647
-0.098468
-0.0984716
-0.0984752
-0.0984788
-0.0984825
-0.0984862
-0.0984898
-0.0984934
-0.098497
-0.0985006
-0.098504
-0.0985074
-0.0985106
-0.0985136
-0.0985164
-0.098519
-0.0985212
-0.0985229
-0.0985242
-0.0985249
-0.098525
-0.0985243
-0.0985229
-0.0985206
-0.0985175
-0.0985135
-0.0985087
-0.0985029
-0.0984963
-0.0984889
-0.0984807
-0.0984719
-0.0984626
-0.0984528
-0.0984427
-0.0984323
-0.0984215
-0.0984106
-0.0983995
-0.0983948
-0.0984075
-0.0984189
-0.0984277
-0.0984353
-0.0984424
-0.0984493
-0.0984561
-0.0984627
-0.0984691
-0.098475
-0.0984804
-0.098485
-0.0984889
-0.098492
-0.0984941
-0.0984954
-0.098496
-0.0984959
-0.0984954
-0.0984947
-0.0984937
-0.0984928
-0.098492
-0.0984915
-0.0984913
-0.0984916
-0.0984926
-0.0984942
-0.098496
-0.0984978
-0.0984998
-0.0985012
-0.0985014
-0.0985001
-0.0984945
-0.19681
-0.196835
-0.196851
-0.196864
-0.196873
-0.19688
-0.196884
-0.196886
-0.196887
-0.196886
-0.196884
-0.196882
-0.19688
-0.196878
-0.196876
-0.196874
-0.196873
-0.196873
-0.196874
-0.196874
-0.196876
-0.196877
-0.19688
-0.196882
-0.196885
-0.196888
-0.196892
-0.196895
-0.196899
-0.196902
-0.196906
-0.19691
-0.196913
-0.196917
-0.19692
-0.196924
-0.196927
-0.19693
-0.196933
-0.196936
-0.196939
-0.196941
-0.196943
-0.196944
-0.196945
-0.196945
-0.196944
-0.196943
-0.196941
-0.196938
-0.196933
-0.196928
-0.196922
-0.196914
-0.196906
-0.196897
-0.196886
-0.196875
-0.196864
-0.196852
-0.196839
-0.196826
-0.196813
-0.196802
-0.196796
-0.19681
-0.196828
-0.19684
-0.19685
-0.196859
-0.196868
-0.196876
-0.196884
-0.196892
-0.196898
-0.196904
-0.196909
-0.196913
-0.196916
-0.196918
-0.19692
-0.19692
-0.19692
-0.19692
-0.196919
-0.196918
-0.196917
-0.196917
-0.196916
-0.196917
-0.196917
-0.196918
-0.19692
-0.196922
-0.196924
-0.196925
-0.196926
-0.196926
-0.196924
-0.196918
-0.295245
-0.295266
-0.29528
-0.295291
-0.295299
-0.295305
-0.295308
-0.29531
-0.29531
-0.295309
-0.295307
-0.295305
-0.295302
-0.2953
-0.295298
-0.295297
-0.295296
-0.295295
-0.295296
-0.295296
-0.295298
-0.295299
-0.295301
-0.295304
-0.295307
-0.29531
-0.295313
-0.295316
-0.295319
-0.295323
-0.295326
-0.29533
-0.295333
-0.295337
-0.29534
-0.295344
-0.295347
-0.29535
-0.295353
-0.295356
-0.295359
-0.295361
-0.295363
-0.295365
-0.295365
-0.295366
-0.295365
-0.295364
-0.295362
-0.295359
-0.295355
-0.29535
-0.295344
-0.295336
-0.295328
-0.295318
-0.295308
-0.295296
-0.295284
-0.295271
-0.295258
-0.295245
-0.295233
-0.295223
-0.295217
-0.295228
-0.295249
-0.29526
-0.295271
-0.295281
-0.295291
-0.2953
-0.295308
-0.295316
-0.295323
-0.295329
-0.295334
-0.295338
-0.295341
-0.295343
-0.295344
-0.295344
-0.295344
-0.295344
-0.295343
-0.295343
-0.295342
-0.295342
-0.295342
-0.295342
-0.295343
-0.295344
-0.295346
-0.295348
-0.29535
-0.295351
-0.295352
-0.295351
-0.29535
-0.295345
-0.393683
-0.3937
-0.393711
-0.39372
-0.393727
-0.393731
-0.393733
-0.393734
-0.393733
-0.393732
-0.39373
-0.393727
-0.393725
-0.393723
-0.393721
-0.393719
-0.393718
-0.393718
-0.393718
-0.393719
-0.39372
-0.393721
-0.393723
-0.393725
-0.393728
-0.393731
-0.393734
-0.393737
-0.39374
-0.393744
-0.393747
-0.39375
-0.393754
-0.393757
-0.39376
-0.393764
-0.393767
-0.39377
-0.393773
-0.393776
-0.393779
-0.393782
-0.393784
-0.393785
-0.393786
-0.393787
-0.393787
-0.393786
-0.393784
-0.393781
-0.393777
-0.393773
-0.393767
-0.39376
-0.393752
-0.393742
-0.393732
-0.393721
-0.393709
-0.393696
-0.393684
-0.393671
-0.39366
-0.393651
-0.393646
-0.393654
-0.393673
-0.393686
-0.393697
-0.393706
-0.393716
-0.393725
-0.393733
-0.393741
-0.393747
-0.393753
-0.393758
-0.393762
-0.393765
-0.393767
-0.393768
-0.393768
-0.393768
-0.393768
-0.393768
-0.393767
-0.393767
-0.393767
-0.393767
-0.393768
-0.393769
-0.393771
-0.393773
-0.393774
-0.393776
-0.393778
-0.393778
-0.393778
-0.393776
-0.393772
-0.492121
-0.492136
-0.492144
-0.492151
-0.492155
-0.492158
-0.492159
-0.492159
-0.492157
-0.492156
-0.492153
-0.492151
-0.492148
-0.492146
-0.492144
-0.492142
-0.492141
-0.492141
-0.492141
-0.492141
-0.492142
-0.492144
-0.492145
-0.492147
-0.49215
-0.492153
-0.492155
-0.492158
-0.492161
-0.492164
-0.492168
-0.492171
-0.492174
-0.492177
-0.492181
-0.492184
-0.492188
-0.492191
-0.492194
-0.492197
-0.4922
-0.492203
-0.492205
-0.492207
-0.492208
-0.492209
-0.492209
-0.492208
-0.492207
-0.492204
-0.492201
-0.492196
-0.492191
-0.492184
-0.492177
-0.492168
-0.492158
-0.492147
-0.492136
-0.492124
-0.492112
-0.492101
-0.49209
-0.492082
-0.492078
-0.492083
-0.492098
-0.492115
-0.492123
-0.492132
-0.492141
-0.49215
-0.492158
-0.492165
-0.492172
-0.492178
-0.492183
-0.492186
-0.492189
-0.492191
-0.492192
-0.492192
-0.492192
-0.492192
-0.492192
-0.492192
-0.492192
-0.492192
-0.492193
-0.492195
-0.492196
-0.492198
-0.4922
-0.492202
-0.492204
-0.492205
-0.492205
-0.492205
-0.492204
-0.4922
-0.59056
-0.590573
-0.590578
-0.590583
-0.590585
-0.590585
-0.590585
-0.590584
-0.590582
-0.590579
-0.590577
-0.590574
-0.590571
-0.590569
-0.590567
-0.590565
-0.590564
-0.590563
-0.590563
-0.590564
-0.590565
-0.590566
-0.590567
-0.590569
-0.590572
-0.590574
-0.590577
-0.59058
-0.590583
-0.590586
-0.590589
-0.590592
-0.590595
-0.590598
-0.590602
-0.590605
-0.590608
-0.590612
-0.590615
-0.590618
-0.590621
-0.590624
-0.590627
-0.590629
-0.59063
-0.590631
-0.590632
-0.590631
-0.59063
-0.590628
-0.590625
-0.590621
-0.590616
-0.59061
-0.590602
-0.590594
-0.590585
-0.590575
-0.590565
-0.590554
-0.590543
-0.590532
-0.590523
-0.590516
-0.590511
-0.590514
-0.590527
-0.590542
-0.590552
-0.590559
-0.590567
-0.590575
-0.590583
-0.59059
-0.590597
-0.590602
-0.590607
-0.59061
-0.590613
-0.590615
-0.590616
-0.590616
-0.590616
-0.590616
-0.590616
-0.590617
-0.590617
-0.590618
-0.59062
-0.590621
-0.590623
-0.590626
-0.590628
-0.590631
-0.590632
-0.590633
-0.590634
-0.590633
-0.590632
-0.590629
-0.688999
-0.689009
-0.689013
-0.689014
-0.689014
-0.689012
-0.68901
-0.689008
-0.689006
-0.689003
-0.689
-0.688997
-0.688994
-0.688992
-0.688989
-0.688988
-0.688987
-0.688986
-0.688986
-0.688986
-0.688987
-0.688988
-0.68899
-0.688991
-0.688994
-0.688996
-0.688999
-0.689001
-0.689004
-0.689007
-0.68901
-0.689013
-0.689016
-0.689019
-0.689023
-0.689026
-0.68903
-0.689033
-0.689037
-0.68904
-0.689043
-0.689046
-0.689049
-0.689051
-0.689053
-0.689054
-0.689055
-0.689055
-0.689054
-0.689052
-0.68905
-0.689046
-0.689041
-0.689036
-0.689029
-0.689022
-0.689013
-0.689004
-0.688994
-0.688984
-0.688974
-0.688965
-0.688956
-0.68895
-0.688945
-0.688947
-0.688956
-0.688969
-0.688981
-0.688986
-0.688994
-0.689001
-0.689009
-0.689015
-0.689022
-0.689027
-0.689031
-0.689034
-0.689037
-0.689038
-0.689039
-0.68904
-0.68904
-0.68904
-0.689041
-0.689041
-0.689042
-0.689044
-0.689046
-0.689049
-0.689052
-0.689055
-0.689058
-0.689061
-0.689063
-0.689064
-0.689064
-0.689063
-0.689062
-0.689059
-0.787436
-0.787445
-0.787446
-0.787445
-0.787442
-0.787439
-0.787435
-0.787432
-0.787429
-0.787426
-0.787423
-0.78742
-0.787417
-0.787414
-0.787412
-0.78741
-0.787409
-0.787408
-0.787408
-0.787409
-0.787409
-0.78741
-0.787412
-0.787413
-0.787416
-0.787418
-0.78742
-0.787423
-0.787425
-0.787428
-0.787431
-0.787434
-0.787437
-0.787441
-0.787444
-0.787448
-0.787451
-0.787455
-0.787459
-0.787462
-0.787466
-0.787469
-0.787472
-0.787474
-0.787477
-0.787478
-0.787479
-0.787479
-0.787479
-0.787477
-0.787475
-0.787472
-0.787468
-0.787463
-0.787457
-0.78745
-0.787442
-0.787434
-0.787425
-0.787416
-0.787407
-0.787398
-0.78739
-0.787384
-0.78738
-0.78738
-0.787386
-0.787397
-0.787408
-0.787414
-0.787421
-0.787427
-0.787434
-0.78744
-0.787446
-0.787451
-0.787455
-0.787458
-0.78746
-0.787462
-0.787462
-0.787463
-0.787463
-0.787464
-0.787465
-0.787466
-0.787468
-0.78747
-0.787473
-0.787477
-0.787481
-0.787486
-0.78749
-0.787493
-0.787495
-0.787496
-0.787496
-0.787494
-0.787493
-0.78749
-0.885871
-0.885877
-0.885877
-0.885873
-0.885868
-0.885864
-0.885859
-0.885856
-0.885852
-0.885848
-0.885845
-0.885842
-0.885839
-0.885837
-0.885834
-0.885833
-0.885832
-0.885831
-0.885831
-0.885831
-0.885831
-0.885832
-0.885834
-0.885835
-0.885837
-0.88584
-0.885842
-0.885844
-0.885847
-0.88585
-0.885853
-0.885856
-0.885859
-0.885862
-0.885866
-0.88587
-0.885873
-0.885877
-0.885881
-0.885885
-0.885889
-0.885892
-0.885896
-0.885898
-0.885901
-0.885903
-0.885904
-0.885904
-0.885904
-0.885903
-0.885901
-0.885899
-0.885895
-0.885891
-0.885885
-0.885879
-0.885872
-0.885864
-0.885856
-0.885848
-0.885839
-0.885831
-0.885824
-0.885818
-0.885814
-0.885813
-0.885817
-0.885825
-0.885835
-0.885843
-0.885847
-0.885853
-0.885859
-0.885865
-0.88587
-0.885875
-0.885879
-0.885881
-0.885883
-0.885885
-0.885885
-0.885886
-0.885887
-0.885887
-0.885889
-0.88589
-0.885893
-0.885896
-0.885901
-0.885906
-0.885912
-0.885918
-0.885924
-0.885928
-0.885931
-0.885931
-0.88593
-0.885928
-0.885926
-0.885924
-0.9843
-0.984305
-0.984303
-0.984299
-0.984293
-0.984287
-0.984282
-0.984278
-0.984274
-0.98427
-0.984267
-0.984264
-0.984261
-0.984259
-0.984256
-0.984255
-0.984254
-0.984253
-0.984253
-0.984253
-0.984253
-0.984254
-0.984256
-0.984257
-0.984259
-0.984261
-0.984264
-0.984266
-0.984269
-0.984272
-0.984274
-0.984278
-0.984281
-0.984284
-0.984288
-0.984292
-0.984296
-0.9843
-0.984304
-0.984308
-0.984313
-0.984316
-0.98432
-0.984323
-0.984326
-0.984328
-0.984329
-0.98433
-0.98433
-0.98433
-0.984328
-0.984326
-0.984323
-0.984319
-0.984314
-0.984308
-0.984302
-0.984295
-0.984287
-0.98428
-0.984272
-0.984265
-0.984258
-0.984253
-0.984248
-0.984246
-0.984249
-0.984255
-0.984262
-0.98427
-0.984274
-0.984279
-0.984285
-0.98429
-0.984295
-0.984299
-0.984302
-0.984304
-0.984306
-0.984307
-0.984308
-0.984309
-0.98431
-0.984311
-0.984312
-0.984315
-0.984318
-0.984323
-0.984329
-0.984336
-0.984344
-0.984352
-0.98436
-0.984366
-0.984369
-0.984369
-0.984367
-0.984364
-0.984361
-0.984358
-1.08272
-1.08273
-1.08273
-1.08272
-1.08271
-1.08271
-1.0827
-1.0827
-1.08269
-1.08269
-1.08269
-1.08269
-1.08268
-1.08268
-1.08268
-1.08268
-1.08268
-1.08267
-1.08267
-1.08267
-1.08268
-1.08268
-1.08268
-1.08268
-1.08268
-1.08268
-1.08269
-1.08269
-1.08269
-1.08269
-1.0827
-1.0827
-1.0827
-1.08271
-1.08271
-1.08271
-1.08272
-1.08272
-1.08273
-1.08273
-1.08274
-1.08274
-1.08274
-1.08275
-1.08275
-1.08275
-1.08276
-1.08276
-1.08276
-1.08276
-1.08276
-1.08275
-1.08275
-1.08275
-1.08274
-1.08274
-1.08273
-1.08273
-1.08272
-1.08271
-1.08271
-1.0827
-1.08269
-1.08269
-1.08268
-1.08268
-1.08268
-1.08268
-1.08269
-1.0827
-1.0827
-1.0827
-1.08271
-1.08271
-1.08272
-1.08272
-1.08272
-1.08273
-1.08273
-1.08273
-1.08273
-1.08273
-1.08273
-1.08273
-1.08274
-1.08274
-1.08274
-1.08275
-1.08276
-1.08277
-1.08278
-1.08279
-1.0828
-1.08281
-1.08281
-1.08281
-1.08281
-1.0828
-1.0828
-1.08279
-1.18114
-1.18114
-1.18114
-1.18114
-1.18113
-1.18113
-1.18112
-1.18112
-1.18112
-1.18111
-1.18111
-1.18111
-1.1811
-1.1811
-1.1811
-1.1811
-1.1811
-1.1811
-1.1811
-1.1811
-1.1811
-1.1811
-1.1811
-1.1811
-1.1811
-1.18111
-1.18111
-1.18111
-1.18111
-1.18112
-1.18112
-1.18112
-1.18113
-1.18113
-1.18113
-1.18114
-1.18114
-1.18115
-1.18115
-1.18116
-1.18116
-1.18117
-1.18117
-1.18117
-1.18118
-1.18118
-1.18118
-1.18118
-1.18119
-1.18119
-1.18118
-1.18118
-1.18118
-1.18118
-1.18117
-1.18117
-1.18116
-1.18116
-1.18115
-1.18114
-1.18114
-1.18113
-1.18113
-1.18112
-1.18112
-1.18111
-1.18111
-1.18111
-1.18112
-1.18112
-1.18113
-1.18113
-1.18113
-1.18114
-1.18114
-1.18115
-1.18115
-1.18115
-1.18115
-1.18115
-1.18115
-1.18115
-1.18115
-1.18116
-1.18116
-1.18116
-1.18117
-1.18117
-1.18118
-1.1812
-1.18121
-1.18122
-1.18124
-1.18125
-1.18125
-1.18125
-1.18124
-1.18124
-1.18123
-1.18123
-1.27956
-1.27956
-1.27956
-1.27955
-1.27955
-1.27955
-1.27954
-1.27954
-1.27953
-1.27953
-1.27953
-1.27953
-1.27952
-1.27952
-1.27952
-1.27952
-1.27952
-1.27952
-1.27952
-1.27952
-1.27952
-1.27952
-1.27952
-1.27952
-1.27953
-1.27953
-1.27953
-1.27953
-1.27954
-1.27954
-1.27954
-1.27954
-1.27955
-1.27955
-1.27956
-1.27956
-1.27957
-1.27957
-1.27958
-1.27958
-1.27959
-1.27959
-1.2796
-1.2796
-1.2796
-1.27961
-1.27961
-1.27961
-1.27961
-1.27961
-1.27961
-1.27961
-1.27961
-1.27961
-1.2796
-1.2796
-1.27959
-1.27959
-1.27958
-1.27958
-1.27957
-1.27956
-1.27956
-1.27955
-1.27955
-1.27955
-1.27954
-1.27954
-1.27955
-1.27955
-1.27955
-1.27956
-1.27956
-1.27956
-1.27957
-1.27957
-1.27957
-1.27957
-1.27957
-1.27957
-1.27957
-1.27957
-1.27958
-1.27958
-1.27958
-1.27958
-1.27959
-1.2796
-1.27961
-1.27963
-1.27964
-1.27966
-1.27967
-1.27969
-1.27969
-1.27969
-1.27968
-1.27967
-1.27967
-1.27966
-1.37797
-1.37797
-1.37797
-1.37797
-1.37796
-1.37796
-1.37796
-1.37796
-1.37795
-1.37795
-1.37795
-1.37795
-1.37795
-1.37794
-1.37794
-1.37794
-1.37794
-1.37794
-1.37794
-1.37794
-1.37794
-1.37794
-1.37794
-1.37795
-1.37795
-1.37795
-1.37795
-1.37795
-1.37796
-1.37796
-1.37796
-1.37797
-1.37797
-1.37798
-1.37798
-1.37799
-1.37799
-1.378
-1.378
-1.37801
-1.37801
-1.37802
-1.37802
-1.37803
-1.37803
-1.37804
-1.37804
-1.37804
-1.37804
-1.37804
-1.37804
-1.37804
-1.37804
-1.37804
-1.37803
-1.37803
-1.37803
-1.37802
-1.37802
-1.37801
-1.378
-1.378
-1.37799
-1.37799
-1.37798
-1.37798
-1.37797
-1.37797
-1.37797
-1.37798
-1.37798
-1.37798
-1.37798
-1.37799
-1.37799
-1.37799
-1.37799
-1.37799
-1.37799
-1.37799
-1.378
-1.378
-1.378
-1.378
-1.378
-1.37801
-1.37801
-1.37802
-1.37804
-1.37805
-1.37807
-1.37809
-1.37811
-1.37812
-1.37813
-1.37813
-1.37812
-1.37811
-1.3781
-1.3781
-1.47639
-1.47638
-1.47638
-1.47638
-1.47638
-1.47638
-1.47638
-1.47638
-1.47637
-1.47637
-1.47637
-1.47637
-1.47637
-1.47637
-1.47637
-1.47636
-1.47636
-1.47636
-1.47636
-1.47636
-1.47636
-1.47636
-1.47637
-1.47637
-1.47637
-1.47637
-1.47637
-1.47638
-1.47638
-1.47638
-1.47639
-1.47639
-1.4764
-1.4764
-1.47641
-1.47641
-1.47642
-1.47642
-1.47643
-1.47643
-1.47644
-1.47645
-1.47645
-1.47646
-1.47646
-1.47646
-1.47647
-1.47647
-1.47647
-1.47647
-1.47647
-1.47647
-1.47647
-1.47647
-1.47647
-1.47646
-1.47646
-1.47645
-1.47645
-1.47644
-1.47644
-1.47643
-1.47642
-1.47642
-1.47641
-1.47641
-1.47641
-1.4764
-1.4764
-1.4764
-1.4764
-1.47641
-1.47641
-1.47641
-1.47641
-1.47641
-1.47641
-1.47642
-1.47642
-1.47642
-1.47642
-1.47642
-1.47642
-1.47642
-1.47642
-1.47643
-1.47644
-1.47645
-1.47646
-1.47648
-1.4765
-1.47652
-1.47654
-1.47656
-1.47656
-1.47656
-1.47655
-1.47653
-1.47653
-1.47652
-1.5748
-1.5748
-1.5748
-1.5748
-1.5748
-1.5748
-1.5748
-1.5748
-1.57479
-1.57479
-1.57479
-1.57479
-1.57479
-1.57479
-1.57479
-1.57479
-1.57479
-1.57479
-1.57479
-1.57479
-1.57479
-1.57479
-1.57479
-1.57479
-1.57479
-1.57479
-1.5748
-1.5748
-1.5748
-1.57481
-1.57481
-1.57482
-1.57482
-1.57482
-1.57483
-1.57484
-1.57484
-1.57485
-1.57485
-1.57486
-1.57487
-1.57487
-1.57488
-1.57488
-1.57489
-1.57489
-1.5749
-1.5749
-1.5749
-1.5749
-1.5749
-1.5749
-1.5749
-1.5749
-1.5749
-1.57489
-1.57489
-1.57488
-1.57488
-1.57487
-1.57487
-1.57486
-1.57486
-1.57485
-1.57485
-1.57484
-1.57484
-1.57483
-1.57483
-1.57483
-1.57483
-1.57483
-1.57483
-1.57483
-1.57484
-1.57484
-1.57484
-1.57484
-1.57484
-1.57484
-1.57484
-1.57484
-1.57484
-1.57484
-1.57485
-1.57485
-1.57486
-1.57487
-1.57489
-1.5749
-1.57493
-1.57495
-1.57497
-1.57498
-1.57498
-1.57498
-1.57497
-1.57495
-1.57494
-1.57494
-1.67322
-1.67322
-1.67322
-1.67322
-1.67322
-1.67322
-1.67322
-1.67322
-1.67321
-1.67321
-1.67321
-1.67321
-1.67321
-1.67321
-1.67321
-1.67321
-1.67321
-1.67321
-1.67321
-1.67321
-1.67321
-1.67321
-1.67321
-1.67321
-1.67321
-1.67322
-1.67322
-1.67322
-1.67323
-1.67323
-1.67323
-1.67324
-1.67324
-1.67325
-1.67326
-1.67326
-1.67327
-1.67327
-1.67328
-1.67329
-1.67329
-1.6733
-1.67331
-1.67331
-1.67332
-1.67332
-1.67333
-1.67333
-1.67333
-1.67333
-1.67333
-1.67333
-1.67333
-1.67333
-1.67333
-1.67332
-1.67332
-1.67332
-1.67331
-1.67331
-1.6733
-1.6733
-1.67329
-1.67328
-1.67328
-1.67327
-1.67327
-1.67326
-1.67326
-1.67326
-1.67326
-1.67326
-1.67326
-1.67326
-1.67326
-1.67326
-1.67326
-1.67326
-1.67326
-1.67326
-1.67326
-1.67326
-1.67326
-1.67326
-1.67327
-1.67327
-1.67328
-1.67329
-1.67331
-1.67333
-1.67335
-1.67337
-1.67338
-1.6734
-1.6734
-1.67339
-1.67338
-1.67336
-1.67335
-1.67335
-1.77164
-1.77164
-1.77164
-1.77164
-1.77164
-1.77164
-1.77164
-1.77164
-1.77164
-1.77164
-1.77164
-1.77164
-1.77164
-1.77164
-1.77163
-1.77163
-1.77163
-1.77163
-1.77163
-1.77163
-1.77163
-1.77163
-1.77163
-1.77164
-1.77164
-1.77164
-1.77164
-1.77165
-1.77165
-1.77165
-1.77166
-1.77166
-1.77167
-1.77167
-1.77168
-1.77169
-1.77169
-1.7717
-1.77171
-1.77172
-1.77172
-1.77173
-1.77174
-1.77174
-1.77175
-1.77175
-1.77176
-1.77176
-1.77176
-1.77176
-1.77176
-1.77176
-1.77176
-1.77176
-1.77176
-1.77176
-1.77175
-1.77175
-1.77174
-1.77174
-1.77173
-1.77173
-1.77172
-1.77172
-1.77171
-1.7717
-1.7717
-1.77169
-1.77169
-1.77169
-1.77168
-1.77168
-1.77168
-1.77168
-1.77168
-1.77168
-1.77168
-1.77168
-1.77168
-1.77168
-1.77168
-1.77168
-1.77168
-1.77169
-1.77169
-1.77169
-1.7717
-1.77171
-1.77173
-1.77174
-1.77176
-1.77178
-1.7718
-1.77181
-1.77181
-1.7718
-1.77178
-1.77177
-1.77176
-1.77175
-1.87006
-1.87006
-1.87006
-1.87006
-1.87006
-1.87006
-1.87006
-1.87006
-1.87006
-1.87006
-1.87006
-1.87006
-1.87006
-1.87006
-1.87006
-1.87006
-1.87006
-1.87006
-1.87006
-1.87006
-1.87006
-1.87006
-1.87006
-1.87006
-1.87006
-1.87006
-1.87007
-1.87007
-1.87007
-1.87008
-1.87008
-1.87009
-1.87009
-1.8701
-1.87011
-1.87011
-1.87012
-1.87013
-1.87014
-1.87014
-1.87015
-1.87016
-1.87016
-1.87017
-1.87018
-1.87018
-1.87019
-1.87019
-1.87019
-1.87019
-1.87019
-1.87019
-1.87019
-1.87019
-1.87019
-1.87019
-1.87018
-1.87018
-1.87017
-1.87017
-1.87016
-1.87016
-1.87015
-1.87015
-1.87014
-1.87013
-1.87013
-1.87012
-1.87012
-1.87012
-1.87011
-1.87011
-1.87011
-1.87011
-1.87011
-1.87011
-1.87011
-1.87011
-1.87011
-1.87011
-1.87011
-1.87011
-1.87011
-1.87011
-1.87011
-1.87012
-1.87013
-1.87013
-1.87015
-1.87016
-1.87018
-1.87019
-1.8702
-1.87021
-1.87021
-1.8702
-1.87018
-1.87017
-1.87015
-1.87014
-1.96848
-1.96848
-1.96848
-1.96848
-1.96848
-1.96848
-1.96848
-1.96848
-1.96848
-1.96848
-1.96848
-1.96848
-1.96848
-1.96848
-1.96848
-1.96848
-1.96848
-1.96848
-1.96848
-1.96848
-1.96848
-1.96848
-1.96848
-1.96848
-1.96848
-1.96849
-1.96849
-1.96849
-1.9685
-1.9685
-1.96851
-1.96851
-1.96852
-1.96852
-1.96853
-1.96854
-1.96855
-1.96856
-1.96856
-1.96857
-1.96858
-1.96859
-1.96859
-1.9686
-1.96861
-1.96861
-1.96861
-1.96862
-1.96862
-1.96862
-1.96862
-1.96863
-1.96862
-1.96862
-1.96862
-1.96862
-1.96861
-1.96861
-1.96861
-1.9686
-1.96859
-1.96859
-1.96858
-1.96858
-1.96857
-1.96856
-1.96856
-1.96855
-1.96855
-1.96854
-1.96854
-1.96854
-1.96853
-1.96853
-1.96853
-1.96853
-1.96853
-1.96853
-1.96853
-1.96853
-1.96853
-1.96853
-1.96853
-1.96853
-1.96854
-1.96854
-1.96855
-1.96856
-1.96857
-1.96858
-1.96859
-1.9686
-1.96861
-1.96861
-1.96861
-1.96859
-1.96857
-1.96856
-1.96854
-1.96853
-2.0669
-2.0669
-2.0669
-2.0669
-2.0669
-2.0669
-2.0669
-2.0669
-2.06691
-2.06691
-2.06691
-2.06691
-2.06691
-2.06691
-2.06691
-2.06691
-2.06691
-2.06691
-2.06691
-2.06691
-2.06691
-2.06691
-2.06691
-2.06691
-2.06691
-2.06691
-2.06691
-2.06692
-2.06692
-2.06693
-2.06693
-2.06694
-2.06694
-2.06695
-2.06696
-2.06697
-2.06697
-2.06698
-2.06699
-2.067
-2.06701
-2.06701
-2.06702
-2.06703
-2.06703
-2.06704
-2.06704
-2.06705
-2.06705
-2.06705
-2.06706
-2.06706
-2.06706
-2.06705
-2.06705
-2.06705
-2.06705
-2.06704
-2.06704
-2.06703
-2.06703
-2.06702
-2.06701
-2.06701
-2.067
-2.06699
-2.06699
-2.06698
-2.06698
-2.06697
-2.06697
-2.06696
-2.06696
-2.06696
-2.06696
-2.06696
-2.06696
-2.06696
-2.06696
-2.06696
-2.06696
-2.06696
-2.06696
-2.06696
-2.06696
-2.06697
-2.06697
-2.06698
-2.06699
-2.067
-2.06701
-2.06701
-2.06701
-2.06701
-2.067
-2.06699
-2.06696
-2.06694
-2.06692
-2.0669
-2.16532
-2.16533
-2.16532
-2.16532
-2.16532
-2.16533
-2.16533
-2.16533
-2.16533
-2.16533
-2.16533
-2.16534
-2.16534
-2.16534
-2.16534
-2.16534
-2.16534
-2.16534
-2.16533
-2.16533
-2.16533
-2.16533
-2.16533
-2.16533
-2.16533
-2.16533
-2.16534
-2.16534
-2.16534
-2.16535
-2.16535
-2.16536
-2.16537
-2.16538
-2.16538
-2.16539
-2.1654
-2.16541
-2.16542
-2.16543
-2.16543
-2.16544
-2.16545
-2.16546
-2.16546
-2.16547
-2.16547
-2.16548
-2.16548
-2.16548
-2.16549
-2.16549
-2.16549
-2.16548
-2.16548
-2.16548
-2.16548
-2.16547
-2.16547
-2.16546
-2.16545
-2.16545
-2.16544
-2.16544
-2.16543
-2.16542
-2.16542
-2.16541
-2.1654
-2.1654
-2.16539
-2.16539
-2.16539
-2.16538
-2.16538
-2.16538
-2.16538
-2.16538
-2.16538
-2.16538
-2.16538
-2.16538
-2.16539
-2.16539
-2.16539
-2.1654
-2.1654
-2.16541
-2.16541
-2.16542
-2.16542
-2.16542
-2.16542
-2.16541
-2.1654
-2.16538
-2.16535
-2.16532
-2.16529
-2.16528
-2.26374
-2.26375
-2.26375
-2.26375
-2.26375
-2.26375
-2.26375
-2.26375
-2.26376
-2.26376
-2.26376
-2.26376
-2.26376
-2.26377
-2.26377
-2.26377
-2.26376
-2.26376
-2.26376
-2.26376
-2.26376
-2.26375
-2.26375
-2.26375
-2.26375
-2.26376
-2.26376
-2.26376
-2.26377
-2.26377
-2.26378
-2.26379
-2.26379
-2.2638
-2.26381
-2.26382
-2.26383
-2.26384
-2.26384
-2.26385
-2.26386
-2.26387
-2.26388
-2.26389
-2.26389
-2.2639
-2.2639
-2.26391
-2.26391
-2.26391
-2.26392
-2.26392
-2.26392
-2.26391
-2.26391
-2.26391
-2.26391
-2.2639
-2.2639
-2.26389
-2.26388
-2.26388
-2.26387
-2.26386
-2.26386
-2.26385
-2.26384
-2.26384
-2.26383
-2.26383
-2.26382
-2.26382
-2.26381
-2.26381
-2.26381
-2.26381
-2.26381
-2.26381
-2.26381
-2.26381
-2.26381
-2.26381
-2.26382
-2.26382
-2.26382
-2.26383
-2.26383
-2.26383
-2.26384
-2.26384
-2.26384
-2.26384
-2.26383
-2.26382
-2.2638
-2.26377
-2.26374
-2.2637
-2.26367
-2.26365
-2.36216
-2.36217
-2.36217
-2.36217
-2.36217
-2.36217
-2.36218
-2.36218
-2.36218
-2.36218
-2.36219
-2.36219
-2.36219
-2.36219
-2.36219
-2.36219
-2.36219
-2.36219
-2.36219
-2.36218
-2.36218
-2.36218
-2.36218
-2.36218
-2.36218
-2.36218
-2.36218
-2.36219
-2.36219
-2.3622
-2.3622
-2.36221
-2.36222
-2.36223
-2.36223
-2.36224
-2.36225
-2.36226
-2.36227
-2.36228
-2.36229
-2.3623
-2.36231
-2.36231
-2.36232
-2.36233
-2.36233
-2.36234
-2.36234
-2.36234
-2.36234
-2.36235
-2.36235
-2.36234
-2.36234
-2.36234
-2.36233
-2.36233
-2.36232
-2.36232
-2.36231
-2.3623
-2.3623
-2.36229
-2.36228
-2.36228
-2.36227
-2.36226
-2.36226
-2.36225
-2.36225
-2.36224
-2.36224
-2.36224
-2.36224
-2.36224
-2.36224
-2.36224
-2.36224
-2.36224
-2.36224
-2.36224
-2.36224
-2.36225
-2.36225
-2.36226
-2.36226
-2.36226
-2.36226
-2.36226
-2.36226
-2.36226
-2.36225
-2.36223
-2.36221
-2.36218
-2.36214
-2.3621
-2.36206
-2.36205
-2.46058
-2.46059
-2.46059
-2.46059
-2.46059
-2.4606
-2.4606
-2.4606
-2.46061
-2.46061
-2.46061
-2.46062
-2.46062
-2.46062
-2.46062
-2.46062
-2.46062
-2.46062
-2.46061
-2.46061
-2.46061
-2.4606
-2.4606
-2.4606
-2.4606
-2.4606
-2.46061
-2.46061
-2.46061
-2.46062
-2.46063
-2.46063
-2.46064
-2.46065
-2.46066
-2.46067
-2.46068
-2.46069
-2.4607
-2.46071
-2.46072
-2.46072
-2.46073
-2.46074
-2.46075
-2.46075
-2.46076
-2.46077
-2.46077
-2.46077
-2.46077
-2.46077
-2.46077
-2.46077
-2.46077
-2.46077
-2.46076
-2.46076
-2.46075
-2.46075
-2.46074
-2.46073
-2.46072
-2.46072
-2.46071
-2.4607
-2.4607
-2.46069
-2.46068
-2.46068
-2.46067
-2.46067
-2.46067
-2.46067
-2.46066
-2.46066
-2.46066
-2.46066
-2.46067
-2.46067
-2.46067
-2.46067
-2.46067
-2.46068
-2.46068
-2.46069
-2.46069
-2.46069
-2.46069
-2.46069
-2.46069
-2.46068
-2.46067
-2.46065
-2.46062
-2.46059
-2.46056
-2.46052
-2.46049
-2.46047
-2.559
-2.55901
-2.55901
-2.55901
-2.55902
-2.55902
-2.55902
-2.55903
-2.55903
-2.55904
-2.55904
-2.55904
-2.55905
-2.55905
-2.55905
-2.55905
-2.55905
-2.55904
-2.55904
-2.55903
-2.55903
-2.55903
-2.55902
-2.55902
-2.55902
-2.55903
-2.55903
-2.55903
-2.55904
-2.55904
-2.55905
-2.55906
-2.55906
-2.55907
-2.55908
-2.55909
-2.5591
-2.55911
-2.55912
-2.55913
-2.55914
-2.55915
-2.55916
-2.55917
-2.55918
-2.55918
-2.55919
-2.55919
-2.5592
-2.5592
-2.5592
-2.5592
-2.5592
-2.5592
-2.5592
-2.55919
-2.55919
-2.55918
-2.55918
-2.55917
-2.55916
-2.55916
-2.55915
-2.55914
-2.55913
-2.55913
-2.55912
-2.55911
-2.55911
-2.5591
-2.5591
-2.5591
-2.55909
-2.55909
-2.55909
-2.55909
-2.55909
-2.55909
-2.55909
-2.5591
-2.5591
-2.5591
-2.5591
-2.55911
-2.55911
-2.55911
-2.55912
-2.55912
-2.55912
-2.55912
-2.55911
-2.5591
-2.55909
-2.55907
-2.55905
-2.55902
-2.55898
-2.55895
-2.55892
-2.55891
-2.65742
-2.65743
-2.65743
-2.65743
-2.65744
-2.65744
-2.65745
-2.65745
-2.65746
-2.65746
-2.65747
-2.65747
-2.65747
-2.65748
-2.65748
-2.65747
-2.65747
-2.65747
-2.65746
-2.65746
-2.65745
-2.65745
-2.65745
-2.65745
-2.65745
-2.65745
-2.65745
-2.65745
-2.65746
-2.65746
-2.65747
-2.65748
-2.65749
-2.6575
-2.65751
-2.65752
-2.65753
-2.65754
-2.65755
-2.65756
-2.65757
-2.65758
-2.65759
-2.65759
-2.6576
-2.65761
-2.65761
-2.65762
-2.65762
-2.65763
-2.65763
-2.65763
-2.65763
-2.65763
-2.65762
-2.65762
-2.65762
-2.65761
-2.6576
-2.6576
-2.65759
-2.65758
-2.65757
-2.65757
-2.65756
-2.65755
-2.65754
-2.65754
-2.65753
-2.65753
-2.65752
-2.65752
-2.65752
-2.65752
-2.65752
-2.65752
-2.65752
-2.65752
-2.65752
-2.65753
-2.65753
-2.65753
-2.65753
-2.65754
-2.65754
-2.65754
-2.65755
-2.65755
-2.65755
-2.65754
-2.65754
-2.65753
-2.65751
-2.6575
-2.65747
-2.65745
-2.65742
-2.65739
-2.65736
-2.65736
-2.75584
-2.75585
-2.75585
-2.75585
-2.75586
-2.75586
-2.75587
-2.75587
-2.75588
-2.75588
-2.75589
-2.75589
-2.7559
-2.7559
-2.7559
-2.7559
-2.75589
-2.75589
-2.75589
-2.75588
-2.75588
-2.75587
-2.75587
-2.75587
-2.75587
-2.75587
-2.75587
-2.75587
-2.75588
-2.75589
-2.75589
-2.7559
-2.75591
-2.75592
-2.75593
-2.75594
-2.75595
-2.75596
-2.75597
-2.75598
-2.75599
-2.756
-2.75601
-2.75602
-2.75603
-2.75603
-2.75604
-2.75605
-2.75605
-2.75605
-2.75606
-2.75606
-2.75605
-2.75605
-2.75605
-2.75605
-2.75604
-2.75603
-2.75603
-2.75602
-2.75601
-2.756
-2.756
-2.75599
-2.75598
-2.75597
-2.75597
-2.75596
-2.75595
-2.75595
-2.75595
-2.75594
-2.75594
-2.75595
-2.75595
-2.75595
-2.75595
-2.75595
-2.75595
-2.75596
-2.75596
-2.75596
-2.75596
-2.75597
-2.75597
-2.75597
-2.75597
-2.75597
-2.75597
-2.75597
-2.75596
-2.75595
-2.75594
-2.75592
-2.7559
-2.75588
-2.75585
-2.75583
-2.75581
-2.7558
-2.85426
-2.85427
-2.85427
-2.85427
-2.85428
-2.85428
-2.85429
-2.8543
-2.8543
-2.85431
-2.85431
-2.85432
-2.85432
-2.85432
-2.85432
-2.85432
-2.85432
-2.85431
-2.85431
-2.8543
-2.8543
-2.85429
-2.85429
-2.85429
-2.85429
-2.85429
-2.85429
-2.85429
-2.8543
-2.85431
-2.85431
-2.85432
-2.85433
-2.85434
-2.85435
-2.85436
-2.85437
-2.85438
-2.8544
-2.85441
-2.85442
-2.85443
-2.85443
-2.85444
-2.85445
-2.85446
-2.85446
-2.85447
-2.85447
-2.85448
-2.85448
-2.85448
-2.85448
-2.85448
-2.85447
-2.85447
-2.85446
-2.85446
-2.85445
-2.85444
-2.85443
-2.85443
-2.85442
-2.85441
-2.8544
-2.85439
-2.85439
-2.85438
-2.85437
-2.85437
-2.85437
-2.85437
-2.85437
-2.85437
-2.85437
-2.85438
-2.85438
-2.85438
-2.85438
-2.85439
-2.85439
-2.85439
-2.85439
-2.8544
-2.8544
-2.8544
-2.8544
-2.8544
-2.8544
-2.8544
-2.85439
-2.85438
-2.85437
-2.85435
-2.85433
-2.85431
-2.85429
-2.85426
-2.85425
-2.85424
-2.95268
-2.95268
-2.95269
-2.95269
-2.9527
-2.9527
-2.95271
-2.95271
-2.95272
-2.95273
-2.95273
-2.95274
-2.95274
-2.95274
-2.95274
-2.95274
-2.95273
-2.95273
-2.95272
-2.95272
-2.95271
-2.95271
-2.95271
-2.9527
-2.9527
-2.9527
-2.95271
-2.95271
-2.95272
-2.95272
-2.95273
-2.95274
-2.95275
-2.95276
-2.95277
-2.95278
-2.9528
-2.95281
-2.95282
-2.95283
-2.95284
-2.95285
-2.95286
-2.95287
-2.95287
-2.95288
-2.95289
-2.95289
-2.9529
-2.9529
-2.9529
-2.9529
-2.9529
-2.9529
-2.9529
-2.95289
-2.95289
-2.95288
-2.95287
-2.95286
-2.95285
-2.95285
-2.95284
-2.95283
-2.95282
-2.95281
-2.95281
-2.9528
-2.95279
-2.95279
-2.95279
-2.95279
-2.95279
-2.95279
-2.9528
-2.9528
-2.95281
-2.95281
-2.95281
-2.95282
-2.95282
-2.95282
-2.95282
-2.95283
-2.95283
-2.95283
-2.95283
-2.95283
-2.95283
-2.95282
-2.95282
-2.95281
-2.9528
-2.95278
-2.95276
-2.95274
-2.95272
-2.9527
-2.95269
-2.95268
-3.0511
-3.0511
-3.0511
-3.05111
-3.05111
-3.05112
-3.05113
-3.05113
-3.05114
-3.05115