/*--------------------------------*- C++ -*----------------------------------*\
| =========                 |                                                 |
| \\      /  F ield         | OpenFOAM: The Open Source CFD Toolbox           |
|  \\    /   O peration     | Version:  4.1                                   |
|   \\  /    A nd           | Web:      www.OpenFOAM.org                      |
|    \\/     M anipulation  |                                                 |
\*---------------------------------------------------------------------------*/
FoamFile
{
    version     2.0;
    format      ascii;
    class       surfaceScalarField;
    location    "1760";
    object      phi;
}
// * * * * * * * * * * * * * * * * * * * * * * * * * * * * * * * * * * * * * //

dimensions      [0 3 -1 0 0 0 0];

internalField   nonuniform List<scalar> 
9850
(
-5.06664e-06
5.06664e-06
-7.49368e-06
2.42704e-06
-8.62459e-06
1.13091e-06
-9.18522e-06
5.60627e-07
-9.45878e-06
2.73567e-07
-9.54174e-06
8.29548e-08
-9.46402e-06
-7.77203e-08
-9.23246e-06
-2.31561e-07
-8.85374e-06
-3.78716e-07
-8.33948e-06
-5.14256e-07
-7.70617e-06
-6.33309e-07
-6.97378e-06
-7.32397e-07
-6.16297e-06
-8.10812e-07
-5.2918e-06
-8.71163e-07
-4.37337e-06
-9.18434e-07
-3.41576e-06
-9.57611e-07
-2.42549e-06
-9.9027e-07
-1.41447e-06
-1.01102e-06
-4.00788e-07
-1.01368e-06
6.40516e-07
-1.0413e-06
1.71306e-06
-1.07254e-06
2.70872e-06
-9.95661e-07
3.61883e-06
-9.10107e-07
4.46009e-06
-8.41268e-07
5.24551e-06
-7.85416e-07
5.98336e-06
-7.37852e-07
6.67964e-06
-6.96276e-07
7.3393e-06
-6.59663e-07
7.9666e-06
-6.27302e-07
8.56511e-06
-5.98509e-07
9.1377e-06
-5.72593e-07
9.68655e-06
-5.48843e-07
1.02131e-05
-5.26526e-07
1.0718e-05
-5.04886e-07
1.12011e-05
-4.83161e-07
1.16617e-05
-4.60607e-07
1.20982e-05
-4.36517e-07
1.25085e-05
-4.10237e-07
1.28897e-05
-3.81183e-07
1.32385e-05
-3.48843e-07
1.35513e-05
-3.12783e-07
1.38239e-05
-2.72653e-07
1.40521e-05
-2.28204e-07
1.42315e-05
-1.79332e-07
1.43577e-05
-1.26201e-07
1.44273e-05
-6.95766e-08
1.44389e-05
-1.16421e-08
1.4392e-05
4.69085e-08
1.42845e-05
1.07465e-07
1.41141e-05
1.70403e-07
1.38785e-05
2.35594e-07
1.35759e-05
3.02638e-07
1.32049e-05
3.70981e-07
1.27649e-05
4.39995e-07
1.22558e-05
5.09076e-07
1.1678e-05
5.7783e-07
1.10316e-05
6.4638e-07
1.03157e-05
7.15968e-07
9.52548e-06
7.90175e-07
8.6478e-06
8.77686e-07
7.64832e-06
9.99475e-07
6.43769e-06
1.21063e-06
4.75609e-06
1.6816e-06
1.79557e-06
2.96052e-06
-2.82002e-06
4.61559e-06
-5.71827e-06
2.89826e-06
-6.89979e-06
1.18152e-06
-7.65377e-06
7.53973e-07
-8.23378e-06
5.80013e-07
-8.7159e-06
4.8212e-07
-9.13323e-06
4.17326e-07
-9.49871e-06
3.65484e-07
-9.81392e-06
3.15212e-07
-1.00745e-05
2.6057e-07
-1.02736e-05
1.99103e-07
-1.04041e-05
1.30522e-07
-1.04597e-05
5.55601e-08
-1.0432e-05
-2.76494e-08
-1.03146e-05
-1.17434e-07
-1.01006e-05
-2.13951e-07
-9.78868e-06
-3.11963e-07
-9.38026e-06
-4.08419e-07
-8.87883e-06
-5.01434e-07
-8.28895e-06
-5.89874e-07
-7.6158e-06
-6.73151e-07
-6.86471e-06
-7.51087e-07
-6.04091e-06
-8.23809e-07
-5.1492e-06
-8.91703e-07
-4.1937e-06
-9.55501e-07
-3.17699e-06
-1.01671e-06
-2.09826e-06
-1.07872e-06
-9.47054e-07
-1.15121e-06
3.23047e-07
-1.2701e-06
1.68772e-06
-1.36467e-06
2.80412e-06
-1.1164e-06
3.62381e-06
-8.19693e-07
4.15791e-06
-5.34095e-07
4.36908e-06
-2.11174e-07
3.4696e-06
8.99478e-07
3.4696e-06
-4.09446e-06
9.1611e-06
-6.51958e-06
4.85216e-06
-7.8211e-06
2.43244e-06
-8.5242e-06
1.26373e-06
-8.87648e-06
6.25839e-07
-8.98863e-06
1.95108e-07
-8.91381e-06
-1.52542e-07
-8.67712e-06
-4.68245e-07
-8.2937e-06
-7.62143e-07
-7.77745e-06
-1.03051e-06
-7.14534e-06
-1.26542e-06
-6.41753e-06
-1.4602e-06
-5.61469e-06
-1.61365e-06
-4.75424e-06
-1.73161e-06
-3.84786e-06
-1.82481e-06
-2.90176e-06
-1.90371e-06
-1.91901e-06
-1.97302e-06
-8.98419e-07
-2.03161e-06
1.75605e-07
-2.0877e-06
1.20489e-06
-2.07059e-06
2.12418e-06
-1.99183e-06
3.01418e-06
-1.88566e-06
3.87954e-06
-1.77546e-06
4.71249e-06
-1.67422e-06
5.51144e-06
-1.58436e-06
6.27757e-06
-1.50399e-06
7.01285e-06
-1.43156e-06
7.71947e-06
-1.36628e-06
8.39972e-06
-1.30755e-06
9.05583e-06
-1.25462e-06
9.68978e-06
-1.20654e-06
1.03031e-05
-1.16219e-06
1.08969e-05
-1.12029e-06
1.14715e-05
-1.0795e-06
1.20268e-05
-1.03842e-06
1.25619e-05
-9.95696e-07
1.30754e-05
-9.50018e-07
1.35653e-05
-9.00192e-07
1.40293e-05
-8.45152e-07
1.44644e-05
-7.83971e-07
1.48675e-05
-7.1587e-07
1.52351e-05
-6.4022e-07
1.55634e-05
-5.56558e-07
1.58487e-05
-4.64612e-07
1.60869e-05
-3.6437e-07
1.62735e-05
-2.56205e-07
1.64026e-05
-1.4072e-07
1.64671e-05
-1.76064e-08
1.64616e-05
1.12914e-07
1.6383e-05
2.49043e-07
1.62276e-05
3.90971e-07
1.59923e-05
5.37962e-07
1.56743e-05
6.89021e-07
1.52712e-05
8.43087e-07
1.4781e-05
9.99254e-07
1.42016e-05
1.15717e-06
1.35303e-05
1.31775e-06
1.27618e-05
1.48448e-06
1.18859e-05
1.66603e-06
1.0882e-05
1.88156e-06
9.70875e-06
2.17276e-06
8.28602e-06
2.63336e-06
6.47788e-06
3.48974e-06
4.12165e-06
5.31675e-06
4.76587e-07
8.26065e-06
-3.93803e-06
7.31288e-06
-6.15571e-06
3.3992e-06
-7.44503e-06
2.04329e-06
-8.32717e-06
1.46215e-06
-8.99449e-06
1.14944e-06
-9.52948e-06
9.52323e-07
-9.96718e-06
8.03176e-07
-1.03197e-05
6.67739e-07
-1.05883e-05
5.2918e-07
-1.07697e-05
3.80441e-07
-1.0859e-05
2.19879e-07
-1.08521e-05
4.86201e-08
-1.07485e-05
-1.31221e-07
-1.05488e-05
-3.17159e-07
-1.02528e-05
-5.09942e-07
-9.86076e-06
-7.03989e-07
-9.37514e-06
-8.94032e-07
-8.79995e-06
-1.07663e-06
-8.14019e-06
-1.24964e-06
-7.40141e-06
-1.41193e-06
-6.58936e-06
-1.56313e-06
-5.7098e-06
-1.70337e-06
-4.76819e-06
-1.83331e-06
-3.76899e-06
-1.9547e-06
-2.71396e-06
-2.07174e-06
-1.60126e-06
-2.19143e-06
-4.30156e-07
-2.32231e-06
7.48772e-07
-2.44903e-06
1.73958e-06
-2.35548e-06
2.51759e-06
-1.89441e-06
3.02721e-06
-1.32931e-06
3.2473e-06
-7.54192e-07
3.16851e-06
-1.32383e-07
2.35975e-06
1.70824e-06
5.82935e-06
-3.24401e-06
1.24051e-05
-5.31354e-06
6.92168e-06
-6.59321e-06
3.7121e-06
-7.3655e-06
2.03602e-06
-7.78221e-06
1.04255e-06
-7.94316e-06
3.56066e-07
-7.91056e-06
-1.8515e-07
-7.71523e-06
-6.6357e-07
-7.37452e-06
-1.10286e-06
-6.90346e-06
-1.50156e-06
-6.32041e-06
-1.84847e-06
-5.6473e-06
-2.13332e-06
-4.90611e-06
-2.35485e-06
-4.11423e-06
-2.52349e-06
-3.28206e-06
-2.65698e-06
-2.41395e-06
-2.77183e-06
-1.50958e-06
-2.87739e-06
-5.67156e-07
-2.97403e-06
3.79231e-07
-3.03409e-06
1.26765e-06
-2.95901e-06
2.11612e-06
-2.8403e-06
2.94572e-06
-2.71526e-06
3.75867e-06
-2.58842e-06
4.54945e-06
-2.465e-06
5.31386e-06
-2.34878e-06
6.05081e-06
-2.24093e-06
6.76092e-06
-2.14167e-06
7.44566e-06
-2.05103e-06
8.10691e-06
-1.9688e-06
8.74665e-06
-1.89436e-06
9.36672e-06
-1.82661e-06
9.96861e-06
-1.76408e-06
1.05533e-05
-1.705e-06
1.11212e-05
-1.64742e-06
1.16721e-05
-1.58932e-06
1.22052e-05
-1.52871e-06
1.27188e-05
-1.46369e-06
1.32112e-05
-1.39254e-06
1.36798e-05
-1.31374e-06
1.41217e-05
-1.22595e-06
1.4534e-05
-1.12809e-06
1.4913e-05
-1.01928e-06
1.52553e-05
-8.98836e-07
1.5557e-05
-7.66288e-07
1.5814e-05
-6.21366e-07
1.60217e-05
-4.63988e-07
1.61752e-05
-2.94148e-07
1.62692e-05
-1.1162e-07
1.62986e-05
8.34838e-08
1.62581e-05
2.89561e-07
1.61431e-05
5.05926e-07
1.59495e-05
7.31605e-07
1.56731e-05
9.65452e-07
1.531e-05
1.2062e-06
1.48564e-05
1.45281e-06
1.43085e-05
1.70503e-06
1.3662e-05
1.96434e-06
1.29107e-05
2.23572e-06
1.20458e-05
2.53093e-06
1.10526e-05
2.87476e-06
9.90773e-06
3.31764e-06
8.57805e-06
3.96304e-06
7.03395e-06
5.03384e-06
5.27543e-06
7.07527e-06
2.98983e-06
1.05462e-05
-1.00929e-06
1.1312e-05
-4.30627e-06
6.69617e-06
-5.8097e-06
3.54672e-06
-6.86196e-06
2.51442e-06
-7.66878e-06
1.95626e-06
-8.32142e-06
1.60496e-06
-8.85899e-06
1.34074e-06
-9.29538e-06
1.10414e-06
-9.6331e-06
8.66893e-07
-9.87003e-06
6.17374e-07
-1.0003e-05
3.52806e-07
-1.00295e-05
7.51576e-08
-9.94893e-06
-2.11783e-07
-9.76106e-06
-5.05029e-07
-9.4685e-06
-8.02506e-07
-9.07532e-06
-1.09716e-06
-8.58625e-06
-1.3831e-06
-8.007e-06
-1.65588e-06
-7.34405e-06
-1.91259e-06
-6.60427e-06
-2.15172e-06
-5.79464e-06
-2.37276e-06
-4.92227e-06
-2.57574e-06
-3.9944e-06
-2.76118e-06
-3.01743e-06
-2.93167e-06
-1.99385e-06
-3.09532e-06
-9.25537e-07
-3.25975e-06
1.63111e-07
-3.41096e-06
1.13889e-06
-3.42481e-06
1.87435e-06
-3.09094e-06
2.41286e-06
-2.43292e-06
2.69908e-06
-1.61553e-06
2.67186e-06
-7.2697e-07
2.28833e-06
2.51147e-07
1.62165e-06
2.37492e-06
7.451e-06
-2.78831e-06
1.51934e-05
-4.61883e-06
8.7522e-06
-5.82488e-06
4.91814e-06
-6.55872e-06
2.76986e-06
-6.94417e-06
1.428e-06
-7.09393e-06
5.05828e-07
-7.07267e-06
-2.06407e-07
-6.90485e-06
-8.314e-07
-6.60228e-06
-1.40542e-06
-6.17717e-06
-1.92667e-06
-5.64756e-06
-2.37808e-06
-5.0363e-06
-2.74458e-06
-4.36564e-06
-3.0255e-06
-3.65152e-06
-3.23761e-06
-2.90219e-06
-3.40631e-06
-2.12126e-06
-3.55276e-06
-1.31107e-06
-3.68757e-06
-4.7739e-07
-3.80771e-06
3.44181e-07
-3.85566e-06
1.14152e-06
-3.75635e-06
1.93065e-06
-3.62944e-06
2.7096e-06
-3.49421e-06
3.47495e-06
-3.35376e-06
4.22219e-06
-3.21224e-06
4.94754e-06
-3.07413e-06
5.64931e-06
-2.9427e-06
6.3276e-06
-2.81995e-06
6.9836e-06
-2.70703e-06
7.61909e-06
-2.60429e-06
8.23603e-06
-2.5113e-06
8.83626e-06
-2.42684e-06
9.42127e-06
-2.34909e-06
9.99199e-06
-2.27572e-06
1.05487e-05
-2.20415e-06
1.10911e-05
-2.13169e-06
1.16181e-05
-2.05567e-06
1.2128e-05
-1.97361e-06
1.26187e-05
-1.88326e-06
1.30876e-05
-1.78262e-06
1.35317e-05
-1.67005e-06
1.39477e-05
-1.54416e-06
1.43323e-05
-1.40388e-06
1.46819e-05
-1.24837e-06
1.49926e-05
-1.077e-06
1.52606e-05
-8.89349e-07
1.54817e-05
-6.85074e-07
1.56514e-05
-4.63871e-07
1.57651e-05
-2.25292e-07
1.58176e-05
3.0895e-08
1.58034e-05
3.03826e-07
1.5717e-05
5.92325e-07
1.55533e-05
8.95313e-07
1.5307e-05
1.2117e-06
1.49731e-05
1.54012e-06
1.45465e-05
1.87943e-06
1.40223e-05
2.22917e-06
1.3396e-05
2.59067e-06
1.26628e-05
2.96891e-06
1.18181e-05
3.3757e-06
1.08572e-05
3.83565e-06
9.77745e-06
4.39736e-06
8.58342e-06
5.15707e-06
7.30091e-06
6.31635e-06
5.99853e-06
8.37765e-06
4.47567e-06
1.20691e-05
1.61045e-06
1.41772e-05
-2.24992e-06
1.05565e-05
-4.17542e-06
5.47222e-06
-5.37994e-06
3.71893e-06
-6.31057e-06
2.88689e-06
-7.07608e-06
2.37047e-06
-7.71332e-06
1.97799e-06
-8.23338e-06
1.6242e-06
-8.63785e-06
1.27136e-06
-8.92551e-06
9.05033e-07
-9.09503e-06
5.22325e-07
-9.14626e-06
1.26385e-07
-9.08063e-06
-2.77407e-07
-8.90042e-06
-6.85241e-07
-8.60992e-06
-1.09301e-06
-8.21419e-06
-1.49289e-06
-7.71975e-06
-1.87754e-06
-7.1343e-06
-2.24133e-06
-6.46614e-06
-2.58074e-06
-5.72363e-06
-2.89423e-06
-4.91489e-06
-3.18149e-06
-4.04821e-06
-3.44242e-06
-3.13263e-06
-3.67676e-06
-2.17603e-06
-3.88827e-06
-1.17757e-06
-4.09378e-06
-1.43955e-07
-4.29336e-06
8.28954e-07
-4.38387e-06
1.59277e-06
-4.18862e-06
2.13143e-06
-3.62961e-06
2.46975e-06
-2.77123e-06
2.5751e-06
-1.72089e-06
2.41254e-06
-5.64402e-07
1.92574e-06
7.37942e-07
1.28128e-06
3.01938e-06
8.73228e-06
-2.51321e-06
1.77066e-05
-4.21013e-06
1.04491e-05
-5.32935e-06
6.03737e-06
-5.97513e-06
3.41564e-06
-6.28708e-06
1.73995e-06
-6.39846e-06
6.1721e-07
-6.37045e-06
-2.34417e-07
-6.22069e-06
-9.81159e-07
-5.95242e-06
-1.67369e-06
-5.57367e-06
-2.30543e-06
-5.10152e-06
-2.85023e-06
-4.5589e-06
-3.2872e-06
-3.96657e-06
-3.61783e-06
-3.33695e-06
-3.86723e-06
-2.6752e-06
-4.06807e-06
-1.98492e-06
-4.24303e-06
-1.2729e-06
-4.39959e-06
-5.51325e-07
-4.52929e-06
1.71383e-07
-4.57837e-06
9.0302e-07
-4.48798e-06
1.63433e-06
-4.36074e-06
2.36231e-06
-4.22219e-06
3.08105e-06
-4.0725e-06
3.78547e-06
-3.91667e-06
4.47194e-06
-3.7606e-06
5.13854e-06
-3.6093e-06
5.78507e-06
-3.46648e-06
6.41258e-06
-3.33454e-06
7.02284e-06
-3.21455e-06
7.61784e-06
-3.1063e-06
8.19948e-06
-3.00848e-06
8.76919e-06
-2.9188e-06
9.32782e-06
-2.83434e-06
9.87545e-06
-2.75178e-06
1.04114e-05
-2.66767e-06
1.09344e-05
-2.57865e-06
1.14424e-05
-2.4816e-06
1.19329e-05
-2.37374e-06
1.2403e-05
-2.25269e-06
1.28494e-05
-2.1165e-06
1.32688e-05
-1.96359e-06
1.36577e-05
-1.79276e-06
1.40125e-05
-1.60311e-06
1.43294e-05
-1.39398e-06
1.4605e-05
-1.16488e-06
1.48353e-05
-9.15402e-07
1.50166e-05
-6.45164e-07
1.5145e-05
-3.53705e-07
1.5216e-05
-4.01342e-08
1.5224e-05
2.95864e-07
1.51638e-05
6.52555e-07
1.50297e-05
1.02937e-06
1.4816e-05
1.42546e-06
1.45164e-05
1.83964e-06
1.41252e-05
2.27071e-06
1.36364e-05
2.7179e-06
1.30453e-05
3.18182e-06
1.23481e-05
3.66614e-06
1.15434e-05
4.18036e-06
1.06341e-05
4.74496e-06
9.63056e-06
5.40089e-06
8.55742e-06
6.23021e-06
7.46523e-06
7.40853e-06
6.45671e-06
9.38617e-06
5.47578e-06
1.305e-05
3.5694e-06
1.60836e-05
-1.65989e-08
1.41425e-05
-2.85586e-06
8.31148e-06
-4.10773e-06
4.97081e-06
-5.10861e-06
3.88777e-06
-5.94952e-06
3.21138e-06
-6.6567e-06
2.68517e-06
-7.23632e-06
2.20381e-06
-7.68856e-06
1.72361e-06
-8.01272e-06
1.22919e-06
-8.20872e-06
7.18331e-07
-8.27784e-06
1.95502e-07
-8.22242e-06
-3.32826e-07
-8.04668e-06
-8.60975e-07
-7.75483e-06
-1.38486e-06
-7.35341e-06
-1.89432e-06
-6.85087e-06
-2.38008e-06
-6.25703e-06
-2.83517e-06
-5.582e-06
-3.25577e-06
-4.83523e-06
-3.64101e-06
-4.02524e-06
-3.99147e-06
-3.16064e-06
-4.30702e-06
-2.25184e-06
-4.58557e-06
-1.30502e-06
-4.83509e-06
-3.1247e-07
-5.08633e-06
6.72534e-07
-5.27837e-06
1.50341e-06
-5.21474e-06
2.1048e-06
-4.79001e-06
2.48942e-06
-4.01423e-06
2.65978e-06
-2.94159e-06
2.60349e-06
-1.66459e-06
2.31219e-06
-2.731e-07
1.76381e-06
1.28632e-06
1.08971e-06
3.69348e-06
9.82199e-06
-2.30749e-06
2.00141e-05
-3.91296e-06
1.20546e-05
-4.95204e-06
7.07644e-06
-5.50261e-06
3.96622e-06
-5.73209e-06
1.96943e-06
-5.7998e-06
6.84918e-07
-5.76365e-06
-2.70563e-07
-5.6306e-06
-1.11421e-06
-5.397e-06
-1.90729e-06
-5.06749e-06
-2.63494e-06
-4.65838e-06
-3.25934e-06
-4.19166e-06
-3.75392e-06
-3.68448e-06
-4.12501e-06
-3.14394e-06
-4.40776e-06
-2.57176e-06
-4.64025e-06
-1.97177e-06
-4.84303e-06
-1.35329e-06
-5.01806e-06
-7.29033e-07
-5.15355e-06
-9.01567e-08
-5.21725e-06
5.81208e-07
-5.15935e-06
1.26008e-06
-5.03961e-06
1.94074e-06
-4.90285e-06
2.617e-06
-4.74876e-06
3.28314e-06
-4.58281e-06
3.93509e-06
-4.41254e-06
4.57065e-06
-4.24486e-06
5.18942e-06
-4.08526e-06
5.79241e-06
-3.93753e-06
6.38145e-06
-3.80359e-06
6.95866e-06
-3.68351e-06
7.52598e-06
-3.5758e-06
8.0848e-06
-3.47762e-06
8.63576e-06
-3.3853e-06
9.17863e-06
-3.29465e-06
9.71233e-06
-3.20138e-06
1.0235e-05
-3.10136e-06
1.07443e-05
-2.99083e-06
1.12371e-05
-2.86653e-06
1.17101e-05
-2.72574e-06
1.21599e-05
-2.5663e-06
1.25828e-05
-2.38652e-06
1.29753e-05
-2.18521e-06
1.33336e-05
-1.96149e-06
1.36544e-05
-1.71478e-06
1.39342e-05
-1.44467e-06
1.41697e-05
-1.15083e-06
1.43574e-05
-8.32936e-07
1.44942e-05
-4.90528e-07
1.45767e-05
-1.22632e-07
1.4601e-05
2.71624e-07
1.45616e-05
6.91952e-07
1.44531e-05
1.13781e-06
1.427e-05
1.60863e-06
1.40059e-05
2.10368e-06
1.36547e-05
2.62192e-06
1.32103e-05
3.16235e-06
1.26674e-05
3.72469e-06
1.20228e-05
4.31071e-06
1.12767e-05
4.92652e-06
1.04349e-05
5.58676e-06
9.51304e-06
6.32272e-06
8.54296e-06
7.20029e-06
7.58418e-06
8.36731e-06
6.75468e-06
1.02157e-05
6.11533e-06
1.36894e-05
4.85597e-06
1.7343e-05
2.13081e-06
1.68677e-05
-1.33508e-06
1.17774e-05
-3.01847e-06
6.65419e-06
-4.06047e-06
4.92976e-06
-4.94378e-06
4.0947e-06
-5.69455e-06
3.43594e-06
-6.31477e-06
2.82403e-06
-6.80243e-06
2.21127e-06
-7.15578e-06
1.58254e-06
-7.37422e-06
9.36772e-07
-7.45861e-06
2.79888e-07
-7.4123e-06
-3.79136e-07
-7.23953e-06
-1.03374e-06
-6.94601e-06
-1.67838e-06
-6.53949e-06
-2.30084e-06
-6.03031e-06
-2.88926e-06
-5.43035e-06
-3.43513e-06
-4.75112e-06
-3.93499e-06
-4.00232e-06
-4.38982e-06
-3.19161e-06
-4.80218e-06
-2.32665e-06
-5.17199e-06
-1.41783e-06
-5.49438e-06
-4.61886e-07
-5.79104e-06
5.35482e-07
-6.0837e-06
1.44544e-06
-6.18833e-06
2.16036e-06
-5.92966e-06
2.65736e-06
-5.28701e-06
2.92388e-06
-4.28074e-06
2.95546e-06
-2.97318e-06
2.75752e-06
-1.46665e-06
2.32936e-06
1.5506e-07
1.70277e-06
1.91291e-06
9.73357e-07
4.42289e-06
1.07954e-05
-2.1238e-06
2.21379e-05
-3.63868e-06
1.35695e-05
-4.60499e-06
8.04275e-06
-5.07012e-06
4.43135e-06
-5.22384e-06
2.12314e-06
-5.25522e-06
7.16298e-07
-5.2198e-06
-3.05982e-07
-5.10931e-06
-1.2247e-06
-4.91532e-06
-2.10128e-06
-4.64069e-06
-2.90956e-06
-4.30147e-06
-3.59856e-06
-3.91756e-06
-4.13783e-06
-3.50034e-06
-4.54223e-06
-3.05062e-06
-4.85748e-06
-2.56723e-06
-5.12364e-06
-2.054e-06
-5.35625e-06
-1.51994e-06
-5.55213e-06
-9.73904e-07
-5.69959e-06
-4.10093e-07
-5.78106e-06
1.98046e-07
-5.76749e-06
8.32251e-07
-5.67382e-06
1.47244e-06
-5.54305e-06
2.1128e-06
-5.38912e-06
2.74732e-06
-5.21733e-06
3.37133e-06
-5.03654e-06
3.98218e-06
-4.85571e-06
4.5793e-06
-4.68237e-06
5.16368e-06
-4.52192e-06
5.73732e-06
-4.37722e-06
6.30248e-06
-4.24867e-06
6.86115e-06
-4.13446e-06
7.4146e-06
-4.03108e-06
7.96319e-06
-3.93388e-06
8.50623e-06
-3.83769e-06
9.04209e-06
-3.73725e-06
9.56836e-06
-3.62763e-06
1.0082e-05
-3.50445e-06
1.05795e-05
-3.36403e-06
1.10572e-05
-3.20341e-06
1.15112e-05
-3.02032e-06
1.19378e-05
-2.8131e-06
1.23332e-05
-2.58064e-06
1.26939e-05
-2.32224e-06
1.30167e-05
-2.03749e-06
1.32982e-05
-1.72618e-06
1.35355e-05
-1.38815e-06
1.37258e-05
-1.02324e-06
1.38664e-05
-6.31134e-07
1.39549e-05
-2.11143e-07
1.39885e-05
2.38062e-07
1.39631e-05
7.17372e-07
1.3874e-05
1.22692e-06
1.3716e-05
1.76653e-06
1.34838e-05
2.33594e-06
1.31713e-05
2.93444e-06
1.27727e-05
3.56096e-06
1.22829e-05
4.21444e-06
1.16988e-05
4.89479e-06
1.10207e-05
5.60461e-06
1.02549e-05
6.35261e-06
9.41718e-06
7.16042e-06
8.53934e-06
8.07814e-06
7.68068e-06
9.22597e-06
6.96084e-06
1.09355e-05
6.52349e-06
1.41267e-05
5.759e-06
1.81074e-05
3.7543e-06
1.88724e-05
4.24817e-07
1.51069e-05
-2.06525e-06
9.14426e-06
-3.14057e-06
6.00508e-06
-4.04842e-06
5.00254e-06
-4.82533e-06
4.21285e-06
-5.47348e-06
3.47219e-06
-5.98861e-06
2.7264e-06
-6.36674e-06
1.96067e-06
-6.60558e-06
1.17561e-06
-6.7051e-06
3.79403e-07
-6.66847e-06
-4.15767e-07
-6.50132e-06
-1.20089e-06
-6.20964e-06
-1.97007e-06
-5.80256e-06
-2.70792e-06
-5.29244e-06
-3.39938e-06
-4.69303e-06
-4.03454e-06
-4.01661e-06
-4.61141e-06
-3.27175e-06
-5.13467e-06
-2.46368e-06
-5.61025e-06
-1.59768e-06
-6.03799e-06
-6.81372e-07
-6.41069e-06
3.02906e-07
-6.77532e-06
1.28071e-06
-7.0615e-06
2.12185e-06
-7.02947e-06
2.77975e-06
-6.58756e-06
3.21554e-06
-5.7228e-06
3.39799e-06
-4.46319e-06
3.31801e-06
-2.8932e-06
2.99305e-06
-1.14169e-06
2.44177e-06
7.06344e-07
1.7158e-06
2.63888e-06
9.14e-07
5.22469e-06
1.17094e-05
-1.92632e-06
2.40642e-05
-3.32429e-06
1.49674e-05
-4.22437e-06
8.94283e-06
-4.62391e-06
4.83089e-06
-4.71973e-06
2.21896e-06
-4.73575e-06
7.32315e-07
-4.71765e-06
-3.24082e-07
-4.64083e-06
-1.30152e-06
-4.49484e-06
-2.24727e-06
-4.28276e-06
-3.12163e-06
-4.02087e-06
-3.86046e-06
-3.72539e-06
-4.43331e-06
-3.40026e-06
-4.86737e-06
-3.04027e-06
-5.21747e-06
-2.64237e-06
-5.52154e-06
-2.2101e-06
-5.78852e-06
-1.75062e-06
-6.0116e-06
-1.26988e-06
-6.18033e-06
-7.66438e-07
-6.2845e-06
-2.18995e-07
-6.31493e-06
3.71093e-07
-6.2639e-06
9.77854e-07
-6.14981e-06
1.58977e-06
-6.00103e-06
2.20016e-06
-5.82772e-06
2.80362e-06
-5.64e-06
3.39694e-06
-5.44903e-06
3.97924e-06
-5.26467e-06
4.55155e-06
-5.09423e-06
5.11602e-06
-4.9417e-06
5.67508e-06
-4.80773e-06
6.23074e-06
-4.69012e-06
6.7841e-06
-4.58444e-06
7.33512e-06
-4.4849e-06
7.88257e-06
-4.38514e-06
8.42417e-06
-4.27886e-06
8.95687e-06
-4.16032e-06
9.47701e-06
-4.02459e-06
9.98063e-06
-3.86766e-06
1.04637e-05
-3.68645e-06
1.09221e-05
-3.47871e-06
1.13519e-05
-3.24294e-06
1.17495e-05
-2.97824e-06
1.21114e-05
-2.68417e-06
1.24345e-05
-2.3606e-06
1.27159e-05
-2.00758e-06
1.2953e-05
-1.62525e-06
1.31434e-05
-1.21365e-06
1.3285e-05
-7.72709e-07
1.33759e-05
-3.02035e-07
1.34142e-05
1.99807e-07
1.33971e-05
7.34429e-07
1.33212e-05
1.3028e-06
1.31825e-05
1.90528e-06
1.29763e-05
2.54212e-06
1.26977e-05
3.21301e-06
1.23417e-05
3.91701e-06
1.19036e-05
4.65255e-06
1.13803e-05
5.41803e-06
1.07719e-05
6.21301e-06
1.00836e-05
7.04091e-06
9.32931e-06
7.91473e-06
8.53719e-06
8.87026e-06
7.76118e-06
1.0002e-05
7.11321e-06
1.15835e-05
6.78156e-06
1.44584e-05
6.35557e-06
1.85334e-05
4.91048e-06
2.03175e-05
2.16589e-06
1.78514e-05
-9.0269e-07
1.22128e-05
-2.34194e-06
7.44434e-06
-3.25482e-06
5.91541e-06
-4.0442e-06
5.00223e-06
-4.71156e-06
4.13955e-06
-5.24925e-06
3.26409e-06
-5.65045e-06
2.36187e-06
-5.91038e-06
1.43554e-06
-6.02718e-06
4.96198e-07
-6.00361e-06
-4.39332e-07
-5.84616e-06
-1.35834e-06
-5.562e-06
-2.25423e-06
-5.16176e-06
-3.10815e-06
-4.65986e-06
-3.90128e-06
-4.07156e-06
-4.62284e-06
-3.40868e-06
-5.27429e-06
-2.67694e-06
-5.86641e-06
-1.87737e-06
-6.40982e-06
-1.01088e-06
-6.90448e-06
-7.73081e-08
-7.34426e-06
9.18575e-07
-7.7712e-06
1.86431e-06
-8.00723e-06
2.68136e-06
-7.84652e-06
3.32266e-06
-7.22886e-06
3.73236e-06
-6.1325e-06
3.86393e-06
-4.59477e-06
3.70146e-06
-2.73073e-06
3.27114e-06
-7.11366e-07
2.60487e-06
1.37261e-06
1.77803e-06
3.46572e-06
8.95087e-07
6.10763e-06
1.26044e-05
-1.68839e-06
2.57526e-05
-2.91502e-06
1.61941e-05
-3.75291e-06
9.78072e-06
-4.12049e-06
5.19847e-06
-4.18794e-06
2.28641e-06
-4.22082e-06
7.65196e-07
-4.24308e-06
-3.01827e-07
-4.21542e-06
-1.32918e-06
-4.12826e-06
-2.33443e-06
-3.9877e-06
-3.2622e-06
-3.81034e-06
-4.03782e-06
-3.60701e-06
-4.63664e-06
-3.37346e-06
-5.10092e-06
-3.09985e-06
-5.49108e-06
-2.78235e-06
-5.83904e-06
-2.42384e-06
-6.14703e-06
-2.02947e-06
-6.40598e-06
-1.60318e-06
-6.60662e-06
-1.14537e-06
-6.7423e-06
-6.50464e-07
-6.80984e-06
-1.0774e-07
-6.80663e-06
4.70828e-07
-6.72838e-06
1.06153e-06
-6.59173e-06
1.65514e-06
-6.42134e-06
2.24537e-06
-6.23023e-06
2.82821e-06
-6.03187e-06
3.40238e-06
-5.83884e-06
3.96885e-06
-5.6607e-06
4.52994e-06
-5.50278e-06
5.08822e-06
-5.36601e-06
5.6457e-06
-5.2476e-06
6.20326e-06
-5.142e-06
6.76038e-06
-5.04202e-06
7.3152e-06
-4.93996e-06
7.86478e-06
-4.82844e-06
8.40539e-06
-4.70093e-06
8.93285e-06
-4.55205e-06
9.44277e-06
-4.37759e-06
9.93082e-06
-4.1745e-06
1.03928e-05
-3.9407e-06
1.08248e-05
-3.67496e-06
1.12233e-05
-3.37671e-06
1.1585e-05
-3.04585e-06
1.1907e-05
-2.6826e-06
1.21868e-05
-2.28736e-06
1.24221e-05
-1.86057e-06
1.2611e-05
-1.40257e-06
1.27518e-05
-9.13536e-07
1.28432e-05
-3.93369e-07
1.28837e-05
1.5925e-07
1.28718e-05
7.46314e-07
1.28052e-05
1.36947e-06
1.26809e-05
2.02958e-06
1.24956e-05
2.72737e-06
1.22457e-05
3.46296e-06
1.1927e-05
4.23567e-06
1.15358e-05
5.04372e-06
1.10694e-05
5.88447e-06
1.05273e-05
6.75514e-06
9.91331e-06
7.65487e-06
9.23862e-06
8.58941e-06
8.52658e-06
9.5823e-06
7.82321e-06
1.07053e-05
7.22721e-06
1.21795e-05
6.94093e-06
1.47447e-05
6.73605e-06
1.87383e-05
5.75359e-06
2.13e-05
3.5581e-06
2.00469e-05
4.79769e-07
1.52912e-05
-1.62434e-06
9.54845e-06
-2.54679e-06
6.83786e-06
-3.34486e-06
5.80031e-06
-4.02593e-06
4.82062e-06
-4.58312e-06
3.82128e-06
-5.00705e-06
2.7858e-06
-5.28995e-06
1.71845e-06
-5.42765e-06
6.33892e-07
-5.4211e-06
-4.45877e-07
-5.27932e-06
-1.50013e-06
-5.01043e-06
-2.52312e-06
-4.6271e-06
-3.49148e-06
-4.14588e-06
-4.3825e-06
-3.5828e-06
-5.18592e-06
-2.94752e-06
-5.90957e-06
-2.24087e-06
-6.57306e-06
-1.45835e-06
-7.19234e-06
-5.96516e-07
-7.76631e-06
3.47578e-07
-8.28835e-06
1.33474e-06
-8.75837e-06
2.26318e-06
-8.93567e-06
3.08367e-06
-8.66701e-06
3.73532e-06
-7.88051e-06
4.14925e-06
-6.54643e-06
4.26293e-06
-4.70844e-06
4.04864e-06
-2.51644e-06
3.53534e-06
-1.98066e-07
2.77408e-06
2.13387e-06
1.85891e-06
4.38088e-06
8.98555e-07
7.06799e-06
1.3503e-05
-1.4066e-06
2.71592e-05
-2.37838e-06
1.71659e-05
-3.14185e-06
1.05442e-05
-3.52475e-06
5.58137e-06
-3.61367e-06
2.37533e-06
-3.70207e-06
8.53591e-07
-3.79087e-06
-2.13026e-07
-3.82896e-06
-1.29109e-06
-3.81246e-06
-2.35094e-06
-3.75248e-06
-3.32218e-06
-3.66561e-06
-4.12468e-06
-3.55571e-06
-4.74654e-06
-3.41092e-06
-5.24571e-06
-3.21879e-06
-5.68321e-06
-2.97549e-06
-6.08234e-06
-2.68312e-06
-6.4394e-06
-2.34522e-06
-6.74387e-06
-1.96487e-06
-6.98697e-06
-1.54421e-06
-7.16296e-06
-1.08458e-06
-7.26947e-06
-5.84356e-07
-7.30686e-06
-3.93641e-08
-7.27337e-06
5.35718e-07
-7.16681e-06
1.11941e-06
-7.00503e-06
1.70314e-06
-6.81396e-06
2.28203e-06
-6.61076e-06
2.85415e-06
-6.41097e-06
3.42033e-06
-6.22688e-06
3.98301e-06
-6.06546e-06
4.5449e-06
-5.9279e-06
5.10799e-06
-5.81069e-06
5.67287e-06
-5.70688e-06
6.23851e-06
-5.60766e-06
6.80238e-06
-5.50384e-06
7.36088e-06
-5.38693e-06
7.90966e-06
-5.24971e-06
8.44407e-06
-5.08646e-06
8.95943e-06
-4.89295e-06
9.45124e-06
-4.66631e-06
9.91531e-06
-4.40477e-06
1.03478e-05
-4.10749e-06
1.07455e-05
-3.77433e-06
1.11052e-05
-3.4056e-06
1.14246e-05
-3.00193e-06
1.17013e-05
-2.56409e-06
1.19336e-05
-2.09285e-06
1.21199e-05
-1.58888e-06
1.22589e-05
-1.05261e-06
1.23498e-05
-4.84213e-07
1.23916e-05
1.17435e-07
1.23834e-05
7.54489e-07
1.23238e-05
1.42906e-06
1.22111e-05
2.14232e-06
1.20431e-05
2.89539e-06
1.18173e-05
3.68876e-06
1.15309e-05
4.52204e-06
1.11811e-05
5.3935e-06
1.07657e-05
6.29991e-06
1.02839e-05
7.23689e-06
9.73847e-06
8.20035e-06
9.13757e-06
9.19031e-06
8.49963e-06
1.02202e-05
7.86228e-06
1.13427e-05
7.30902e-06
1.27327e-05
7.03569e-06
1.5018e-05
6.96374e-06
1.88103e-05
6.3393e-06
2.19244e-05
4.619e-06
2.17672e-05
1.90371e-06
1.80065e-05
-7.51145e-07
1.22033e-05
-1.92603e-06
8.01274e-06
-2.72379e-06
6.59807e-06
-3.41263e-06
5.50946e-06
-3.98663e-06
4.39527e-06
-4.43317e-06
3.23234e-06
-4.74129e-06
2.02657e-06
-4.90366e-06
7.96259e-07
-4.92125e-06
-4.28282e-07
-4.80201e-06
-1.61938e-06
-4.55783e-06
-2.76729e-06
-4.20389e-06
-3.84543e-06
-3.7588e-06
-4.82758e-06
-3.2381e-06
-5.70663e-06
-2.64704e-06
-6.50063e-06
-1.97976e-06
-7.24034e-06
-1.22573e-06
-7.94638e-06
-3.78492e-07
-8.61354e-06
5.53854e-07
-9.2207e-06
1.51696e-06
-9.72147e-06
2.44011e-06
-9.85883e-06
3.27391e-06
-9.5008e-06
3.95196e-06
-8.55856e-06
4.39594e-06
-6.99041e-06
4.52536e-06
-4.83787e-06
4.29399e-06
-2.28507e-06
3.72321e-06
3.72719e-07
2.89935e-06
2.95773e-06
1.92305e-06
5.35719e-06
9.06357e-07
8.08468e-06
1.44093e-05
-1.10976e-06
2.8269e-05
-1.73263e-06
1.77887e-05
-2.38127e-06
1.11928e-05
-2.82013e-06
6.02023e-06
-2.99897e-06
2.55418e-06
-3.18319e-06
1.03781e-06
-3.35993e-06
-3.62894e-08
-3.48243e-06
-1.16858e-06
-3.54772e-06
-2.28564e-06
-3.57606e-06
-3.29384e-06
-3.58328e-06
-4.11746e-06
-3.56536e-06
-4.76446e-06
-3.50463e-06
-5.30644e-06
-3.38805e-06
-5.79979e-06
-3.21219e-06
-6.2582e-06
-2.97846e-06
-6.67313e-06
-2.68945e-06
-7.03288e-06
-2.3482e-06
-7.32823e-06
-1.95827e-06
-7.55289e-06
-1.524e-06
-7.70374e-06
-1.04998e-06
-7.78087e-06
-5.36642e-07
-7.78671e-06
1.72944e-08
-7.72075e-06
5.95944e-07
-7.58368e-06
1.17928e-06
-7.3973e-06
1.75999e-06
-7.19146e-06
2.33541e-06
-6.9864e-06
2.90604e-06
-6.79751e-06
3.47439e-06
-6.6338e-06
4.04329e-06
-6.4968e-06
4.61472e-06
-6.38213e-06
5.18897e-06
-6.28113e-06
5.76444e-06
-6.18313e-06
6.33796e-06
-6.07736e-06
6.90527e-06
-5.95424e-06
7.4615e-06
-5.80594e-06
8.00165e-06
-5.6266e-06
8.52083e-06
-5.41214e-06
9.01453e-06
-5.16001e-06
9.47868e-06
-4.86892e-06
9.9097e-06
-4.53851e-06
1.03045e-05
-4.16914e-06
1.06605e-05
-3.7616e-06
1.09755e-05
-3.31695e-06
1.12478e-05
-2.83635e-06
1.14759e-05
-2.32093e-06
1.16586e-05
-1.77164e-06
1.17952e-05
-1.18921e-06
1.1885e-05
-5.74031e-07
1.19277e-05
7.47804e-08
1.19227e-05
7.59456e-07
1.18694e-05
1.4824e-06
1.17668e-05
2.24494e-06
1.16137e-05
3.04841e-06
1.14089e-05
3.89359e-06
1.11506e-05
4.78032e-06
1.08371e-05
5.70704e-06
1.04667e-05
6.67031e-06
1.00388e-05
7.6648e-06
9.55496e-06
8.68419e-06
9.02109e-06
9.72418e-06
8.45109e-06
1.07902e-05
7.87471e-06
1.19191e-05
7.36048e-06
1.3247e-05
7.08558e-06
1.52929e-05
7.08245e-06
1.88134e-05
6.72896e-06
2.22779e-05
5.43017e-06
2.3066e-05
3.1144e-06
2.03222e-05
3.13654e-07
1.5004e-05
-1.38341e-06
9.70981e-06
-2.17337e-06
7.38802e-06
-2.86765e-06
6.20374e-06
-3.45617e-06
4.98379e-06
-3.92542e-06
3.70159e-06
-4.26161e-06
2.36277e-06
-4.45436e-06
9.89009e-07
-4.50152e-06
-3.81126e-07
-4.41335e-06
-1.70754e-06
-4.20517e-06
-2.97547e-06
-3.89544e-06
-4.15516e-06
-3.5045e-06
-5.21852e-06
-3.04542e-06
-6.1657e-06
-2.5168e-06
-7.02925e-06
-1.90532e-06
-7.85183e-06
-1.19607e-06
-8.65562e-06
-3.83426e-07
-9.42619e-06
5.12705e-07
-1.01168e-05
1.43858e-06
-1.06473e-05
2.3473e-06
-1.07675e-05
3.1888e-06
-1.03423e-05
3.89787e-06
-9.26763e-06
4.39128e-06
-7.48382e-06
4.57021e-06
-5.01679e-06
4.35921e-06
-2.07408e-06
3.77085e-06
9.61078e-07
2.92574e-06
3.80285e-06
1.93164e-06
6.35128e-06
8.99321e-07
9.117e-06
1.53087e-05
-8.4971e-07
2.91187e-05
-1.05249e-06
1.79915e-05
-1.53227e-06
1.16726e-05
-2.03665e-06
6.52461e-06
-2.36494e-06
2.88247e-06
-2.67981e-06
1.35268e-06
-2.96398e-06
2.47876e-07
-3.18285e-06
-9.49711e-07
-3.33714e-06
-2.13135e-06
-3.45843e-06
-3.17255e-06
-3.55999e-06
-4.0159e-06
-3.62986e-06
-4.69459e-06
-3.64706e-06
-5.28923e-06
-3.59945e-06
-5.8474e-06
-3.48414e-06
-6.37351e-06
-3.302e-06
-6.85527e-06
-3.05525e-06
-7.27963e-06
-2.74734e-06
-7.63614e-06
-2.38299e-06
-7.91724e-06
-1.96813e-06
-8.11861e-06
-1.50955e-06
-8.23945e-06
-1.01382e-06
-8.28244e-06
-4.81782e-07
-8.25279e-06
8.64162e-08
-8.15188e-06
6.73603e-07
-7.98449e-06
1.26128e-06
-7.77914e-06
1.84457e-06
-7.56969e-06
2.42358e-06
-7.37652e-06
3.00079e-06
-7.21101e-06
3.57921e-06
-7.07522e-06
4.16078e-06
-6.9637e-06
4.74549e-06
-6.86584e-06
5.33119e-06
-6.76883e-06
5.91407e-06
-6.66025e-06
6.4893e-06
-6.52946e-06
7.05157e-06
-6.36821e-06
7.59562e-06
-6.17066e-06
8.11653e-06
-5.93304e-06
8.60987e-06
-5.65335e-06
9.07181e-06
-5.33085e-06
9.49909e-06
-4.96579e-06
9.88902e-06
-4.55907e-06
1.02394e-05
-4.11199e-06
1.05485e-05
-3.62605e-06
1.0815e-05
-3.10281e-06
1.10378e-05
-2.54373e-06
1.12162e-05
-1.95006e-06
1.13498e-05
-1.32277e-06
1.14382e-05
-6.62462e-07
1.14815e-05
3.14744e-08
1.14796e-05
7.6137e-07
1.14322e-05
1.52978e-06
1.13391e-05
2.33806e-06
1.11998e-05
3.18768e-06
1.10139e-05
4.0795e-06
1.07806e-05
5.01358e-06
1.04991e-05
5.98854e-06
1.01685e-05
7.00096e-06
9.78823e-06
8.04506e-06
9.3593e-06
9.11313e-06
8.8857e-06
1.01978e-05
8.37758e-06
1.12984e-05
7.8579e-06
1.24388e-05
7.3816e-06
1.37233e-05
7.10167e-06
1.55728e-05
7.12401e-06
1.8791e-05
6.96775e-06
2.24342e-05
6.02358e-06
2.40102e-05
4.08773e-06
2.22581e-05
1.46637e-06
1.76254e-05
-7.57144e-07
1.19333e-05
-1.68934e-06
8.32022e-06
-2.38828e-06
6.90268e-06
-2.98834e-06
5.58385e-06
-3.47988e-06
4.19314e-06
-3.84647e-06
2.72935e-06
-4.07451e-06
1.21705e-06
-4.15948e-06
-2.96154e-07
-4.11217e-06
-1.75486e-06
-3.95294e-06
-3.1347e-06