/*--------------------------------*- C++ -*----------------------------------*\
| =========                 |                                                 |
| \\      /  F ield         | OpenFOAM: The Open Source CFD Toolbox           |
|  \\    /   O peration     | Version:  4.1                                   |
|   \\  /    A nd           | Web:      www.OpenFOAM.org                      |
|    \\/     M anipulation  |                                                 |
\*---------------------------------------------------------------------------*/
FoamFile
{
    version     2.0;
    format      ascii;
    class       volVectorField;
    location    "1760";
    object      U;
}
// * * * * * * * * * * * * * * * * * * * * * * * * * * * * * * * * * * * * * //

dimensions      [0 1 -1 0 0 0 0];

internalField   nonuniform List<vector> 
5000
(
(-0.00499526 0.00326483 0)
(-0.00659688 0.00129236 0)
(-0.00821434 0.000536611 0)
(-0.00897403 0.000249671 0)
(-0.00936487 0.000113973 0)
(-0.00953601 2.31448e-05 0)
(-0.00953548 -5.83026e-05 0)
(-0.00937843 -0.000139501 0)
(-0.00907013 -0.000219229 0)
(-0.00861921 -0.000294509 0)
(-0.00804046 -0.000362421 0)
(-0.00735287 -0.00042088 0)
(-0.00657742 -0.000469301 0)
(-0.0057338 -0.000508815 0)
(-0.00483689 -0.000541717 0)
(-0.00389534 -0.000570076 0)
(-0.0029154 -0.000593787 0)
(-0.00191561 -0.000609881 0)
(-0.000943984 -0.000620586 0)
(7.99298e-05 -0.000669589 0)
(0.00125226 -0.00073347 0)
(0.00222477 -0.000681512 0)
(0.00316043 -0.000607142 0)
(0.00404053 -0.000541186 0)
(0.00485918 -0.000486981 0)
(0.00562265 -0.000442255 0)
(0.00633951 -0.000404732 0)
(0.00701678 -0.000372879 0)
(0.00765964 -0.000345615 0)
(0.00827205 -0.000322064 0)
(0.00885717 -0.000301469 0)
(0.00941753 -0.000283148 0)
(0.00995497 -0.000266475 0)
(0.0104706 -0.000250866 0)
(0.0109646 -0.00023577 0)
(0.0114367 -0.000220669 0)
(0.0118856 -0.00020509 0)
(0.0123095 -0.000188607 0)
(0.0127059 -0.000170843 0)
(0.0130717 -0.000151477 0)
(0.0134034 -0.000130244 0)
(0.0136971 -0.000106936 0)
(0.0139486 -8.14146e-05 0)
(0.0141536 -5.36395e-05 0)
(0.0143075 -2.3745e-05 0)
(0.0144063 7.74307e-06 0)
(0.0144462 3.93976e-05 0)
(0.0144296 6.99576e-05 0)
(0.0143535 0.000100184 0)
(0.0142153 0.000130792 0)
(0.014013 0.000162088 0)
(0.0137446 0.000194068 0)
(0.0134084 0.000226555 0)
(0.0130034 0.000259306 0)
(0.0125293 0.000292064 0)
(0.0119861 0.000324664 0)
(0.0113743 0.000357207 0)
(0.0106937 0.000390406 0)
(0.00994196 0.000426308 0)
(0.00911154 0.00047 0)
(0.00818179 0.000534249 0)
(0.00710017 0.000654599 0)
(0.00571919 0.000952066 0)
(0.00424492 0.00184782 0)
(-0.000527745 0.00305976 0)
(-0.00534073 0.0014002 0)
(-0.00641997 0.000512371 0)
(-0.00732228 0.00034184 0)
(-0.00796966 0.000275287 0)
(-0.00849304 0.000236309 0)
(-0.00894013 0.000210175 0)
(-0.0093315 0.00018899 0)
(-0.00967297 0.000167744 0)
(-0.00996229 0.000143685 0)
(-0.0101935 0.000115628 0)
(-0.0103597 8.32701e-05 0)
(-0.0104539 4.63866e-05 0)
(-0.0104689 4.10747e-06 0)
(-0.0103974 -4.46419e-05 0)
(-0.0102313 -9.78765e-05 0)
(-0.00996721 -0.000153092 0)
(-0.00960561 -0.000208656 0)
(-0.00914911 -0.000263581 0)
(-0.00860181 -0.000317321 0)
(-0.00796858 -0.00036968 0)
(-0.00725471 -0.00042075 0)
(-0.00646566 -0.000470884 0)
(-0.00560661 -0.000520711 0)
(-0.00468093 -0.000571337 0)
(-0.00368782 -0.0006249 0)
(-0.00262697 -0.000685798 0)
(-0.00152646 -0.000764284 0)
(-0.000466228 -0.000884545 0)
(0.00116046 -0.00105958 0)
(0.00225802 -0.000898369 0)
(0.00320844 -0.000700798 0)
(0.00391457 -0.000520409 0)
(0.00434659 -0.000329066 0)
(0.00413447 0.000253836 0)
(0.0033846 0.00197855 0)
(-0.00408992 0.0069385 0)
(-0.00544232 0.00354201 0)
(-0.00733967 0.00172047 0)
(-0.0082538 0.000876848 0)
(-0.00875193 0.000432955 0)
(-0.00897395 0.000133318 0)
(-0.00898511 -0.000117775 0)
(-0.00882512 -0.000351358 0)
(-0.00851179 -0.000570925 0)
(-0.00805745 -0.000772039 0)
(-0.00747815 -0.000948524 0)
(-0.00679334 -0.00109566 0)
(-0.00602427 -0.00121274 0)
(-0.0051904 -0.00130399 0)
(-0.0043056 -0.00137716 0)
(-0.00337615 -0.00143981 0)
(-0.00240495 -0.00149523 0)
(-0.00141045 -0.001542 0)
(-0.000438457 -0.00158584 0)
(0.000778598 -0.00160563 0)
(0.00167367 -0.00156188 0)
(0.00256895 -0.00145382 0)
(0.00344715 -0.00134175 0)
(0.00429809 -0.00124668 0)
(0.00511614 -0.00116812 0)
(0.00589993 -0.00110154 0)
(0.00665101 -0.00104372 0)
(0.00737187 -0.000992905 0)
(0.00806506 -0.000947969 0)
(0.00873296 -0.00090795 0)
(0.00937771 -0.000871883 0)
(0.0100011 -0.000838759 0)
(0.0106045 -0.000807533 0)
(0.0111886 -0.000777127 0)
(0.0117536 -0.000746461 0)
(0.0122989 -0.000714478 0)
(0.0128236 -0.000680177 0)
(0.0133257 -0.000642635 0)
(0.0138033 -0.000601025 0)
(0.0142535 -0.000554625 0)
(0.0146733 -0.000502823 0)
(0.0150595 -0.000445122 0)
(0.0154084 -0.000381153 0)
(0.0157162 -0.000310721 0)
(0.015979 -0.000233902 0)
(0.0161925 -0.000151293 0)
(0.016353 -6.43593e-05 0)
(0.0164513 2.66336e-05 0)
(0.0164818 0.000120986 0)
(0.0164408 0.00021904 0)
(0.0163249 0.00032079 0)
(0.0161305 0.000425774 0)
(0.0158548 0.000533242 0)
(0.0154951 0.000642336 0)
(0.0150493 0.000752278 0)
(0.0145153 0.000862671 0)
(0.013891 0.000974012 0)
(0.0131727 0.00108867 0)
(0.0123536 0.00121278 0)
(0.0114198 0.00136041 0)
(0.0103443 0.00156324 0)
(0.00907577 0.0018966 0)
(0.00750399 0.00255763 0)
(0.00572326 0.0040778 0)
(0.00307386 0.00645103 0)
(-0.0026546 0.00495349 0)
(-0.00534749 0.00217359 0)
(-0.0069051 0.00132244 0)
(-0.00794135 0.000970387 0)
(-0.00869593 0.000780008 0)
(-0.00928896 0.000659018 0)
(-0.00977261 0.000566176 0)
(-0.0101674 0.000479921 0)
(-0.0104785 0.000389403 0)
(-0.0107041 0.000290016 0)
(-0.0108401 0.000180673 0)
(-0.0108823 6.18723e-05 0)
(-0.0108262 -6.60163e-05 0)
(-0.0106721 -0.000202751 0)
(-0.0104234 -0.000346038 0)
(-0.0100782 -0.000490581 0)
(-0.00963791 -0.000632294 0)
(-0.00910595 -0.000768619 0)
(-0.00848684 -0.000898036 0)
(-0.00778587 -0.00101981 0)
(-0.00700872 -0.0011338 0)
(-0.00616124 -0.00124038 0)
(-0.00524917 -0.00134037 0)
(-0.00427667 -0.0014355 0)
(-0.00324392 -0.00152925 0)
(-0.00215255 -0.00162844 0)
(-0.00103374 -0.00174898 0)
(0.000122328 -0.00191907 0)
(0.00135146 -0.00193746 0)
(0.0021457 -0.00155807 0)
(0.00278252 -0.00110052 0)
(0.0031718 -0.000651688 0)
(0.00326422 -0.000173587 0)
(0.00279396 0.00128159 0)
(0.00256545 0.00449773 0)
(-0.00330957 0.0106662 0)
(-0.00427034 0.00584104 0)
(-0.00612868 0.0030433 0)
(-0.00705439 0.00162426 0)
(-0.00762072 0.000810169 0)
(-0.00789961 0.000253244 0)
(-0.00795986 -0.000193637 0)
(-0.00784201 -0.000591793 0)
(-0.0075706 -0.000958986 0)
(-0.00715992 -0.00129306 0)
(-0.0066274 -0.00158479 0)
(-0.00599426 -0.00182599 0)
(-0.00528349 -0.00201538 0)
(-0.00451518 -0.0021608 0)
(-0.00370212 -0.00227632 0)
(-0.00284871 -0.00237579 0)
(-0.00195831 -0.00246752 0)
(-0.00105558 -0.00255306 0)
(-0.000123523 -0.00262041 0)
(0.000876944 -0.00256311 0)
(0.00169095 -0.00245105 0)
(0.00252813 -0.00232798 0)
(0.00335285 -0.00220666 0)
(0.00415639 -0.00209351 0)
(0.00493513 -0.00198982 0)
(0.00568673 -0.00189489 0)
(0.00641075 -0.00180807 0)
(0.00710827 -0.00172903 0)
(0.00778112 -0.00165736 0)
(0.00843137 -0.00159243 0)
(0.00906101 -0.00153324 0)
(0.00967175 -0.00147851 0)
(0.0102649 -0.00142675 0)
(0.0108411 -0.00137633 0)
(0.0114006 -0.00132556 0)
(0.0119427 -0.00127278 0)
(0.0124664 -0.0012164 0)
(0.0129698 -0.00115494 0)
(0.0134509 -0.00108712 0)
(0.0139068 -0.00101179 0)
(0.0143347 -0.000928015 0)
(0.0147311 -0.000835028 0)
(0.0150927 -0.000732251 0)
(0.0154156 -0.000619309 0)
(0.0156959 -0.000496066 0)
(0.0159294 -0.000362674 0)
(0.0161113 -0.000219408 0)
(0.0162368 -6.54569e-05 0)
(0.0163003 9.84022e-05 0)
(0.0162959 0.000271045 0)
(0.0162194 0.000451694 0)
(0.0160664 0.000639373 0)
(0.0158327 0.000832899 0)
(0.0155142 0.00103101 0)
(0.0151072 0.00123265 0)
(0.0146078 0.00143746 0)
(0.014012 0.00164662 0)
(0.0133151 0.00186441 0)
(0.01251 0.00210115 0)
(0.011586 0.00237899 0)
(0.0105259 0.00274422 0)
(0.00930659 0.00329543 0)
(0.00788899 0.0042562 0)
(0.00632441 0.00618433 0)
(0.00470751 0.00935954 0)
(0.000819102 0.00935518 0)
(-0.00321753 0.00472536 0)
(-0.0051695 0.00272437 0)
(-0.00639686 0.00194391 0)
(-0.00730499 0.00151757 0)
(-0.00802634 0.00124739 0)
(-0.00861869 0.00104282 0)
(-0.00910516 0.00085808 0)
(-0.00949233 0.000671024 0)
(-0.00977976 0.000472567 0)
(-0.00996472 0.000260853 0)
(-0.0100445 3.80522e-05 0)
(-0.0100162 -0.00019251 0)
(-0.00987977 -0.000429814 0)
(-0.00963801 -0.000673155 0)
(-0.00929352 -0.000916305 0)
(-0.00885065 -0.00115362 0)
(-0.00831466 -0.0013811 0)
(-0.0076917 -0.00159621 0)
(-0.00698845 -0.00179758 0)
(-0.00621181 -0.00198474 0)
(-0.00536887 -0.00215786 0)
(-0.0044669 -0.00231773 0)
(-0.0035122 -0.00246655 0)
(-0.00250751 -0.00260979 0)
(-0.0014591 -0.00275657 0)
(-0.000396234 -0.00291447 0)
(0.000711545 -0.00301652 0)
(0.00156492 -0.00279491 0)
(0.00216557 -0.00223092 0)
(0.00257421 -0.00153236 0)
(0.00273593 -0.000797556 0)
(0.00252668 -2.4814e-05 0)
(0.00183402 0.00203125 0)
(0.00194417 0.00662547 0)
(-0.00279461 0.0138398 0)
(-0.00361176 0.00785463 0)
(-0.00541791 0.00431618 0)
(-0.00626829 0.00240195 0)
(-0.00679435 0.00123468 0)
(-0.00705021 0.00043069 0)
(-0.00711262 -0.000204182 0)
(-0.00701618 -0.000760409 0)
(-0.006778 -0.00126967 0)
(-0.00640923 -0.00173173 0)
(-0.00592612 -0.00213311 0)
(-0.00535061 -0.00246142 0)
(-0.00470646 -0.00271547 0)
(-0.00401285 -0.0029084 0)
(-0.00328033 -0.00306172 0)
(-0.00251216 -0.00319504 0)
(-0.00171409 -0.00331953 0)
(-0.000913569 -0.00343392 0)
(-7.33401e-05 -0.00348721 0)
(0.000767877 -0.00338945 0)
(0.00153324 -0.00326118 0)
(0.00231801 -0.00312685 0)
(0.00309283 -0.00299055 0)
(0.00385053 -0.00285605 0)
(0.00458782 -0.00272678 0)
(0.00530217 -0.00260499 0)
(0.00599265 -0.00249196 0)
(0.0066599 -0.00238834 0)
(0.00730551 -0.0022942 0)
(0.00793148 -0.00220898 0)
(0.00853979 -0.00213151 0)
(0.00913216 -0.00206011 0)
(0.00970985 -0.00199276 0)
(0.0102735 -0.00192717 0)
(0.0108231 -0.001861 0)
(0.011358 -0.00179193 0)
(0.0118768 -0.00171774 0)
(0.0123776 -0.00163645 0)
(0.012858 -0.00154628 0)
(0.0133152 -0.00144572 0)
(0.0137461 -0.00133352 0)
(0.0141472 -0.00120868 0)
(0.0145151 -0.00107041 0)
(0.0148462 -0.000918152 0)
(0.0151365 -0.000751513 0)
(0.0153821 -0.000570255 0)
(0.0155786 -0.000374157 0)
(0.0157214 -0.000162788 0)
(0.0158069 6.36576e-05 0)
(0.0158273 0.00030378 0)
(0.0157783 0.000556613 0)
(0.0156548 0.000821074 0)
(0.0154514 0.00109605 0)
(0.0151629 0.00138025 0)
(0.0147842 0.0016726 0)
(0.0143104 0.00197278 0)
(0.0137369 0.00228229 0)
(0.0130589 0.00260624 0)
(0.0122721 0.0029567 0)
(0.011372 0.00335882 0)
(0.0103555 0.00386299 0)
(0.0092248 0.00457065 0)
(0.00799155 0.00569758 0)
(0.00669226 0.00777625 0)
(0.00560988 0.011399 0)
(0.00324209 0.0128749 0)
(-0.000618147 0.00848451 0)
(-0.00353303 0.00442793 0)
(-0.00484365 0.00308211 0)
(-0.00588672 0.0023955 0)
(-0.00672792 0.00196581 0)
(-0.00742744 0.00164129 0)
(-0.00800576 0.00135013 0)
(-0.00846788 0.00105916 0)
(-0.00881348 0.000754985 0)
(-0.00904122 0.000434452 0)
(-0.00915073 9.98919e-05 0)
(-0.00914215 -0.000244307 0)
(-0.00901635 -0.000594774 0)
(-0.00877914 -0.000946856 0)
(-0.00843402 -0.00129372 0)
(-0.00798678 -0.00162898 0)
(-0.00744466 -0.00194767 0)
(-0.00681574 -0.0022466 0)
(-0.00610835 -0.00252419 0)
(-0.00533066 -0.00277996 0)
(-0.00449082 -0.00301392 0)
(-0.00359743 -0.00322638 0)
(-0.00265921 -0.00342005 0)
(-0.00168097 -0.00360649 0)
(-0.000668362 -0.00379611 0)
(0.000370245 -0.00394332 0)
(0.0012776 -0.00385871 0)
(0.00190473 -0.0034057 0)
(0.0023282 -0.00264601 0)
(0.00254585 -0.00170544 0)
(0.00253537 -0.000669615 0)
(0.00225621 0.000487536 0)
(0.00141496 0.0027209 0)
(0.00155044 0.00816977 0)
(-0.0024416 0.0165192 0)
(-0.0032371 0.00962723 0)
(-0.00498499 0.00548274 0)
(-0.00572423 0.00309235 0)
(-0.00616587 0.00157956 0)
(-0.00636697 0.000554988 0)
(-0.00640967 -0.000234019 0)
(-0.00632095 -0.000923262 0)
(-0.00610923 -0.00155847 0)
(-0.00578055 -0.00213674 0)
(-0.00534914 -0.00263699 0)
(-0.00483699 -0.00304123 0)
(-0.00426718 -0.00334927 0)
(-0.0036558 -0.00358143 0)
(-0.00300961 -0.00376698 0)
(-0.00233106 -0.00392874 0)
(-0.00162793 -0.00407642 0)
(-0.000923309 -0.0042034 0)
(-0.000204496 -0.00424937 0)
(0.000553941 -0.00414738 0)
(0.00126474 -0.0040168 0)
(0.00199599 -0.00387767 0)
(0.00272173 -0.00373059 0)
(0.00343464 -0.00358016 0)
(0.00413107 -0.00343151 0)
(0.00480834 -0.00328872 0)
(0.0054653 -0.00315463 0)
(0.00610241 -0.00303098 0)
(0.00672115 -0.00291846 0)
(0.00732351 -0.00281672 0)
(0.00791154 -0.0027245 0)
(0.00848696 -0.00263974 0)
(0.00905098 -0.00255986 0)
(0.00960409 -0.00248193 0)
(0.010146 -0.00240289 0)
(0.0106758 -0.00231974 0)
(0.0111917 -0.00222969 0)
(0.0116915 -0.00213021 0)
(0.0121725 -0.00201911 0)
(0.0126315 -0.00189456 0)
(0.0130652 -0.00175507 0)
(0.0134702 -0.00159946 0)
(0.0138429 -0.00142685 0)
(0.0141796 -0.00123657 0)
(0.0144768 -0.00102813 0)
(0.0147306 -0.000801137 0)
(0.0149374 -0.000555214 0)
(0.0150928 -0.000289875 0)
(0.0151949 -4.27955e-06 0)
(0.0152358 0.000300796 0)
(0.0152111 0.000624371 0)
(0.0151155 0.000965343 0)
(0.0149434 0.00132265 0)
(0.0146886 0.00169492 0)
(0.0143451 0.00208087 0)
(0.0139069 0.00247984 0)
(0.0133688 0.00289282 0)
(0.0127262 0.00332427 0)
(0.0119766 0.00378512 0)
(0.0111204 0.00429845 0)
(0.0101636 0.00491 0)
(0.00912283 0.00571068 0)
(0.0080361 0.00689234 0)
(0.00694701 0.00893792 0)
(0.00616861 0.0126672 0)
(0.00476687 0.0152826 0)
(0.00194657 0.0125422 0)
(-0.00197798 0.00655052 0)
(-0.00356103 0.00431549 0)
(-0.00465157 0.00336725 0)
(-0.0055664 0.00277252 0)
(-0.00633945 0.00231426 0)
(-0.00698265 0.00189779 0)
(-0.00749817 0.00148236 0)
(-0.00788551 0.00105302 0)
(-0.00814407 0.000607387 0)
(-0.00827471 0.00014955 0)
(-0.00828014 -0.000314102 0)
(-0.00816145 -0.000780205 0)
(-0.00792537 -0.00124419 0)
(-0.0075763 -0.00169745 0)
(-0.00712175 -0.00213181 0)
(-0.00657105 -0.00254095 0)
(-0.00593431 -0.00292113 0)
(-0.00522134 -0.00327093 0)
(-0.00444103 -0.00359026 0)
(-0.00360152 -0.00387895 0)
(-0.00271201 -0.00413583 0)
(-0.00178511 -0.00436569 0)
(-0.00082101 -0.00459367 0)
(0.000192297 -0.00480567 0)
(0.00114855 -0.00483349 0)
(0.00185582 -0.00451878 0)
(0.00234123 -0.00385083 0)
(0.0026107 -0.00288626 0)
(0.00266127 -0.00171867 0)
(0.00248827 -0.000432932 0)
(0.00214281 0.00100773 0)
(0.00122037 0.00337098 0)
(0.00128088 0.00934307 0)
(-0.00217327 0.0189085 0)
(-0.00297662 0.0112671 0)
(-0.00466202 0.0065593 0)
(-0.00528923 0.00369115 0)
(-0.00563976 0.00185129 0)
(-0.00578215 0.000642828 0)
(-0.00580527 -0.000266463 0)
(-0.00572093 -0.00106457 0)
(-0.00553452 -0.00180925 0)
(-0.00524729 -0.00249097 0)
(-0.00487189 -0.00307809 0)
(-0.00442995 -0.00354651 0)
(-0.00394202 -0.00389919 0)
(-0.0034187 -0.00416578 0)
(-0.00286208 -0.00438223 0)
(-0.00227399 -0.00457097 0)
(-0.00166294 -0.00473673 0)
(-0.00104549 -0.00486847 0)
(-0.000432525 -0.0049238 0)
(0.000254436 -0.00484569 0)
(0.000917758 -0.00471814 0)
(0.00159724 -0.00457845 0)
(0.00227808 -0.00442493 0)
(0.00295076 -0.00426247 0)
(0.00361084 -0.00409789 0)
(0.00425533 -0.00393713 0)
(0.00488288 -0.00378472 0)
(0.00549381 -0.0036437 0)
(0.00608964 -0.00351555 0)
(0.00667247 -0.00340022 0)
(0.00724442 -0.0032963 0)
(0.00780724 -0.00320128 0)
(0.00836202 -0.00311189 0)
(0.00890899 -0.00302442 0)
(0.0094475 -0.00293502 0)
(0.00997611 -0.00283995 0)
(0.0104926 -0.00273577 0)
(0.0109943 -0.00261945 0)
(0.0114779 -0.00248841 0)
(0.0119402 -0.00234057 0)
(0.0123774 -0.00217427 0)
(0.0127859 -0.00198827 0)
(0.0131621 -0.00178167 0)
(0.0135026 -0.0015538 0)
(0.0138037 -0.00130419 0)
(0.0140621 -0.00103245 0)
(0.0142746 -0.000738184 0)
(0.0144375 -0.000420888 0)
(0.0145482 -7.94552e-05 0)
(0.0146036 0.000286307 0)
(0.0145975 0.000675743 0)
(0.0145249 0.00108804 0)
(0.0143809 0.00152247 0)
(0.0141592 0.00197806 0)
(0.0138536 0.00245367 0)
(0.0134578 0.00294837 0)
(0.012966 0.00346233 0)
(0.0123739 0.00399829 0)
(0.0116794 0.00456425 0)
(0.010885 0.00517807 0)
(0.0100005 0.00587641 0)
(0.00904744 0.00673417 0)
(0.00807297 0.00791444 0)
(0.00712977 0.00984098 0)
(0.00652023 0.0134455 0)
(0.00572513 0.0168466 0)
(0.003792 0.0156574 0)
(0.000157356 0.00999093 0)
(-0.00250043 0.00569371 0)
(-0.00358211 0.004393 0)
(-0.00454026 0.00363983 0)
(-0.00535749 0.00304764 0)
(-0.00604313 0.00250168 0)
(-0.00659674 0.00195632 0)
(-0.00701641 0.00139621 0)
(-0.0073005 0.000819557 0)
(-0.00744921 0.000231276 0)
(-0.00746646 -0.000360817 0)
(-0.00735356 -0.000951545 0)
(-0.00711775 -0.00153478 0)
(-0.00676491 -0.00209995 0)
(-0.0063041 -0.00263668 0)
(-0.00574676 -0.00313727 0)
(-0.00510484 -0.00359789 0)
(-0.00438904 -0.00401824 0)
(-0.00360782 -0.00439956 0)
(-0.00276753 -0.00474156 0)
(-0.00187825 -0.00504058 0)
(-0.000956799 -0.00531036 0)
(2.93783e-05 -0.00558609 0)
(0.00103949 -0.00575242 0)
(0.00185199 -0.00558843 0)
(0.00245825 -0.00505305 0)
(0.00284149 -0.0041641 0)
(0.00298596 -0.00297671 0)
(0.00289384 -0.00158321 0)
(0.00256681 -8.09274e-05 0)
(0.00212375 0.00159515 0)
(0.00113214 0.00406049 0)
(0.00108382 0.0103447 0)
(-0.00194971 0.0211116 0)
(-0.0027439 0.012821 0)
(-0.00436009 0.00755716 0)
(-0.00488627 0.00419581 0)
(-0.00515555 0.0020409 0)
(-0.00524816 0.000688597 0)
(-0.00526157 -0.000305323 0)
(-0.0051877 -0.00118756 0)
(-0.00503114 -0.00202361 0)
(-0.00479029 -0.00279347 0)
(-0.00447734 -0.00345273 0)
(-0.00411303 -0.00397201 0)
(-0.00371316 -0.00436075 0)
(-0.00328108 -0.00465933 0)
(-0.00281438 -0.00490767 0)
(-0.00231449 -0.00512434 0)
(-0.00178949 -0.00530839 0)
(-0.00125107 -0.00544766 0)
(-0.00070809 -0.00551867 0)
(-0.000114798 -0.00548358 0)
(0.000515287 -0.00537212 0)
(0.00114875 -0.00523547 0)
(0.00179069 -0.00507987 0)
(0.00242995 -0.00490968 0)
(0.00306041 -0.00473294 0)
(0.00367861 -0.00455759 0)
(0.00428297 -0.00439011 0)
(0.00487374 -0.00423503 0)
(0.00545252 -0.0040947 0)
(0.00602158 -0.00396938 0)
(0.00658316 -0.00385743 0)
(0.007139 -0.00375572 0)
(0.00768997 -0.00366016 0)
(0.00823594 -0.00356608 0)
(0.00877574 -0.00346874 0)
(0.00930734 -0.00336362 0)
(0.00982794 -0.00324663 0)
(0.0103343 -0.00311428 0)
(0.0108227 -0.00296369 0)
(0.0112894 -0.00279262 0)
(0.0117306 -0.00259938 0)
(0.0121424 -0.00238276 0)
(0.0125214 -0.00214196 0)
(0.0128639 -0.00187647 0)
(0.0131668 -0.00158594 0)
(0.0134269 -0.00127013 0)
(0.0136415 -0.000928753 0)
(0.0138076 -0.000561423 0)
(0.0139224 -0.00016728 0)
(0.0139854 0.000254901 0)
(0.0139908 0.000705514 0)
(0.0139348 0.0011843 0)
(0.0138129 0.0016908 0)
(0.0136196 0.00222448 0)
(0.0133492 0.0027844 0)
(0.0129956 0.00336948 0)
(0.0125534 0.00397901 0)
(0.012018 0.0046138 0)
(0.0113875 0.00527824 0)
(0.0106647 0.0059841 0)
(0.0098594 0.00675797 0)
(0.00899303 0.00765807 0)
(0.00811192 0.00881858 0)
(0.0072719 0.0106017 0)
(0.00675015 0.0139526 0)
(0.00632921 0.0178227 0)
(0.00507117 0.0180031 0)
(0.00220836 0.0135865 0)
(-0.00128186 0.00763904 0)
(-0.0026935 0.00545424 0)
(-0.00363335 0.00453971 0)
(-0.0044756 0.0038149 0)
(-0.00518885 0.0031381 0)
(-0.00577061 0.00245875 0)
(-0.00621683 0.00176183 0)
(-0.00652364 0.00104707 0)
(-0.00668923 0.00032147 0)
(-0.00671823 -0.000404135 0)
(-0.00661303 -0.00112288 0)
(-0.00638054 -0.00182866 0)
(-0.00602795 -0.00250809 0)
(-0.00556604 -0.00314782 0)
(-0.00500836 -0.0037386 0)
(-0.00436836 -0.00427733 0)
(-0.00365658 -0.00476632 0)
(-0.00287935 -0.00520937 0)
(-0.00203921 -0.00560615 0)
(-0.00115137 -0.00595063 0)
(-0.000218676 -0.0062764 0)
(0.000822308 -0.00658059 0)
(0.00174153 -0.00661651 0)
(0.00249454 -0.0062629 0)
(0.00305001 -0.00550921 0)
(0.00336577 -0.0043794 0)
(0.0034153 -0.00294447 0)
(0.00320086 -0.00131564 0)
(0.00274457 0.000407854 0)
(0.00218252 0.00226827 0)
(0.00111753 0.00481843 0)
(0.000938254 0.0112704 0)
(-0.00174651 0.0231408 0)
(-0.00248018 0.0142822 0)
(-0.00401367 0.00848622 0)
(-0.00445604 0.00462285 0)
(-0.00466672 0.00216335 0)
(-0.00473066 0.000710447 0)
(-0.00475277 -0.00033475 0)
(-0.00470283 -0.0012813 0)
(-0.0045849 -0.0021934 0)
(-0.0043982 -0.00303671 0)
(-0.00415561 -0.0037532 0)
(-0.00387602 -0.00431111 0)
(-0.00356814 -0.00473042 0)
(-0.00322752 -0.00506191 0)
(-0.00284844 -0.00534555 0)
(-0.00243218 -0.00559374 0)
(-0.00198557 -0.0058011 0)
(-0.00151624 -0.00595652 0)
(-0.00102758 -0.00604724 0)
(-0.000510541 -0.0060573 0)
(7.17451e-05 -0.00598292 0)
(0.000671713 -0.00585659 0)
(0.00128086 -0.00570292 0)
(0.0018939 -0.00552913 0)
(0.00250233 -0.00534389 0)
(0.00310161 -0.00515707 0)
(0.0036898 -0.00497739 0)
(0.00426708 -0.00481114 0)
(0.0048352 -0.0046617 0)
(0.00539658 -0.0045296 0)
(0.00595359 -0.00441286 0)
(0.00650792 -0.00430758 0)
(0.00706015 -0.00420859 0)
(0.00760966 -0.00411016 0)
(0.00815467 -0.00400652 0)
(0.00869248 -0.00389234 0)
(0.00921969 -0.00376295 0)
(0.00973244 -0.00361445 0)
(0.0102267 -0.0034438 0)
(0.0106983 -0.0032487 0)
(0.0111433 -0.00302755 0)
(0.0115579 -0.00277929 0)
(0.0119384 -0.00250335 0)
(0.0122817 -0.00219942 0)
(0.0125847 -0.00186743 0)
(0.0128446 -0.00150733 0)
(0.0130589 -0.00111906 0)
(0.0132255 -0.000702413 0)
(0.0133417 -0.000256818 0)
(0.0134079 0.000219126 0)
(0.0134197 0.000726688 0)
(0.0133743 0.00126649 0)
(0.0132682 0.00183864 0)
(0.0130973 0.0024431 0)
(0.0128567 0.00307935 0)
(0.0125413 0.00374637 0)
(0.012146 0.00444279 0)
(0.0116668 0.0051677 0)
(0.0111016 0.00592209 0)
(0.0104523 0.00671197 0)
(0.00972759 0.00755452 0)
(0.00894596 0.00849251 0)
(0.00814861 0.00963295 0)
(0.00738855 0.0112779 0)
(0.00690677 0.0143174 0)
(0.00669758 0.0183894 0)
(0.00593466 0.0197107 0)
(0.00378288 0.0165982 0)
(0.000386184 0.0106204 0)
(-0.00193369 0.00661394 0)
(-0.00283084 0.00545182 0)
(-0.00368724 0.00460098 0)
(-0.00441709 0.00379798 0)
(-0.00502042 0.0029865 0)
(-0.00549018 0.00215226 0)
(-0.00581955 0.00129684 0)
(-0.00600368 0.000429752 0)
(-0.00604686 -0.000434449 0)
(-0.0059531 -0.00128582 0)
(-0.0057288 -0.00211768 0)
(-0.00538301 -0.00291334 0)
(-0.00492835 -0.00365595 0)
(-0.00438039 -0.004335 0)
(-0.00375328 -0.00494963 0)
(-0.00305582 -0.00550692 0)
(-0.00229006 -0.00601475 0)
(-0.00145405 -0.00647303 0)
(-0.000571978 -0.00687532 0)
(0.000413028 -0.00727309 0)
(0.00142417 -0.00753977 0)
(0.00230327 -0.0074382 0)
(0.00304339 -0.00690567 0)
(0.00358291 -0.00592524 0)
(0.00386479 -0.00452982 0)
(0.00385121 -0.00281745 0)
(0.00354239 -0.000933896 0)
(0.00297673 0.00102579 0)
(0.00228915 0.00304059 0)
(0.00115198 0.00565552 0)
(0.000831017 0.0121649 0)
(-0.00154967 0.024962 0)
(-0.00214061 0.0156119 0)
(-0.00356346 0.00935529 0)
(-0.00394694 0.00499946 0)
(-0.00413771 0.00224365 0)
(-0.00420374 0.000734571 0)
(-0.00426119 -0.000334885 0)
(-0.0042544 -0.00133245 0)
(-0.00418724 -0.0023089 0)
(-0.00406453 -0.00321232 0)
(-0.00390095 -0.00397215 0)
(-0.00371199 -0.00455917 0)
(-0.00349742 -0.00500758 0)
(-0.00324592 -0.00537605 0)
(-0.00295023 -0.00570033 0)
(-0.00261144 -0.00598589 0)
(-0.00223467 -0.00622451 0)
(-0.00182462 -0.00640653 0)
(-0.00138334 -0.00652438 0)
(-0.000909832 -0.00657305 0)
(-0.000395166 -0.00654771 0)
(0.000178171 -0.00644821 0)
(0.000763152 -0.00630221 0)
(0.00135631 -0.0061285 0)
(0.00194996 -0.00593818 0)
(0.00253763 -0.00574284 0)
(0.0031166 -0.00555351 0)
(0.00368687 -0.0053786 0)
(0.00425031 -0.00522275 0)
(0.00480957 -0.00508673 0)
(0.00536711 -0.0049681 0)
(0.0059245 -0.00486192 0)
(0.00648198 -0.00476175 0)
(0.00703836 -0.00466061 0)
(0.00759119 -0.00455166 0)
(0.00813708 -0.00442874 0)
(0.00867201 -0.00428668 0)
(0.00919165 -0.00412133 0)
(0.00969159 -0.00392957 0)
(0.0101675 -0.00370922 0)
(0.0106154 -0.00345887 0)
(0.0110315 -0.00317776 0)
(0.0114123 -0.0028656 0)
(0.0117548 -0.00252243 0)
(0.0120564 -0.00214846 0)
(0.0123145 -0.00174396 0)
(0.0125271 -0.00130914 0)
(0.0126925 -0.000844045 0)
(0.0128084 -0.000348413 0)
(0.0128757 0.000179167 0)
(0.012891 0.000740522 0)
(0.0128526 0.00133703 0)
(0.012758 0.00196934 0)
(0.0126045 0.00263794 0)
(0.0123884 0.00334275 0)
(0.0121057 0.00408291 0)
(0.0117523 0.00485674 0)
(0.0113249 0.00566202 0)
(0.0108212 0.00649702 0)
(0.0102424 0.00736287 0)
(0.00959518 0.0082687 0)
(0.00889439 0.00924385 0)
(0.0081744 0.0103709 0)
(0.00748227 0.011896 0)
(0.0070167 0.0146148 0)
(0.00691234 0.018682 0)
(0.00650546 0.0209026 0)
(0.00494017 0.0190595 0)
(0.00205164 0.0138374 0)
(-0.00100175 0.00828301 0)
(-0.00215923 0.00637038 0)
(-0.00298269 0.00539719 0)
(-0.0037232 0.00447424 0)
(-0.00434403 0.00353528 0)
(-0.00483585 0.00256545 0)
(-0.00518891 0.00156828 0)
(-0.00539456 0.000556547 0)
(-0.00545552 -0.000449853 0)
(-0.00537799 -0.00143653 0)
(-0.00516872 -0.00239581 0)
(-0.00483862 -0.00330739 0)
(-0.00440258 -0.00415049 0)
(-0.00387793 -0.00491419 0)
(-0.00327819 -0.00560229 0)
(-0.00260826 -0.00622933 0)
(-0.00186428 -0.00680851 0)
(-0.0010411 -0.00733982 0)
(-0.000161875 -0.0078175 0)
(0.00085532 -0.00827177 0)
(0.00181844 -0.00847446 0)
(0.00269708 -0.00825502 0)
(0.00344775 -0.00754969 0)
(0.00399828 -0.00633361 0)
(0.00427848 -0.00464846 0)
(0.00423505 -0.00262591 0)
(0.00386391 -0.000461187 0)
(0.0032079 0.00174063 0)
(0.00240917 0.00390792 0)
(0.00120951 0.00657344 0)
(0.000751303 0.0130545 0)
(-0.00135954 0.0265256 0)
(-0.0017086 0.0167429 0)
(-0.00296521 0.0101693 0)
(-0.00331718 0.00537094 0)
(-0.00354599 0.00231937 0)
(-0.00365663 0.000796263 0)
(-0.00377878 -0.000281092 0)
(-0.00383724 -0.00132464 0)
(-0.0038344 -0.00235864 0)
(-0.00378638 -0.00331124 0)
(-0.00371007 -0.00410292 0)
(-0.00361548 -0.00471375 0)
(-0.00349289 -0.00519412 0)
(-0.00332635 -0.00560612 0)
(-0.00310852 -0.00597786 0)
(-0.00284022 -0.00630834 0)
(-0.00252487 -0.00658768 0)
(-0.00216565 -0.00680714 0)
(-0.00176489 -0.006961 0)
(-0.00132455 -0.00704689 0)
(-0.000847056 -0.0070643 0)
(-0.000325658 -0.00700976 0)
(0.000244974 -0.00688451 0)
(0.000825395 -0.00671551 0)
(0.00141025 -0.00652298 0)
(0.00199293 -0.00632164 0)
(0.00256908 -0.00612485 0)
(0.00313821 -0.00594333 0)
(0.00370224 -0.00578324 0)
(0.00426406 -0.00564564 0)
(0.00482621 -0.00552742 0)
(0.00539013 -0.00542239 0)
(0.00595564 -0.0053226 0)
(0.00652094 -0.00521965 0)
(0.0070829 -0.00510559 0)
(0.00763746 -0.00497352 0)
(0.00818004 -0.00481785 0)
(0.00870593 -0.00463433 0)
(0.00921049 -0.00441994 0)
(0.00968935 -0.00417274 0)
(0.0101385 -0.00389165 0)
(0.0105543 -0.0035763 0)
(0.0109337 -0.00322679 0)
(0.0112739 -0.00284353 0)
(0.0115724 -0.00242709 0)
(0.0118274 -0.00197808 0)
(0.0120371 -0.00149701 0)
(0.0122002 -0.000984181 0)
(0.0123151 -0.000439626 0)
(0.0123825 0.0001379 0)
(0.0124001 0.000750465 0)
(0.0123669 0.0014 0)
(0.0122814 0.00208756 0)
(0.0121419 0.00281411 0)
(0.0119461 0.00358001 0)
(0.0116913 0.00438469 0)
(0.0113745 0.00522639 0)
(0.010993 0.00610209 0)
(0.010545 0.0070081 0)
(0.010031 0.00794174 0)
(0.00945545 0.00890562 0)
(0.00882989 0.00991784 0)
(0.00818159 0.0110399 0)
(0.00755084 0.0124685 0)
(0.00709372 0.014888 0)
(0.00702594 0.0188026 0)
(0.00686536 0.0216867 0)
(0.00576832 0.0210088 0)
(0.00342221 0.0167335 0)
(0.000285817 0.0107949 0)
(-0.0015909 0.00734883 0)
(-0.00235344 0.00619604 0)
(-0.00310383 0.00516118 0)
(-0.0037378 0.00410227 0)
(-0.0042503 0.00300144 0)
(-0.00462831 0.00186395 0)
(-0.00485895 0.000706297 0)
(-0.00494275 -0.00044508 0)
(-0.00488848 -0.00156826 0)
(-0.00470222 -0.00265421 0)
(-0.00439876 -0.00367876 0)
(-0.0039955 -0.00461724 0)
(-0.00351085 -0.0054602 0)
(-0.00295573 -0.00621957 0)
(-0.00232879 -0.00692011 0)
(-0.0016195 -0.0075806 0)
(-0.000821089 -0.00819911 0)
(5.47835e-05 -0.00876459 0)
(0.00105089 -0.00925098 0)
(0.00198818 -0.00940298 0)
(0.00287328 -0.00908504 0)
(0.00364498 -0.00821645 0)
(0.00422619 -0.00676259 0)
(0.00453512 -0.00476889 0)
(0.00449858 -0.00240339 0)
(0.00410332 7.44632e-05 0)
(0.00337912 0.00252843 0)
(0.00250051 0.00485092 0)
(0.00126227 0.0075604 0)
(0.000689392 0.0139524 0)
(-0.00119132 0.0277923 0)
(-0.00121454 0.0175783 0)
(-0.00221708 0.0109049 0)
(-0.0025526 0.00579066 0)
(-0.00288428 0.00245114 0)
(-0.00309361 0.000935532 0)
(-0.00330435 -0.000144242 0)
(-0.00345136 -0.00124073 0)
(-0.00352677 -0.0023314 0)
(-0.00356358 -0.00332516 0)
(-0.00358098 -0.00414079 0)
(-0.00358155 -0.0047751 0)
(-0.00354721 -0.00529405 0)
(-0.00346014 -0.00575771 0)
(-0.00331386 -0.00618473 0)
(-0.0031088 -0.00656874 0)
(-0.00284716 -0.00689868 0)
(-0.00253157 -0.00716579 0)
(-0.00216519 -0.0073643 0)
(-0.001752 -0.00749165 0)
(-0.001297 -0.00754814 0)
(-0.000805717 -0.00753499 0)
(-0.000271611 -0.00744965 0)
(0.000304234 -0.00729646 0)
(0.000886607 -0.0071052 0)
(0.00146955 -0.00689968 0)
(0.00204841 -0.00669706 0)
(0.00262155 -0.00651045 0)
(0.0031906 -0.00634769 0)
(0.00375872 -0.00621018 0)
(0.00432856 -0.00609404 0)
(0.0049014 -0.00599153 0)
(0.00547663 -0.00589294 0)
(0.0060518 -0.00578833 0)
(0.00662311 -0.00566865 0)
(0.0071859 -0.00552635 0)
(0.00773514 -0.00535558 0)
(0.00826583 -0.00515214 0)
(0.00877324 -0.00491329 0)
(0.00925304 -0.00463747 0)
(0.00970142 -0.00432405 0)
(0.010115 -0.00397311 0)
(0.010491 -0.00358521 0)
(0.0108271 -0.00316119 0)
(0.0111212 -0.00270201 0)
(0.0113717 -0.00220862 0)
(0.0115775 -0.00168185 0)
(0.0117374 -0.00112227 0)
(0.0118505 -0.00053016 0)
(0.0119178 9.54978e-05 0)
(0.0119373 0.000756905 0)
(0.0119086 0.00145633 0)
(0.011831 0.00219505 0)
(0.0117038 0.00297434 0)
(0.0115257 0.00379487 0)
(0.011295 0.00465639 0)
(0.0110101 0.00555725 0)
(0.010669 0.00649406 0)
(0.0102705 0.00746185 0)
(0.00981433 0.00845524 0)
(0.00930374 0.00947181 0)
(0.00874694 0.0105206 0)
(0.00816483 0.0116456 0)
(0.00759125 0.0130011 0)
(0.00714372 0.0151589 0)
(0.00707217 0.018827 0)
(0.00707297 0.0221577 0)
(0.00634826 0.0225058 0)
(0.00449061 0.0192512 0)
(0.00164856 0.0136437 0)
(-0.000920691 0.00868553 0)
(-0.00182756 0.00699039 0)
(-0.00255446 0.00585455 0)
(-0.00319774 0.00468501 0)
(-0.00372986 0.00346022 0)
(-0.00413454 0.00218631 0)
(-0.00439483 0.000883357 0)
(-0.00450723 -0.0004142 0)
(-0.00448255 -0.00167327 0)
(-0.00432925 -0.00288248 0)
(-0.0040655 -0.00401369 0)
(-0.00371174 -0.00503922 0)
(-0.00328619 -0.00595442 0)
(-0.00279464 -0.0067836 0)
(-0.0022278 -0.00756357 0)
(-0.00156911 -0.00831688 0)
(-0.000810347 -0.00903521 0)