/*--------------------------------*- C++ -*----------------------------------*\
| =========                 |                                                 |
| \\      /  F ield         | OpenFOAM: The Open Source CFD Toolbox           |
|  \\    /   O peration     | Version:  4.1                                   |
|   \\  /    A nd           | Web:      www.OpenFOAM.org                      |
|    \\/     M anipulation  |                                                 |
\*---------------------------------------------------------------------------*/
FoamFile
{
    version     2.0;
    format      ascii;
    class       volScalarField;
    location    "1980";
    object      T;
}
// * * * * * * * * * * * * * * * * * * * * * * * * * * * * * * * * * * * * * //

dimensions      [0 0 0 1 0 0 0];

internalField   nonuniform List<scalar> 
5000
(
286.987
286.663
286.406
286.203
286.098
286.043
286.043
286.055
286.072
286.093
286.115
286.138
286.162
286.186
286.209
286.232
286.255
286.278
286.301
286.323
286.347
286.37
286.395
286.422
286.451
286.482
286.517
286.556
286.6
286.65
286.703
286.755
286.808
286.862
286.917
286.973
287.03
287.09
287.152
287.217
287.287
287.36
287.44
287.526
287.62
287.724
287.84
287.971
288.114
288.249
288.308
288.182
287.945
287.969
287.857
287.669
287.549
287.447
287.35
287.254
287.156
287.055
286.964
286.884
286.812
286.747
286.687
286.63
286.575
286.521
286.466
286.41
286.355
286.294
286.241
286.207
286.226
286.344
286.606
286.943
287.421
287.848
287.703
287.517
287.361
287.221
287.091
286.965
286.842
286.719
286.593
286.479
286.38
286.291
286.208
286.129
286.044
286.185
286.524
286.867
286.72
286.166
285.8
285.7
285.615
285.55
285.503
285.468
285.442
285.422
285.406
285.393
285.382
285.373
285.365
285.359
285.353
285.347
285.343
285.338
285.335
285.331
285.328
285.326
285.323
285.321
285.319
285.317
285.315
285.314
285.316
285.324
285.339
285.36
285.389
285.425
285.468
285.519
285.576
285.641
285.713
285.791
285.875
285.966
286.063
286.168
286.286
286.434
286.642
286.928
287.23
287.382
287.273
287.263
287.292
286.573
286.115
285.859
285.723
285.645
285.597
285.569
285.545
285.523
285.503
285.484
285.466
285.449
285.432
285.416
285.4
285.385
285.372
285.361
285.353
285.352
285.371
285.438
285.624
286.151
286.937
287.277
286.706
286.317
286.073
285.911
285.799
285.721
285.673
285.651
285.658
285.668
285.675
285.679
285.679
285.672
285.651
285.603
285.669
286.377
286.671
286.103
285.863
285.688
285.565
285.483
285.429
285.393
285.368
285.351
285.338
285.329
285.322
285.317
285.313
285.31
285.307
285.306
285.304
285.304
285.303
285.302
285.302
285.302
285.301
285.301
285.3
285.299
285.298
285.296
285.294
285.292
285.29
285.29
285.291
285.294
285.301
285.312
285.328
285.349
285.377
285.413
285.456
285.508
285.569
285.641
285.728
285.845
286.015
286.267
286.577
286.834
286.905
286.941
287.132
286.379
285.801
285.592
285.515
285.484
285.466
285.454
285.443
285.433
285.422
285.412
285.401
285.39
285.379
285.369
285.359
285.349
285.34
285.331
285.324
285.321
285.338
285.411
285.598
286.043
286.757
286.986
286.328
285.949
285.778
285.699
285.667
285.662
285.672
285.686
285.701
285.711
285.717
285.718
285.714
285.7
285.668
285.623
285.587
286.19
286.619
286.03
285.712
285.526
285.419
285.36
285.326
285.308
285.298
285.293
285.291
285.291
285.292
285.294
285.296
285.299
285.302
285.305
285.308
285.311
285.314
285.317
285.32
285.322
285.325
285.327
285.328
285.328
285.328
285.327
285.324
285.321
285.317
285.312
285.308
285.304
285.301
285.299
285.298
285.301
285.307
285.318
285.335
285.359
285.391
285.433
285.49
285.571
285.697
285.892
286.159
286.433
286.602
286.705
286.944
286.524
285.768
285.535
285.482
285.464
285.454
285.447
285.44
285.43
285.419
285.407
285.394
285.381
285.369
285.358
285.347
285.338
285.329
285.321
285.314
285.309
285.321
285.395
285.594
286.01
286.638
286.795
286.222
285.803
285.685
285.654
285.659
285.679
285.702
285.722
285.737
285.745
285.748
285.748
285.742
285.724
285.681
285.643
285.548
286.084
285.857
285.509
285.353
285.286
285.26
285.254
285.257
285.263
285.272
285.28
285.288
285.296
285.303
285.31
285.317
285.323
285.329
285.335
285.341
285.347
285.353
285.36
285.366
285.371
285.376
285.381
285.384
285.386
285.387
285.387
285.384
285.38
285.374
285.367
285.359
285.351
285.342
285.333
285.325
285.318
285.313
285.31
285.311
285.317
285.33
285.351
285.384
285.437
285.526
285.672
285.887
286.14
286.349
286.502
286.757
286.58
285.959
285.542
285.502
285.493
285.488
285.481
285.471
285.459
285.443
285.427
285.409
285.392
285.376
285.361
285.347
285.336
285.326
285.316
285.308
285.302
285.308
285.375
285.581
285.981
286.531
286.66
286.209
285.799
285.649
285.638
285.662
285.694
285.726
285.751
285.765
285.769
285.767
285.766
285.763
285.745
285.694
285.659
285.506
286.014
285.077
285.112
285.149
285.183
285.213
285.239
285.261
285.28
285.296
285.309
285.32
285.33
285.339
285.347
285.354
285.362
285.37
285.378
285.387
285.396
285.405
285.415
285.424
285.434
285.442
285.449
285.455
285.46
285.462
285.462
285.461
285.456
285.449
285.44
285.429
285.416
285.403
285.389
285.374
285.36
285.346
285.335
285.325
285.319
285.318
285.324
285.34
285.372
285.433
285.54
285.71
285.929
286.143
286.325
286.584
286.569
286.12
285.646
285.534
285.53
285.526
285.519
285.507
285.491
285.471
285.449
285.426
285.404
285.382
285.363
285.347
285.332
285.32
285.309
285.301
285.294
285.296
285.348
285.55
285.937
286.423
286.556
286.234
285.865
285.667
285.626
285.652
285.696
285.74
285.776
285.784
285.776
285.769
285.77
285.775
285.762
285.705
285.672
285.52
285.969
285.047
285.118
285.174
285.219
285.255
285.283
285.306
285.324
285.338
285.35
285.359
285.367
285.374
285.382
285.39
285.399
285.409
285.421
285.434
285.448
285.462
285.476
285.49
285.503
285.514
285.524
285.531
285.537
285.54
285.541
285.54
285.536
285.529
285.519
285.506
285.491
285.473
285.454
285.434
285.414
285.393
285.374
285.356
285.341
285.33
285.325
285.327
285.344
285.383
285.461
285.594
285.778
285.98
286.173
286.431
286.521
286.225
285.792
285.586
285.572
285.569
285.561
285.547
285.526
285.501
285.473
285.444
285.416
285.389
285.366
285.345
285.327
285.312
285.299
285.29
285.283
285.283
285.318
285.498
285.87
286.307
286.462
286.262
285.962
285.741
285.645
285.64
285.677
285.724
285.771
285.779
285.763
285.755
285.76
285.774
285.772
285.714
285.684
285.601
285.938
285.052
285.147
285.215
285.264
285.301
285.328
285.348
285.363
285.374
285.382
285.388
285.393
285.399
285.408
285.419
285.432
285.448
285.466
285.485
285.505
285.524
285.542
285.559
285.572
285.583
285.591
285.596
285.6
285.602
285.602
285.602
285.599
285.595
285.587
285.575
285.559
285.541
285.519
285.495
285.47
285.444
285.419
285.394
285.372
285.352
285.338
285.331
285.335
285.359
285.416
285.519
285.672
285.856
286.048
286.299
286.455
286.287
285.925
285.685
285.624
285.62
285.61
285.592
285.566
285.534
285.5
285.464
285.43
285.399
285.37
285.344
285.321
285.303
285.288
285.277
285.27
285.269
285.289
285.428
285.774
286.175
286.362
286.27
286.053
285.845
285.71
285.656
285.659
285.692
285.729
285.741
285.732
285.728
285.741
285.766
285.774
285.721
285.694
285.648
285.915
285.057
285.173
285.251
285.304
285.34
285.364
285.381
285.391
285.398
285.402
285.404
285.409
285.416
285.429
285.446
285.467
285.491
285.516
285.542
285.566
285.587
285.605
285.617
285.626
285.63
285.632
285.632
285.63
285.629
285.628
285.628
285.627
285.627
285.623
285.617
285.606
285.59
285.57
285.547
285.52
285.491
285.462
285.432
285.404
285.378
285.357
285.341
285.337
285.349
285.39
285.472
285.6
285.764
285.948
286.191
286.386
286.317
286.036
285.801
285.711
285.688
285.671
285.646
285.612
285.572
285.529
285.488
285.448
285.41
285.375
285.344
285.317
285.294
285.276
285.264
285.256
285.253
285.264
285.353
285.65
286.023
286.242
286.243
286.113
285.947
285.806
285.714
285.675
285.674
285.69
285.7
285.697
285.699
285.72
285.756
285.774
285.724
285.703
285.688
285.899
285.061
285.197
285.283
285.338
285.371
285.392
285.403
285.409
285.411
285.412
285.413
285.418
285.43
285.45
285.476
285.507
285.539
285.571
285.6
285.624
285.64
285.649
285.651
285.65
285.645
285.638
285.632
285.626
285.622
285.62
285.619
285.62
285.623
285.625
285.625
285.622
285.613
285.6
285.581
285.556
285.528
285.498
285.465
285.433
285.403
285.376
285.355
285.344
285.348
285.378
285.444
285.553
285.7
285.874
286.106
286.323
286.328
286.124
285.917
285.814
285.777
285.748
285.71
285.665
285.614
285.563
285.514
285.467
285.423
285.383
285.346
285.314
285.287
285.266
285.25
285.24
285.237
285.242
285.291
285.511
285.848
286.094
286.174
286.126
286.017
285.897
285.796
285.728
285.692
285.679
285.674
285.671
285.675
285.702
285.748
285.773
285.724
285.711
285.734
285.885
285.066
285.218
285.311
285.365
285.395
285.411
285.418
285.419
285.417
285.415
285.416
285.424
285.443
285.473
285.511
285.551
285.591
285.625
285.65
285.664
285.669
285.665
285.656
285.645
285.633
285.621
285.611
285.603
285.597
285.594
285.593
285.595
285.599
285.605
285.611
285.615
285.614
285.609
285.597
285.578
285.553
285.524
285.491
285.457
285.424
285.394
285.368
285.352
285.351
285.374
285.43
285.525
285.657
285.822
286.045
286.272
286.331
286.194
286.023
285.922
285.875
285.834
285.783
285.723
285.661
285.599
285.541
285.486
285.436
285.39
285.349
285.312
285.281
285.256
285.236
285.224
285.219
285.222
285.247
285.382
285.661
285.919
286.06
286.087
286.04
285.958
285.87
285.794
285.738
285.701
285.675
285.66
285.661
285.689
285.741
285.772
285.722
285.719
285.762
285.873
285.071
285.237
285.335
285.387
285.412
285.423
285.425
285.422
285.418
285.414
285.416
285.429
285.457
285.499
285.549
285.598
285.639
285.668
285.681
285.681
285.673
285.659
285.643
285.627
285.611
285.598
285.586
285.578
285.572
285.569
285.568
285.57
285.574
285.581
285.59
285.598
285.604
285.605
285.6
285.587
285.567
285.541
285.509
285.475
285.44
285.408
285.38
285.361
285.356
285.375
285.425
285.511
285.634
285.791
286.006
286.237
286.332
286.25
286.118
286.027
285.972
285.922
285.857
285.783
285.706
285.633
285.566
285.504
285.448
285.397
285.351
285.31
285.275
285.246
285.224
285.209
285.201
285.201
285.215
285.284
285.485
285.728
285.908
285.997
286.011
285.975
285.915
285.848
285.788
285.738
285.698
285.667
285.657
285.68
285.734
285.77
285.721
285.726
285.775
285.861
285.075
285.254
285.354
285.403
285.423
285.429
285.428
285.422
285.415
285.411
285.415
285.434
285.472
285.526
285.586
285.639
285.675
285.691
285.691
285.68
285.663
285.645
285.626
285.608
285.592
285.578
285.566
285.558
285.553
285.551
285.551
285.553
285.557
285.563
285.572
285.582
285.591
285.597
285.597
285.589
285.573
285.55
285.52
285.486
285.451
285.417
285.388
285.367
285.362
285.38
285.428
285.51
285.627
285.78
285.989
286.22
286.338
286.299
286.202
286.123
286.063
286.002
285.924
285.836
285.747
285.663
285.588
285.519
285.457
285.401
285.351
285.307
285.268
285.236
285.211
285.193
285.183
285.181
285.189
285.223
285.345
285.544
285.736
285.869
285.935
285.947
285.922
285.877
285.824
285.772
285.724
285.684
285.66
285.673
285.726
285.766
285.72
285.728
285.778
285.848
285.08
285.269
285.37
285.414
285.43
285.432
285.427
285.419
285.411
285.407
285.413
285.437
285.484
285.549
285.616
285.668
285.694
285.698
285.688
285.671
285.651
285.631
285.611
285.593
285.577
285.564
285.553
285.546
285.542
285.542
285.544
285.547
285.55
285.555
285.563
285.573
285.583
285.59
285.593
285.588
285.575
285.553
285.525
285.492
285.457
285.422
285.392
285.372
285.368
285.387
285.436
285.519
285.636
285.787
285.992
286.221
286.352
286.344
286.276
286.207
286.142
286.069
285.979
285.878
285.778
285.686
285.603
285.528
285.462
285.402
285.348
285.301
285.26
285.226
285.198
285.178
285.165
285.16
285.164
285.184
285.25
285.392
285.567
285.72
285.825
285.88
285.893
285.875
285.839
285.794
285.746
285.701
285.668
285.667
285.715
285.76
285.72
285.723
285.77
285.833
285.085
285.282
285.382
285.422
285.434
285.432
285.425
285.415
285.406
285.403
285.41
285.438
285.491
285.563
285.635
285.682
285.699
285.695
285.681
285.662
285.641
285.621
285.601
285.584
285.568
285.555
285.545
285.539
285.537
285.538
285.543
285.548
285.552
285.556
285.562
285.57
285.579
285.586
285.589
285.585
285.573
285.552
285.525
285.492
285.457
285.423
285.394
285.375
285.374
285.397
285.451
285.538
285.658
285.812
286.016
286.239
286.374
286.387
286.339
286.276
286.205
286.118
286.016
285.905
285.796
285.697
285.609
285.53
285.46
285.397
285.341
285.291
285.249
285.213
285.184
285.161
285.147
285.14
285.141
285.153
285.191
285.281
285.421
285.572
285.699
285.787
285.834
285.846
285.832
285.8
285.758
285.712
285.675
285.664
285.699
285.752
285.717
285.71
285.748
285.812
285.09
285.293
285.392
285.427
285.435
285.431
285.421
285.41
285.401
285.398
285.406
285.434
285.489
285.565
285.638
285.682
285.695
285.69
285.674
285.655
285.634
285.614
285.595
285.578
285.563
285.551
285.542
285.535
285.533
285.536
285.543
285.552
285.559
285.564
285.568
285.574
285.581
285.586
285.587
285.582
285.569
285.548
285.521
285.488
285.454
285.42
285.393
285.377
285.381
285.41
285.471
285.566
285.694
285.853
286.056
286.272
286.403
286.426
286.389
286.327
286.246
286.146
286.032
285.912
285.799
285.696
285.605
285.523
285.451
285.386
285.328
285.277
285.234
285.197
285.167
285.144
285.128
285.119
285.118
285.127
285.15
285.207
285.309
285.441
285.573
285.682
285.757
285.796
285.805
285.79
285.758
285.717
285.679
285.663
285.689
285.746
285.715
285.686
285.699
285.755
285.096
285.302
285.398
285.429
285.434
285.428
285.417
285.405
285.396
285.392
285.4
285.426
285.478
285.552
285.626
285.671
285.687
285.683
285.669
285.65
285.63
285.61
285.591
285.575
285.561
285.55
285.541
285.533
285.53
285.532
285.541
285.553
285.565
285.572
285.576
285.58
285.583
285.586
285.584
285.577
285.563
285.541
285.513
285.481
285.447
285.415
285.389
285.378
285.389
285.427
285.497
285.603
285.741
285.907
286.11
286.314
286.435
286.458
286.423
286.355
286.261
286.149
286.025
285.901
285.785
285.682
285.59
285.507
285.434
285.368
285.31
285.259
285.215
285.179
285.149
285.126
285.109
285.099
285.096
285.102
285.119
285.156
285.228
285.336
285.46
285.578
285.671
285.734
285.765
285.768
285.749
285.716
285.68
285.661
285.68
285.734
285.731
285.665
285.63
285.606
285.101
285.309
285.402
285.43
285.432
285.424
285.412
285.4
285.39
285.386
285.392
285.414
285.459
285.526
285.599
285.651
285.674
285.675
285.664
285.647
285.627
285.607
285.589
285.573
285.56
285.55
285.541
285.533
285.527
285.525
285.532
285.547
285.564
285.575
285.58
285.583
285.584
285.583
285.579
285.569
285.553
285.53
285.502
285.47
285.437
285.407
285.385
285.38
285.4
285.448
285.529
285.648
285.799
285.972
286.172
286.359
286.462
286.477
286.435
286.355
286.248
286.125
285.996
285.87
285.756
285.655
285.564
285.482
285.409
285.343
285.285
285.235
285.193
285.157
285.128
285.106
285.089
285.079
285.075
285.079
285.091
285.119
285.171
285.255
285.365
285.482
285.586
285.666
285.716
285.737
285.732
285.708
285.678
285.658
285.672
285.72
285.752
285.688
285.632
285.576
285.106
285.314
285.405
285.431
285.43
285.42
285.407
285.395
285.384
285.379
285.382
285.399
285.434
285.49
285.56
285.62
285.654
285.664
285.658
285.643
285.624
285.604
285.586
285.57
285.558
285.55
285.542
285.535
285.526
285.52
285.52
285.531
285.552
285.569
285.577
285.579
285.579
285.576
285.57
285.557
285.539
285.516
285.487
285.456
285.425
285.398
285.381
285.384
285.414
285.474
285.567
285.698
285.862
286.041
286.234
286.397
286.476
286.474
286.418
286.324
286.206
286.076
285.945
285.824
285.714
285.616
285.528
285.448
285.376
285.312
285.256
285.208
285.167
285.134
285.106
285.085
285.069
285.059
285.055
285.057
285.068
285.089
285.129
285.196
285.29
285.399
285.508
285.599
285.665
285.701
285.709
285.696
285.672
285.654
285.664
285.706
285.749
285.753
285.67
285.577
285.11
285.319
285.407
285.43
285.427
285.416
285.402
285.389
285.378
285.372
285.372
285.383
285.408
285.451
285.511
285.575
285.621
285.644
285.647
285.637
285.62
285.601
285.582
285.565
285.553
285.546
285.542
285.537
285.529
285.518
285.511
285.514
285.528
285.549
285.563
285.568
285.567
285.563
285.555
285.541
285.522
285.498
285.47
285.44
285.412
285.389
285.379
285.391
285.433
285.504
285.607
285.75
285.926
286.106
286.285
286.416
286.465
286.442
286.368
286.261
286.136
286.006
285.879
285.765
285.661
285.568
285.482
285.405
285.336
285.275
285.222
285.177
285.14
285.109
285.084
285.065
285.05
285.041
285.036
285.038
285.046
285.065
285.097
285.151
285.231
285.331
285.439
285.537
285.613
285.663
285.684
285.681
285.663
285.649
285.656
285.693
285.739
285.761
285.724
285.592
285.114
285.323
285.409
285.429
285.424
285.411
285.396
285.383
285.372
285.365
285.362
285.367
285.383
285.412
285.459
285.518
285.573
285.61
285.627
285.626
285.613
285.594
285.574
285.556
285.544
285.538
285.538
285.539
285.533
285.522
285.508
285.5
285.505
285.52
285.537
285.546
285.548
285.544
285.535
285.52
285.501
285.477
285.451
285.424
285.399
285.382
285.38
285.403
285.457
285.539
285.648
285.797
285.978
286.154
286.31
286.404
286.421
286.374
286.284
286.17
286.045
285.921
285.803
285.696
285.6
285.511
285.429
285.356
285.291
285.234
285.186
285.146
285.112
285.085
285.063
285.045
285.033
285.024
285.02
285.021
285.028
285.045
285.073
285.118
285.187
285.277
285.38
285.481
285.566
285.626
285.657
285.664
285.653
285.642
285.649
285.683
285.729
285.759
285.74
285.608
285.117
285.326
285.41
285.428
285.42
285.406
285.391
285.377
285.366
285.357
285.353
285.354
285.362
285.379
285.41
285.456
285.51
285.557
285.589
285.602
285.598
285.583
285.563
285.543
285.529
285.524
285.528
285.536
285.538
285.529
285.512
285.495
285.487
285.492
285.506
285.517
285.521
285.519
285.51
285.496
285.478
285.456
285.431
285.407
285.387
285.377
285.386
285.422
285.488
285.576
285.686
285.833
286.008
286.172
286.298
286.353
286.338
286.272
286.174
286.06
285.942
285.826
285.719
285.621
285.531
285.447
285.37
285.302
285.243
285.192
285.15
285.114
285.086
285.062
285.043
285.029
285.017
285.01
285.006
285.007
285.014
285.029
285.054
285.093
285.153
285.235
285.332
285.433
285.523
285.591
285.631
285.646
285.642
285.635
285.642
285.674
285.72
285.755
285.742
285.61
285.119
285.329
285.411
285.426
285.417
285.401
285.385
285.371
285.359
285.35
285.344
285.342
285.344
285.353
285.37
285.4
285.442
285.489
285.53
285.557
285.568
285.563
285.546
285.525
285.508
285.501
285.508
285.525
285.538
285.538
285.523
285.501
285.482
285.474
285.477
285.486
285.491
285.49
285.482
285.47
285.454
285.434
285.413
285.394
285.381
285.381
285.402
285.449
285.521
285.61
285.715
285.852
286.01
286.153
286.243
286.262
286.223
286.146
286.048
285.943
285.835
285.73
285.632
285.541
285.455
285.377
285.307
285.246
285.194
285.151
285.115
285.086
285.063
285.043
285.028
285.015
285.006
284.999
284.996
284.997
285.003
285.017
285.039
285.075
285.128
285.202
285.295
285.394
285.486
285.559
285.607
285.628
285.631
285.627
285.636
285.667
285.712
285.75
285.741
285.605
285.122
285.332
285.411
285.423
285.412
285.395
285.379
285.364
285.352
285.343
285.336
285.332
285.331
285.334
285.342
285.357
285.383
285.418
285.456
285.491
285.515
285.525
285.52
285.503
285.483
285.472
285.479
285.503
285.53
285.543
285.537
285.515
285.489
285.469
285.46
285.46
285.463
285.462
285.456
285.445
285.431
285.415
285.4
285.387
285.383
285.394
285.425
285.48
285.554
285.638
285.733
285.851
285.986
286.098
286.15
286.142
286.09
286.012
285.922
285.827
285.728
285.631
285.54
285.455
285.375
285.304
285.243
285.191
285.149
285.114
285.086
285.063
285.044
285.029
285.016
285.006
284.998
284.992
284.989
284.99
284.996
285.008
285.029
285.061
285.11
285.178
285.265
285.362
285.455
285.533
285.585
285.612
285.619
285.62
285.631
285.661
285.706
285.746
285.739
285.594
285.124
285.334
285.411
285.421
285.408
285.39
285.373
285.358
285.345
285.336
285.328
285.323
285.32
285.319
285.322
285.329
285.341
285.361
285.388
285.418
285.446
285.466
285.475
285.47
285.455
285.44
285.443
285.471
285.51
285.54
285.548
285.533
285.506
285.479
285.459
285.448
285.445
285.441
285.435
285.426
285.415
285.404
285.395
285.391
285.396
285.417
285.456
285.513
285.584
285.66
285.74
285.836
285.94
286.018
286.037
286.012
285.957
285.885
285.804
285.715
285.62
285.53
285.444
285.364
285.294
285.233
285.183
285.143
285.11
285.085
285.064
285.047
285.032
285.02
285.009
285
284.993
284.988
284.986
284.987
284.992
285.003
285.023
285.053
285.098
285.161
285.244
285.338
285.431
285.51
285.567
285.598
285.609
285.613
285.626
285.657
285.702
285.744
285.735
285.579
285.126
285.336
285.411
285.418
285.403
285.384
285.366
285.351
285.339
285.329
285.321
285.315
285.311
285.309
285.308
285.31
285.315
285.324
285.338
285.357
285.379
285.4
285.416
285.423
285.42
285.408
285.405
285.43
285.478
285.525
285.551
285.549
285.527
285.499
285.472
285.453
285.441
285.434
285.426
285.419
285.411
285.405
285.403
285.407
285.421
285.448
285.49
285.547
285.611
285.676
285.741
285.812
285.885
285.927
285.924
285.891
285.837
285.77
285.691
285.598
285.508
285.422
285.344
285.275
285.217
285.17
285.134
285.105
285.083
285.065
285.051
285.038
285.027
285.016
285.007
284.999
284.992
284.987
284.985
284.986
284.991
285.002
285.02
285.048
285.09
285.15
285.229
285.32
285.413
285.493
285.552
285.586
285.6
285.607
285.622
285.654
285.7
285.743
285.731
285.56
285.128
285.338
285.41
285.415
285.398
285.378
285.36
285.345
285.332
285.322
285.314
285.308
285.303
285.3
285.298
285.298
285.299
285.303
285.309
285.318
285.33
285.344
285.359
285.371
285.376
285.374
285.371
285.389
285.438
285.498
285.544
285.559
285.549
285.524
285.497
285.473
285.456
285.444
285.435
285.428
285.423
285.421
285.425
285.435
285.454
285.485
285.527
285.579
285.635
285.688
285.737
285.786
285.83
285.842
285.824
285.785
285.728
285.656
285.567
285.475
285.39
285.314
285.249
285.196
285.154
285.122
285.099
285.082
285.068
285.057
285.047
285.037
285.027
285.017
285.008
285
284.993
284.988
284.987
284.988
284.992
285.002
285.02
285.046
285.087
285.144
285.22
285.309
285.4
285.48
285.54
285.576
285.592
285.602
285.619
285.653
285.7
285.744
285.724
285.536
285.129
285.34
285.41
285.411
285.393
285.373
285.354
285.339
285.326
285.316
285.307
285.301
285.296
285.292
285.29
285.289
285.289
285.29
285.293
285.297
285.302
285.31
285.319
285.328
285.335
285.34
285.342
285.355
285.396
285.46
285.523
285.559
285.565
285.551
285.528
285.505
285.485
285.47
285.459
285.453
285.45
285.452
285.459
285.473
285.495
285.526
285.565
285.611
285.657
285.699
285.733
285.761
285.776
285.765
285.733
285.682
285.613
285.525
285.431
285.348
285.276
285.217
285.171
285.136
285.111
285.094
285.082
285.074
285.067
285.06
285.052
285.043
285.033
285.022
285.012
285.002
284.995
284.991
284.989
284.99
284.995
285.005
285.022
285.048
285.087
285.142
285.216
285.303
285.393
285.472
285.532
285.568
285.586
285.598
285.618
285.653
285.702
285.746
285.713
285.508
285.13
285.341
285.408
285.407
285.388
285.367
285.348
285.333
285.32
285.31
285.301
285.295
285.29
285.286
285.284
285.282
285.282
285.282
285.283
285.285
285.288
285.291
285.296
285.301
285.307
285.313
285.319
285.331
285.363
285.421
285.49
285.544
285.569
285.57
285.558
285.54
285.522
285.507
285.497
285.491
285.489
285.493
285.502
285.517
285.539
285.567
285.602
285.639
285.675
285.704
285.722
285.727
285.715
285.682
285.63
285.56
285.471
285.377
285.298
285.233
285.183
285.145
285.119
285.102
285.092
285.087
285.083
285.08
285.077
285.071
285.064
285.053
285.042
285.029
285.017
285.006
284.999
284.994
284.993
284.994
284.999
285.009
285.026
285.052
285.09
285.145
285.217
285.302
285.391
285.469
285.527
285.563
285.582
285.596
285.618
285.655
285.706
285.749
285.696
285.48
285.131
285.342
285.407
285.404
285.383
285.361
285.342
285.327
285.314
285.304
285.296
285.289
285.285
285.281
285.279
285.277
285.277
285.277
285.278
285.278
285.28
285.281
285.284
285.287
285.291
285.296
285.304
285.319
285.346
285.392
285.454
285.515
285.556
285.574
285.576
285.569
285.557
285.546
285.538
285.534
285.533
285.538
285.547
285.561
285.581
285.605
285.632
285.659
285.682
285.695
285.691
285.668
285.629
285.573
285.499
285.409
285.319
285.247
285.191
285.151
285.124
285.107
285.098
285.095
285.095
285.097
285.098
285.098
285.095
285.089
285.079
285.067
285.052
285.036
285.022
285.01
285.002
284.998
284.997
284.999
285.005
285.015
285.032
285.058
285.097
285.151
285.223
285.307
285.393
285.469
285.525
285.56
285.579
285.595
285.62
285.66
285.712
285.748
285.671
285.453
285.131
285.342
285.405
285.4
285.378
285.356
285.337
285.321
285.309
285.299
285.291
285.285
285.28
285.277
285.274
285.273
285.273
285.273
285.274
285.274
285.275
285.276
285.277
285.279
285.282
285.287
285.296
285.311
285.336
285.375
285.425
285.479
285.525
285.557
285.574
285.58
285.579
285.575
285.572
285.57
285.572
285.576
285.585
285.596
285.611
285.629
285.646
285.659
285.664
285.653
285.619
285.571
285.51
285.434
285.344
285.259
285.197
285.154
285.125
285.108
285.101
285.1
285.103
285.109
285.115
285.12
285.123
285.123
285.118
285.11
285.097
285.081
285.062
285.044
285.027
285.014
285.006
285.002
285.002
285.005
285.011
285.022
285.04
285.067
285.106
285.162
285.234
285.317
285.401
285.473
285.526
285.558
285.578
285.595
285.624
285.667
285.72
285.743
285.64
285.427
285.13
285.343
285.404
285.396
285.373
285.35
285.332
285.316
285.304
285.294
285.286
285.28
285.276
285.273
285.271
285.27
285.271
285.271
285.272
285.272
285.273
285.273
285.273
285.274
285.276
285.281
285.289
285.303
285.324
285.356
285.396
285.443
285.488
285.525
285.551
285.568
285.577
285.582
285.585
285.587
285.591
285.595
285.602
285.609
285.617
285.625
285.628
285.624
285.605
285.566
285.508
285.445
285.368
285.277
285.202
285.153
285.123
285.107
285.1
285.101
285.107
285.116
285.127
285.137
285.146
285.152
285.153
285.151
285.143
285.131
285.114
285.094
285.072
285.05
285.032
285.019
285.011
285.008
285.008
285.012
285.02
285.032
285.051
285.079
285.121
285.179
285.251
285.332
285.412
285.479
285.528
285.558
285.578
285.598
285.63
285.677
285.726
285.732
285.601
285.405
285.129
285.342
285.402
285.392
285.368
285.346
285.327
285.312
285.3
285.29
285.282
285.276
285.272
285.269
285.268
285.268
285.269
285.27
285.271
285.272
285.272
285.272
285.271
285.271
285.273
285.276
285.283
285.294
285.312
285.338
285.37
285.409
285.448
285.484
285.513
285.534
285.55
285.561
285.569
285.574
285.579
285.582
285.585
285.587
285.586
285.58
285.567
285.544
285.506
285.453
285.379
285.297
285.208
285.149
285.118
285.103
285.099
285.101
285.109
285.121
285.134
285.149
285.162
285.174
285.182
285.186
285.184
285.178
285.166
285.149
285.129
285.105
285.08
285.056
285.038
285.026
285.019
285.016
285.017
285.022
285.031
285.045
285.066
285.097
285.142
285.201
285.273
285.35
285.424
285.486
285.531
285.559
285.58
285.603
285.639
285.687
285.73
285.712
285.555
285.386
285.127
285.341
285.4
285.388
285.364
285.341
285.322
285.307
285.295
285.286
285.278
285.273
285.269
285.266
285.265
285.266
285.267
285.269
285.271
285.272
285.273
285.272
285.272
285.271
285.272
285.274
285.279
285.288
285.302
285.322
285.348
285.377
285.409
285.439
285.465
285.486
285.503
285.516
285.525
285.531
285.534
285.534
285.532
285.525
285.514
285.497
285.472
285.438
285.396
285.346
285.216
285.14
285.109
285.098
285.097
285.101
285.11
285.123
285.139
285.155
285.173
285.189
285.203
285.213
285.218
285.218
285.213
285.201
285.185
285.164
285.141
285.114
285.087
285.065
285.048
285.036
285.03
285.028
285.031
285.036
285.047
285.063
285.087
285.122
285.169
285.228
285.298
285.37
285.438
285.494
285.535
285.562
285.584
285.611
285.651
285.698
285.728
285.684
285.501
285.371
285.124
285.34
285.398
285.385
285.36
285.337
285.318
285.303
285.292
285.282
285.275
285.269
285.265
285.263
285.263
285.263
285.265
285.268
285.271
285.273
285.274
285.275
285.274
285.274
285.274
285.275
285.279
285.285
285.296
285.31
285.329
285.351
285.374
285.396
285.417
285.434
285.448
285.458
285.464
285.467
285.466
285.462
285.453
285.44
285.421
285.396
285.364
285.325
285.28
285.222
285.104
285.097
285.097
285.102
285.112
285.124
285.14
285.158
285.178
285.197
285.215
285.231
285.242
285.249
285.251
285.246
285.236
285.22
285.199
285.176
285.15
285.123
285.099
285.079
285.063
285.053
285.047
285.046
285.049
285.056
285.069
285.088
285.115
285.152
285.201
285.259
285.325
285.392
285.453
285.503
285.54
285.566
285.591
285.622
285.663
285.707
285.719
285.647
285.44
285.357
285.119
285.338
285.396
285.382
285.356
285.333
285.314
285.3
285.288
285.279
285.271
285.266
285.262
285.26
285.259
285.261
285.263
285.266
285.27
285.273
285.276
285.277
285.278
285.279
285.279
285.28
285.283
285.287
285.294
285.304
285.316
285.33
285.346
285.36
285.374
285.385
285.393
285.398
285.4
285.398
285.391
285.381
285.366
285.346
285.32
285.288
285.249
285.204
285.156
285.113
285.101
285.106
285.114
285.126
285.141
285.159
285.178
285.199
285.22
285.24
285.256
285.27
285.278
285.28
285.277
285.268
285.254
285.235
285.213
285.189
285.163
285.139
285.117
285.099
285.085
285.075
285.07
285.069
285.074
285.083
285.098
285.12
285.149
285.188
285.237
285.293
285.354
285.414
285.469
285.513
285.547
285.573
285.6
285.635
285.677
285.711
285.702
285.6
285.356
285.344
285.113
285.334
285.394
285.38
285.353
285.33
285.311
285.296
285.284
285.275
285.268
285.263
285.259
285.257
285.256
285.257
285.259
285.263
285.267
285.271
285.275
285.278
285.281
285.282
285.284
285.286
285.288
285.291
285.295
285.301
285.308
285.315
285.324
285.331
285.338
285.342
285.344
285.343
285.338
285.329
285.317
285.3
285.278
285.252
285.222
285.189
285.155
285.127
285.111
285.111
285.118
285.128
285.142
285.158
285.176
285.197
285.218
285.24
285.26
285.278
285.293
285.303
285.308
285.307
285.3
285.289
285.272
285.252
285.23
285.206
285.182
285.16
285.14
285.124
285.112
285.103
285.099
285.1
285.106
285.117
285.134
285.158
285.189
285.228
285.275
285.328
285.383
285.437
285.485
285.524
285.555
285.583
285.613
285.649
285.688
285.71
285.68