/*--------------------------------*- C++ -*----------------------------------*\
| =========                 |                                                 |
| \\      /  F ield         | OpenFOAM: The Open Source CFD Toolbox           |
|  \\    /   O peration     | Version:  4.1                                   |
|   \\  /    A nd           | Web:      www.OpenFOAM.org                      |
|    \\/     M anipulation  |                                                 |
\*---------------------------------------------------------------------------*/
FoamFile
{
    version     2.0;
    format      ascii;
    class       volScalarField;
    location    "1000";
    object      mag(U);
}
// * * * * * * * * * * * * * * * * * * * * * * * * * * * * * * * * * * * * * //

dimensions      [0 1 -1 0 0 0 0];

internalField   nonuniform List<scalar> 
5000
(
0.00348586
0.00384257
0.00417556
0.00475291
0.00608494
0.00767412
0.00908626
0.010211
0.0110835
0.0117716
0.0123315
0.012795
0.0131703
0.0134488
0.0136131
0.0136409
0.0135089
0.0132011
0.0127084
0.0120326
0.0111837
0.0101793
0.0090433
0.00780419
0.0064929
0.00514012
0.00377646
0.00245394
0.0013975
0.00118767
0.00203343
0.00307209
0.00406838
0.00497347
0.00578675
0.00651092
0.00714576
0.00768978
0.0081413
0.00849881
0.00876154
0.00893058
0.00900865
0.00900636
0.00893306
0.00879941
0.00862304
0.00843452
0.00828474
0.00824902
0.00840312
0.00880211
0.00945039
0.0102521
0.0109576
0.0109996
0.00986728
0.007431
0.00562985
0.00711558
0.00763168
0.00657053
0.00493908
0.00370769
0.00346772
0.00250055
0.00207369
0.00341668
0.00392463
0.00280815
0.00594173
0.00598067
0.00465361
0.00331686
0.00248049
0.00204889
0.00170595
0.00132163
0.000871029
0.000454363
0.000646152
0.00141607
0.00234465
0.00336888
0.00444371
0.00552945
0.00658549
0.00757229
0.00845101
0.00918388
0.00973677
0.0100837
0.0102138
0.0101263
0.00982539
0.00931154
0.00856441
0.00750864
0.00590191
0.00485284
0.00558544
0.00472106
0.00536577
0.00601042
0.00692022
0.00790411
0.00883906
0.0097015
0.0104839
0.0111868
0.0118107
0.0123487
0.0127848
0.0130984
0.0132676
0.0132709
0.0130948
0.0127398
0.0122025
0.0114894
0.0106129
0.00959175
0.00845082
0.00722078
0.0059391
0.00465681
0.00346197
0.00253921
0.00222361
0.00239632
0.00307024
0.00396578
0.00488472
0.00575286
0.00654949
0.00726858
0.00790706
0.00846256
0.00893277
0.00931517
0.00960705
0.00980617
0.00991303
0.00992974
0.00986048
0.00971269
0.00950167
0.00925383
0.0090098
0.00881241
0.00870993
0.00874191
0.00892823
0.00924018
0.00957864
0.00965933
0.00974226
0.0106521
0.00847375
0.00412992
0.00384772
0.00445828
0.00515825
0.00557872
0.0014026
0.00461662
0.00164623
0.00361624
0.00161444
0.00611955
0.00535598
0.00312565
0.00323145
0.00240849
0.00171493
0.00131976
0.0010628
0.000866034
0.000765829
0.000927046
0.00141837
0.00212466
0.00295324
0.00386245
0.00482191
0.00580142
0.00676571
0.00767664
0.0084952
0.00918289
0.00970393
0.0100288
0.0101436
0.0100194
0.0096557
0.0090526
0.00820826
0.00714026
0.00597202
0.00688958
0.00818354
0.00497088
0.00519948
0.00613713
0.00696002
0.00758882
0.00814171
0.00874035
0.00940283
0.0100874
0.0107411
0.0113177
0.0117811
0.0121048
0.0122704
0.0122639
0.0120834
0.0117347
0.0112218
0.0105534
0.00974379
0.00881367
0.00779174
0.00671693
0.00564604
0.0046699
0.00392725
0.00356033
0.00360324
0.00389227
0.00444993
0.00516327
0.00592052
0.0066581
0.00734686
0.00797429
0.00853486
0.0090261
0.00944687
0.00979625
0.0100727
0.0102732
0.0103925
0.0104248
0.0103701
0.0102319
0.0100174
0.00973256
0.00937903
0.00896288
0.00850796
0.00806863
0.00769865
0.00741555
0.00718374
0.00734463
0.00893827
0.0121139
0.0120679
0.00831666
0.00352099
0.00235977
0.00509267
0.00608612
0.00202591
0.0066039
0.00204929
0.00360569
0.00274569
0.00673761
0.0050856
0.00152897
0.00241889
0.00203592
0.00194595
0.00190489
0.00180277
0.00164543
0.00151474
0.00155959
0.00189382
0.00250336
0.00324517
0.00405476
0.00489849
0.00575122
0.00658561
0.00737038
0.00807148
0.00865396
0.00908412
0.00933217
0.0093783
0.00919155
0.00877454
0.00814668
0.00736867
0.00667279
0.0067476
0.0096787
0.0107004
0.00583002
0.00506515
0.00588932
0.00668708
0.00724132
0.0076828
0.00817258
0.0087531
0.00937746
0.00997807
0.0105003
0.0109087
0.011183
0.0113123
0.0112891
0.0111164
0.0107973
0.0103392
0.00975593
0.0090674
0.00829953
0.00748637
0.0066747
0.00593299
0.00535268
0.00500832
0.00492088
0.00503839
0.0053474
0.00582583
0.00640986
0.00703335
0.00764844
0.00822674
0.00875336
0.00922127
0.00962793
0.00997336
0.0102587
0.010485
0.0106521
0.0107577
0.0107961
0.0107609
0.010645
0.0104428
0.0101474
0.00975021
0.00924383
0.00862599
0.00790445
0.00712494
0.00635041
0.00562195
0.00548421
0.00770493
0.0119555
0.0130566
0.0102088
0.00634589
0.00401721
0.00482411
0.00553773
0.00228408
0.00808199
0.00173425
0.00320933
0.00293639
0.00514272
0.00381365
0.00129698
0.00169897
0.00217703
0.00248917
0.00257453
0.00249169
0.00233837
0.00224835
0.00234875
0.00268068
0.00322414
0.00385127
0.00451724
0.00520205
0.0058879
0.00655398
0.00717506
0.00772283
0.00816831
0.00848413
0.00864837
0.00864453
0.00845257
0.00808366
0.00758018
0.00706155
0.00691077
0.00804035
0.0122159
0.0128225
0.00692124
0.00522364
0.00573903
0.0064722
0.00702699
0.00746375
0.00790813
0.00840471
0.00892261
0.00940947
0.00982332
0.0101389
0.0103426
0.0104253
0.0103768
0.0102013
0.00990906
0.00951959
0.00905797
0.00855087
0.00802593
0.00751384
0.00705168
0.00668552
0.00645221
0.00633962
0.00634799
0.00649516
0.00678198
0.0071817
0.00765578
0.00816226
0.00866532
0.00913957
0.00956926
0.00994588
0.010266
0.0105297
0.0107391
0.0108975
0.0110076
0.0110708
0.011085
0.0110442
0.0109372
0.0107499
0.0104657
0.0100661
0.00953383
0.00885626
0.00802791
0.00705315
0.00596602
0.00486652
0.00428067
0.00636091
0.010845
0.0125061
0.0105284
0.00759589
0.00561822
0.0051012
0.00487795
0.00211053
0.00939877
0.00156442
0.00226989
0.00262152
0.00342223
0.00241181
0.000897935
0.00209029
0.00272471
0.0030102
0.00305279
0.00296197
0.00287413
0.00290966
0.00312552
0.00350453
0.00400749
0.00454039
0.0050747
0.00560589
0.0061235
0.00661196
0.00705172
0.00742182
0.0077034
0.00788258
0.0079541
0.0079181
0.00777198
0.0075457
0.00730399
0.00718131
0.00756159
0.00935555
0.0143038
0.0145947
0.00802432
0.00561442
0.00579312
0.00643112
0.00697904
0.00741736
0.00782045
0.00822414
0.00861566
0.00896525
0.00924806
0.0094483
0.00955479
0.0095561
0.00943929
0.00923003
0.00896063
0.0086696
0.00839073
0.00814806
0.00795507
0.0078189
0.00774169
0.00772004
0.00772577
0.0077419
0.00780876
0.00796296
0.00820357
0.00851784
0.0088849
0.00927855
0.00967275
0.0100459
0.0103824
0.0106722
0.0109103
0.0110957
0.0112302
0.0113175
0.0113622
0.0113685
0.0113385
0.0112693
0.0111518
0.0109707
0.0107049
0.0103298
0.0098209
0.00915741
0.00832462
0.00731736
0.00615259
0.00491066
0.00405197
0.00549821
0.00944709
0.0112342
0.0100072
0.00785299
0.00618353
0.00514984
0.00426251
0.00198831
0.0107292
0.0021003
0.00142771
0.00242936
0.00300784
0.00258037
0.00235474
0.00290432
0.00325339
0.00338111
0.00336164
0.00331587
0.00336084
0.00354993
0.00387196
0.00428522
0.00474948
0.00521251
0.00564366
0.0060477
0.00641638
0.00673596
0.00699002
0.00716464
0.00725486
0.00726995
0.00723669
0.00718689
0.00713875
0.00713698
0.00724513
0.00755682
0.00837226
0.0105737
0.0160476
0.0161089
0.0090891
0.00614761
0.00602878
0.00655767
0.00707139
0.00748559
0.00783147
0.00813328
0.00838995
0.00858889
0.00871786
0.00876694
0.00872641
0.00858793
0.00835
0.00810349
0.00790126
0.00779257
0.00779942
0.00791857
0.00812593
0.00839044
0.00866741
0.00890811
0.00906647
0.00917636
0.00928934
0.00943137
0.00961305
0.00983614
0.010094
0.010373
0.010656
0.0109262
0.0111691
0.011374
0.0115341
0.0116464
0.0117114
0.0117321
0.0117133
0.0116605
0.0115789
0.0114689
0.011327
0.0111417
0.0108933
0.0105559
0.0101014
0.00950426
0.0087456
0.00781841
0.00673951
0.0055913
0.00473062
0.00543118
0.00824337
0.00981249
0.00913701
0.00758337
0.00610313
0.0048891
0.0036717
0.00235481
0.0120655
0.00284365
0.00137107
0.00263245
0.00331177
0.00339751
0.00342287
0.0035895
0.0036554
0.00362936
0.00359427
0.0036532
0.00385286
0.00417377
0.00456952
0.00499898
0.00543074
0.00584392
0.00620386
0.0065126
0.00676061
0.00693067
0.00700492
0.00697234
0.00684154
0.00665386
0.00649016
0.0064408
0.00654492
0.00683646
0.00733475
0.00805559
0.00921027
0.0116812
0.0175453
0.017428
0.0101094
0.00676025
0.00639162
0.00680614
0.00725855
0.00761793
0.0078847
0.00807151
0.0081809
0.00820848
0.00814826
0.00799557
0.007748
0.00741442
0.00704914
0.00684597
0.00684435
0.0070614
0.00746475
0.00800281
0.00860809
0.00922241
0.00976805
0.0101681
0.0104435
0.0106329
0.0107715
0.0108874
0.0110022
0.01113
0.011276
0.0114373
0.0116055
0.0117689
0.0119154
0.0120344
0.0121181
0.0121614
0.0121629
0.0121237
0.012048
0.011941
0.0118097
0.0116569
0.0114848
0.0112883
0.0110532
0.0107568
0.0103715
0.00986998
0.00923161
0.00844971
0.00754424
0.00659477
0.00584938
0.00600819
0.00758091
0.00867464
0.00829742
0.00714143
0.0058253
0.00456526
0.00330529
0.00322888
0.0133686
0.00359949
0.00206435
0.00316321
0.00382638
0.00406165
0.00408825
0.0040369
0.00391169
0.00380396
0.00382185
0.00401503
0.00435114
0.00476638
0.00520818
0.00564532
0.00605992
0.00643605
0.00675732
0.0070033
0.00716101
0.00720779
0.00711751
0.0068756
0.0064964
0.00605529
0.00571526
0.00567475
0.00598863
0.00662519
0.00751271
0.00858789
0.0100046
0.0126708
0.0188466
0.0185937
0.0110884
0.00741247
0.00682719
0.00712115
0.00748788
0.00776301
0.00792588
0.00797796
0.00791861
0.00774332
0.00744707
0.00703159
0.00651583
0.00595638
0.00563741
0.00568845
0.00610314
0.00677676
0.00760394
0.00851586
0.00942669
0.0102809
0.0109574
0.0114812
0.0118528
0.0120939
0.0122361
0.0123128
0.0123539
0.0123831
0.0124155
0.0124575
0.0125082
0.0125616
0.0126089
0.0126405
0.012648
0.012625
0.0125678
0.0124759
0.0123513
0.0121983
0.0120238
0.0118329
0.0116319
0.0114222
0.0111967
0.0109392
0.0106255
0.0102287
0.00972635
0.00910933
0.00839384
0.00764314
0.00701616
0.006868
0.00750519
0.00803255
0.00770562
0.00676793
0.00559787
0.0044149
0.00337615
0.00440146
0.0146353
0.00435899
0.00301595
0.00387379
0.00440564
0.00458355
0.00450867
0.00429812
0.00406254
0.00395658
0.00407701
0.00439998
0.00483884
0.00531676
0.00578919
0.00623549
0.00664557
0.0070083
0.00730763
0.00752342
0.00762212
0.00757494
0.00734498
0.00690557
0.00626274
0.00551205
0.00492012
0.00488662
0.00547343
0.00648475
0.00772858
0.00909451
0.0107143
0.0135357
0.0199779
0.0196378
0.0120316
0.00807806
0.00728919
0.00745015
0.0077075
0.00787089
0.00790444
0.00779926
0.00754785
0.00714155
0.00657611
0.00586537
0.0050774
0.00440175
0.0044351
0.00508062
0.00605803
0.00716207
0.00830283
0.00945191
0.0105036
0.0114448
0.0122347
0.0128467
0.0132745
0.013535
0.013659
0.0136833
0.013644
0.013572
0.0134902
0.0134128
0.0133457
0.0132882
0.013235
0.0131785
0.0131105
0.0130235
0.0129122
0.0127739
0.0126087
0.0124205
0.0122114
0.0119902
0.0117661
0.0115451
0.0113275
0.0111044
0.0108569
0.0105597
0.0101878
0.00972597
0.0091797
0.00858903
0.00804848
0.00773433
0.007796
0.00783937
0.00741748
0.00657371
0.00552719
0.00447589
0.00377414
0.0058173
0.0158772
0.00512734
0.00401767
0.00464757
0.00498968
0.00501353
0.00478968
0.00444937
0.00416703
0.00412439
0.00436241
0.00479141
0.00530183
0.00582246
0.00632014
0.00678206
0.00720136
0.00756853
0.00786647
0.00806906
0.00814124
0.00803233
0.00769414
0.0070856
0.00618809
0.00508428
0.00412847
0.0040777
0.00500892
0.00639628
0.00794112
0.00953675
0.0113164
0.014274
0.0209583
0.0205852
0.012944
0.00873743
0.0077395
0.00774813
0.00787256
0.00789941
0.00778091
0.00749899
0.00703775
0.00638211
0.0055276
0.00450221
0.00345716
0.00307668
0.00404177
0.0054229
0.00683028
0.00816241
0.00940588
0.0105997
0.0117238
0.0127355
0.0135827
0.0142332
0.0146768
0.0149261
0.0150109
0.01497
0.0148438
0.0146684
0.0144731
0.0142782
0.0140952
0.0139285
0.0137762
0.013633
0.0134912
0.0133433
0.0131825
0.0130042
0.0128066
0.0125914
0.0123591
0.0121185
0.0118799
0.0116529
0.0114437
0.0112504
0.0110602
0.01085
0.0105921
0.0102632
0.00985505
0.00938447
0.00890191
0.00849451
0.00822996
0.00793796
0.00738724
0.00656872
0.00561065
0.00468413
0.00431667
0.00775369
0.0168943
0.00590737
0.00500205
0.00541874
0.00554864
0.00537945
0.00499274
0.00455076
0.00427117
0.00432186
0.0046666
0.00517391
0.00573352
0.00628659
0.00680986
0.00729516
0.00773641
0.00812265
0.00843442
0.00864231
0.00870477
0.00856997
0.00816211
0.00742587
0.00630992
0.00485314
0.00339879
0.00325038
0.0046095
0.00633923
0.00811745
0.00989048
0.0118002
0.0148884
0.0218049
0.0214551
0.013829
0.00937439
0.0081472
0.00797908
0.00794862
0.00781913
0.00753247
0.00706287
0.00638498
0.00547186
0.00430542
0.0028979
0.00158729
0.0029349
0.00489794
0.00660391
0.00806649
0.00941411
0.0106956
0.0119226
0.0130706
0.0140971
0.0149524
0.0155992
0.016023
0.0162333
0.0162593
0.0161412
0.0159221
0.0156424
0.0153357
0.015027
0.0147327
0.0144609
0.0142134
0.0139869
0.0137752
0.0135707
0.0133658
0.0131545
0.0129328
0.0126988
0.0124539
0.0122053
0.0119626
0.0117373
0.0115395
0.0113734
0.0112316
0.0110941
0.0109308
0.0107109
0.0104124
0.0100326
0.00959249
0.00913462
0.00869166
0.00819458
0.00753891
0.0067186
0.00582217
0.00501347
0.00498855
0.0100179
0.0175756
0.00669186
0.00594152
0.00615512
0.00606985
0.00569968
0.00515715
0.00464379
0.00440115
0.00454761
0.0049765
0.00553837
0.00613306
0.00671412
0.0072653
0.00778073
0.0082538
0.00867142
0.00901099
0.00923867
0.00930818
0.00916128
0.00872964
0.00792345
0.00664709
0.00489874
0.00286283
0.00239631
0.0042888
0.00629174
0.00823319
0.0101428
0.0121637
0.0153857
0.0225328
0.0222606
0.0146894
0.00997646
0.00848889
0.00811632
0.00791243
0.00761463
0.00715468
0.00650196
0.00562523
0.00448965
0.00307981
0.00129726
0.00191778
0.00441048
0.00635157
0.00800873
0.00948496
0.0108417
0.0121197
0.0133337
0.0144644
0.0154682
0.0162938
0.0169014
0.0172741
0.0174206
0.0173701
0.017164
0.0168477
0.0164642
0.0160502
0.0156338
0.0152347
0.0148645
0.0145277
0.0142237
0.0139474
0.013692
0.0134495
0.0132128
0.0129762
0.0127331
0.012486
0.0122404
0.0120044
0.0117897
0.0116086
0.0114693
0.0113695
0.011292
0.0112061
0.0110743
0.0108638
0.0105561
0.0101532
0.00967456
0.00914001
0.00852919
0.00780634
0.00698142
0.0061371
0.00546868
0.00592292
0.0124236
0.0179605
0.00746695
0.00682314
0.00684339
0.00655068
0.00598851
0.00530939
0.00475382
0.0045648
0.00479361
0.00528251
0.00588106
0.00650212
0.00710915
0.00769033
0.00824058
0.00875225
0.00921015
0.00958885
0.00985091
0.00994565
0.00980864
0.00936227
0.00851959
0.0071922
0.00527364
0.00274586
0.00147771
0.00404007
0.00623376
0.00827301
0.0102902
0.0124112
0.0157755
0.0231566
0.0230065
0.0155295
0.0105371
0.00875024
0.00814282
0.0077506
0.00728204
0.00665804
0.00584895
0.00484051
0.00361221
0.00212999
0.00158255
0.00400504
0.00609876
0.00794852
0.00957278
0.0110172
0.0123393
0.0135811
0.0147556
0.0158418
0.0167935
0.0175583
0.0180959
0.0183902
0.0184511
0.0183091
0.0180071
0.0175918
0.0171076
0.0165925
0.0160767
0.0155817
0.0151217
0.0147037
0.0143292
0.0139952
0.0136955
0.0134224
0.0131684
0.0129244
0.0126838
0.0124465
0.0122155
0.0119973
0.0118028
0.0116452
0.011535
0.0114737
0.0114473
0.0114253
0.011366
0.0112281
0.0109819
0.0106163
0.0101389
0.00956533
0.00889988
0.00814293
0.00732066
0.00652884
0.00603734
0.00738931
0.014724
0.0181138
0.00822809
0.00764652
0.00748223
0.00699482
0.00625822
0.00546717
0.00489353
0.00476053
0.0050511
0.00557895
0.00620111
0.00684258
0.00747388
0.00808571
0.0086731
0.00922728
0.00973135
0.0101576
0.0104658
0.0106019
0.0104973
0.0100685
0.0092194
0.00784794
0.00586298
0.00321648
0.000347806
0.00378652
0.00615682
0.0082308
0.0103366
0.0125515
0.0160697
0.0236904
0.0236805
0.0163562
0.0110581
0.00892756
0.00805174
0.00745785
0.00682438
0.00606117
0.0051477
0.0040719
0.002885
0.00212275
0.00380282
0.00589828
0.00786892
0.00962884
0.0111793
0.012561
0.0138258
0.015012
0.0161278
0.0171473
0.0180216
0.0186981
0.0191389
0.0193315
0.019289
0.0190448
0.0186428
0.0181305
0.017552
0.0169453
0.0163406
0.0157607
0.0152211
0.0147309
0.014294
0.0139094
0.0135726
0.0132763
0.0130134
0.0127703
0.0125428
0.0123272
0.012123
0.0119344
0.0117708
0.0116448
0.0115683
0.0115454
0.0115652
0.0115983
0.0116007
0.0115254
0.0113346
0.0110088
0.0105485
0.00996836
0.00928557
0.00851943
0.00771238
0.00698787
0.00674227
0.00952649
0.0166107
0.0180852
0.00897961
0.00841905
0.00807737
0.00740941
0.00651932
0.00564131
0.00506621
0.00498157
0.00531297
0.00586263
0.00649847
0.00715528
0.00780833
0.00844968
0.00907421
0.00967228
0.0102257
0.0107053
0.0110688
0.0112598
0.0112068
0.0108227
0.0100071
0.00865082
0.00664986
0.00394441
0.000740935
0.00325525
0.00604274
0.00811093
0.0102915
0.012596
0.0162811
0.0241478
0.0242376
0.0171739
0.0115517
0.00902675
0.00784457
0.00703322
0.00624404
0.00537784
0.00432848
0.00334472
0.00280936
0.00364901
0.00566698
0.00773907
0.0096254
0.0112891
0.0127493
0.01405
0.0152414
0.0163564
0.0173962
0.0183286
0.0191018
0.0196654
0.0199867
0.0200594
0.019902
0.0195507
0.0190508
0.0184484
0.0177863
0.0171004
0.0164199
0.0157674
0.0151591
0.0146062
0.0141149
0.0136868
0.0133195
0.0130073
0.0127441
0.0125111
0.0123068
0.012124
0.0119585
0.0118116
0.0116899
0.0116049
0.0115684
0.0115867
0.0116514
0.0117348
0.0117924
0.0117735
0.0116347
0.0113509
0.0109186
0.0103521
0.00967542
0.00891849
0.00814547
0.00752928
0.00767252
0.012011
0.0180963
0.017923
0.00972894
0.00915056
0.00863694
0.00780238
0.00678001
0.00583705
0.00526919
0.00522027
0.00557356
0.00613136
0.00677262
0.00743963
0.00811071
0.00877869
0.00943826
0.0100793
0.010683
0.0112192
0.0116445
0.0119013
0.0119163
0.0116005
0.0108504
0.00955369
0.0076035
0.00494234
0.00181104
0.00272408
0.00574317
0.00791364
0.0101678
0.012557
0.0164229
0.0245413
0.0245724
0.0179986
0.0120452
0.0090631
0.00752733
0.00647482
0.0055271
0.00448955
0.00350937
0.00298788
0.00347208
0.00538734
0.0075401
0.00955452
0.0113363
0.0128838
0.0142319
0.0154317
0.0165326
0.0175609
0.0185076
0.0193329
0.0199835
0.0204132
0.0205981
0.0205402
0.0202644
0.0198098
0.019221
0.0185418
0.0178111
0.0170616
0.0163199
0.0156075
0.0149415
0.0143347
0.013796
0.0133301
0.0129375
0.0126159
0.012356
0.0121445
0.0119748
0.0118362
0.0117214
0.011628
0.0115595
0.0115251
0.0115365
0.0116007
0.0117118
0.0118442
0.0119535
0.0119871
0.011898
0.0116575
0.0112595
0.0107185
0.0100623
0.00932802
0.00861208
0.00816439
0.00903356
0.0145775
0.0192135
0.0176695
0.0104759
0.0098471
0.00916735
0.00818004
0.0070454
0.00605495
0.0054965
0.00546925
0.00582796
0.00638282
0.0070221
0.00769372
0.00837796
0.00906806
0.00975879
0.01044
0.0110926
0.0116863
0.0121776
0.0125083
0.0126047
0.0123772
0.0117208
0.0105208
0.00866683
0.00609589
0.00299012
0.00229365
0.00531506
0.00761489
0.00994763
0.0124443
0.0165075
0.0248822
0.0244668
0.0187249
0.0127272
0.00913525
0.00714818
0.00579055
0.0046021
0.00356613
0.00298864
0.00335327
0.00520086
0.00738881
0.00948417
0.0113596
0.0129809
0.0143685
0.0155713
0.0166471
0.0176417
0.0185694
0.0194074
0.0201076
0.0206172
0.0208984
0.0209385
0.0207498
0.020363
0.0198187
0.0191587
0.0184219
0.0176415
0.0168453
0.0160569
0.0152967
0.0145823
0.0139286
0.0133477
0.0128482
0.012434
0.0121072
0.0118545
0.0116724
0.0115475
0.0114653
0.0114138
0.011386
0.0113819
0.0114082
0.0114755
0.0115916
0.0117526
0.0119346
0.0120941
0.0121774
0.0121357
0.0119379
0.0115768
0.0110673
0.0104396
0.009739
0.0091118
0.00892974
0.011054
0.0168725
0.0199987
0.0173758
0.0112138
0.0105096
0.00967138
0.00854561
0.00731688
0.00629146
0.00573955
0.00571999
0.00607132
0.00661401
0.00724443
0.00791466
0.00860621
0.00931271
0.0100292
0.0107458
0.0114441
0.0120941
0.0126527
0.0130626
0.0132507
0.0131278
0.0125892
0.0115184
0.00980022
0.00735856
0.00429612
0.00221793
0.00474106
0.00724228
0.00959832
0.0122641
0.0165463
0.0251779
0.023797
0.0190077
0.0134593
0.00951155
0.00696735
0.00521696
0.00394374
0.00328762
0.00361519
0.00532667
0.00746823
0.00955998
0.0114509
0.0130872
0.0144738
0.0156516
0.0166813
0.0176214
0.0185045
0.0193248
0.0200426
0.0206034
0.0209601
0.0210877
0.020987
0.0206804
0.0202029
0.019593
0.018887
0.0181158
0.0173056
0.0164788
0.015656
0.0148571
0.0141007
0.0134047
0.0127847
0.0122537
0.0118202
0.0114914
0.011253
0.0111063
0.0110346
0.0110188
0.0110418
0.0110913
0.0111624
0.011259
0.0113904
0.0115649
0.0117798
0.0120131
0.012222
0.0123526
0.0123551
0.0121973
0.0118722
0.0113956
0.0107999
0.0101464
0.00965882
0.00991228
0.0135221
0.01884
0.020507
0.0170983
0.0119308
0.0111341
0.010148
0.00889884
0.0075922
0.00654003
0.00598935
0.00596573
0.00629835
0.00682119
0.00743634
0.00809897
0.00879141
0.00950763
0.0102432
0.0109891
0.0117279
0.0124306
0.0130556
0.0135468
0.0138331
0.0138273
0.0134258
0.0125121
0.0109659
0.00869405
0.00572721
0.00286099
0.0040313
0.00675253
0.00916343
0.0119953
0.0165514
0.0254287
0.0225155
0.0187119
0.0139359
0.0100873
0.00732831
0.00548321
0.00455227
0.00468871
0.0060165
0.00794746
0.00988233
0.011665
0.0132207
0.0145363
0.0156419
0.0165953
0.0174603
0.0182815
0.0190655
0.0197799
0.02037
0.0207828
0.0209841
0.0209662
0.0207442
0.0203481
0.0198126
0.0191698
0.0184465
0.0176638
0.0168405
0.0159943
0.0151444
0.0143112
0.0135156
0.0127789
0.0121209
0.0115594
0.0111082
0.0107804
0.0105614
0.0104572
0.0104474
0.010508
0.0106162
0.0107532
0.0109094
0.011085
0.0112878
0.0115265
0.0117994
0.0120855
0.0123428
0.0125175
0.0125593
0.0124365
0.0121432
0.0116971
0.0111337
0.0105475
0.0102772
0.0113424
0.0161489
0.0204693
0.0207891
0.0168812
0.012608
0.0117119
0.0105923
0.00923616
0.00786579
0.00679163
0.00623534
0.0061963
0.00650316
0.0069998
0.00759403
0.00824305
0.00892973
0.00964846
0.0103956
0.0111634
0.0119357
0.0126855
0.0133729
0.0139445
0.0143317
0.0144505
0.0142004
0.0134662
0.0121244
0.0100658
0.00726154
0.00408518
0.00337625
0.00609554
0.00865142
0.0116297
0.0165237
0.025624
0.0206207
0.017824
0.0139735
0.0106295
0.00817633
0.00675397
0.00645441
0.00718033
0.00871136
0.0103519
0.0119088
0.0132927
0.0144697
0.0154578
0.0163092
0.0170891
0.0178465
0.0185932
0.0192995
0.0199095
0.0203657
0.0206287
0.0206855
0.0205473
0.020241
0.0197978
0.0192456
0.0186047
0.0178894
0.0171113
0.016283
0.0154205
0.0145436
0.0136751
0.0128393
0.0120612
0.0113649
0.0107734
0.0103069
0.0099845
0.00979054
0.00973709
0.00979931
0.00994736
0.010151
0.010385
0.0106343
0.0108957
0.0111759
0.0114834
0.0118172
0.0121568
0.0124603
0.0126739
0.012748
0.0126524
0.0123835
0.0119622
0.0114301
0.0109487
0.0110303
0.0133907
0.0186263
0.0217721
0.0209022
0.0167469
0.0132233
0.0122313
0.0109971
0.00955135
0.00812961
0.00703569
0.00646699
0.0064043
0.00667963
0.00714507
0.00771357
0.00834351
0.00901802
0.00973191
0.0104825
0.0112637
0.0120612
0.0128503
0.0135939
0.0142412
0.0147277
0.0149733
0.0148825
0.0143434
0.0132323
0.0114287
0.00886282
0.00568108
0.00332828
0.00526458
0.00803824
0.0112337
0.0164558
0.0256993
0.018191
0.0164016
0.0135061
0.010863
0.00902284
0.00822706
0.00843055
0.00944406
0.010705
0.011962
0.0131111
0.0141066
0.0149551
0.015703
0.016413
0.0171317
0.0178664
0.0185818
0.0192175
0.0197136
0.0200296
0.0201524
0.0200939
0.0198806
0.0195423
0.0191023
0.0185736
0.0179611
0.017267
0.0164958
0.0156585
0.0147727
0.0138619
0.0129526
0.012073
0.0112515
0.0105166
0.00989586
0.00941841
0.00909534
0.00894203
0.00895402
0.00910301
0.00935227
0.00966292
0.0100025
0.0103511
0.0107031
0.0110643
0.0114433
0.011839
0.0122307
0.012576
0.012821
0.0129175
0.0128382
0.012583
0.0121774
0.0116786
0.0113693
0.0120308
0.0159054
0.0208478
0.0227847
0.020903
0.016693
0.0137561
0.0126805
0.0113537
0.00983664
0.00837421
0.007261
0.00667362
0.00658116
0.00682124
0.00725202
0.00779117
0.0083975
0.00905409
0.00975611
0.010502
0.0112875
0.0121007
0.0129197
0.0137102
0.0144254
0.0150049
0.0153739
0.0154427
0.0151054
0.0142413
0.0127239
0.0104527
0.00745089
0.00437748
0.00445263
0.00732232
0.0108174
0.0163404
0.0255384
0.0153911
0.0145919
0.0125283
0.0105706
0.00938008
0.00914441
0.00967978
0.0106064
0.0115781
0.0124677
0.0132524
0.0139599
0.0146371
0.0153349
0.0160822
0.0168642
0.0176291
0.0183101
0.0188485
0.0192099
0.0193881
0.0194012
0.0192796
0.0190535
0.0187419
0.0183495
0.0178698
0.0172931
0.0166136
0.0158353
0.0149725
0.0140486
0.0130923
0.0121347
0.011207
0.0103406
0.00956758
0.00892065
0.00843847
0.00812643
0.00802436
0.00811836
0.0083731
0.00874036
0.00917055
0.00962363
0.0100758
0.0105204
0.0109635
0.0114139
0.0118701
0.0123098
0.0126894
0.0129552
0.0130611
0.0129836
0.0127281
0.0123261
0.0118742
0.0118573
0.0135674
0.0185355
0.0227701
0.0235458
0.0208363
0.016694
0.0141888
0.013049
0.0116543
0.010084
0.00858978
0.00745654
0.00684489
0.0067183
0.00692125
0.0073156
0.00782317
0.0084027
0.00903677
0.00972072
0.0104542
0.0112347
0.0120534
0.0128912
0.0137176
0.0144896
0.0151515
0.0156345
0.0158554
0.0157161
0.0151025
0.0138885
0.0119549
0.00925319
0.00605753
0.00427899
0.00659038
0.0103504
0.0160831
0.0250353
0.0125057
0.0125886
0.0110629
0.00962341
0.00897969
0.00916724
0.00985838
0.0106106
0.0112483
0.0117743
0.0123196
0.0129885
0.0137938
0.0146941
0.0156202
0.0164923
0.0172412
0.0178211
0.0182146
0.0184315
0.0185023
0.0184653
0.018353
0.0181803
0.0179421
0.0176187
0.017186
0.0166267
0.0159356
0.0151227
0.0142105
0.0132305
0.0122173
0.0112052
0.0102268
0.00931479
0.00850462
0.00783588
0.00735943
0.00708118
0.0070524
0.00725256
0.00763511
0.00813763
0.00869815
0.00926962
0.00982619
0.0103621
0.0108848
0.0114035
0.0119151
0.0123952
0.0127982
0.0130704
0.0131689
0.0130757
0.0128026
0.012391
0.0120304
0.0125154
0.0156827
0.0210231
0.0243819
0.0241007
0.0207326
0.0167117
0.0145075
0.0133289
0.011892
0.0102861
0.00876733
0.00761227
0.00697119
0.00680729
0.0069727
0.00733063
0.007806
0.00835719
0.00896573
0.00962678
0.0103409
0.011108
0.0119217
0.0127667
0.0136161
0.0144313
0.0151614
0.0157434
0.0161014
0.0161458
0.0157714
0.0148587
0.0132831
0.0109563
0.00796277
0.00526703
0.00604108
0.00979077
0.0155639
0.0241052
0.0100328
0.01063
0.00913781
0.0079939
0.00777682
0.0082763
0.00891122
0.00942266
0.00972047
0.00999975
0.0107028
0.011814
0.0130655
0.0142569
0.0152855
0.0161072
0.0167108
0.0171099
0.0173387
0.0174453
0.0174792
0.0174761
0.0174464
0.0173734
0.0172221
0.0169529
0.016535
0.0159537
0.0152123
0.0143324
0.0133477
0.0122977
0.0112216
0.0101538
0.00912469
0.00816595
0.00731689
0.00662831
0.00617048
0.00595128
0.00603445
0.00638074
0.00692204
0.00757799
0.00827588
0.00896531
0.00962192
0.0102433
0.0108394
0.0114193
0.0119777
0.0124865
0.0128975
0.013158
0.0132293
0.0130999
0.0127888
0.0123606
0.0121954
0.0135509
0.0181263
0.0232313
0.0256974
0.0244931
0.0206072
0.0167058
0.014703
0.0135152
0.0120623
0.0104374
0.00889967
0.00771994
0.00704416
0.00684006
0.00696801
0.00729156
0.00773571
0.00825894
0.00884088
0.00947606
0.0101658
0.0109118
0.0117109
0.0125514
0.0134104
0.0142536
0.015035
0.0156972
0.0161714
0.0163761
0.0162163
0.0155821
0.0143522
0.0124152
0.00974825
0.00682211
0.00595529
0.00911472
0.0146959
0.0226925
0.00857373
0.0090016
0.00687758
0.00584605
0.00599136
0.00661858
0.0071438
0.00736988
0.00736897
0.00791124
0.0095461
0.0114039
0.0129661
0.0141588
0.0150215
0.015607
0.0159708
0.0161755
0.0162892
0.016374
0.0164694
0.0165798
0.0166749
0.0167031
0.0166089
0.0163471
0.0158921
0.015241
0.0144108
0.0134376
0.0123665
0.0112439
0.0101097
0.00899286
0.00791589
0.00690598
0.00600676
0.00529099
0.00486408
0.0047437
0.00499982
0.00554882
0.0062841
0.00710654
0.00793999
0.00873818
0.00948334
0.010179
0.0108379
0.0114679
0.0120597
0.0125805
0.0129799
0.0132071
0.013229
0.013041
0.0126716
0.0122448
0.0124814
0.0151837
0.0204858
0.0250959
0.0267363
0.0247586
0.0204631
0.0166424
0.0147714
0.0136066
0.0121638
0.0105354
0.00898248
0.00777373
0.00705708
0.00680927
0.00689918
0.00719208
0.0076075
0.00810505
0.0086615
0.00927011
0.0099324
0.0106519
0.0114283
0.0122537
0.0131093
0.0139651
0.0147798
0.0155014
0.0160672
0.0164035
0.0164243
0.0160305
0.0151108
0.0135502
0.0112744
0.00844823
0.00644509
0.00835185
0.0134505
0.0207941
0.0082545
0.00786858
0.0048096
0.00395056
0.00440886
0.00494915
0.00515679
0.00495049
0.0048961
0.00722128
0.00991074
0.0118803
0.0132075
0.0140622
0.0145814
0.0148675
0.0150108
0.0150995
0.0152098
0.0153862
0.0156262
0.015884
0.01609
0.0161734
0.016076
0.0157602
0.0152151
0.0144529
0.0135069
0.0124297
0.011276
0.0100965
0.00892603
0.00777872
0.00666143
0.00558973
0.00460825
0.00383239
0.00341614
0.00348226
0.0040195
0.00484293
0.00579691
0.0067803
0.00773054
0.0086158
0.00942944
0.0101819
0.0108878
0.0115523
0.0121601
0.0126726
0.0130374
0.0132069
0.0131553
0.0128867
0.0124469
0.0121045
0.0131134
0.0171726
0.0225699
0.0265895
0.0275204
0.0249239
0.0202971
0.0164993
0.0147152
0.0136068
0.012199
0.010581
0.00901515
0.00777118
0.00700528
0.00670843
0.00675963
0.00702487
0.00741517
0.00789083
0.00842501
0.00900883
0.00964338
0.0103334
0.0110814
0.0118832
0.0127241
0.0135785
0.0144094
0.0151697
0.0158021
0.0162395
0.0164035
0.0162041
0.0155403
0.0143036
0.0123995
0.00984259
0.00731942
0.00758853
0.0118585
0.0184598
0.00862028
0.00694287
0.00334064
0.0028456
0.00332509
0.00354305
0.00306072
0.00204345
0.00400842
0.00852971
0.0109649
0.0123974
0.0132351
0.0136751
0.0138603
0.0139127
0.0139444
0.0140501
0.0142821
0.0146321
0.015038
0.0154117
0.015667
0.0157355
0.0155693
0.0151454
0.0144704
0.0135726
0.0125044
0.0113366
0.0101301
0.00893566
0.00777382
0.00663242
0.00549614
0.00435762
0.00324292
0.00230374
0.00181575
0.00229397
0.00327775
0.00440912
0.00555567
0.00665787
0.00768372
0.00862127
0.0094756
0.010265
0.0110035
0.0116812
0.012278
0.012753
0.0130542
0.0131411
0.0129971
0.0126341
0.0121415
0.0120889
0.0142689
0.0191117
0.0242853
0.0277078
0.0280659
0.0250049
0.0201062
0.016269
0.0145452
0.0135248
0.012175
0.0105799
0.00900175
0.00771398
0.00688669
0.0065314
0.00654075
0.00678102
0.00715024
0.00760883
0.00812585
0.00868917
0.00929851
0.00995916
0.0106761
0.0114487
0.0122667
0.0131085
0.0139412
0.0147218
0.0153981
0.0159083
0.0161805
0.0161316
0.015668
0.014688
0.0130916
0.0108217
0.00815201
0.00696321
0.00999713
0.0157827