/*--------------------------------*- C++ -*----------------------------------*\
| =========                 |                                                 |
| \\      /  F ield         | OpenFOAM: The Open Source CFD Toolbox           |
|  \\    /   O peration     | Version:  4.1                                   |
|   \\  /    A nd           | Web:      www.OpenFOAM.org                      |
|    \\/     M anipulation  |                                                 |
\*---------------------------------------------------------------------------*/
FoamFile
{
    version     2.0;
    format      ascii;
    class       volScalarField;
    location    "1000";
    object      p;
}
// * * * * * * * * * * * * * * * * * * * * * * * * * * * * * * * * * * * * * //

dimensions      [0 2 -2 0 0 0 0];

internalField   nonuniform List<scalar> 
1600
(
0
-3.04755e-05
-4.09661e-05
-3.85956e-05
-2.11312e-05
8.78991e-06
4.22216e-05
7.07912e-05
9.09091e-05
0.000102469
0.000106411
0.000106983
0.000104886
0.0001024
0.000100444
9.97252e-05
0.000101366
0.000100679
8.50841e-05
7.74563e-05
5.80257e-05
7.17936e-05
9.36481e-05
0.000114408
0.000123119
0.000124586
0.000125193
0.00012652
0.000129287
0.000131266
0.000130499
0.000124376
0.000111761
9.43164e-05
7.65104e-05
6.31615e-05
5.63416e-05
5.55343e-05
5.82983e-05
7.28283e-05
-0.0984089
-0.098449
-0.0984656
-0.098468
-0.0984538
-0.0984256
-0.0983931
-0.098365
-0.098345
-0.0983325
-0.0983245
-0.0983206
-0.0983193
-0.0983183
-0.0983163
-0.0983134
-0.0983105
-0.0983086
-0.0983099
-0.0983088
-0.0983222
-0.098343
-0.0983373
-0.0983215
-0.0983134
-0.0983106
-0.0983067
-0.0983014
-0.0982966
-0.0982943
-0.0982956
-0.0983024
-0.0983153
-0.0983323
-0.0983486
-0.0983592
-0.098362
-0.0983575
-0.0983477
-0.0983221
-0.196847
-0.196893
-0.196913
-0.196917
-0.196903
-0.196875
-0.196842
-0.196814
-0.196795
-0.196782
-0.196774
-0.196771
-0.196769
-0.196768
-0.196767
-0.196764
-0.19676
-0.196755
-0.196747
-0.196743
-0.19674
-0.196771
-0.196785
-0.196769
-0.196762
-0.196759
-0.196755
-0.196749
-0.196744
-0.196741
-0.196742
-0.196749
-0.196762
-0.196779
-0.196796
-0.196807
-0.196809
-0.196801
-0.196787
-0.196752
-0.2953
-0.295344
-0.295363
-0.295368
-0.295353
-0.295324
-0.295291
-0.295264
-0.295244
-0.295231
-0.295224
-0.295221
-0.29522
-0.295219
-0.295217
-0.295214
-0.29521
-0.295204
-0.295194
-0.295188
-0.295174
-0.295202
-0.29523
-0.295215
-0.295209
-0.295206
-0.295202
-0.295196
-0.29519
-0.295188
-0.295189
-0.295195
-0.295209
-0.295226
-0.295243
-0.295254
-0.295256
-0.295249
-0.295234
-0.295197
-0.393758
-0.393798
-0.393814
-0.393818
-0.393802
-0.393772
-0.39374
-0.393713
-0.393693
-0.393681
-0.393674
-0.393671
-0.393671
-0.39367
-0.393668
-0.393665
-0.393661
-0.393654
-0.393644
-0.393637
-0.393616
-0.393638
-0.39367
-0.393661
-0.393655
-0.393652
-0.393648
-0.393643
-0.393637
-0.393634
-0.393636
-0.393643
-0.393656
-0.393674
-0.393691
-0.393702
-0.393704
-0.393697
-0.393684
-0.393649
-0.492216
-0.492251
-0.492264
-0.492267
-0.49225
-0.49222
-0.492189
-0.492162
-0.492143
-0.492131
-0.492124
-0.492122
-0.492122
-0.492121
-0.49212
-0.492117
-0.492112
-0.492105
-0.492095
-0.492086
-0.492065
-0.49208
-0.492108
-0.492107
-0.4921
-0.492098
-0.492095
-0.49209
-0.492084
-0.492081
-0.492084
-0.492091
-0.492104
-0.492122
-0.49214
-0.492151
-0.492153
-0.492146
-0.492135
-0.492103
-0.590673
-0.590703
-0.590714
-0.590716
-0.590698
-0.590667
-0.590637
-0.590611
-0.590592
-0.590581
-0.590575
-0.590574
-0.590573
-0.590573
-0.590572
-0.590569
-0.590563
-0.590556
-0.590546
-0.590537
-0.590519
-0.590526
-0.590546
-0.590552
-0.590544
-0.590544
-0.590542
-0.590537
-0.590532
-0.590529
-0.590532
-0.59054
-0.590554
-0.590572
-0.590589
-0.5906
-0.590603
-0.590596
-0.590587
-0.590558
-0.689129
-0.689153
-0.689162
-0.689163
-0.689144
-0.689114
-0.689084
-0.689059
-0.689042
-0.689032
-0.689027
-0.689026
-0.689026
-0.689026
-0.689024
-0.689021
-0.689015
-0.689008
-0.688998
-0.688988
-0.688974
-0.688973
-0.688987
-0.688993
-0.688988
-0.68899
-0.688989
-0.688985
-0.68898
-0.688978
-0.688982
-0.688991
-0.689004
-0.689022
-0.689039
-0.68905
-0.689053
-0.689046
-0.689039
-0.689014
-0.787581
-0.787602
-0.787609
-0.787606
-0.787588
-0.78756
-0.787531
-0.787508
-0.787492
-0.787483
-0.78748
-0.787479
-0.787479
-0.787479
-0.787478
-0.787474
-0.787468
-0.787461
-0.787451
-0.787441
-0.787429
-0.787424
-0.787431
-0.787435
-0.787433
-0.787437
-0.787437
-0.787434
-0.78743
-0.787429
-0.787433
-0.787442
-0.787455
-0.787472
-0.787489
-0.7875
-0.787503
-0.787497
-0.787491
-0.787469
-0.88603
-0.886049
-0.886054
-0.88605
-0.886032
-0.886005
-0.885978
-0.885957
-0.885943
-0.885936
-0.885933
-0.885933
-0.885933
-0.885933
-0.885932
-0.885928
-0.885922
-0.885914
-0.885905
-0.885895
-0.885884
-0.885875
-0.885878
-0.885879
-0.885879
-0.885885
-0.885887
-0.885885
-0.885881
-0.88588
-0.885885
-0.885894
-0.885907
-0.885924
-0.88594
-0.885951
-0.885954
-0.885948
-0.885943
-0.885924
-0.984476
-0.984495
-0.984497
-0.984495
-0.984474
-0.984448
-0.984424
-0.984405
-0.984394
-0.984388
-0.984387
-0.984387
-0.984388
-0.984388
-0.984386
-0.984382
-0.984376
-0.984368
-0.984359
-0.984349
-0.984339
-0.984329
-0.984328
-0.984325
-0.984326
-0.984334
-0.984337
-0.984336
-0.984334
-0.984333
-0.984337
-0.984347
-0.98436
-0.984377
-0.984392
-0.984402
-0.984405
-0.9844
-0.984396
-0.984379
-1.08292
-1.08294
-1.08294
-1.08294
-1.08292
-1.08289
-1.08287
-1.08285
-1.08285
-1.08284
-1.08284
-1.08284
-1.08284
-1.08284
-1.08284
-1.08284
-1.08283
-1.08282
-1.08281
-1.0828
-1.08279
-1.08278
-1.08278
-1.08277
-1.08278
-1.08278
-1.08279
-1.08279
-1.08279
-1.08279
-1.08279
-1.0828
-1.08281
-1.08283
-1.08284
-1.08285
-1.08286
-1.08285
-1.08285
-1.08283
-1.18135
-1.18138
-1.18138
-1.18138
-1.18135
-1.18133
-1.18131
-1.1813
-1.1813
-1.18129
-1.1813
-1.1813
-1.1813
-1.1813
-1.1813
-1.18129
-1.18129
-1.18128
-1.18127
-1.18126
-1.18125
-1.18124
-1.18123
-1.18122
-1.18123
-1.18124
-1.18124
-1.18124
-1.18124
-1.18124
-1.18125
-1.18125
-1.18127
-1.18128
-1.1813
-1.18131
-1.18131
-1.1813
-1.1813
-1.18129
-1.27978
-1.27982
-1.27982
-1.27981
-1.27979
-1.27977
-1.27976
-1.27975
-1.27975
-1.27975
-1.27975
-1.27975
-1.27976
-1.27976
-1.27975
-1.27975
-1.27974
-1.27973
-1.27972
-1.27971
-1.27971
-1.27969
-1.27969
-1.27967
-1.27968
-1.27969
-1.27969
-1.2797
-1.2797
-1.2797
-1.2797
-1.27971
-1.27972
-1.27974
-1.27975
-1.27976
-1.27976
-1.27976
-1.27975
-1.27974
-1.37821
-1.37825
-1.37825
-1.37824
-1.37823
-1.37821
-1.3782
-1.3782
-1.3782
-1.3782
-1.37821
-1.37821
-1.37821
-1.37821
-1.37821
-1.37821
-1.3782
-1.37819
-1.37818
-1.37817
-1.37816
-1.37815
-1.37814
-1.37813
-1.37813
-1.37814
-1.37815
-1.37815
-1.37815
-1.37815
-1.37815
-1.37816
-1.37818
-1.37819
-1.37821
-1.37821
-1.37821
-1.37821
-1.37821
-1.37819
-1.47663
-1.47667
-1.47668
-1.47667
-1.47666
-1.47665
-1.47665
-1.47665
-1.47665
-1.47666
-1.47666
-1.47667
-1.47667
-1.47667
-1.47667
-1.47666
-1.47666
-1.47665
-1.47664
-1.47663
-1.47662
-1.47661
-1.4766
-1.47658
-1.47658
-1.4766
-1.4766
-1.47661
-1.47661
-1.47661
-1.47661
-1.47662
-1.47663
-1.47665
-1.47666
-1.47667
-1.47667
-1.47666
-1.47666
-1.47665
-1.57504
-1.57509
-1.5751
-1.5751
-1.57509
-1.57509
-1.57509
-1.5751
-1.57511
-1.57511
-1.57512
-1.57513
-1.57513
-1.57513
-1.57513
-1.57512
-1.57511
-1.57511
-1.57509
-1.57508
-1.57507
-1.57506
-1.57505
-1.57504
-1.57504
-1.57505
-1.57506
-1.57506
-1.57506
-1.57506
-1.57507
-1.57508
-1.57509
-1.5751
-1.57512
-1.57512
-1.57512
-1.57511
-1.57511
-1.5751
-1.67346
-1.6735
-1.67352
-1.67352
-1.67353
-1.67353
-1.67354
-1.67355
-1.67356
-1.67357
-1.67358
-1.67358
-1.67359
-1.67359
-1.67359
-1.67358
-1.67357
-1.67356
-1.67355
-1.67354
-1.67353
-1.67352
-1.67351
-1.67349
-1.67349
-1.67351
-1.67351
-1.67352
-1.67352
-1.67352
-1.67352
-1.67353
-1.67355
-1.67356
-1.67357
-1.67357
-1.67357
-1.67356
-1.67356
-1.67355
-1.77187
-1.77191
-1.77194
-1.77195
-1.77197
-1.77198
-1.77199
-1.772
-1.77201
-1.77202
-1.77203
-1.77204
-1.77205
-1.77205
-1.77205
-1.77204
-1.77203
-1.77202
-1.77201
-1.772
-1.77199
-1.77198
-1.77197
-1.77195
-1.77195
-1.77196
-1.77197
-1.77197
-1.77197
-1.77197
-1.77198
-1.77199
-1.772
-1.77202
-1.77203
-1.77203
-1.77202
-1.77201
-1.77201
-1.772
-1.87028
-1.87033
-1.87036
-1.87039
-1.8704
-1.87042
-1.87043
-1.87045
-1.87046
-1.87048
-1.87049
-1.8705
-1.87051
-1.87051
-1.87051
-1.8705
-1.87049
-1.87048
-1.87047
-1.87045
-1.87044
-1.87043
-1.87042
-1.8704
-1.87041
-1.87042
-1.87043
-1.87043
-1.87043
-1.87043
-1.87043
-1.87044
-1.87046
-1.87047
-1.87048
-1.87048
-1.87047
-1.87046
-1.87046
-1.87045
-1.96871
-1.96875
-1.96879
-1.96882
-1.96884
-1.96886
-1.96888
-1.9689
-1.96892
-1.96894
-1.96895
-1.96896
-1.96897
-1.96897
-1.96896
-1.96896
-1.96895
-1.96894
-1.96892
-1.96891
-1.9689
-1.96889
-1.96888
-1.96886
-1.96886
-1.96887
-1.96888
-1.96889
-1.96888
-1.96888
-1.96888
-1.9689
-1.96891
-1.96893
-1.96893
-1.96893
-1.96892
-1.96891
-1.96891
-1.9689
-2.06715
-2.06718
-2.06723
-2.06726
-2.06729
-2.06731
-2.06733
-2.06735
-2.06737
-2.06739
-2.06741
-2.06742
-2.06743
-2.06743
-2.06742
-2.06742
-2.06741
-2.06739
-2.06738
-2.06737
-2.06736
-2.06735
-2.06734
-2.06731
-2.06732
-2.06733
-2.06734
-2.06734
-2.06734
-2.06734
-2.06734
-2.06735
-2.06737
-2.06738
-2.06739
-2.06738
-2.06737
-2.06736
-2.06736
-2.06735
-2.16561
-2.16563
-2.16567
-2.1657
-2.16573
-2.16576
-2.16578
-2.1658
-2.16582
-2.16585
-2.16586
-2.16588
-2.16589
-2.16589
-2.16588
-2.16587
-2.16586
-2.16585
-2.16584
-2.16582
-2.16581
-2.1658
-2.16579
-2.16577
-2.16577
-2.16578
-2.16579
-2.16579
-2.16579
-2.16579
-2.16579
-2.1658
-2.16582
-2.16584
-2.16584
-2.16583
-2.16582
-2.16581
-2.1658
-2.1658
-2.26406
-2.26409
-2.26412
-2.26415
-2.26418
-2.2642
-2.26423
-2.26425
-2.26428
-2.2643
-2.26432
-2.26433
-2.26434
-2.26434
-2.26434
-2.26433
-2.26432
-2.26431
-2.26429
-2.26428
-2.26427
-2.26426
-2.26424
-2.26422
-2.26423
-2.26424
-2.26424
-2.26425
-2.26424
-2.26424
-2.26424
-2.26426
-2.26427
-2.26429
-2.26429
-2.26428
-2.26427
-2.26425
-2.26425
-2.26424
-2.36252
-2.36254
-2.36257
-2.3626
-2.36262
-2.36265
-2.36268
-2.3627
-2.36273
-2.36275
-2.36277
-2.36279
-2.3628
-2.3628
-2.3628
-2.36279
-2.36278
-2.36276
-2.36275
-2.36273
-2.36272
-2.36271
-2.36269
-2.36267
-2.36268
-2.36269
-2.3627
-2.3627
-2.3627
-2.36269
-2.36269
-2.36271
-2.36272
-2.36274
-2.36274
-2.36273
-2.36271
-2.3627
-2.36269
-2.36269
-2.46098
-2.46099
-2.46102
-2.46104
-2.46107
-2.4611
-2.46113
-2.46115
-2.46118
-2.4612
-2.46122
-2.46124
-2.46125
-2.46125
-2.46125
-2.46124
-2.46123
-2.46122
-2.4612
-2.46119
-2.46118
-2.46117
-2.46114
-2.46112
-2.46113
-2.46114
-2.46115
-2.46115
-2.46115
-2.46114
-2.46114
-2.46115
-2.46117
-2.46118
-2.46118
-2.46117
-2.46116
-2.46114
-2.46114
-2.46113
-2.55943
-2.55945
-2.55947
-2.55949
-2.55952
-2.55955
-2.55957
-2.5596
-2.55963
-2.55965
-2.55967
-2.55968
-2.5597
-2.5597
-2.5597
-2.5597
-2.55969
-2.55967
-2.55966
-2.55964
-2.55963
-2.55962
-2.55959
-2.55957
-2.55958
-2.55959
-2.5596
-2.5596
-2.55959
-2.55959
-2.55958
-2.5596
-2.55962
-2.55962
-2.55962
-2.55961
-2.5596
-2.55958
-2.55958
-2.55958
-2.65788
-2.6579
-2.65792
-2.65794
-2.65797
-2.65799
-2.65802
-2.65805
-2.65807
-2.65809
-2.65811
-2.65813
-2.65814
-2.65815
-2.65815
-2.65815
-2.65814
-2.65812
-2.65811
-2.65809
-2.65808
-2.65806
-2.65803
-2.65802
-2.65803
-2.65804
-2.65805
-2.65805
-2.65804
-2.65803
-2.65803
-2.65804
-2.65806
-2.65807
-2.65806
-2.65805
-2.65804
-2.65803
-2.65803
-2.65802
-2.75634
-2.75635
-2.75636
-2.75639
-2.75641
-2.75644
-2.75647
-2.75649
-2.75652
-2.75654
-2.75656
-2.75657
-2.75659
-2.7566
-2.7566
-2.7566
-2.75659
-2.75657
-2.75656
-2.75654
-2.75653
-2.75651
-2.75648
-2.75647
-2.75648
-2.75649
-2.75649
-2.7565
-2.75649
-2.75647
-2.75647
-2.75648
-2.7565
-2.7565
-2.7565
-2.75649
-2.75648
-2.75647
-2.75647
-2.75645
-2.85479
-2.8548
-2.85481
-2.85484
-2.85486
-2.85489
-2.85491
-2.85494
-2.85496
-2.85498
-2.855
-2.85502
-2.85503
-2.85504
-2.85504
-2.85504
-2.85504
-2.85502
-2.85501
-2.85499
-2.85497
-2.85494
-2.85492
-2.85491
-2.85492
-2.85493
-2.85494
-2.85494
-2.85493
-2.85491
-2.8549
-2.85492
-2.85493
-2.85494
-2.85494
-2.85493
-2.85492
-2.85491
-2.85491
-2.85489
-2.95323
-2.95324
-2.95326
-2.95328
-2.95331
-2.95333
-2.95336
-2.95338
-2.9534
-2.95342
-2.95344
-2.95346
-2.95347
-2.95348
-2.95349
-2.95349
-2.95348
-2.95347
-2.95345
-2.95343
-2.95341
-2.95338
-2.95335
-2.95335
-2.95337
-2.95338
-2.95339
-2.95338
-2.95337
-2.95334
-2.95333
-2.95335
-2.95337
-2.95338
-2.95338
-2.95337
-2.95336
-2.95335
-2.95335
-2.95332
-3.05168
-3.05169
-3.05171
-3.05173
-3.05175
-3.05178
-3.0518
-3.05182
-3.05184
-3.05186
-3.05188
-3.0519
-3.05191
-3.05193
-3.05193
-3.05193
-3.05193
-3.05192
-3.0519
-3.05187
-3.05184
-3.05181
-3.05178
-3.05179
-3.05181
-3.05182
-3.05183
-3.05182
-3.0518
-3.05177
-3.05176
-3.05178
-3.0518
-3.05182
-3.05182
-3.05181
-3.0518
-3.05179
-3.05179
-3.05175
-3.15013
-3.15014
-3.15015
-3.15018
-3.1502
-3.15022
-3.15024
-3.15026
-3.15028
-3.1503
-3.15032
-3.15034
-3.15035
-3.15037
-3.15037
-3.15038
-3.15037
-3.15036
-3.15034
-3.15031
-3.15027
-3.15023
-3.15021
-3.15022
-3.15025
-3.15027
-3.15027
-3.15026
-3.15024
-3.1502
-3.15019
-3.15021
-3.15024
-3.15025
-3.15026
-3.15025
-3.15024
-3.15022
-3.15022
-3.15017
-3.24857
-3.24859
-3.2486
-3.24862
-3.24864
-3.24866
-3.24869
-3.24871
-3.24873
-3.24874
-3.24876
-3.24878
-3.24879
-3.24881
-3.24881
-3.24882
-3.24881
-3.2488
-3.24878
-3.24874
-3.2487
-3.24865
-3.24863
-3.24865
-3.24869
-3.24871
-3.24871
-3.2487
-3.24867
-3.24862
-3.24861
-3.24864
-3.24867
-3.24869
-3.24869
-3.24869
-3.24867
-3.24866
-3.24865
-3.24859
-3.34702
-3.34703
-3.34705
-3.34707
-3.34709
-3.34711
-3.34713
-3.34715
-3.34717
-3.34719
-3.3472
-3.34722
-3.34723
-3.34725
-3.34725
-3.34726
-3.34725
-3.34724
-3.34721
-3.34717
-3.34712
-3.34707
-3.34705
-3.34707
-3.34712
-3.34715
-3.34715
-3.34713
-3.34709
-3.34704
-3.34703
-3.34706
-3.3471
-3.34712
-3.34713
-3.34713
-3.34711
-3.34709
-3.34707
-3.34699
-3.44547
-3.44548
-3.44549
-3.44551
-3.44553
-3.44555
-3.44557
-3.44559
-3.44561
-3.44563
-3.44564
-3.44566
-3.44567
-3.44568
-3.44569
-3.44569
-3.44569
-3.44567
-3.44564
-3.4456
-3.44554
-3.44548
-3.44547
-3.44549
-3.44555
-3.44558
-3.44558
-3.44556
-3.44552
-3.44546
-3.44545
-3.44548
-3.44552
-3.44555
-3.44557
-3.44556
-3.44555
-3.44552
-3.44548
-3.44539
-3.54392
-3.54393
-3.54394
-3.54396
-3.54398
-3.544
-3.54402
-3.54404
-3.54405
-3.54407
-3.54409
-3.5441
-3.54411
-3.54412
-3.54413
-3.54413
-3.54413
-3.54411
-3.54408
-3.54403
-3.54396
-3.54389
-3.54388
-3.54391
-3.54398
-3.54401
-3.54401
-3.54399
-3.54394
-3.54388
-3.54386
-3.54391
-3.54395
-3.54398
-3.544
-3.544
-3.54398
-3.54395
-3.54388
-3.54378
-3.64237
-3.64238
-3.64239
-3.64241
-3.64243
-3.64245
-3.64247
-3.64248
-3.6425
-3.64252
-3.64253
-3.64254
-3.64256
-3.64257
-3.64257
-3.64257
-3.64256
-3.64254
-3.64251
-3.64245
-3.64238
-3.64231
-3.64228
-3.64233
-3.6424
-3.64244
-3.64244
-3.64242
-3.64236
-3.6423
-3.64228
-3.64233
-3.64238
-3.64241
-3.64243
-3.64243
-3.64241
-3.64237
-3.64228
-3.64217
-3.74082
-3.74083
-3.74084
-3.74086
-3.74087
-3.74089
-3.74091
-3.74093
-3.74095
-3.74096
-3.74098
-3.74099
-3.741
-3.74101
-3.74101
-3.74101
-3.741
-3.74098
-3.74094
-3.74088
-3.7408
-3.74073
-3.74069
-3.74075
-3.74083
-3.74087
-3.74088
-3.74085
-3.74079
-3.74072
-3.74071
-3.74076
-3.7408
-3.74084
-3.74086
-3.74086
-3.74084
-3.74079
-3.74068
-3.74056
-3.83927
-3.83928
-3.83929
-3.83931
-3.83933
-3.83935
-3.83936
-3.83938
-3.8394
-3.83942
-3.83943
-3.83944
-3.83945
-3.83945
-3.83946
-3.83945
-3.83944
-3.83942
-3.83938
-3.83932
-3.83923
-3.83915
-3.8391
-3.83917
-3.83926
-3.83931
-3.83931
-3.83928
-3.83923
-3.83917
-3.83915
-3.83919
-3.83924
-3.83927
-3.83929
-3.8393
-3.83927
-3.83921
-3.83908
-3.83895
)
;

boundaryField
{
    floor
    {
        type            calculated;
        value           nonuniform List<scalar> 
40
(
0.0491944
0.0491682
0.0491607
0.0491658
0.0491859
0.0492177
0.0492522
0.0492811
0.0493011
0.0493122
0.0493123
0.0493094
0.0493041
0.0492981
0.0492922
0.0492878
0.0492889
0.0492876
0.0492642
0.0492504
0.0492318
0.0492724
0.0493009
0.0493254
0.0493345
0.0493352
0.0493327
0.04933
0.0493311
0.049333
0.049333
0.0493276
0.0493151
0.049297
0.0492775
0.0492615
0.0492517
0.0492479
0.0492475
0.049258
)
;
    }
    ceiling
    {
        type            calculated;
        value           nonuniform List<scalar> 
40
(
-3.8885
-3.88851
-3.88852
-3.88853
-3.88855
-3.88857
-3.88859
-3.88861
-3.88863
-3.88864
-3.88865
-3.88867
-3.88867
-3.88868
-3.88868
-3.88868
-3.88867
-3.88864
-3.8886
-3.88854
-3.88845
-3.88837
-3.88832
-3.88839
-3.88848
-3.88853
-3.88854
-3.88851
-3.88845
-3.88839
-3.88837
-3.88841
-3.88846
-3.88849
-3.88851
-3.88851
-3.88849
-3.88843
-3.8883
-3.88817
)
;
    }
    fixedWalls
    {
        type            calculated;
        value           nonuniform List<scalar> 
80
(
-6.93889e-18
-0.0984089
-0.196847
-0.2953
-0.393758
-0.492216
-0.590673
-0.689129
-0.787581
-0.88603
-0.984476
-1.08292
-1.18135
-1.27978
-1.37821
-1.47663
-1.57504
-1.67346
-1.77187
-1.87028
-1.96871
-2.06715
-2.16561
-2.26406
-2.36252
-2.46098
-2.55943
-2.65788
-2.75634
-2.85479
-2.95323
-3.05168
-3.15013
-3.24857
-3.34702
-3.44547
-3.54392
-3.64237
-3.74082
-3.83927
7.28283e-05
-0.0983221
-0.196752
-0.295197
-0.393649
-0.492103
-0.590558
-0.689014
-0.787469
-0.885924
-0.984379
-1.08283
-1.18129
-1.27974
-1.37819
-1.47665
-1.5751
-1.67355
-1.772
-1.87045
-1.9689
-2.06735
-2.1658
-2.26424
-2.36269
-2.46113
-2.55958
-2.65802
-2.75645
-2.85489
-2.95332
-3.05175
-3.15017
-3.24859
-3.34699
-3.44539
-3.54378
-3.64217
-3.74056
-3.83895
)
;
    }
    frontAndBack
    {
        type            empty;
    }
}


// ************************************************************************* //
