/*--------------------------------*- C++ -*----------------------------------*\
| =========                 |                                                 |
| \\      /  F ield         | OpenFOAM: The Open Source CFD Toolbox           |
|  \\    /   O peration     | Version:  4.1                                   |
|   \\  /    A nd           | Web:      www.OpenFOAM.org                      |
|    \\/     M anipulation  |                                                 |
\*---------------------------------------------------------------------------*/
FoamFile
{
    version     2.0;
    format      ascii;
    class       volScalarField;
    location    "1000";
    object      p;
}
// * * * * * * * * * * * * * * * * * * * * * * * * * * * * * * * * * * * * * //

dimensions      [0 2 -2 0 0 0 0];

internalField   nonuniform List<scalar> 
5000
(
0
-3.92706e-06
-7.48016e-06
-1.27537e-05
-1.76832e-05
-2.10891e-05
-2.30368e-05
-2.39157e-05
-2.41848e-05
-2.41663e-05
-2.39289e-05
-2.33044e-05
-2.19722e-05
-1.95476e-05
-1.56418e-05
-9.88823e-06
-1.99871e-06
8.11413e-06
2.02801e-05
3.41113e-05
4.90399e-05
6.43736e-05
7.93697e-05
9.33205e-05
0.000105637
0.000115906
0.000123898
0.000129477
0.000132524
0.000133322
0.000133071
0.000130862
0.000127232
0.000122716
0.000117649
0.000112276
0.000106823
0.000101487
9.64284e-05
9.17693e-05
8.75955e-05
8.39576e-05
8.08702e-05
7.83321e-05
7.63265e-05
7.48295e-05
7.38187e-05
7.32667e-05
7.30997e-05
7.31097e-05
7.28544e-05
7.1518e-05
6.78882e-05
6.07218e-05
5.00586e-05
3.90537e-05
3.49361e-05
4.44117e-05
3.80183e-05
2.14736e-05
3.2168e-05
5.65947e-05
8.35392e-05
9.73058e-05
8.93079e-05
8.00842e-05
8.89337e-05
8.60039e-05
7.02022e-05
5.93654e-05
6.38985e-05
7.8314e-05
9.38994e-05
0.000100626
0.000102671
0.000103894
0.000105031
0.000106022
0.000106619
0.000106633
0.000106144
0.000104892
0.000102365
9.82696e-05
9.2457e-05
8.49785e-05
7.60919e-05
6.62303e-05
5.59762e-05
4.60303e-05
3.7148e-05
3.0032e-05
2.51979e-05
2.28165e-05
2.28453e-05
2.50826e-05
2.93e-05
3.54037e-05
4.36799e-05
5.58529e-05
-0.0984014
-0.0984088
-0.0984142
-0.0984201
-0.0984259
-0.0984315
-0.0984369
-0.098442
-0.0984466
-0.0984508
-0.0984546
-0.0984576
-0.0984595
-0.09846
-0.0984586
-0.098455
-0.0984489
-0.0984403
-0.0984294
-0.0984165
-0.0984024
-0.0983877
-0.0983731
-0.0983595
-0.0983474
-0.0983373
-0.0983296
-0.0983242
-0.0983207
-0.0983183
-0.0983178
-0.0983192
-0.098322
-0.0983257
-0.09833
-0.0983345
-0.098339
-0.0983434
-0.0983473
-0.0983507
-0.0983534
-0.0983554
-0.0983567
-0.0983574
-0.0983573
-0.0983567
-0.0983557
-0.0983542
-0.0983527
-0.0983514
-0.0983506
-0.0983509
-0.0983529
-0.0983575
-0.0983645
-0.0983719
-0.098375
-0.0983719
-0.0983962
-0.0984255
-0.0984283
-0.0984062
-0.0983776
-0.0983586
-0.0983508
-0.0983501
-0.0983405
-0.0983523
-0.0983584
-0.0983575
-0.098354
-0.0983437
-0.0983343
-0.098329
-0.0983266
-0.0983258
-0.0983259
-0.0983266
-0.098328
-0.0983299
-0.0983324
-0.0983357
-0.09834
-0.0983456
-0.0983525
-0.0983607
-0.09837
-0.09838
-0.0983902
-0.0983998
-0.0984081
-0.0984143
-0.0984178
-0.0984185
-0.0984165
-0.0984118
-0.0984049
-0.0983959
-0.0983849
-0.0983691
-0.196843
-0.196854
-0.196861
-0.196866
-0.196871
-0.196878
-0.196885
-0.196893
-0.196901
-0.196908
-0.196914
-0.196919
-0.196923
-0.196924
-0.196924
-0.196921
-0.196915
-0.196907
-0.196896
-0.196883
-0.196869
-0.196854
-0.19684
-0.196826
-0.196814
-0.196804
-0.196796
-0.19679
-0.196786
-0.196783
-0.196783
-0.196784
-0.196787
-0.19679
-0.196794
-0.196799
-0.196803
-0.196807
-0.196811
-0.196814
-0.196817
-0.196819
-0.19682
-0.196821
-0.19682
-0.196819
-0.196818
-0.196816
-0.196814
-0.196812
-0.196811
-0.19681
-0.196809
-0.196811
-0.196815
-0.196819
-0.196822
-0.196822
-0.196839
-0.196868
-0.196875
-0.196857
-0.196833
-0.196812
-0.196797
-0.196794
-0.196788
-0.196793
-0.196791
-0.196787
-0.196791
-0.196791
-0.196787
-0.196786
-0.196785
-0.196785
-0.196785
-0.196786
-0.196787
-0.196789
-0.196792
-0.196796
-0.1968
-0.196806
-0.196814
-0.196822
-0.196832
-0.196842
-0.196852
-0.196862
-0.19687
-0.196877
-0.19688
-0.19688
-0.196877
-0.196872
-0.196863
-0.196853
-0.196841
-0.196825
-0.295303
-0.295314
-0.29532
-0.295325
-0.295331
-0.295338
-0.295346
-0.295355
-0.295364
-0.295372
-0.295379
-0.295385
-0.295389
-0.295391
-0.295391
-0.295389
-0.295383
-0.295375
-0.295364
-0.295352
-0.295338
-0.295323
-0.295308
-0.295294
-0.295282
-0.295272
-0.295264
-0.295257
-0.295253
-0.29525
-0.295249
-0.29525
-0.295252
-0.295256
-0.29526
-0.295264
-0.295268
-0.295272
-0.295276
-0.295279
-0.295281
-0.295283
-0.295284
-0.295285
-0.295284
-0.295283
-0.295281
-0.295279
-0.295277
-0.295274
-0.295272
-0.295269
-0.295267
-0.295267
-0.295267
-0.295269
-0.29527
-0.295269
-0.295275
-0.295292
-0.295298
-0.295291
-0.295275
-0.295258
-0.295244
-0.295241
-0.295238
-0.295237
-0.295232
-0.295226
-0.29523
-0.295239
-0.295241
-0.295242
-0.295242
-0.295243
-0.295243
-0.295244
-0.295246
-0.295249
-0.295252
-0.295256
-0.295262
-0.295268
-0.295276
-0.295285
-0.295295
-0.295306
-0.295316
-0.295326
-0.295335
-0.295341
-0.295345
-0.295345
-0.295342
-0.295336
-0.295328
-0.295318
-0.295308
-0.295294
-0.393771
-0.39378
-0.393785
-0.393791
-0.393797
-0.393804
-0.393812
-0.393821
-0.39383
-0.393838
-0.393846
-0.393852
-0.393857
-0.39386
-0.39386
-0.393858
-0.393853
-0.393845
-0.393835
-0.393822
-0.393808
-0.393793
-0.393779
-0.393765
-0.393752
-0.393742
-0.393733
-0.393726
-0.393721
-0.393718
-0.393717
-0.393717
-0.39372
-0.393723
-0.393726
-0.39373
-0.393734
-0.393738
-0.393741
-0.393744
-0.393746
-0.393748
-0.393749
-0.393749
-0.393748
-0.393747
-0.393745
-0.393743
-0.39374
-0.393736
-0.393733
-0.393729
-0.393725
-0.393722
-0.39372
-0.393718
-0.393715
-0.39371
-0.393709
-0.393716
-0.393722
-0.39372
-0.393713
-0.393702
-0.393693
-0.39369
-0.39369
-0.393689
-0.393685
-0.393679
-0.393681
-0.393691
-0.393696
-0.393698
-0.3937
-0.393701
-0.393702
-0.393704
-0.393706
-0.393709
-0.393713
-0.393718
-0.393724
-0.393731
-0.39374
-0.393749
-0.39376
-0.393771
-0.393782
-0.393792
-0.393801
-0.393807
-0.393811
-0.393811
-0.393809
-0.393803
-0.393795
-0.393786
-0.393778
-0.393767
-0.492241
-0.492249
-0.492254
-0.492259
-0.492265
-0.492272
-0.49228
-0.492289
-0.492297
-0.492306
-0.492314
-0.492321
-0.492326
-0.492329
-0.49233
-0.492328
-0.492324
-0.492316
-0.492306
-0.492294
-0.49228
-0.492265
-0.49225
-0.492236
-0.492223
-0.492212
-0.492203
-0.492195
-0.49219
-0.492187
-0.492185
-0.492186
-0.492188
-0.492191
-0.492194
-0.492198
-0.492201
-0.492205
-0.492208
-0.49221
-0.492212
-0.492214
-0.492214
-0.492214
-0.492213
-0.492212
-0.492209
-0.492206
-0.492203
-0.492199
-0.492194
-0.492189
-0.492184
-0.492179
-0.492174
-0.492169
-0.492162
-0.492154
-0.492148
-0.492151
-0.492156
-0.492157
-0.492155
-0.49215
-0.492145
-0.492143
-0.492144
-0.492145
-0.492143
-0.49214
-0.492142
-0.492148
-0.492152
-0.492156
-0.492158
-0.49216
-0.492162
-0.492164
-0.492167
-0.492171
-0.492175
-0.492181
-0.492188
-0.492195
-0.492204
-0.492214
-0.492225
-0.492237
-0.492248
-0.492259
-0.492268
-0.492275
-0.492279
-0.492279
-0.492277
-0.492272
-0.492265
-0.492257
-0.49225
-0.492241
-0.590711
-0.590718
-0.590723
-0.590728
-0.590734
-0.590741
-0.590749
-0.590757
-0.590766
-0.590774
-0.590783
-0.59079
-0.590796
-0.5908
-0.590801
-0.5908
-0.590795
-0.590788
-0.590778
-0.590765
-0.590752
-0.590737
-0.590722
-0.590708
-0.590695
-0.590683
-0.590673
-0.590665
-0.59066
-0.590657
-0.590655
-0.590656
-0.590657
-0.59066
-0.590663
-0.590666
-0.59067
-0.590673
-0.590676
-0.590678
-0.590679
-0.59068
-0.590681
-0.59068
-0.590679
-0.590677
-0.590674
-0.590671
-0.590667
-0.590662
-0.590657
-0.590651
-0.590645
-0.590638
-0.590631
-0.590624
-0.590615
-0.590605
-0.590598
-0.590599
-0.590602
-0.590604
-0.590605
-0.590603
-0.590601
-0.590599
-0.5906
-0.590602
-0.590602
-0.590602
-0.590604
-0.590608
-0.590611
-0.590614
-0.590617
-0.590619
-0.590622
-0.590625
-0.590628
-0.590633
-0.590638
-0.590645
-0.590652
-0.59066
-0.59067
-0.59068
-0.590691
-0.590703
-0.590715
-0.590727
-0.590736
-0.590744
-0.590748
-0.590748
-0.590746
-0.590741
-0.590735
-0.590728
-0.590723
-0.590715
-0.689182
-0.689188
-0.689192
-0.689197
-0.689203
-0.68921
-0.689218
-0.689226
-0.689235
-0.689244
-0.689252
-0.68926
-0.689267
-0.689271
-0.689272
-0.689271
-0.689266
-0.689258
-0.689249
-0.689237
-0.689223
-0.689209
-0.689195
-0.68918
-0.689167
-0.689155
-0.689145
-0.689137
-0.689131
-0.689128
-0.689126
-0.689126
-0.689128
-0.68913
-0.689133
-0.689136
-0.689139
-0.689142
-0.689144
-0.689146
-0.689148
-0.689148
-0.689148
-0.689147
-0.689145
-0.689143
-0.68914
-0.689136
-0.689131
-0.689126
-0.68912
-0.689114
-0.689107
-0.6891
-0.689092
-0.689084
-0.689075
-0.689065
-0.689058
-0.689057
-0.689058
-0.68906
-0.689061
-0.689061
-0.689059
-0.689058
-0.689058
-0.68906
-0.689062
-0.689064
-0.689066
-0.689069
-0.689072
-0.689075
-0.689077
-0.68908
-0.689083
-0.689087
-0.689091
-0.689096
-0.689102
-0.689109
-0.689117
-0.689125
-0.689135
-0.689146
-0.689158
-0.68917
-0.689183
-0.689194
-0.689205
-0.689212
-0.689217
-0.689218
-0.689216
-0.689211
-0.689206
-0.6892
-0.689195
-0.689189
-0.787653
-0.787658
-0.787661
-0.787666
-0.787672
-0.787679
-0.787686
-0.787695
-0.787704
-0.787713
-0.787722
-0.78773
-0.787737
-0.787742
-0.787743
-0.787741
-0.787736
-0.787728
-0.787718
-0.787707
-0.787694
-0.78768
-0.787666
-0.787652
-0.787639
-0.787627
-0.787617
-0.787609
-0.787603
-0.787599
-0.787598
-0.787598
-0.787599
-0.787601
-0.787604
-0.787607
-0.78761
-0.787612
-0.787614
-0.787616
-0.787617
-0.787617
-0.787616
-0.787615
-0.787613
-0.78761
-0.787606
-0.787602
-0.787597
-0.787592
-0.787585
-0.787579
-0.787571
-0.787564
-0.787556
-0.787548
-0.78754
-0.787531
-0.787525
-0.787522
-0.787522
-0.787522
-0.787522
-0.787521
-0.78752
-0.787518
-0.787517
-0.78752
-0.787523
-0.787525
-0.787528
-0.78753
-0.787533
-0.787536
-0.787539
-0.787542
-0.787545
-0.787549
-0.787554
-0.787559
-0.787566
-0.787573
-0.787581
-0.78759
-0.787601
-0.787612
-0.787624
-0.787637
-0.78765
-0.787662
-0.787673
-0.787681
-0.787686
-0.787687
-0.787685
-0.787681
-0.787676
-0.787671
-0.787667
-0.787661
-0.886123
-0.886127
-0.88613
-0.886135
-0.886141
-0.886147
-0.886155
-0.886163
-0.886172
-0.886181
-0.886191
-0.886199
-0.886207
-0.886211
-0.886212
-0.886209
-0.886203
-0.886196
-0.886186
-0.886175
-0.886163
-0.88615
-0.886137
-0.886123
-0.88611
-0.886099
-0.886089
-0.886081
-0.886075
-0.886072
-0.88607
-0.88607
-0.886071
-0.886073
-0.886076
-0.886078
-0.886081
-0.886083
-0.886085
-0.886086
-0.886086
-0.886086
-0.886085
-0.886083
-0.886081
-0.886078
-0.886074
-0.886069
-0.886064
-0.886058
-0.886052
-0.886045
-0.886037
-0.88603
-0.886022
-0.886014
-0.886007
-0.885999
-0.885993
-0.88599
-0.885988
-0.885986
-0.885985
-0.885984
-0.885984
-0.88598
-0.885979
-0.885982
-0.885984
-0.885987
-0.88599
-0.885992
-0.885995
-0.885998
-0.886001
-0.886004
-0.886008
-0.886012
-0.886017
-0.886023
-0.88603
-0.886037
-0.886046
-0.886055
-0.886066
-0.886078
-0.88609
-0.886103
-0.886117
-0.886129
-0.886141
-0.886149
-0.886154
-0.886156
-0.886154
-0.88615
-0.886146
-0.886141
-0.886137
-0.886133
-0.984592
-0.984596
-0.984599
-0.984604
-0.984609
-0.984615
-0.984622
-0.984631
-0.984639
-0.984649
-0.984658
-0.984667
-0.984675
-0.984679
-0.984679
-0.984675
-0.984669
-0.984662
-0.984652
-0.984642
-0.984631
-0.984619
-0.984606
-0.984593
-0.984581
-0.98457
-0.984561
-0.984553
-0.984548
-0.984545
-0.984543
-0.984543
-0.984545
-0.984546
-0.984549
-0.984551
-0.984553
-0.984555
-0.984557
-0.984557
-0.984557
-0.984557
-0.984555
-0.984553
-0.98455
-0.984546
-0.984542
-0.984537
-0.984532
-0.984525
-0.984519
-0.984512
-0.984504
-0.984497
-0.984489
-0.984482
-0.984475
-0.984468
-0.984462
-0.984458
-0.984455
-0.984452
-0.984451
-0.984449
-0.98445
-0.984442
-0.984441
-0.984444
-0.984447
-0.984449
-0.984452
-0.984455
-0.984458
-0.984461
-0.984464
-0.984467
-0.984471
-0.984476
-0.984481
-0.984487
-0.984494
-0.984502
-0.98451
-0.98452
-0.984531
-0.984543
-0.984556
-0.984569
-0.984583
-0.984596
-0.984608
-0.984617
-0.984622
-0.984623
-0.984622
-0.984618
-0.984614
-0.98461
-0.984607
-0.984603
-1.08306
-1.08306
-1.08307
-1.08307
-1.08308
-1.08308
-1.08309
-1.0831
-1.08311
-1.08311
-1.08312
-1.08313
-1.08314
-1.08314
-1.08314
-1.08314
-1.08313
-1.08313
-1.08312
-1.08311
-1.0831
-1.08309
-1.08307
-1.08306
-1.08305
-1.08304
-1.08303
-1.08303
-1.08302
-1.08302
-1.08302
-1.08302
-1.08302
-1.08302
-1.08302
-1.08302
-1.08303
-1.08303
-1.08303
-1.08303
-1.08303
-1.08303
-1.08303
-1.08302
-1.08302
-1.08302
-1.08301
-1.08301
-1.083
-1.08299
-1.08299
-1.08298
-1.08297
-1.08296
-1.08296
-1.08295
-1.08294
-1.08294
-1.08293
-1.08293
-1.08292
-1.08292
-1.08292
-1.08291
-1.08292
-1.08291
-1.08291
-1.08291
-1.08291
-1.08291
-1.08292
-1.08292
-1.08292
-1.08292
-1.08293
-1.08293
-1.08294
-1.08294
-1.08295
-1.08295
-1.08296
-1.08297
-1.08297
-1.08298
-1.083
-1.08301
-1.08302
-1.08303
-1.08305
-1.08306
-1.08307
-1.08308
-1.08309
-1.08309
-1.08309
-1.08308
-1.08308
-1.08308
-1.08307
-1.08307
-1.18153
-1.18153
-1.18153
-1.18154
-1.18154
-1.18155
-1.18155
-1.18156
-1.18157
-1.18158
-1.18159
-1.1816
-1.1816
-1.18161
-1.1816
-1.1816
-1.1816
-1.18159
-1.18158
-1.18157
-1.18156
-1.18155
-1.18154
-1.18153
-1.18152
-1.18151
-1.1815
-1.1815
-1.18149
-1.18149
-1.18149
-1.18149
-1.18149
-1.18149
-1.1815
-1.1815
-1.1815
-1.1815
-1.1815
-1.1815
-1.1815
-1.1815
-1.1815
-1.18149
-1.18149
-1.18149
-1.18148
-1.18148
-1.18147
-1.18146
-1.18146
-1.18145
-1.18144
-1.18143
-1.18143
-1.18142
-1.18141
-1.18141
-1.1814
-1.18139
-1.18139
-1.18139
-1.18138
-1.18138
-1.18138
-1.18137
-1.18137
-1.18137
-1.18137
-1.18138
-1.18138
-1.18138
-1.18139
-1.18139
-1.18139
-1.1814
-1.1814
-1.1814
-1.18141
-1.18142
-1.18142
-1.18143
-1.18144
-1.18145
-1.18146
-1.18147
-1.18148
-1.1815
-1.18151
-1.18153
-1.18154
-1.18155
-1.18155
-1.18155
-1.18155
-1.18155
-1.18155
-1.18154
-1.18154
-1.18154
-1.28
-1.28
-1.28
-1.28
-1.28001
-1.28001
-1.28002
-1.28002
-1.28003
-1.28004
-1.28005
-1.28006
-1.28006
-1.28006
-1.28006
-1.28006
-1.28006
-1.28005
-1.28004
-1.28003
-1.28002
-1.28002
-1.28001
-1.28
-1.27999
-1.27998
-1.27998
-1.27997
-1.27997
-1.27997
-1.27997
-1.27997
-1.27997
-1.27997
-1.27997
-1.27997
-1.27997
-1.27998
-1.27998
-1.27998
-1.27997
-1.27997
-1.27997
-1.27997
-1.27996
-1.27996
-1.27995
-1.27995
-1.27994
-1.27993
-1.27993
-1.27992
-1.27991
-1.2799
-1.27989
-1.27989
-1.27988
-1.27987
-1.27987
-1.27986
-1.27986
-1.27985
-1.27985
-1.27985
-1.27984
-1.27983
-1.27984
-1.27984
-1.27984
-1.27984
-1.27984
-1.27985
-1.27985
-1.27985
-1.27986
-1.27986
-1.27986
-1.27987
-1.27987
-1.27988
-1.27989
-1.27989
-1.2799
-1.27991
-1.27992
-1.27994
-1.27995
-1.27996
-1.27998
-1.27999
-1.28
-1.28001
-1.28001
-1.28002
-1.28002
-1.28001
-1.28001
-1.28001
-1.28001
-1.28
-1.37846
-1.37847
-1.37847
-1.37847
-1.37847
-1.37848
-1.37848
-1.37849
-1.37849
-1.3785
-1.3785
-1.37851
-1.37852
-1.37852
-1.37852
-1.37852
-1.37851
-1.37851
-1.3785
-1.37849
-1.37849
-1.37848
-1.37847
-1.37846
-1.37846
-1.37845
-1.37845
-1.37844
-1.37844
-1.37844
-1.37844
-1.37844
-1.37844
-1.37844
-1.37845
-1.37845
-1.37845
-1.37845
-1.37845
-1.37845
-1.37845
-1.37845
-1.37844
-1.37844
-1.37843
-1.37843
-1.37842
-1.37842
-1.37841
-1.3784
-1.37839
-1.37839
-1.37838
-1.37837
-1.37836
-1.37836
-1.37835
-1.37834
-1.37834
-1.37833
-1.37832
-1.37832
-1.37832
-1.37831
-1.37831
-1.3783
-1.3783
-1.3783
-1.3783
-1.37831
-1.37831
-1.37831
-1.37832
-1.37832
-1.37832
-1.37833
-1.37833
-1.37833
-1.37834
-1.37835
-1.37835
-1.37836
-1.37837
-1.37838
-1.37839
-1.3784
-1.37841
-1.37842
-1.37844
-1.37845
-1.37846
-1.37847
-1.37848
-1.37848
-1.37848
-1.37847
-1.37847
-1.37847
-1.37847
-1.37847
-1.47693
-1.47693
-1.47693
-1.47694
-1.47694
-1.47694
-1.47694
-1.47694
-1.47695
-1.47695
-1.47696
-1.47697
-1.47697
-1.47697
-1.47697
-1.47697
-1.47697
-1.47696
-1.47696
-1.47695
-1.47694
-1.47694
-1.47693
-1.47693
-1.47692
-1.47692
-1.47692
-1.47691
-1.47691
-1.47691
-1.47691
-1.47692
-1.47692
-1.47692
-1.47692
-1.47692
-1.47692
-1.47693
-1.47692
-1.47692
-1.47692
-1.47692
-1.47691
-1.47691
-1.47691
-1.4769
-1.47689
-1.47689
-1.47688
-1.47687
-1.47687
-1.47686
-1.47685
-1.47684
-1.47683
-1.47682
-1.47682
-1.47681
-1.4768
-1.4768
-1.47679
-1.47679
-1.47678
-1.47678
-1.47677
-1.47677
-1.47677
-1.47677
-1.47677
-1.47677
-1.47678
-1.47678
-1.47678
-1.47678
-1.47679
-1.47679
-1.4768
-1.4768
-1.47681
-1.47681
-1.47682
-1.47682
-1.47683
-1.47684
-1.47685
-1.47686
-1.47687
-1.47688
-1.4769
-1.47691
-1.47692
-1.47693
-1.47694
-1.47694
-1.47694
-1.47694
-1.47693
-1.47693
-1.47693
-1.47693
-1.57539
-1.5754
-1.5754
-1.5754
-1.5754
-1.5754
-1.5754
-1.5754
-1.57541
-1.57541
-1.57542
-1.57542
-1.57542
-1.57543
-1.57543
-1.57542
-1.57542
-1.57542
-1.57541
-1.57541
-1.5754
-1.5754
-1.57539
-1.57539
-1.57539
-1.57539
-1.57538
-1.57538
-1.57538
-1.57539
-1.57539
-1.57539
-1.57539
-1.57539
-1.5754
-1.5754
-1.5754
-1.5754
-1.5754
-1.5754
-1.5754
-1.57539
-1.57539
-1.57538
-1.57538
-1.57537
-1.57537
-1.57536
-1.57535
-1.57534
-1.57534
-1.57533
-1.57532
-1.57531
-1.5753
-1.57529
-1.57529
-1.57528
-1.57527
-1.57527
-1.57526
-1.57525
-1.57525
-1.57525
-1.57524
-1.57523
-1.57524
-1.57524
-1.57524
-1.57524
-1.57524
-1.57525
-1.57525
-1.57525
-1.57525
-1.57526
-1.57526
-1.57527
-1.57527
-1.57528
-1.57528
-1.57529
-1.5753
-1.5753
-1.57531
-1.57532
-1.57533
-1.57535
-1.57536
-1.57537
-1.57538
-1.57539
-1.57539
-1.5754
-1.5754
-1.5754
-1.57539
-1.57539
-1.57539
-1.57539
-1.67385
-1.67386
-1.67386
-1.67386
-1.67386
-1.67386
-1.67386
-1.67386
-1.67386
-1.67387
-1.67387
-1.67387
-1.67387
-1.67388
-1.67388
-1.67387
-1.67387
-1.67387
-1.67386
-1.67386
-1.67386
-1.67386
-1.67385
-1.67385
-1.67385
-1.67385
-1.67385
-1.67385
-1.67386
-1.67386
-1.67386
-1.67386
-1.67387
-1.67387
-1.67387
-1.67387
-1.67387
-1.67387
-1.67387
-1.67387
-1.67387
-1.67387
-1.67386
-1.67386
-1.67385
-1.67384
-1.67384
-1.67383
-1.67382
-1.67381
-1.67381
-1.6738
-1.67379
-1.67378
-1.67377
-1.67376
-1.67376
-1.67375
-1.67374
-1.67373
-1.67373
-1.67372
-1.67372
-1.67371
-1.67371
-1.6737
-1.6737
-1.6737
-1.67371
-1.67371
-1.67371
-1.67371
-1.67372
-1.67372
-1.67372
-1.67373
-1.67373
-1.67373
-1.67374
-1.67374
-1.67375
-1.67375
-1.67376
-1.67377
-1.67377
-1.67378
-1.67379
-1.6738
-1.67382
-1.67383
-1.67384
-1.67385
-1.67385
-1.67385
-1.67386
-1.67385
-1.67385
-1.67385
-1.67385
-1.67385
-1.7723
-1.77231
-1.77231
-1.77232
-1.77232
-1.77232
-1.77232
-1.77232
-1.77232
-1.77232
-1.77232
-1.77232
-1.77232
-1.77232
-1.77232
-1.77232
-1.77232
-1.77232
-1.77232
-1.77231
-1.77231
-1.77231
-1.77231
-1.77231
-1.77232
-1.77232
-1.77232
-1.77232
-1.77233
-1.77233
-1.77233
-1.77234
-1.77234
-1.77234
-1.77235
-1.77235
-1.77235
-1.77235
-1.77235
-1.77235
-1.77234
-1.77234
-1.77234
-1.77233
-1.77232
-1.77232
-1.77231
-1.7723
-1.77229
-1.77228
-1.77228
-1.77227
-1.77226
-1.77225
-1.77224
-1.77223
-1.77222
-1.77222
-1.77221
-1.7722
-1.7722
-1.77219
-1.77219
-1.77218
-1.77218
-1.77217
-1.77217
-1.77217
-1.77218
-1.77218
-1.77218
-1.77218
-1.77218
-1.77219
-1.77219
-1.77219
-1.7722
-1.7722
-1.7722
-1.77221
-1.77221
-1.77222
-1.77222
-1.77223
-1.77224
-1.77224
-1.77225
-1.77226
-1.77227
-1.77228
-1.77229
-1.7723
-1.77231
-1.77231
-1.77231
-1.77231
-1.77231
-1.77231
-1.77231
-1.77231
-1.87074
-1.87075
-1.87076
-1.87077
-1.87077
-1.87077
-1.87077
-1.87077
-1.87077
-1.87077
-1.87077
-1.87077
-1.87077
-1.87077
-1.87077
-1.87076
-1.87076
-1.87076
-1.87077
-1.87077
-1.87077
-1.87077
-1.87077
-1.87078
-1.87078
-1.87078
-1.87079
-1.87079
-1.8708
-1.8708
-1.87081
-1.87081
-1.87081
-1.87082
-1.87082
-1.87082
-1.87082
-1.87082
-1.87082
-1.87082
-1.87082
-1.87081
-1.87081
-1.8708
-1.8708
-1.87079
-1.87078
-1.87077
-1.87076
-1.87076
-1.87075
-1.87074
-1.87073
-1.87072
-1.87071
-1.8707
-1.87069
-1.87069
-1.87068
-1.87067
-1.87067
-1.87066
-1.87066
-1.87065
-1.87065
-1.87064
-1.87064
-1.87064
-1.87065
-1.87065
-1.87065
-1.87065
-1.87065
-1.87066
-1.87066
-1.87066
-1.87066
-1.87067
-1.87067
-1.87067
-1.87068
-1.87068
-1.87069
-1.87069
-1.8707
-1.87071
-1.87071
-1.87072
-1.87073
-1.87074
-1.87075
-1.87076
-1.87076
-1.87077
-1.87077
-1.87077
-1.87077
-1.87077
-1.87077
-1.87077
-1.96917
-1.96918
-1.96919
-1.9692
-1.96921
-1.96921
-1.96921
-1.96921
-1.96921
-1.96921
-1.96921
-1.96921
-1.96921
-1.96921
-1.96921
-1.96921
-1.96921
-1.96921
-1.96922
-1.96922
-1.96922
-1.96923
-1.96923
-1.96924
-1.96924
-1.96925
-1.96925
-1.96926
-1.96926
-1.96927
-1.96928
-1.96928
-1.96929
-1.96929
-1.96929
-1.9693
-1.9693
-1.9693
-1.9693
-1.96929
-1.96929
-1.96929
-1.96928
-1.96928
-1.96927
-1.96926
-1.96925
-1.96924
-1.96923
-1.96923
-1.96922
-1.96921
-1.9692
-1.96919
-1.96918
-1.96917
-1.96916
-1.96916
-1.96915
-1.96914
-1.96914
-1.96913
-1.96912
-1.96912
-1.96912
-1.96911
-1.96911
-1.96911
-1.96912
-1.96912
-1.96912
-1.96912
-1.96912
-1.96913
-1.96913
-1.96913
-1.96913
-1.96914
-1.96914
-1.96914
-1.96914
-1.96915
-1.96915
-1.96916
-1.96916
-1.96917
-1.96917
-1.96918
-1.96919
-1.9692
-1.9692
-1.96921
-1.96922
-1.96922
-1.96923
-1.96923
-1.96923
-1.96923
-1.96923
-1.96922
-2.0676
-2.0676
-2.06762
-2.06763
-2.06764
-2.06765
-2.06765
-2.06765
-2.06764
-2.06764
-2.06764
-2.06764
-2.06764
-2.06764
-2.06765
-2.06765
-2.06765
-2.06766
-2.06767
-2.06767
-2.06768
-2.06768
-2.06769
-2.0677
-2.0677
-2.06771
-2.06772
-2.06773
-2.06773
-2.06774
-2.06775
-2.06775
-2.06776
-2.06776
-2.06777
-2.06777
-2.06777
-2.06777
-2.06777
-2.06777
-2.06776
-2.06776
-2.06775
-2.06775
-2.06774
-2.06773
-2.06772
-2.06771
-2.0677
-2.0677
-2.06769
-2.06768
-2.06767
-2.06766
-2.06765
-2.06764
-2.06763
-2.06763
-2.06762
-2.06761
-2.06761
-2.0676
-2.06759
-2.06759
-2.06759
-2.06758
-2.06759
-2.06759
-2.06759
-2.06759
-2.06759
-2.06759
-2.06759
-2.0676
-2.0676
-2.0676
-2.0676
-2.0676
-2.06761
-2.06761
-2.06761
-2.06761
-2.06762
-2.06762
-2.06762
-2.06763
-2.06763
-2.06764
-2.06764
-2.06765
-2.06766
-2.06766
-2.06767
-2.06768
-2.06768
-2.06768
-2.06768
-2.06768
-2.06768
-2.06767
-2.16603
-2.16603
-2.16604
-2.16605
-2.16606
-2.16607
-2.16607
-2.16607
-2.16607
-2.16607
-2.16607
-2.16607
-2.16608
-2.16608
-2.16609
-2.16609
-2.1661
-2.16611
-2.16612
-2.16612
-2.16613
-2.16614
-2.16615
-2.16616
-2.16617
-2.16617
-2.16618
-2.16619
-2.1662
-2.16621
-2.16622
-2.16622
-2.16623
-2.16623
-2.16624
-2.16624
-2.16624
-2.16624
-2.16624
-2.16624
-2.16624
-2.16623
-2.16623
-2.16622
-2.16621
-2.1662
-2.16619
-2.16618
-2.16617
-2.16616
-2.16616
-2.16615
-2.16614
-2.16613
-2.16612
-2.16611
-2.1661
-2.1661
-2.16609
-2.16608
-2.16608
-2.16607
-2.16607
-2.16606
-2.16606
-2.16606
-2.16606
-2.16606
-2.16606
-2.16606
-2.16606
-2.16606
-2.16607
-2.16607
-2.16607
-2.16607
-2.16607
-2.16607
-2.16607
-2.16607
-2.16608
-2.16608
-2.16608
-2.16608
-2.16609
-2.16609
-2.16609
-2.1661
-2.1661
-2.16611
-2.16611
-2.16612
-2.16612
-2.16613
-2.16613
-2.16613
-2.16613
-2.16613
-2.16613
-2.16612
-2.26446
-2.26446
-2.26447
-2.26448
-2.26448
-2.26449
-2.26449
-2.2645
-2.2645
-2.2645
-2.2645
-2.26451
-2.26451
-2.26452
-2.26453
-2.26454
-2.26455
-2.26456
-2.26457
-2.26458
-2.26459
-2.2646
-2.26461
-2.26462
-2.26463
-2.26464
-2.26465
-2.26466
-2.26467
-2.26468
-2.26469
-2.26469
-2.2647
-2.26471
-2.26471
-2.26471
-2.26472
-2.26472
-2.26471
-2.26471
-2.26471
-2.2647
-2.2647
-2.26469
-2.26468
-2.26467
-2.26466
-2.26465
-2.26464
-2.26463
-2.26462
-2.26461
-2.2646
-2.2646
-2.26459
-2.26458
-2.26457
-2.26457
-2.26456
-2.26456
-2.26455
-2.26454
-2.26454
-2.26454
-2.26453
-2.26453
-2.26453
-2.26453
-2.26453
-2.26453
-2.26454
-2.26454
-2.26454
-2.26454
-2.26454
-2.26454
-2.26454
-2.26454
-2.26454
-2.26454
-2.26454
-2.26454
-2.26455
-2.26455
-2.26455
-2.26455
-2.26455
-2.26455
-2.26456
-2.26456
-2.26456
-2.26457
-2.26457
-2.26457
-2.26458
-2.26458
-2.26458
-2.26458
-2.26457
-2.26456
-2.3629
-2.3629
-2.3629
-2.3629
-2.36291
-2.36292
-2.36292
-2.36293
-2.36293
-2.36293
-2.36294
-2.36295
-2.36296
-2.36297
-2.36298
-2.36299
-2.363
-2.36301
-2.36302
-2.36303
-2.36304
-2.36305
-2.36307
-2.36308
-2.36309
-2.3631
-2.36311
-2.36312
-2.36313
-2.36314
-2.36315
-2.36316
-2.36317
-2.36318
-2.36318
-2.36318
-2.36319
-2.36319
-2.36319
-2.36318
-2.36318
-2.36317
-2.36317
-2.36316
-2.36315
-2.36314
-2.36313
-2.36312
-2.36311
-2.3631
-2.36309
-2.36308
-2.36307
-2.36306
-2.36305
-2.36305
-2.36304
-2.36304
-2.36303
-2.36303
-2.36302
-2.36302
-2.36301
-2.36301
-2.36301
-2.36301
-2.36301
-2.36301
-2.36301
-2.36301
-2.36301
-2.36301
-2.36301
-2.36301
-2.36301
-2.36301
-2.36301
-2.36301
-2.36301
-2.36301
-2.36301
-2.36301
-2.36301
-2.36301
-2.36301
-2.36301
-2.36301
-2.36301
-2.36301
-2.36301
-2.36301
-2.36301
-2.36301
-2.36302
-2.36302
-2.36302
-2.36302
-2.36301
-2.36301
-2.363
-2.46134
-2.46134
-2.46134
-2.46134
-2.46135
-2.46136
-2.46136
-2.46137
-2.46137
-2.46137
-2.46138
-2.46139
-2.46141
-2.46142
-2.46143
-2.46144
-2.46146
-2.46147
-2.46148
-2.46149
-2.4615
-2.46151
-2.46152
-2.46154
-2.46155
-2.46156
-2.46158
-2.46159
-2.4616
-2.46161
-2.46162
-2.46163
-2.46164
-2.46165
-2.46165
-2.46165
-2.46166
-2.46166
-2.46166
-2.46165
-2.46165
-2.46164
-2.46164
-2.46163
-2.46162
-2.46161
-2.4616
-2.46159
-2.46158
-2.46157
-2.46156
-2.46155
-2.46154
-2.46153
-2.46152
-2.46151
-2.46151
-2.46151
-2.4615
-2.4615
-2.46149
-2.46149
-2.46149
-2.46148
-2.46148
-2.46148
-2.46148
-2.46148
-2.46148
-2.46148
-2.46148
-2.46148
-2.46148
-2.46148
-2.46148
-2.46148
-2.46148
-2.46148
-2.46148
-2.46148
-2.46148
-2.46148
-2.46148
-2.46147
-2.46147
-2.46147
-2.46147
-2.46147
-2.46147
-2.46147
-2.46146
-2.46146
-2.46146
-2.46146
-2.46145
-2.46145
-2.46145
-2.46144
-2.46143
-2.46143
-2.55979
-2.55979
-2.55979
-2.55979
-2.5598
-2.5598
-2.55981
-2.55981
-2.55981
-2.55982
-2.55983
-2.55984
-2.55986
-2.55987
-2.55989
-2.5599
-2.55991
-2.55992
-2.55993
-2.55994
-2.55996
-2.55997
-2.55998
-2.56
-2.56001
-2.56002
-2.56004
-2.56005
-2.56007
-2.56008
-2.56009
-2.5601
-2.56011
-2.56011
-2.56012
-2.56012
-2.56012
-2.56013
-2.56012
-2.56012
-2.56012
-2.56011
-2.5601
-2.5601
-2.56009
-2.56008
-2.56006
-2.56005
-2.56004
-2.56003
-2.56002
-2.56001
-2.56
-2.55999
-2.55999
-2.55998
-2.55998
-2.55998
-2.55997
-2.55997
-2.55997
-2.55996
-2.55996
-2.55996
-2.55996
-2.55995
-2.55995
-2.55995
-2.55995
-2.55995
-2.55995
-2.55995
-2.55995
-2.55995
-2.55995
-2.55995
-2.55995
-2.55995
-2.55995
-2.55995
-2.55994
-2.55994
-2.55994
-2.55994
-2.55994
-2.55993
-2.55993
-2.55993
-2.55993
-2.55992
-2.55992
-2.55991
-2.55991
-2.5599
-2.55989
-2.55988
-2.55988
-2.55987
-2.55986
-2.55985
-2.65825
-2.65825
-2.65825
-2.65825
-2.65825
-2.65826
-2.65826
-2.65826
-2.65826
-2.65827
-2.65829
-2.6583
-2.65832
-2.65833
-2.65834
-2.65835
-2.65836
-2.65838
-2.65839
-2.6584
-2.65841
-2.65843
-2.65844
-2.65846
-2.65847
-2.65849
-2.6585
-2.65852
-2.65853
-2.65854
-2.65855
-2.65856
-2.65857
-2.65858
-2.65858
-2.65859
-2.65859
-2.65859
-2.65859
-2.65859
-2.65858
-2.65858
-2.65857
-2.65856
-2.65855
-2.65854
-2.65853
-2.65852
-2.65851
-2.6585
-2.65848
-2.65847
-2.65847
-2.65846
-2.65845
-2.65845
-2.65844
-2.65844
-2.65844
-2.65844
-2.65844
-2.65843
-2.65843
-2.65843
-2.65843
-2.65843
-2.65843
-2.65843
-2.65843
-2.65843
-2.65843
-2.65843
-2.65843
-2.65843
-2.65842
-2.65842
-2.65842
-2.65842
-2.65842
-2.65841
-2.65841
-2.65841
-2.65841
-2.6584
-2.6584
-2.6584
-2.65839
-2.65839
-2.65838
-2.65838
-2.65837
-2.65836
-2.65835
-2.65834
-2.65833
-2.65832
-2.6583
-2.65829
-2.65828
-2.65828
-2.75671
-2.75671
-2.75671
-2.75671
-2.75671
-2.75671
-2.75672
-2.75672
-2.75672
-2.75673
-2.75675
-2.75676
-2.75677
-2.75679
-2.7568
-2.75681
-2.75682
-2.75683
-2.75684
-2.75685
-2.75687
-2.75688
-2.7569
-2.75692
-2.75693
-2.75695
-2.75696
-2.75698
-2.75699
-2.757
-2.75702
-2.75702
-2.75703
-2.75704
-2.75705
-2.75705
-2.75705
-2.75706
-2.75706
-2.75705
-2.75705
-2.75704
-2.75703
-2.75702
-2.75701
-2.757
-2.75699
-2.75698
-2.75697
-2.75696
-2.75695
-2.75694
-2.75693
-2.75692
-2.75691
-2.75691
-2.75691
-2.75691
-2.75691
-2.75691
-2.7569
-2.7569
-2.7569
-2.7569
-2.7569
-2.7569
-2.7569
-2.7569
-2.7569
-2.7569
-2.7569
-2.7569
-2.7569
-2.7569
-2.7569
-2.75689
-2.75689
-2.75689
-2.75689
-2.75688
-2.75688
-2.75688
-2.75687
-2.75687
-2.75686
-2.75686
-2.75685
-2.75685
-2.75684
-2.75683
-2.75682
-2.75681
-2.7568
-2.75679
-2.75677
-2.75676
-2.75674
-2.75672
-2.75671
-2.7567
-2.85517
-2.85517
-2.85517
-2.85517
-2.85517
-2.85517
-2.85517
-2.85517
-2.85518
-2.85519
-2.85521
-2.85522
-2.85523
-2.85524
-2.85525
-2.85526
-2.85527
-2.85528
-2.8553
-2.85531
-2.85533
-2.85534
-2.85536
-2.85538
-2.85539
-2.85541
-2.85543
-2.85544
-2.85545
-2.85547
-2.85548
-2.85549
-2.85549
-2.8555
-2.85551
-2.85551
-2.85552
-2.85552
-2.85552
-2.85551
-2.85551
-2.8555
-2.85549
-2.85548
-2.85547
-2.85546
-2.85545
-2.85544
-2.85543
-2.85542
-2.85541
-2.8554
-2.85539
-2.85538
-2.85538
-2.85537
-2.85537
-2.85538
-2.85537
-2.85537
-2.85537
-2.85537
-2.85537
-2.85537
-2.85537
-2.85537
-2.85537
-2.85537
-2.85537
-2.85537
-2.85537
-2.85537
-2.85537
-2.85537
-2.85537
-2.85536
-2.85536
-2.85536
-2.85536
-2.85535
-2.85535
-2.85534
-2.85534
-2.85533
-2.85533
-2.85532
-2.85532
-2.85531
-2.8553
-2.85529
-2.85528
-2.85527
-2.85525
-2.85524
-2.85522
-2.8552
-2.85518
-2.85516
-2.85514
-2.85514
-2.95363
-2.95363
-2.95363
-2.95363
-2.95363
-2.95363
-2.95364
-2.95364
-2.95365
-2.95366
-2.95367
-2.95368
-2.95369
-2.9537
-2.95371
-2.95372
-2.95373
-2.95374
-2.95375
-2.95377
-2.95378
-2.9538
-2.95382
-2.95384
-2.95385
-2.95387
-2.95389
-2.9539
-2.95391
-2.95393
-2.95394
-2.95394
-2.95395
-2.95396
-2.95397
-2.95397
-2.95397
-2.95398
-2.95398
-2.95397
-2.95397
-2.95396
-2.95395
-2.95394
-2.95393
-2.95392
-2.95391
-2.9539
-2.95389
-2.95387
-2.95386
-2.95385
-2.95385
-2.95384
-2.95384
-2.95383
-2.95384
-2.95384
-2.95384
-2.95383
-2.95383
-2.95383
-2.95383
-2.95383
-2.95384
-2.95383
-2.95383
-2.95383
-2.95384
-2.95384
-2.95384
-2.95384
-2.95384
-2.95384
-2.95384
-2.95384
-2.95383
-2.95383
-2.95383
-2.95382
-2.95382
-2.95381
-2.95381
-2.9538
-2.95379
-2.95379
-2.95378
-2.95377
-2.95376
-2.95375
-2.95374
-2.95372
-2.95371
-2.95369
-2.95367
-2.95365
-2.95363
-2.95361
-2.95359
-2.95359
-3.05209
-3.05209
-3.05209
-3.05209
-3.05209
-3.05209
-3.05209
-3.0521
-3.05211
-3.05212
-3.05213
-3.05214
-3.05215
-3.05216
-3.05217
-3.05217
-3.05218
-3.0522
-3.05221
-3.05222