/*--------------------------------*- C++ -*----------------------------------*\
| =========                 |                                                 |
| \\      /  F ield         | OpenFOAM: The Open Source CFD Toolbox           |
|  \\    /   O peration     | Version:  4.1                                   |
|   \\  /    A nd           | Web:      www.OpenFOAM.org                      |
|    \\/     M anipulation  |                                                 |
\*---------------------------------------------------------------------------*/
FoamFile
{
    version     2.0;
    format      ascii;
    class       surfaceScalarField;
    location    "1000";
    object      phi;
}
// * * * * * * * * * * * * * * * * * * * * * * * * * * * * * * * * * * * * * //

dimensions      [0 3 -1 0 0 0 0];

internalField   nonuniform List<scalar> 
9850
(
-3.07232e-06
3.07232e-06
-4.10681e-06
1.03449e-06
-4.41252e-06
3.05706e-07
-5.31947e-06
9.06953e-07
-6.80953e-06
1.49006e-06
-8.34456e-06
1.53503e-06
-9.63529e-06
1.29073e-06
-1.06427e-05
1.00743e-06
-1.14238e-05
7.81104e-07
-1.20461e-05
6.22244e-07
-1.25563e-05
5.10219e-07
-1.29752e-05
4.18923e-07
-1.33025e-05
3.27274e-07
-1.35246e-05
2.22113e-07
-1.36219e-05
9.73236e-08
-1.3573e-05
-4.89206e-08
-1.33568e-05
-2.16209e-07
-1.29589e-05
-3.97901e-07
-1.23756e-05
-5.83267e-07
-1.16125e-05
-7.63145e-07
-1.06828e-05
-9.29659e-07
-9.60676e-06
-1.07606e-06
-8.40986e-06
-1.1969e-06
-7.12125e-06
-1.2886e-06
-5.77113e-06
-1.35012e-06
-4.38734e-06
-1.38379e-06
-2.98903e-06
-1.39831e-06
-1.56446e-06
-1.42457e-06
-5.25405e-09
-1.55921e-06
1.31934e-06
-1.3246e-06
2.49513e-06
-1.17578e-06
3.55043e-06
-1.0553e-06
4.5072e-06
-9.56773e-07
5.37159e-06
-8.64394e-07
6.14476e-06
-7.73171e-07
6.82693e-06
-6.82164e-07
7.41772e-06
-5.90793e-07
7.91615e-06
-4.98428e-07
8.32089e-06
-4.0474e-07
8.63085e-06
-3.0996e-07
8.84621e-06
-2.15358e-07
8.96971e-06
-1.23497e-07
9.00684e-06
-3.71321e-08
8.96865e-06
3.81839e-08
8.86468e-06
1.03978e-07
8.70871e-06
1.55969e-07
8.52416e-06
1.84547e-07
8.35074e-06
1.7342e-07
8.25177e-06
9.89691e-08
8.30174e-06
-4.9967e-08
8.57165e-06
-2.69911e-07
9.09926e-06
-5.27606e-07
9.8554e-06
-7.56146e-07
1.06676e-05
-8.1221e-07
1.11195e-05
-4.51885e-07
1.03954e-05
7.24122e-07
7.26644e-06
3.12893e-06
3.90116e-07
6.87633e-06
-5.37793e-06
5.76805e-06
-7.74288e-06
2.36494e-06
-7.25062e-06
-4.92255e-07
-5.43239e-06
-1.81824e-06
-2.11744e-06
-3.31495e-06
2.14661e-06
-4.26405e-06
3.09519e-06
-9.48583e-07
-5.96005e-07
3.6912e-06
-6.00484e-07
4.47898e-09
2.93465e-06
-3.53514e-06
2.40227e-06
5.32382e-07
-2.91592e-06
5.31819e-06
-6.11566e-06
3.19974e-06
-5.56458e-06
-5.51075e-07
-3.78716e-06
-1.77743e-06
-2.70102e-06
-1.08613e-06
-2.19339e-06
-5.07635e-07
-1.8535e-06
-3.39892e-07
-1.50078e-06
-3.52715e-07
-1.06719e-06
-4.33588e-07
-5.37365e-07
-5.29828e-07
9.86341e-08
-6.35999e-07
8.57244e-07
-7.5861e-07
1.75802e-06
-9.00771e-07
2.7689e-06
-1.01089e-06
3.84963e-06
-1.08073e-06
4.95264e-06
-1.103e-06
6.03931e-06
-1.08667e-06
7.07255e-06
-1.03324e-06
8.01443e-06
-9.41876e-07
8.82648e-06
-8.12058e-07
9.47209e-06
-6.45611e-07
9.92064e-06
-4.48542e-07
1.0153e-05
-2.32374e-07
1.01691e-05
-1.61273e-08
9.9705e-06
1.98637e-07
9.56041e-06
4.10088e-07
8.9287e-06
6.31713e-07
8.02506e-06
9.03639e-07
6.67865e-06
1.34641e-06
4.36798e-06
2.31067e-06
4.36798e-06
-3.43667e-06
6.50899e-06
-4.96488e-06
2.5627e-06
-5.59086e-06
9.31685e-07
-6.24558e-06
1.56167e-06
-7.12856e-06
2.37304e-06
-8.13799e-06
2.54447e-06
-9.12197e-06
2.27471e-06
-1.00058e-05
1.89123e-06
-1.07813e-05
1.55663e-06
-1.14612e-05
1.30212e-06
-1.20518e-05
1.1008e-06
-1.25463e-05
9.1344e-07
-1.29277e-05
7.0868e-07
-1.31741e-05
4.68506e-07
-1.32636e-05
1.86875e-07
-1.31794e-05
-1.33187e-07
-1.2912e-05
-4.83527e-07
-1.24557e-05
-8.5425e-07
-1.18122e-05
-1.22673e-06
-1.09901e-05
-1.58525e-06
-1.00039e-05
-1.91589e-06
-8.87377e-06
-2.20618e-06
-7.62513e-06
-2.44554e-06
-6.28741e-06
-2.62633e-06
-4.89197e-06
-2.74556e-06
-3.46808e-06
-2.80768e-06
-2.0362e-06
-2.8302e-06
-6.1339e-07
-2.84738e-06
6.48499e-07
-2.82109e-06
1.91505e-06
-2.59115e-06
3.08807e-06
-2.3488e-06
4.16592e-06
-2.13315e-06
5.1463e-06
-1.93715e-06
6.03229e-06
-1.75038e-06
6.8267e-06
-1.56759e-06
7.5313e-06
-1.38676e-06
8.14694e-06
-1.20643e-06
8.67348e-06
-1.02497e-06
9.10975e-06
-8.41008e-07
9.45375e-06
-6.5396e-07
9.70329e-06
-4.64898e-07
9.85738e-06
-2.77588e-07
9.92017e-06
-9.99155e-08
9.89266e-06
6.56858e-08
9.7816e-06
2.15045e-07
9.59944e-06
3.38131e-07
9.36733e-06
4.16656e-07
9.12002e-06
4.2073e-07
8.90133e-06
3.17655e-07
8.74312e-06
1.08239e-07
8.69291e-06
-2.19701e-07
8.78106e-06
-6.15758e-07
9.03147e-06
-1.00655e-06
9.41334e-06
-1.19408e-06
9.68238e-06
-7.20924e-07
9.24961e-06
1.15689e-06
7.59263e-06
4.78591e-06
5.13268e-06
9.33628e-06
9.23055e-07
9.97767e-06
-2.67588e-06
5.96387e-06
-4.21867e-06
1.05053e-06
-3.33197e-06
-2.70494e-06
-1.70561e-06
-4.94131e-06
-1.06827e-08
-5.95897e-06
8.86654e-07
-1.84592e-06
-1.23931e-06
5.81716e-06
-6.51968e-07
-5.82859e-07
-6.4751e-07
-3.5396e-06
-1.06486e-06
9.49736e-07
-2.30571e-06
6.55904e-06
-3.59477e-06
4.4888e-06
-2.76046e-06
-1.38538e-06
-2.07463e-06
-2.46326e-06
-1.68455e-06
-1.47621e-06
-1.34498e-06
-8.47201e-07
-1.06578e-06
-6.19094e-07
-7.9411e-07
-6.24385e-07
-4.65115e-07
-7.62584e-07
-1.90706e-08
-9.75873e-07
5.67301e-07
-1.22237e-06
1.28544e-06
-1.47675e-06
2.11531e-06
-1.73063e-06
3.0433e-06
-1.93888e-06
4.03813e-06
-2.07557e-06
5.06908e-06
-2.13394e-06
6.09818e-06
-2.11577e-06
7.08763e-06
-2.02269e-06
7.99863e-06
-1.85287e-06
8.79112e-06
-1.60455e-06
9.42564e-06
-1.28013e-06
9.86701e-06
-8.8991e-07
1.00892e-05
-4.54556e-07
1.00773e-05
-4.21734e-09
9.8196e-06
4.56325e-07
9.30929e-06
9.20389e-07
8.53675e-06
1.40426e-06
7.46122e-06
1.97917e-06
5.95014e-06
2.85749e-06
3.6309e-06
4.62991e-06
7.99888e-06
-2.80564e-06
9.31463e-06
-4.43602e-06
4.19309e-06
-5.46703e-06
1.96269e-06
-6.15691e-06
2.25155e-06
-6.719e-06
2.93513e-06
-7.34404e-06
3.16951e-06
-8.05552e-06
2.98619e-06
-8.81123e-06
2.64693e-06
-9.56874e-06
2.31415e-06
-1.02913e-05
2.02465e-06
-1.09438e-05
1.75338e-06
-1.14935e-05
1.46307e-06
-1.19111e-05
1.12631e-06
-1.21731e-05
7.30468e-07
-1.22619e-05
2.75739e-07
-1.21664e-05
-2.28717e-07
-1.18804e-05
-7.69579e-07
-1.14062e-05
-1.32841e-06
-1.07478e-05
-1.88509e-06
-9.9135e-06
-2.41959e-06
-8.91691e-06
-2.91248e-06
-7.7776e-06
-3.34549e-06
-6.52063e-06
-3.70251e-06
-5.17583e-06
-3.97113e-06
-3.77528e-06
-4.14611e-06
-2.34976e-06
-4.2332e-06
-9.26897e-07
-4.25306e-06
4.28196e-07
-4.20247e-06
1.64167e-06
-4.03456e-06
2.80322e-06
-3.75271e-06
3.90566e-06
-3.45125e-06
4.9268e-06
-3.15428e-06
5.85617e-06
-2.86653e-06
6.69256e-06
-2.58677e-06
7.43835e-06
-2.31337e-06
8.09675e-06
-2.04516e-06
8.67094e-06
-1.78062e-06
9.16359e-06
-1.51762e-06
9.57638e-06
-1.2538e-06
9.90963e-06
-9.87211e-07
1.0162e-05
-7.17255e-07
1.03301e-05
-4.45658e-07
1.04076e-05
-1.7742e-07
1.03933e-05
7.99156e-08
1.02911e-05
3.17247e-07
1.01087e-05
5.2056e-07
9.85568e-06
6.69671e-07
9.53782e-06
7.38589e-07
9.15491e-06
7.00569e-07
8.72555e-06
5.37595e-07
8.26845e-06
2.374e-07
7.83126e-06
-1.78566e-07
7.47831e-06
-6.53594e-07
7.27208e-06
-9.87851e-07
7.24153e-06
-6.90382e-07
7.26796e-06
1.13047e-06
6.92305e-06
5.13081e-06
6.18046e-06
1.00789e-05
4.82857e-06
1.13296e-05
2.88522e-06
7.90722e-06
8.4698e-07
3.08878e-06
-6.64062e-08
-1.79155e-06
-2.03243e-07
-4.80447e-06
-2.52286e-07
-5.90993e-06
1.17537e-07
-2.21574e-06
-1.3847e-06
7.3194e-06
-1.56031e-06
-4.07253e-07
-2.47698e-06
-2.62293e-06
-2.17532e-06
6.4808e-07
-1.20376e-06
5.58748e-06
-7.21439e-07
4.00647e-06
-5.26811e-07
-1.58001e-06
-1.27472e-06
-1.71535e-06
-1.68023e-06
-1.07071e-06
-1.79703e-06
-7.304e-07
-1.73817e-06
-6.77949e-07
-1.52885e-06
-8.33704e-07
-1.16536e-06
-1.12608e-06
-6.47975e-07
-1.49325e-06
1.48849e-08
-1.88523e-06
8.0405e-07
-2.26592e-06
1.69114e-06
-2.61772e-06
2.64018e-06
-2.88792e-06
3.62542e-06
-3.0608e-06
4.62431e-06
-3.13283e-06
5.61165e-06
-3.10311e-06
6.55736e-06
-2.96841e-06
7.42682e-06
-2.72233e-06
8.18126e-06
-2.35899e-06
8.77969e-06
-1.87857e-06
9.18264e-06
-1.29285e-06
9.35626e-06
-6.28185e-07
9.27718e-06
7.48711e-08
8.92686e-06
8.06642e-07
8.30704e-06
1.54021e-06
7.41891e-06
2.29239e-06
6.26044e-06
3.13763e-06
4.7952e-06
4.32273e-06
2.83299e-06
6.59212e-06
1.08319e-05
-2.33015e-06
1.16448e-05
-3.8441e-06
5.70703e-06
-4.90031e-06
3.01891e-06
-5.60984e-06
2.96108e-06
-6.12371e-06
3.449e-06
-6.64078e-06
3.68657e-06
-7.25382e-06
3.59924e-06
-7.95389e-06
3.34701e-06
-8.6901e-06
3.05036e-06
-9.4051e-06
2.73965e-06
-1.00491e-05
2.3974e-06
-1.05838e-05
1.99773e-06
-1.09814e-05
1.52389e-06
-1.12226e-05
9.71677e-07
-1.12938e-05
3.46927e-07
-1.11843e-05
-3.38184e-07
-1.08868e-05
-1.06704e-06
-1.04e-05
-1.81518e-06
-9.72836e-06
-2.55678e-06
-8.88178e-06
-3.26617e-06
-7.87529e-06
-3.91897e-06
-6.72891e-06
-4.49187e-06
-5.46739e-06
-4.96403e-06
-4.12038e-06
-5.31815e-06
-2.7199e-06
-5.54659e-06
-1.29957e-06
-5.65353e-06
9.32736e-08
-5.6459e-06
1.38473e-06
-5.49393e-06
2.57015e-06
-5.21998e-06
3.70185e-06
-4.88441e-06
4.7653e-06
-4.51469e-06
5.74389e-06
-4.13287e-06
6.62842e-06
-3.75107e-06
7.41662e-06
-3.37497e-06
8.11043e-06
-3.00719e-06
8.71393e-06
-2.64866e-06
9.23212e-06
-2.29882e-06
9.67027e-06
-1.95576e-06
1.00332e-05
-1.61669e-06
1.03245e-05
-1.27858e-06
1.05463e-05
-9.39029e-07
1.06979e-05
-5.97251e-07
1.07757e-05
-2.55172e-07
1.07742e-05
8.13613e-08
1.0689e-05
4.02456e-07
1.05171e-05
6.92465e-07
1.02564e-05
9.30326e-07
9.90379e-06
1.09124e-06
9.45401e-06
1.15035e-06
8.90324e-06
1.08836e-06
8.24621e-06
8.94437e-07
7.50013e-06
5.67512e-07
6.71049e-06
1.36047e-07
5.97194e-06
-2.49308e-07
5.5085e-06
-2.2694e-07
5.50752e-06
1.13145e-06
5.74807e-06
4.89026e-06
5.97639e-06
9.85055e-06
5.92897e-06
1.1377e-05
5.28553e-06
8.55066e-06
4.34367e-06
4.03064e-06
3.02763e-06
-4.75512e-07
1.82792e-06
-3.60476e-06
7.40286e-07
-4.82229e-06
4.32802e-07
-1.90826e-06
-9.56439e-07
8.70864e-06
-1.8274e-06
4.63712e-07
-2.73788e-06
-1.71245e-06
-2.5542e-06
4.64399e-07
-7.37973e-07
3.77125e-06
3.1844e-07
2.95006e-06
-5.90708e-07
-6.70864e-07
-1.67684e-06
-6.29222e-07
-2.26167e-06
-4.85875e-07
-2.47398e-06
-5.18085e-07
-2.41261e-06
-7.39323e-07
-2.12769e-06
-1.11862e-06
-1.65666e-06
-1.59711e-06
-1.03616e-06
-2.11376e-06
-3.00494e-07
-2.62089e-06
5.20075e-07
-3.08648e-06
1.40428e-06
-3.50193e-06
2.3238e-06
-3.80744e-06
3.26167e-06
-3.99867e-06
4.20449e-06
-4.07565e-06
5.13471e-06
-4.03334e-06
6.02784e-06
-3.86154e-06
6.85204e-06
-3.54653e-06
7.56865e-06
-3.0756e-06
8.13414e-06
-2.44405e-06
8.50459e-06
-1.6633e-06
8.64264e-06
-7.66233e-07
8.51867e-06
1.98839e-07
8.12265e-06
1.20267e-06
7.45119e-06
2.21167e-06
6.51628e-06
3.22731e-06
5.34432e-06
4.30959e-06
3.96785e-06
5.6992e-06
2.31022e-06
8.24974e-06
1.31421e-05
-1.96857e-06
1.36134e-05
-3.32903e-06
7.06749e-06
-4.30997e-06
3.99985e-06
-5.01589e-06
3.66699e-06
-5.55797e-06
3.99109e-06
-6.08008e-06
4.20868e-06
-6.67002e-06
4.18917e-06
-7.33126e-06
4.00824e-06
-8.02046e-06
3.73957e-06
-8.68474e-06
3.40393e-06
-9.27897e-06
2.99162e-06
-9.76938e-06
2.48814e-06
-1.01311e-05
1.88565e-06
-1.03443e-05
1.18479e-06
-1.03903e-05
3.93008e-07
-1.02508e-05
-4.77769e-07
-9.91537e-06
-1.40242e-06
-9.38738e-06
-2.34317e-06
-8.67848e-06
-3.26568e-06
-7.80446e-06
-4.14019e-06
-6.78265e-06
-4.94078e-06
-5.63285e-06
-5.64167e-06
-4.37744e-06
-6.21944e-06
-3.04411e-06
-6.65148e-06
-1.66417e-06
-6.92653e-06
-2.72184e-07
-7.04552e-06
1.05204e-06
-6.97012e-06
2.29046e-06
-6.73235e-06
3.47069e-06
-6.40021e-06
4.58464e-06
-5.99836e-06
5.62068e-06
-5.55073e-06
6.56688e-06
-5.07907e-06
7.4154e-06
-4.59958e-06
8.16339e-06
-4.12296e-06
8.81206e-06
-3.65586e-06
9.36534e-06
-3.20193e-06
9.82888e-06
-2.76236e-06
1.02094e-05
-2.33624e-06
1.05137e-05
-1.92103e-06
1.07484e-05
-1.51328e-06
1.09187e-05
-1.10937e-06
1.10279e-05
-7.06408e-07
1.10761e-05
-3.03371e-07
1.10596e-05
9.78299e-08
1.09714e-05
4.90689e-07
1.08021e-05
8.61758e-07
1.05411e-05
1.19128e-06
1.01772e-05
1.45522e-06
9.69863e-06
1.62889e-06
9.09558e-06
1.69141e-06
8.36115e-06
1.62888e-06
7.49067e-06
1.43799e-06
6.48703e-06
1.13969e-06
5.42307e-06
8.14651e-07
4.49237e-06
7.03756e-07
4.08141e-06
1.54241e-06
4.39909e-06
4.57259e-06
5.19579e-06
9.05385e-06
5.98349e-06
1.05893e-05
6.25021e-06
8.28394e-06
5.89399e-06
4.38686e-06
4.82433e-06
5.94143e-07
3.39221e-06
-2.17264e-06
1.9261e-06
-3.35618e-06
9.15369e-07
-8.97525e-07
-4.27071e-07
1.00511e-05
-1.41398e-06
1.45062e-06
-2.29692e-06
-8.29517e-07
-2.48757e-06
6.55051e-07
-1.15314e-06
2.43683e-06
-3.75232e-07
2.17215e-06
-1.57153e-06
5.25433e-07
-2.42542e-06
2.24672e-07
-2.87207e-06
-3.9228e-08
-2.98619e-06
-4.03967e-07
-2.82516e-06
-9.00348e-07
-2.44215e-06
-1.50163e-06
-1.89342e-06
-2.14584e-06
-1.22769e-06
-2.77949e-06
-4.82647e-07
-3.36594e-06
3.15085e-07
-3.88422e-06
1.14229e-06
-4.32914e-06
1.99378e-06
-4.65893e-06
2.86068e-06
-4.86557e-06
3.73489e-06
-4.94987e-06
4.603e-06
-4.90145e-06
5.44372e-06
-4.70226e-06
6.22685e-06
-4.32966e-06
6.91325e-06
-3.76199e-06
7.45634e-06
-2.98715e-06
7.80696e-06
-2.01392e-06
7.92254e-06
-8.8182e-07
7.77713e-06
3.44252e-07
7.36387e-06
1.61593e-06
6.68893e-06
2.8866e-06
5.77146e-06
4.14478e-06
4.64916e-06
5.43189e-06
3.37939e-06
6.96896e-06
1.94095e-06
9.68819e-06
1.50831e-05
-1.6747e-06
1.5288e-05
-2.90383e-06
8.29663e-06
-3.8097e-06
4.90572e-06
-4.50385e-06
4.36114e-06
-5.07793e-06
4.56517e-06
-5.62429e-06
4.75504e-06
-6.20446e-06
4.76934e-06
-6.82438e-06
4.62816e-06
-7.45355e-06
4.36874e-06
-8.05219e-06
4.00257e-06
-8.58466e-06
3.52409e-06
-9.02133e-06
2.92481e-06
-9.33512e-06
2.19944e-06
-9.4978e-06
1.34747e-06
-9.48108e-06
3.76289e-07
-9.26008e-06
-6.98769e-07
-8.8347e-06
-1.8278e-06
-8.22441e-06
-2.95346e-06
-7.45346e-06
-4.03662e-06
-6.54369e-06
-5.04997e-06
-5.51164e-06
-5.97283e-06
-4.37395e-06
-6.77936e-06
-3.14689e-06
-7.4465e-06
-1.85353e-06
-7.94484e-06
-5.22648e-07
-8.25741e-06
7.76319e-07
-8.34449e-06
2.02249e-06
-8.21629e-06
3.22936e-06
-7.93923e-06
4.38191e-06
-7.55276e-06
5.4661e-06
-7.08255e-06
6.46936e-06
-6.554e-06
7.38104e-06
-5.99074e-06
8.19374e-06
-5.41229e-06
8.90402e-06
-4.83324e-06
9.51201e-06
-4.26384e-06
1.00207e-05
-3.71062e-06
1.04353e-05
-3.17694e-06
1.07625e-05
-2.66345e-06
1.101e-05
-2.16859e-06
1.11859e-05
-1.68918e-06
1.12977e-05
-1.22114e-06
1.13516e-05
-7.60289e-07
1.13515e-05
-3.03248e-07
1.1297e-05
1.52259e-07
1.11833e-05
6.04401e-07
1.10003e-05
1.0448e-06
1.07338e-05
1.45775e-06
1.03676e-05
1.82145e-06
9.88519e-06
2.11128e-06
9.27229e-06
2.30431e-06
8.51765e-06
2.38351e-06
7.61285e-06
2.34279e-06
6.55643e-06
2.1961e-06
5.37238e-06
1.9987e-06
4.16638e-06
1.90976e-06
3.30659e-06
2.4022e-06
3.37536e-06
4.50382e-06
4.40051e-06
8.0287e-06
5.63734e-06
9.35246e-06
6.35411e-06
7.56717e-06
6.30083e-06
4.44013e-06
5.46501e-06
1.42997e-06
4.10904e-06
-8.16664e-07
2.59335e-06
-1.8405e-06
1.22964e-06
4.66183e-07
-1.04068e-07
1.13848e-05
-9.91635e-07
2.33819e-06
-1.91911e-06
9.79566e-08
-2.36166e-06
1.0976e-06
-1.9626e-06
2.03777e-06
-1.77787e-06
1.98742e-06
-2.51259e-06
1.26015e-06
-3.05785e-06
7.69932e-07
-3.31982e-06
2.22746e-07
-3.29967e-06
-4.24118e-07
-3.03511e-06
-1.16491e-06
-2.58734e-06
-1.94941e-06
-2.01467e-06
-2.71851e-06
-1.36221e-06
-3.43195e-06
-6.60654e-07
-4.06749e-06
7.1801e-08
-4.61667e-06
8.18825e-07
-5.07616e-06
1.588e-06
-5.42811e-06
2.37683e-06
-5.65439e-06
3.18087e-06
-5.75391e-06
3.98916e-06
-5.70973e-06
4.78236e-06
-5.49547e-06
5.53154e-06
-5.07884e-06
6.19724e-06
-4.42769e-06
6.73021e-06
-3.52012e-06
7.07579e-06
-2.3595e-06
7.18547e-06
-9.91498e-07
7.03378e-06
4.95935e-07
6.6242e-06
2.02551e-06
5.97433e-06
3.53647e-06
5.11078e-06
5.00833e-06
4.07269e-06
6.46998e-06
2.91846e-06
8.12319e-06
1.65339e-06
1.09533e-05
1.67364e-05
-1.43942e-06
1.67275e-05
-2.56604e-06
9.42325e-06
-3.41553e-06
5.75521e-06
-4.09508e-06
5.04068e-06
-4.68354e-06
5.15363e-06
-5.23913e-06
5.31064e-06
-5.79987e-06
5.33007e-06
-6.37094e-06
5.19923e-06
-6.93314e-06
4.93095e-06
-7.45858e-06
4.52801e-06
-7.91851e-06
3.98402e-06
-8.28311e-06
3.28941e-06
-8.51833e-06
2.43467e-06
-8.5842e-06
1.41334e-06
-8.441e-06
2.33094e-07
-8.07418e-06
-1.06559e-06
-7.51151e-06
-2.39048e-06
-6.79359e-06
-3.67138e-06
-5.95524e-06
-4.87497e-06
-5.01967e-06
-5.98554e-06
-3.99668e-06
-6.99581e-06
-2.8963e-06
-7.87974e-06
-1.72658e-06
-8.61623e-06
-5.06257e-07
-9.16515e-06
7.13099e-07
-9.47677e-06
1.90559e-06
-9.53697e-06
3.08281e-06
-9.39351e-06
4.23272e-06
-9.08914e-06
5.33376e-06
-8.65379e-06
6.36876e-06
-8.11755e-06
7.32435e-06
-7.50959e-06
8.19016e-06
-6.85655e-06
8.9589e-06
-6.18103e-06
9.62656e-06
-5.5009e-06
1.01922e-05
-4.82949e-06
1.06576e-05
-4.17601e-06
1.10268e-05
-3.5461e-06
1.13056e-05
-2.94226e-06
1.15013e-05
-2.36435e-06
1.16223e-05
-1.8101e-06
1.16768e-05
-1.27572e-06
1.16731e-05
-7.56542e-07
1.16176e-05
-2.47769e-07
1.15133e-05
2.56621e-07
1.1359e-05
7.58625e-07
1.11479e-05
1.25598e-06
1.08667e-05
1.73892e-06
1.04982e-05
2.18995e-06
1.00235e-05
2.58596e-06
9.42526e-06
2.90254e-06
8.68965e-06
3.11913e-06
7.80747e-06
3.22497e-06
6.77634e-06
3.22724e-06
5.60888e-06
3.16616e-06
4.36728e-06
3.15136e-06
3.29976e-06
3.46972e-06
3.03584e-06
4.76773e-06
3.94035e-06
7.12419e-06
5.21688e-06
8.07593e-06
6.01462e-06
6.76943e-06
6.03865e-06
4.4161e-06
5.35726e-06
2.11136e-06
4.16623e-06
3.74372e-07
2.72638e-06
-4.00654e-07
1.2946e-06
1.89796e-06
-2.33209e-08
1.27027e-05
-8.26928e-07
3.1418e-06
-1.80425e-06
1.07527e-06
-2.43939e-06
1.73274e-06
-2.64467e-06
2.24305e-06
-2.84115e-06
2.1839e-06
-3.262e-06
1.681e-06
-3.55237e-06
1.0603e-06
-3.62963e-06
3.00004e-07
-3.48141e-06
-5.72339e-07
-3.14425e-06
-1.50206e-06
-2.67649e-06
-2.41716e-06
-2.12667e-06
-3.26833e-06
-1.52859e-06
-4.03003e-06
-9.01989e-07
-4.6941e-06
-2.56413e-07
-5.26225e-06
4.0484e-07
-5.73741e-06
1.08894e-06
-6.11221e-06
1.80075e-06
-6.3662e-06
2.53759e-06
-6.49076e-06
3.29024e-06
-6.46238e-06
4.04093e-06
-6.24617e-06
4.76217e-06
-5.80007e-06
5.41502e-06
-5.08054e-06
5.94858e-06
-4.05368e-06
6.30279e-06
-2.71371e-06
6.42084e-06
-1.10954e-06
6.2772e-06
6.39575e-07
5.88706e-06
2.41565e-06
5.28159e-06
4.14193e-06
4.49393e-06
5.79599e-06
3.56033e-06
7.40358e-06
2.53133e-06
9.15219e-06
1.42081e-06
1.20638e-05
1.81572e-05
-1.2558e-06
1.79833e-05
-2.30516e-06
1.04726e-05
-3.11343e-06
6.56348e-06
-3.77426e-06
5.70151e-06
-4.3557e-06
5.73507e-06
-4.89629e-06
5.85123e-06
-5.41886e-06
5.85264e-06
-5.92736e-06
5.70773e-06
-6.40999e-06
5.41358e-06
-6.84657e-06
4.96459e-06
-7.21153e-06
4.34898e-06
-7.47204e-06
3.54992e-06
-7.58583e-06
2.54845e-06
-7.50434e-06
1.33185e-06
-7.16934e-06
-1.01913e-07
-6.61171e-06
-1.62322e-06
-5.89393e-06
-3.10826e-06
-5.07183e-06
-4.49348e-06
-4.18228e-06
-5.76452e-06
-3.24326e-06
-6.92456e-06
-2.25333e-06
-7.98575e-06
-1.21749e-06
-8.91557e-06
-1.32584e-07
-9.70114e-06
9.61176e-07
-1.02589e-05
2.04759e-06
-1.05632e-05
3.14303e-06
-1.06324e-05
4.23884e-06
-1.04893e-05
5.31102e-06
-1.01613e-05
6.33839e-06
-9.68116e-06
7.30381e-06
-9.08297e-06
8.19398e-06
-8.39976e-06
8.99882e-06
-7.6614e-06
9.71122e-06
-6.89343e-06
1.03268e-05
-6.11651e-06
1.08439e-05
-5.34653e-06
1.12629e-05
-4.59505e-06
1.15866e-05
-3.86979e-06
1.18195e-05
-3.17514e-06
1.19677e-05
-2.51257e-06
1.20387e-05
-1.88115e-06
1.20409e-05
-1.27794e-06
1.19829e-05
-6.98516e-07
1.18727e-05
-1.37519e-07
1.17155e-05
4.13788e-07
1.15143e-05
9.59873e-07
1.12662e-05
1.50406e-06
1.09621e-05
2.04297e-06
1.05871e-05
2.56493e-06
1.01229e-05
3.05023e-06
9.55108e-06
3.47432e-06
8.85703e-06
3.81318e-06
8.0319e-06
4.0501e-06
7.07534e-06
4.1838e-06
6.00165e-06
4.23985e-06
4.86129e-06
4.29172e-06
3.82105e-06
4.50996e-06
3.34814e-06
5.24064e-06
3.90477e-06
6.56756e-06
4.89221e-06
7.08849e-06
5.51996e-06
6.14168e-06
5.50072e-06
4.43533e-06
4.89891e-06
2.71317e-06
3.87972e-06
1.39357e-06
2.6037e-06
8.75367e-07
1.15467e-06
3.34699e-06
-1.42921e-07
1.40003e-05
-8.97208e-07
3.89608e-06
-1.89615e-06
2.07421e-06
-2.6529e-06
2.4895e-06
-3.12422e-06
2.71437e-06
-3.46488e-06
2.52456e-06
-3.7543e-06
1.97042e-06
-3.88615e-06
1.19214e-06
-3.8291e-06
2.4296e-07
-3.59443e-06
-8.0701e-07
-3.2294e-06
-1.86709e-06
-2.78249e-06
-2.86407e-06
-2.2887e-06
-3.76212e-06
-1.76861e-06
-4.55012e-06
-1.23075e-06
-5.23196e-06
-6.76098e-07
-5.8169e-06
-1.01805e-07
-6.31171e-06
5.00064e-07
-6.71408e-06
1.13945e-06
-7.00559e-06
1.81309e-06
-7.1644e-06
2.51326e-06
-7.16255e-06
3.22451e-06
-6.95742e-06
3.92107e-06
-6.49663e-06
4.56592e-06
-5.72539e-06
5.10809e-06
-4.59586e-06
5.48337e-06
-3.08899e-06
5.62411e-06
-1.25028e-06
5.49997e-06
7.63714e-07
5.14181e-06
2.77381e-06
4.59608e-06
4.68767e-06
3.90108e-06
6.49099e-06
3.08703e-06
8.21763e-06
2.19262e-06
1.00466e-05
1.22776e-06
1.30286e-05
1.9385e-05
-1.11325e-06
1.90965e-05
-2.10516e-06
1.14645e-05
-2.88024e-06
7.33856e-06
-3.51374e-06
6.33502e-06
-4.06566e-06
6.28699e-06
-4.56453e-06
6.35011e-06
-5.02486e-06
6.31297e-06
-5.44949e-06
6.13236e-06
-5.8306e-06
5.79469e-06
-6.15199e-06
5.28598e-06
-6.38904e-06
4.58602e-06
-6.50525e-06
3.66613e-06
-6.44908e-06
2.49228e-06
-6.16631e-06
1.04909e-06
-5.62632e-06
-6.41902e-07
-4.88444e-06
-2.3651e-06
-4.02995e-06
-3.96275e-06
-3.12909e-06
-5.39434e-06
-2.21474e-06
-6.67887e-06
-1.2972e-06
-7.8421e-06
-3.61649e-07
-8.92129e-06
5.89359e-07
-9.86658e-06
1.54092e-06
-1.06527e-05
2.49625e-06
-1.12142e-05
3.4783e-06
-1.15452e-05
4.47859e-06
-1.16327e-05
5.4773e-06
-1.1488e-05
6.45355e-06
-1.11376e-05
7.3883e-06
-1.06159e-05
8.26579e-06
-9.96046e-06
9.07363e-06
-9.20759e-06
9.80247e-06
-8.39024e-06
1.04456e-05
-7.53653e-06
1.09985e-05
-6.66944e-06
1.14589e-05
-5.80693e-06
1.18263e-05
-4.96247e-06
1.21021e-05
-4.14556e-06
1.22893e-05
-3.3623e-06
1.23925e-05
-2.61581e-06
1.2418e-05
-1.90667e-06
1.23733e-05
-1.23321e-06
1.22666e-05
-5.91815e-07
1.21057e-05
2.34106e-08
1.18984e-05
6.21081e-07
1.165e-05
1.20824e-06
1.1362e-05
1.79208e-06
1.10301e-05
2.37483e-06
1.06439e-05
2.95118e-06
1.01878e-05
3.50632e-06
9.64487e-06
4.01724e-06
9.00069e-06
4.45735e-06
8.24722e-06
4.80358e-06
7.38633e-06
5.04468e-06
6.43537e-06
5.19081e-06
5.44125e-06
5.28584e-06
4.52404e-06
5.42718e-06
3.98005e-06
5.78463e-06
4.15933e-06
6.38829e-06
4.71545e-06
6.53237e-06
5.05698e-06
5.80016e-06
4.93753e-06
4.55478e-06
4.38739e-06
3.2633e-06
3.52599e-06
2.25497e-06
2.43434e-06
1.96702e-06
8.68774e-07
4.91255e-06
-3.90586e-07
1.52597e-05
-1.11727e-06
4.62276e-06
-2.10937e-06
3.06632e-06
-2.90611e-06
3.28623e-06
-3.46597e-06
3.27423e-06
-3.83913e-06
2.89772e-06
-4.05586e-06
2.18715e-06
-4.09277e-06
1.22904e-06
-3.95805e-06
1.0824e-07
-3.68924e-06
-1.07581e-06
-3.33864e-06
-2.2177e-06
-2.94332e-06
-3.25938e-06
-2.52536e-06
-4.18008e-06
-2.09347e-06
-4.98201e-06
-1.647e-06
-5.67844e-06
-1.18058e-06
-6.28332e-06
-6.87877e-07
-6.8044e-06
-1.62533e-07
-7.23942e-06
4.06014e-07
-7.57413e-06
1.01963e-06
-7.77802e-06
1.66914e-06
-7.81206e-06
2.34113e-06
-7.6294e-06
3.01272e-06
-7.16822e-06
3.65097e-06
-6.36364e-06
4.20652e-06
-5.15141e-06
4.61379e-06
-3.49626e-06
4.79307e-06
-1.42956e-06
4.69951e-06
8.57279e-07
4.38422e-06
3.0891e-06
3.91242e-06
5.15947e-06
3.32478e-06
7.07862e-06
2.64166e-06
8.90076e-06
1.88798e-06
1.08003e-05
1.06261e-06
1.3854e-05
2.04476e-05
-1.00155e-06
2.00981e-05
-1.94959e-06
1.24125e-05
-2.69235e-06
8.08132e-06
-3.2847e-06
6.92737e-06
-3.78268e-06
6.78497e-06
-4.21171e-06
6.77913e-06
-4.5825e-06
6.68376e-06
-4.89751e-06
6.44737e-06
-5.15161e-06
6.04879e-06
-5.3321e-06
5.46647e-06
-5.41766e-06
4.67158e-06
-5.37407e-06
3.62254e-06
-5.14434e-06
2.26255e-06
-4.65319e-06
5.57942e-07
-3.888e-06
-1.4071e-06
-2.97512e-06
-3.27798e-06
-2.02182e-06
-4.91604e-06
-1.08352e-06
-6.33264e-06
-1.7566e-07
-7.58673e-06
7.02224e-07
-8.71999e-06
1.55167e-06
-9.77074e-06
2.38768e-06
-1.07026e-05
3.22709e-06
-1.14921e-05
4.09369e-06
-1.20808e-05
4.98047e-06
-1.2432e-05
5.87659e-06
-1.25288e-05
6.76637e-06
-1.23778e-05
7.63275e-06
-1.2004e-05
8.4599e-06
-1.14431e-05
9.23443e-06
-1.0735e-05
9.94572e-06
-9.91889e-06
1.05856e-05
-9.03015e-06
1.11481e-05
-8.09902e-06
1.16289e-05
-7.15022e-06
1.20252e-05
-6.20326e-06
1.23358e-05
-5.27302e-06
1.25607e-05
-4.37044e-06
1.27015e-05
-3.50307e-06
1.27612e-05
-2.6756e-06
1.27447e-05
-1.89016e-06
1.26582e-05
-1.14665e-06
1.25093e-05
-4.42899e-07
1.2304e-05
2.28648e-07
1.20515e-05
8.7358e-07
1.17593e-05
1.5005e-06
1.14322e-05
2.1191e-06
1.10708e-05
2.73622e-06
1.06695e-05
3.35248e-06
1.02171e-05
3.95872e-06
9.69938e-06
4.53501e-06
9.10303e-06
5.0537e-06
8.42055e-06
5.48605e-06
7.65438e-06
5.81085e-06
6.82192e-06
6.02327e-06
5.96448e-06
6.14329e-06
5.16905e-06
6.22261e-06
4.61238e-06
6.3413e-06
4.49863e-06
6.50204e-06
4.65374e-06
6.37726e-06
4.70612e-06
5.74777e-06
4.47106e-06
4.78984e-06
3.94929e-06
3.78507e-06
3.20273e-06
3.00153e-06
2.2546e-06
2.91515e-06
4.37736e-07
6.72941e-06
-6.81868e-07
1.63793e-05
-1.41592e-06
5.35681e-06
-2.37573e-06
4.02613e-06
-3.15945e-06
4.06996e-06
-3.72457e-06
3.83936e-06
-4.08165e-06
3.25481e-06
-4.24592e-06
2.35142e-06
-4.22783e-06
1.21096e-06
-4.06191e-06
-5.76785e-08
-3.80263e-06
-1.3351e-06
-3.4974e-06
-2.52292e-06
-3.17263e-06
-3.58416e-06
-2.83927e-06
-4.51344e-06
-2.49687e-06
-5.3244e-06
-2.13848e-06
-6.03682e-06
-1.75494e-06
-6.66687e-06
-1.33769e-06
-7.22166e-06
-8.80392e-07
-7.69672e-06
-3.79393e-07
-8.07513e-06
1.70606e-07
-8.32802e-06
7.68469e-07
-8.40992e-06
1.40054e-06
-8.26147e-06
2.04376e-06
-7.81144e-06
2.67311e-06
-6.99299e-06
3.2426e-06
-5.72089e-06
3.6911e-06
-3.94477e-06
3.92846e-06
-1.66691e-06
3.87964e-06
9.06098e-07
3.61721e-06
3.35153e-06
3.23353e-06
5.54315e-06
2.76602e-06
7.54613e-06
2.22112e-06
9.44566e-06
1.61007e-06
1.14113e-05
9.1802e-07
1.45461e-05
2.13656e-05
-9.12852e-07
2.10109e-05
-1.82536e-06
1.33251e-05
-2.5311e-06
8.78707e-06
-3.06452e-06
7.46079e-06
-3.4826e-06
7.20305e-06
-3.8131e-06
7.10963e-06
-4.06615e-06
6.93682e-06
-4.24451e-06
6.62573e-06
-4.34565e-06
6.14994e-06
-4.36135e-06
5.48217e-06
-4.27706e-06
4.58729e-06
-4.06806e-06
3.41354e-06
-3.6901e-06
1.88459e-06
-2.96242e-06
-1.69741e-07
-1.98551e-06
-2.384e-06
-9.57014e-07
-4.30648e-06
3.23622e-08
-5.90542e-06
9.50202e-07
-7.25048e-06
1.79982e-06
-8.43635e-06
2.60238e-06
-9.52255e-06
3.37681e-06
-1.05452e-05
4.15009e-06
-1.14759e-05
4.92655e-06
-1.22686e-05
5.71145e-06
-1.28657e-05
6.50173e-06
-1.32223e-05
7.28928e-06
-1.33164e-05
8.06275e-06
-1.31513e-05
8.80971e-06
-1.27509e-05
9.51841e-06
-1.21518e-05
1.01788e-05
-1.13954e-05
1.07829e-05
-1.05229e-05
1.13242e-05
-9.57141e-06
1.17976e-05
-8.57244e-06
1.21992e-05
-7.55183e-06
1.2526e-05
-6.53005e-06
1.27759e-05
-5.52291e-06
1.29478e-05
-4.54237e-06
1.30419e-05
-3.59718e-06
1.30597e-05
-2.6934e-06
1.30043e-05
-1.83474e-06
1.28804e-05
-1.02272e-06
1.26942e-05
-2.56719e-07
1.24515e-05
4.71366e-07
1.21608e-05
1.16421e-06
1.18306e-05
1.8307e-06
1.14684e-05
2.48137e-06
1.10783e-05
3.12626e-06
1.06598e-05
3.77104e-06
1.02062e-05
4.41231e-06
9.70678e-06
5.03442e-06
9.15007e-06
5.61041e-06
8.52859e-06
6.10753e-06
7.84358e-06
6.49586e-06
7.10931e-06
6.75754e-06
6.35848e-06
6.89412e-06
5.65168e-06
6.9294e-06
5.09127e-06
6.90171e-06
4.78227e-06
6.81103e-06
4.64101e-06
6.51851e-06
4.4601e-06
5.92869e-06
4.11646e-06
5.13348e-06
3.59223e-06
4.3093e-06
2.89634e-06
3.69742e-06
1.96412e-06
3.84738e-06
-1.72424e-07
8.86596e-06
-1.00626e-06
1.72131e-05
-1.74845e-06
6.099e-06
-2.65899e-06
4.93667e-06
-3.40155e-06
4.81251e-06
-3.93498e-06
4.37279e-06
-4.25711e-06
3.57694e-06
-4.38185e-06
2.47617e-06
-4.33787e-06
1.16698e-06
-4.1758e-06
-2.19753e-07
-3.95557e-06
-1.55533e-06
-3.71428e-06
-2.76422e-06
-3.46856e-06
-3.82988e-06
-3.22064e-06
-4.76136e-06
-2.96386e-06
-5.58118e-06
-2.68771e-06
-6.31298e-06
-2.38128e-06
-6.9733e-06
-2.03524e-06
-7.56769e-06
-1.64287e-06
-8.08909e-06
-1.20069e-06
-8.51732e-06
-7.09682e-07
-8.81902e-06
-1.72298e-07
-8.94731e-06
4.08377e-07
-8.84214e-06
1.02145e-06
-8.42451e-06
1.63769e-06
-7.60923e-06
2.21777e-06
-6.30097e-06
2.71331e-06
-4.44031e-06
3.0317e-06
-1.9853e-06
3.05303e-06
8.84769e-07
2.85281e-06
3.55174e-06
2.57025e-06
5.82572e-06
2.23204e-06
7.88434e-06
1.82768e-06
9.85002e-06
1.35669e-06
1.18823e-05
7.9032e-07
1.51124e-05
2.2156e-05
-8.41207e-07
2.18521e-05
-1.72376e-06
1.42076e-05
-2.38554e-06
9.44885e-06
-2.84166e-06
7.9169e-06
-3.15465e-06
7.51604e-06
-3.35977e-06
7.31474e-06
-3.46929e-06
7.04634e-06
-3.48672e-06
6.64316e-06
-3.41165e-06
6.07487e-06
-3.2392e-06
5.30972e-06
-2.96029e-06
4.30838e-06
-2.54947e-06
3.00271e-06
-1.9564e-06
1.29152e-06
-9.96416e-07
-1.12972e-06
8.86589e-08
-3.46908e-06
1.09988e-06
-5.3177e-06
2.00687e-06
-6.81241e-06
2.83907e-06
-8.08268e-06
3.62938e-06
-9.22667e-06
4.39625e-06
-1.02894e-05
5.14056e-06
-1.12895e-05
5.86955e-06
-1.22049e-05
6.58667e-06
-1.29857e-05
7.29344e-06
-1.35725e-05
7.98789e-06
-1.39168e-05
8.665e-06
-1.39935e-05
9.31798e-06
-1.38043e-05
9.93955e-06
-1.33725e-05
1.05229e-05
-1.27351e-05
1.1062e-05
-1.19346e-05
1.1552e-05
-1.10129e-05
1.19886e-05
-1.0008e-05
1.23678e-05
-8.95171e-06
1.26863e-05
-7.87031e-06
1.29408e-05
-6.78452e-06
1.31284e-05
-5.71057e-06
1.32471e-05
-4.66104e-06
1.32955e-05
-3.64559e-06
1.32736e-05
-2.67148e-06
1.31828e-05
-1.74392e-06
1.30262e-05
-8.66132e-07
1.28076e-05
-3.81565e-08
1.25334e-05
7.45582e-07
1.22114e-05
1.48624e-06
1.18501e-05
2.19202e-06
1.14582e-05
2.87324e-06
1.10427e-05
3.54172e-06
1.06068e-05
4.20698e-06
1.01482e-05
4.87088e-06
9.65988e-06
5.52274e-06
9.13235e-06
6.13794e-06
8.55814e-06
6.68175e-06
7.93632e-06
7.11768e-06
7.27642e-06
7.41744e-06
6.60162e-06
7.56891e-06
5.95203e-06
7.579e-06
5.38608e-06
7.46765e-06
4.95578e-06
7.24134e-06
4.62149e-06
6.8528e-06
4.2755e-06
6.27468e-06
3.84241e-06
5.56656e-06
3.29309e-06
4.85862e-06
2.58944e-06
4.40107e-06
1.48755e-06
4.94928e-06
-8.57132e-07
1.12106e-05
-1.35667e-06
1.77126e-05
-2.09022e-06
6.83256e-06
-2.94216e-06
5.78861e-06
-3.63102e-06
5.50137e-06
-4.11912e-06
4.86089e-06
-4.40293e-06
3.86075e-06
-4.501e-06
2.57424e-06
-4.45402e-06
1.11999e-06
-4.32039e-06
-3.5338e-07
-4.15572e-06
-1.72e-06
-3.9864e-06
-2.93353e-06
-3.82044e-06
-3.99584e-06
-3.65382e-06
-4.92798e-06
-3.47634e-06
-5.75866e-06
-3.27601e-06
-6.51331e-06
-3.04156e-06
-7.20775e-06
-2.76364e-06
-7.84561e-06
-2.43541e-06
-8.41732e-06
-2.053e-06
-8.89972e-06