/*--------------------------------*- C++ -*----------------------------------*\
| =========                 |                                                 |
| \\      /  F ield         | OpenFOAM: The Open Source CFD Toolbox           |
|  \\    /   O peration     | Version:  4.1                                   |
|   \\  /    A nd           | Web:      www.OpenFOAM.org                      |
|    \\/     M anipulation  |                                                 |
\*---------------------------------------------------------------------------*/
FoamFile
{
    version     2.0;
    format      ascii;
    class       volScalarField;
    location    "1000";
    object      T;
}
// * * * * * * * * * * * * * * * * * * * * * * * * * * * * * * * * * * * * * //

dimensions      [0 0 0 1 0 0 0];

internalField   nonuniform List<scalar> 
1600
(
286.244
285.839
285.55
285.292
285.042
284.858
284.762
284.729
284.736
284.785
285.15
285.475
285.788
286.118
286.493
286.849
286.897
286.958
287.702
288.291
288.204
285.653
285.017
284.66
284.626
284.699
284.994
285.381
285.537
285.542
285.472
285.403
285.387
285.451
285.611
285.872
286.153
286.437
286.738
287.124
285.257
284.218
283.736
283.546
283.503
283.504
283.493
283.473
283.447
283.416
283.391
283.375
283.365
283.359
283.359
283.361
283.361
283.416
284.341
284.53
286.539
285.14
283.523
283.434
283.438
283.435
283.434
283.432
283.448
283.472
283.495
283.512
283.524
283.529
283.526
283.517
283.603
283.799
284.343
285.76
284.844
283.837
283.577
283.55
283.566
283.568
283.551
283.521
283.484
283.445
283.414
283.385
283.36
283.34
283.323
283.31
283.3
283.301
283.612
283.592
285.459
285.146
283.545
283.455
283.464
283.467
283.471
283.481
283.504
283.532
283.549
283.561
283.572
283.578
283.578
283.567
283.555
283.583
283.854
285.209
284.623
283.716
283.583
283.603
283.626
283.624
283.596
283.556
283.512
283.476
283.443
283.411
283.382
283.355
283.332
283.314
283.3
283.29
283.361
283.351
284.642
285.016
283.81
283.475
283.489
283.5
283.514
283.531
283.548
283.56
283.563
283.57
283.583
283.595
283.603
283.601
283.586
283.573
283.706
284.916
284.49
283.672
283.609
283.648
283.675
283.665
283.625
283.575
283.531
283.494
283.46
283.429
283.398
283.369
283.342
283.319
283.3
283.286
283.293
283.288
284.031
284.774
284.007
283.497
283.505
283.523
283.54
283.553
283.557
283.552
283.544
283.552
283.57
283.591
283.608
283.614
283.604
283.583
283.649
284.734
284.402
283.655
283.633
283.682
283.712
283.692
283.64
283.586
283.54
283.5
283.466
283.435
283.406
283.377
283.35
283.324
283.301
283.283
283.275
283.268
283.629
284.512
284.118
283.538
283.514
283.536
283.55
283.553
283.543
283.525
283.512
283.523
283.549
283.58
283.605
283.618
283.614
283.592
283.623
284.611
284.342
283.648
283.65
283.706
283.741
283.708
283.648
283.59
283.539
283.497
283.462
283.432
283.405
283.379
283.352
283.326
283.301
283.28
283.266
283.258
283.409
284.273
284.138
283.679
283.518
283.54
283.547
283.537
283.514
283.489
283.475
283.491
283.526
283.565
283.599
283.619
283.62
283.599
283.61
284.521
284.3
283.645
283.662
283.725
283.76
283.715
283.652
283.587
283.531
283.486
283.45
283.421
283.397
283.373
283.349
283.324
283.299
283.277
283.26
283.25
283.306
284.07
284.112
283.741
283.518
283.537
283.535
283.512
283.478
283.447
283.435
283.459
283.503
283.55
283.592
283.618
283.623
283.604
283.603
284.452
284.27
283.642
283.665
283.749
283.769
283.72
283.649
283.578
283.517
283.469
283.433
283.405
283.382
283.361
283.341
283.318
283.294
283.272
283.254
283.243
283.262
283.903
284.064
283.778
283.517
283.53
283.517
283.481
283.438
283.404
283.396
283.428
283.481
283.535
283.586
283.617
283.626
283.608
283.598
284.398
284.248
283.638
283.656
283.772
283.777
283.719
283.639
283.562
283.498
283.448
283.41
283.383
283.363
283.345
283.328
283.308
283.287
283.266
283.248
283.235
283.241
283.768
284.009
283.8
283.514
283.519
283.494
283.447
283.396
283.362
283.359
283.399
283.461
283.521
283.579
283.616
283.627
283.61
283.594
284.353
284.236
283.634
283.643
283.786
283.783
283.713
283.624
283.541
283.473
283.422
283.385
283.359
283.34
283.326
283.312
283.296
283.277
283.258
283.241
283.228
283.228
283.659
283.952
283.812
283.509
283.505
283.469
283.412
283.356
283.323
283.324
283.375
283.445
283.51
283.572
283.614
283.628
283.612
283.591
284.316
284.232
283.632
283.649
283.804
283.786
283.7
283.601
283.514
283.445
283.394
283.357
283.332
283.316
283.304
283.293
283.281
283.266
283.249
283.233
283.22
283.218
283.572
283.897
283.816
283.504
283.49
283.443
283.376
283.318
283.287
283.294
283.354
283.432
283.501
283.566
283.612
283.628
283.613
283.589
284.285
284.231
283.66
283.718
283.835
283.785
283.679
283.572
283.483
283.415
283.364
283.329
283.304
283.289
283.28
283.273
283.265
283.253
283.239
283.224
283.213
283.21
283.502
283.846
283.816
283.498
283.475
283.417
283.343
283.284
283.257
283.268
283.339
283.424
283.495
283.562
283.611
283.629
283.613
283.586
284.258
284.231
283.727
283.842
283.869
283.773
283.647
283.535
283.448
283.382
283.334
283.299
283.276
283.262
283.256
283.252
283.247
283.239
283.227
283.215
283.205
283.202
283.446
283.801
283.812
283.492
283.458
283.389
283.312
283.255
283.232
283.248
283.329
283.419
283.493
283.559
283.61
283.629
283.613
283.584
284.234
284.231
283.829
283.928
283.878
283.743
283.605
283.494
283.411
283.35
283.304
283.271
283.248
283.235
283.23
283.229
283.227
283.223
283.215
283.205
283.197
283.195
283.402
283.762
283.807
283.486
283.443
283.365
283.285
283.232
283.213
283.234
283.324
283.42
283.495
283.559
283.612
283.63
283.613
283.581
284.213
284.23
283.955
283.985
283.858
283.693
283.553
283.45
283.375
283.318
283.275
283.243
283.221
283.208
283.204
283.205
283.207
283.207
283.202
283.195
283.189
283.188
283.366
283.728
283.8
283.48
283.427
283.343
283.264
283.215
283.2
283.225
283.323
283.425
283.5
283.561
283.615
283.631
283.612
283.579
284.195
284.23
284.082
283.996
283.803
283.625
283.497
283.407
283.34
283.288
283.247
283.217
283.196
283.183
283.178
283.18
283.185
283.189
283.189
283.185
283.18
283.181
283.338
283.699
283.793
283.474
283.413
283.324
283.247
283.205
283.193
283.223
283.328
283.435
283.511
283.567
283.619
283.634
283.612
283.576
284.179
284.23
284.159
283.94
283.712
283.548
283.442
283.367
283.308
283.26
283.223
283.195
283.175
283.162
283.156
283.157
283.164
283.171
283.174
283.174
283.172
283.175
283.315
283.675
283.786
283.467
283.4
283.309
283.237
283.2
283.192
283.224
283.336
283.449
283.525
283.575
283.625
283.636
283.611
283.573
284.164
284.229
284.089
283.808
283.6
283.475
283.395
283.333
283.28
283.236
283.203
283.179
283.161
283.147
283.138
283.137
283.144
283.153
283.16
283.163
283.164
283.169
283.297
283.656
283.779
283.461
283.388
283.297
283.232
283.201
283.196
283.23
283.349
283.469
283.543
283.587
283.631
283.638
283.609
283.57
284.151
284.208
283.905
283.641
283.496
283.418
283.359
283.304
283.255
283.216
283.189
283.17
283.155
283.14
283.127
283.122
283.126
283.136
283.146
283.152
283.156
283.163
283.283
283.642
283.773
283.454
283.378
283.289
283.233
283.206
283.204
283.238
283.367
283.492
283.565
283.602
283.639
283.64
283.607
283.566
284.139
283.96
283.628
283.487
283.427
283.382
283.332
283.28
283.235
283.203
283.183
283.172
283.16
283.144
283.125
283.114
283.114
283.122
283.133
283.142
283.148
283.158
283.272
283.632
283.766
283.448
283.37
283.285
283.238
283.215
283.216
283.249
283.388
283.52
283.591
283.62
283.648
283.642
283.605
283.562
284.128
283.471
283.436
283.426
283.402
283.36
283.308
283.258
283.219
283.197
283.189
283.186
283.179
283.163
283.137
283.115
283.107
283.112
283.122
283.132
283.141
283.153
283.263
283.627
283.759
283.442
283.363
283.285
283.245
283.228
283.232
283.262
283.413
283.551
283.619
283.64
283.658
283.643
283.602
283.558
284.119
283.425
283.433
283.421
283.388
283.339
283.286
283.241
283.212
283.203
283.207
283.215
283.214
283.198
283.163
283.128
283.109
283.106
283.114
283.125
283.135
283.149
283.257
283.628
283.751
283.437
283.359
283.288
283.255
283.245
283.251
283.275
283.442
283.584
283.648
283.662
283.669
283.645
283.598
283.554
284.11
283.427
283.433
283.412
283.37
283.318
283.268
283.231
283.216
283.222
283.241
283.259
283.265
283.25
283.208
283.156
283.12
283.107
283.11
283.12
283.131
283.146
283.254
283.635
283.742
283.432
283.356
283.293
283.266
283.267
283.272
283.29
283.474
283.62
283.677
283.684
283.681
283.646
283.593
283.55
284.102
283.427
283.43
283.399
283.352
283.3
283.255
283.23
283.232
283.255
283.288
283.316
283.327
283.314
283.271
283.2
283.145
283.117
283.112
283.118
283.129
283.145
283.258
283.646
283.732
283.427
283.355
283.301
283.279
283.292
283.295
283.306
283.508
283.655
283.704
283.704
283.691
283.646
283.589
283.545
284.095
283.426
283.425
283.386
283.336
283.286
283.251
283.242
283.261
283.303
283.347
283.382
283.394
283.381
283.341
283.265
283.185
283.137
283.12
283.121
283.129
283.145
283.275
283.657
283.721
283.423
283.356
283.31
283.296
283.321
283.319
283.324
283.546
283.69
283.726
283.719
283.699
283.647
283.584
283.54
284.089
283.424
283.418
283.373
283.322
283.279
283.257
283.266
283.304
283.36
283.411
283.445
283.455
283.44
283.397
283.324
283.237
283.169
283.136
283.127
283.132
283.15
283.303
283.667
283.709
283.42
283.357
283.32
283.319
283.353
283.344
283.343
283.584
283.721
283.742
283.73
283.704
283.648
283.58
283.536
284.084
283.422
283.41
283.362
283.314
283.28
283.274
283.302
283.356
283.418
283.47
283.501
283.508
283.488
283.443
283.371
283.286
283.208
283.16
283.14
283.139
283.167
283.337
283.675
283.697
283.417
283.358
283.324
283.347
283.385
283.367
283.363
283.624
283.745
283.753
283.737
283.708
283.651
283.575
283.531
284.081
283.419
283.403
283.354
283.312
283.29
283.302
283.345
283.407
283.471
283.521
283.549
283.551
283.527
283.479
283.41
283.329
283.249
283.19
283.159
283.154
283.195
283.375
283.683
283.686
283.414
283.358
283.318
283.38
283.418
283.39
283.386
283.663
283.762
283.76
283.741
283.711
283.653
283.572
283.53
284.078
283.416
283.395
283.349
283.316
283.309
283.334
283.387
283.453
283.517
283.564
283.587
283.586
283.56
283.512
283.445
283.366
283.289
283.225
283.186
283.181
283.235
283.414
283.689
283.675
283.412
283.358
283.333
283.415
283.45
283.412
283.41
283.698
283.775
283.766
283.743
283.712
283.656
283.569
283.538
284.076
283.413
283.389
283.348
283.326
283.33
283.365
283.424
283.491
283.552
283.596
283.617
283.615
283.589
283.543
283.479
283.404
283.33
283.265
283.224
283.221
283.283
283.452
283.693
283.666
283.411
283.359
283.376
283.454
283.482
283.432
283.438
283.726
283.787
283.768
283.741
283.712
283.658
283.569
283.557
284.073
283.409
283.386
283.351
283.337
283.351
283.392
283.452
283.517
283.575
283.617
283.639
283.639
283.618
283.576
283.516
283.446
283.376
283.314
283.275
283.274
283.336
283.49
283.697
283.66
283.412
283.368
283.418
283.491
283.512
283.449
283.467
283.75
283.798
283.77
283.736
283.706
283.657
283.572
283.588
284.071
283.406
283.384
283.355
283.348
283.367
283.41
283.469
283.531
283.586
283.627
283.651
283.657
283.643
283.61
283.559
283.495
283.43
283.373
283.336
283.336
283.392
283.525
283.701
283.657
283.419
283.392
283.46
283.528
283.539
283.464
283.496
283.772
283.808
283.771
283.727
283.694
283.651
283.583
283.631
284.068
283.403
283.383
283.359
283.356
283.376
283.418
283.472
283.529
283.58
283.622
283.651
283.665
283.663
283.642
283.603
283.55
283.49
283.439
283.405
283.402
283.448
283.557
283.704
283.654
283.447
283.435
283.505
283.564
283.564
283.475
283.525
283.792
283.82
283.777
283.722
283.68
283.645
283.609
283.685
284.065
283.4
283.382
283.361
283.359
283.378
283.413
283.46
283.511
283.558
283.6
283.634
283.659
283.671
283.666
283.643
283.603
283.554
283.508
283.477
283.47
283.503
283.588
283.709
283.651
283.493
283.493
283.554
283.599
283.585
283.481
283.553
283.812
283.836
283.791
283.731
283.682
283.658
283.657
283.746
284.063
283.396
283.381
283.361
283.358
283.371
283.398
283.435
283.477
283.519
283.56
283.599
283.634
283.661
283.676
283.672
283.651
283.615
283.577
283.547
283.537
283.556
283.617
283.716
283.649
283.55
283.558
283.605
283.633
283.602
283.483
283.58
283.831
283.858
283.82
283.767
283.722
283.707
283.727
283.813
284.06
283.39
283.377
283.357
283.352
283.358
283.375
283.4
283.43
283.464
283.501
283.542
283.586
283.629
283.663
283.683
283.684
283.667
283.64
283.615
283.6
283.607
283.646
283.724
283.655
283.607
283.621
283.653
283.661
283.612
283.477
283.606
283.85
283.884
283.862
283.827
283.797
283.788
283.812
283.881
284.057
283.38
283.369
283.348
283.339
283.34
283.347
283.36
283.376
283.399
283.428
283.466
283.513
283.566
283.618
283.663
283.692
283.7
283.691
283.675
283.66
283.658
283.677
283.734
283.676
283.662
283.679
283.696
283.681
283.609
283.462
283.629
283.864
283.911
283.91
283.897
283.884
283.881
283.899
283.944
284.053
283.353
283.347
283.326
283.314
283.311
283.312
283.315
283.32
283.328
283.343
283.369
283.408
283.462
283.524
283.589
283.647
283.69
283.712
283.716
283.712
283.708
283.713
283.75
283.717
283.719
283.73
283.721
283.676
283.582
283.43
283.643
283.867
283.925
283.945
283.954
283.958
283.962
283.972
283.995
284.048
283.085
283.246
283.258
283.236
283.22
283.209
283.201
283.195
283.192
283.193
283.202
283.223
283.259
283.31
283.373
283.442
283.511
283.575
283.628
283.667
283.693
283.715
283.752
283.733
283.717
283.689
283.644
283.58
283.488
283.366
283.628
283.827
283.886
283.913
283.931
283.947
283.962
283.979
283.998
284.023
)
;

boundaryField
{
    floor
    {
        type            fixedValue;
        value           uniform 340;
    }
    ceiling
    {
        type            fixedValue;
        value           uniform 280;
    }
    fixedWalls
    {
        type            zeroGradient;
    }
    frontAndBack
    {
        type            empty;
    }
}


// ************************************************************************* //
