/*--------------------------------*- C++ -*----------------------------------*\
| =========                 |                                                 |
| \\      /  F ield         | OpenFOAM: The Open Source CFD Toolbox           |
|  \\    /   O peration     | Version:  4.1                                   |
|   \\  /    A nd           | Web:      www.OpenFOAM.org                      |
|    \\/     M anipulation  |                                                 |
\*---------------------------------------------------------------------------*/
FoamFile
{
    version     2.0;
    format      ascii;
    class       volScalarField;
    location    "1420";
    object      p_rgh;
}
// * * * * * * * * * * * * * * * * * * * * * * * * * * * * * * * * * * * * * //

dimensions      [0 2 -2 0 0 0 0];

internalField   nonuniform List<scalar> 
5000
(
0.0492037
0.049214
0.049221
0.0492194
0.0492132
0.0492055
0.0491978
0.0491901
0.0491826
0.0491752
0.0491679
0.0491608
0.0491544
0.0491486
0.0491436
0.0491396
0.0491367
0.0491352
0.0491352
0.0491375
0.0491411
0.0491446
0.0491471
0.049148
0.0491472
0.0491446
0.0491404
0.0491346
0.0491274
0.049119
0.0491097
0.0490996
0.0490888
0.0490777
0.0490664
0.0490549
0.0490435
0.0490322
0.0490212
0.0490104
0.0489999
0.0489897
0.04898
0.0489706
0.0489616
0.048953
0.0489448
0.0489369
0.0489294
0.0489223
0.0489154
0.048909
0.0489029
0.0488971
0.0488917
0.0488866
0.0488819
0.0488775
0.0488733
0.0488695
0.0488661
0.0488629
0.04886
0.0488574
0.0488552
0.0488532
0.0488515
0.0488501
0.0488489
0.0488481
0.0488476
0.0488473
0.0488473
0.0488476
0.0488482
0.0488491
0.0488503
0.0488518
0.0488537
0.0488563
0.0488596
0.0488641
0.0488702
0.0488784
0.0488891
0.0489022
0.0489175
0.0489334
0.0489476
0.0489591
0.0489689
0.0489806
0.0489942
0.0490004
0.0489989
0.0489985
0.0489974
0.0489958
0.0489877
0.0489782
0.0492021
0.0492361
0.0492381
0.0492373
0.0492358
0.0492336
0.0492314
0.0492293
0.0492274
0.0492256
0.0492241
0.0492228
0.0492204
0.0492178
0.0492156
0.0492143
0.0492146
0.0492168
0.049219
0.0492188
0.049217
0.0492143
0.0492109
0.0492068
0.0492018
0.0491959
0.049189
0.0491811
0.0491724
0.0491628
0.0491526
0.0491418
0.0491308
0.0491195
0.0491082
0.049097
0.049086
0.0490752
0.0490648
0.0490549
0.0490454
0.0490364
0.0490279
0.0490199
0.0490124
0.0490054
0.0489989
0.0489929
0.0489873
0.0489822
0.0489774
0.048973
0.0489689
0.0489651
0.0489616
0.0489584
0.0489555
0.0489529
0.0489505
0.0489485
0.0489467
0.0489451
0.0489437
0.0489426
0.0489416
0.0489409
0.0489402
0.0489397
0.0489394
0.0489391
0.0489389
0.0489389
0.0489389
0.048939
0.0489391
0.0489393
0.0489395
0.0489397
0.0489399
0.0489404
0.0489415
0.0489439
0.0489484
0.0489559
0.0489672
0.048982
0.0489989
0.0490161
0.0490312
0.0490364
0.0490265
0.0490105
0.049002
0.0490065
0.0490196
0.0490216
0.049014
0.0490048
0.0489924
0.0489693
0.0491916
0.0492355
0.0492373
0.0492361
0.0492348
0.0492332
0.0492316
0.04923
0.0492286
0.0492273
0.0492261
0.0492252
0.0492245
0.0492241
0.0492238
0.0492238
0.0492238
0.049223
0.0492217
0.04922
0.0492178
0.0492148
0.0492112
0.0492067
0.0492014
0.0491952
0.049188
0.0491799
0.0491709
0.0491612
0.0491508
0.04914
0.0491289
0.0491176
0.0491063
0.0490952
0.0490842
0.0490735
0.0490632
0.0490534
0.049044
0.0490351
0.0490266
0.0490188
0.0490114
0.0490045
0.0489981
0.0489921
0.0489866
0.0489816
0.0489769
0.0489726
0.0489687
0.0489651
0.0489619
0.048959
0.0489564
0.0489541
0.0489522
0.0489505
0.0489493
0.0489483
0.0489478
0.0489476
0.0489478
0.0489483
0.0489493
0.0489506
0.0489522
0.0489542
0.0489565
0.0489591
0.0489619
0.0489649
0.0489681
0.0489713
0.0489746
0.0489779
0.0489813
0.0489847
0.0489884
0.0489927
0.0489982
0.0490052
0.0490139
0.0490244
0.0490362
0.0490485
0.0490591
0.0490628
0.049051
0.049025
0.0490037
0.0490029
0.0490163
0.0490202
0.0490121
0.0490001
0.0489809
0.0489583
0.0491816
0.0492349
0.0492367
0.0492348
0.0492334
0.0492319
0.0492305
0.0492291
0.0492277
0.0492264
0.0492252
0.049224
0.0492229
0.049222
0.0492213
0.0492207
0.0492205
0.0492204
0.0492198
0.0492187
0.0492167
0.0492139
0.0492101
0.0492055
0.0491999
0.0491933
0.0491858
0.0491774
0.0491681
0.0491582
0.0491476
0.0491367
0.0491255
0.0491142
0.0491029
0.0490918
0.0490809
0.0490703
0.0490601
0.0490504
0.0490411
0.0490323
0.049024
0.0490162
0.049009
0.0490021
0.0489958
0.0489899
0.0489845
0.0489794
0.0489748
0.0489705
0.0489665
0.0489629
0.0489596
0.0489566
0.0489539
0.0489515
0.0489495
0.0489477
0.0489463
0.0489453
0.0489447
0.0489444
0.0489446
0.0489452
0.0489462
0.0489477
0.0489497
0.0489522
0.0489551
0.0489585
0.0489623
0.0489664
0.048971
0.0489758
0.0489808
0.0489861
0.0489915
0.0489969
0.0490025
0.0490083
0.0490145
0.0490212
0.0490285
0.0490368
0.0490459
0.0490559
0.0490651
0.049069
0.0490584
0.0490298
0.0490006
0.0489928
0.0490043
0.0490116
0.0490047
0.0489934
0.0489779
0.0489579
0.049173
0.0492348
0.0492364
0.0492338
0.0492321
0.0492305
0.0492291
0.0492276
0.0492261
0.0492245
0.0492228
0.049221
0.0492194
0.0492181
0.0492174
0.0492178
0.0492191
0.0492196
0.0492193
0.0492181
0.0492159
0.0492128
0.0492087
0.0492036
0.0491976
0.0491905
0.0491825
0.0491736
0.049164
0.0491538
0.049143
0.0491319
0.0491206
0.0491093
0.0490981
0.049087
0.0490762
0.0490658
0.0490557
0.0490462
0.0490371
0.0490284
0.0490203
0.0490127
0.0490056
0.0489989
0.0489927
0.048987
0.0489816
0.0489766
0.048972
0.0489678
0.0489638
0.0489602
0.0489569
0.0489539
0.0489511
0.0489487
0.0489465
0.0489446
0.0489431
0.048942
0.0489412
0.0489408
0.0489408
0.0489412
0.0489421
0.0489435
0.0489454
0.0489477
0.0489506
0.048954
0.0489578
0.0489622
0.0489669
0.048972
0.0489775
0.0489833
0.0489893
0.0489954
0.0490017
0.049008
0.0490145
0.0490212
0.0490282
0.0490358
0.0490441
0.0490531
0.0490616
0.049066
0.0490573
0.0490291
0.0489945
0.048978
0.0489833
0.0489897
0.0489877
0.0489867
0.0489878
0.0489866
0.0491655
0.0492353
0.0492367
0.0492333
0.0492311
0.0492293
0.0492275
0.0492257
0.0492238
0.0492217
0.0492195
0.0492176
0.0492163
0.0492157
0.0492163
0.0492182
0.0492192
0.0492193
0.0492185
0.0492168
0.0492142
0.0492105
0.0492059
0.0492003
0.0491936
0.049186
0.0491775
0.0491682
0.0491581
0.0491475
0.0491365
0.0491253
0.0491139
0.0491026
0.0490913
0.0490804
0.0490697
0.0490595
0.0490496
0.0490403
0.0490314
0.049023
0.0490151
0.0490077
0.0490008
0.0489943
0.0489883
0.0489827
0.0489775
0.0489726
0.0489681
0.048964
0.0489601
0.0489565
0.0489532
0.0489502
0.0489475
0.048945
0.0489428
0.0489409
0.0489393
0.048938
0.0489371
0.0489366
0.0489366
0.0489369
0.0489377
0.048939
0.0489407
0.048943
0.0489457
0.048949
0.0489527
0.0489569
0.0489615
0.0489666
0.048972
0.0489777
0.0489836
0.0489898
0.0489961
0.0490025
0.0490089
0.0490156
0.0490224
0.0490296
0.0490373
0.0490455
0.0490535
0.0490579
0.0490508
0.049024
0.0489863
0.0489612
0.0489576
0.0489597
0.0489535
0.0489577
0.0489739
0.0489888
0.0491589
0.0492366
0.0492376
0.0492333
0.0492306
0.0492283
0.0492262
0.049224
0.0492216
0.0492194
0.0492176
0.0492164
0.0492159
0.0492164
0.0492179
0.0492188
0.0492187
0.049218
0.0492166
0.0492143
0.049211
0.0492068
0.0492016
0.0491953
0.049188
0.0491798
0.0491707
0.0491609
0.0491504
0.0491395
0.0491282
0.0491168
0.0491054
0.049094
0.0490829
0.049072
0.0490616
0.0490515
0.0490419
0.0490328
0.0490242
0.049016
0.0490084
0.0490012
0.0489945
0.0489883
0.0489825
0.0489771
0.048972
0.0489673
0.048963
0.0489589
0.0489551
0.0489516
0.0489484
0.0489454
0.0489427
0.0489402
0.048938
0.0489361
0.0489345
0.0489332
0.0489322
0.0489317
0.0489316
0.048932
0.0489327
0.048934
0.0489357
0.048938
0.0489407
0.0489439
0.0489475
0.0489516
0.0489561
0.048961
0.0489662
0.0489717
0.0489775
0.0489834
0.0489895
0.0489957
0.049002
0.0490083
0.0490148
0.0490216
0.0490286
0.049036
0.049043
0.049047
0.0490408
0.0490157
0.0489765
0.0489447
0.0489329
0.0489303
0.0489233
0.0489175
0.0489405
0.0489738
0.0491531
0.0492389
0.049239
0.0492339
0.0492306
0.049228
0.0492256
0.0492232
0.0492211
0.0492194
0.0492182
0.0492176
0.0492177
0.0492186
0.0492189
0.0492183
0.0492173
0.0492158
0.0492136
0.0492106
0.0492067
0.0492018
0.0491959
0.049189
0.049181
0.0491722
0.0491625
0.0491521
0.0491412
0.0491299
0.0491183
0.0491067
0.0490952
0.0490839
0.0490729
0.0490622
0.049052
0.0490422
0.0490328
0.049024
0.0490157
0.0490078
0.0490005
0.0489936
0.0489871
0.0489811
0.0489755
0.0489703
0.0489655
0.0489609
0.0489567
0.0489528
0.0489491
0.0489457
0.0489425
0.0489396
0.048937
0.0489346
0.0489324
0.0489306
0.048929
0.0489278
0.0489269
0.0489264
0.0489264
0.0489268
0.0489276
0.0489289
0.0489307
0.048933
0.0489357
0.0489389
0.0489425
0.0489466
0.048951
0.0489557
0.0489608
0.0489661
0.0489717
0.0489774
0.0489832
0.0489891
0.048995
0.049001
0.049007
0.0490131
0.0490193
0.0490255
0.0490313
0.0490344
0.0490284
0.0490046
0.0489652
0.0489291
0.0489107
0.0489042
0.0488976
0.0488923
0.0489061
0.0489571
0.049148
0.0492418
0.0492409
0.049235
0.0492314
0.0492286
0.0492262
0.0492241
0.0492225
0.0492212
0.0492204
0.0492201
0.0492202
0.0492197
0.0492186
0.049217
0.0492152
0.0492128
0.0492099
0.0492062
0.0492015
0.0491959
0.0491892
0.0491815
0.0491728
0.0491632
0.0491529
0.0491419
0.0491305
0.0491188
0.049107
0.0490953
0.0490838
0.0490725
0.0490616
0.0490512
0.0490412
0.0490317
0.0490227
0.0490143
0.0490063
0.0489988
0.0489918
0.0489852
0.048979
0.0489733
0.048968
0.048963
0.0489584
0.048954
0.04895
0.0489463
0.0489428
0.0489396
0.0489366
0.0489339
0.0489314
0.0489292
0.0489273
0.0489257
0.0489243
0.0489233
0.0489226
0.0489223
0.0489223
0.0489228
0.0489237
0.0489251
0.0489269
0.0489292
0.0489319
0.0489351
0.0489386
0.0489426
0.0489469
0.0489515
0.0489564
0.0489615
0.0489668
0.0489722
0.0489777
0.0489832
0.0489887
0.0489941
0.0489995
0.0490048
0.0490099
0.0490148
0.049019
0.0490206
0.049014
0.0489911
0.0489521
0.0489132
0.0488896
0.0488794
0.048873
0.0488708
0.0488877
0.0489434
0.0491435
0.0492453
0.0492432
0.0492367
0.0492328
0.04923
0.0492279
0.0492262
0.0492249
0.049224
0.0492233
0.0492227
0.0492214
0.0492197
0.0492176
0.0492152
0.0492126
0.0492095
0.0492057
0.0492012
0.0491957
0.0491893
0.0491817
0.0491731
0.0491635
0.0491531
0.0491421
0.0491305
0.0491186
0.0491065
0.0490945
0.0490827
0.0490713
0.0490602
0.0490495
0.0490394
0.0490298
0.0490207
0.0490121
0.0490041
0.0489965
0.0489895
0.0489829
0.0489767
0.0489709
0.0489656
0.0489606
0.048956
0.0489517
0.0489477
0.048944
0.0489406
0.0489374
0.0489346
0.048932
0.0489297
0.0489277
0.048926
0.0489245
0.0489233
0.0489224
0.0489217
0.0489214
0.0489213
0.0489215
0.048922
0.048923
0.0489243
0.0489261
0.0489282
0.0489308
0.0489338
0.0489371
0.0489408
0.0489448
0.0489491
0.0489536
0.0489583
0.0489633
0.0489683
0.0489733
0.0489783
0.0489833
0.0489881
0.0489927
0.048997
0.0490009
0.0490041
0.0490063
0.0490058
0.048998
0.0489752
0.0489364
0.0488954
0.0488676
0.0488536
0.0488466
0.0488471
0.0488701
0.0489329
0.0491393
0.0492489
0.0492461
0.049239
0.0492349
0.0492322
0.0492304
0.049229
0.0492279
0.049227
0.0492259
0.0492242
0.0492219
0.0492192
0.0492163
0.0492132
0.0492098
0.0492059
0.0492013
0.0491959
0.0491895
0.0491819
0.0491734
0.0491638
0.0491532
0.049142
0.0491301
0.0491179
0.0491055
0.0490932
0.0490811
0.0490693
0.049058
0.0490472
0.0490369
0.0490273
0.0490181
0.0490096
0.0490016
0.0489941
0.0489871
0.0489806
0.0489746
0.048969
0.0489637
0.0489589
0.0489544
0.0489503
0.0489465
0.048943
0.0489399
0.048937
0.0489345
0.0489323
0.0489304
0.0489287
0.0489274
0.0489263
0.0489254
0.0489248
0.0489243
0.0489241
0.048924
0.0489242
0.0489246
0.0489252
0.0489261
0.0489273
0.0489289
0.0489308
0.048933
0.0489356
0.0489385
0.0489417
0.0489452
0.048949
0.048953
0.0489572
0.0489615
0.0489659
0.0489704
0.0489748
0.048979
0.0489831
0.0489868
0.04899
0.0489923
0.0489936
0.0489933
0.0489902
0.0489803
0.0489567
0.0489176
0.0488748
0.048843
0.0488252
0.0488167
0.0488198
0.0488504
0.0489254
0.0491354
0.0492526
0.0492494
0.0492416
0.0492375
0.0492349
0.0492333
0.0492321
0.049231
0.0492296
0.0492277
0.0492251
0.0492221
0.0492187
0.0492152
0.0492114
0.0492071
0.0492023
0.0491968
0.0491902
0.0491826
0.049174
0.0491642
0.0491535
0.0491419
0.0491297
0.0491171
0.0491043
0.0490916
0.0490791
0.0490671
0.0490555
0.0490446
0.0490342
0.0490246
0.0490155
0.0490071
0.0489993
0.048992
0.0489853
0.048979
0.0489732
0.0489679
0.0489629
0.0489584
0.0489542
0.0489504
0.048947
0.0489439
0.0489411
0.0489387
0.0489366
0.0489349
0.0489334
0.0489323
0.0489314
0.0489307
0.0489302
0.0489299
0.0489297
0.0489296
0.0489296
0.0489298
0.0489301
0.0489305
0.0489311
0.048932
0.0489331
0.0489344
0.048936
0.0489379
0.04894
0.0489424
0.0489451
0.048948
0.0489511
0.0489544
0.0489579
0.0489615
0.0489652
0.0489689
0.0489725
0.048976
0.0489792
0.0489818
0.0489837
0.0489843
0.0489832
0.0489799
0.0489736
0.0489608
0.0489354
0.0488954
0.0488505
0.0488149
0.0487931
0.0487831
0.0487887
0.0488277
0.0489152
0.0491317
0.0492563
0.0492531
0.0492449
0.0492406
0.0492382
0.0492366
0.0492353
0.0492338
0.0492318
0.0492292
0.049226
0.0492224
0.0492185
0.0492143
0.0492097
0.0492045
0.0491987
0.0491919
0.0491841
0.0491751
0.0491651
0.049154
0.0491421
0.0491294
0.0491163
0.0491031
0.0490899
0.049077
0.0490647
0.0490529
0.0490419
0.0490316
0.049022
0.0490132
0.0490051
0.0489976
0.0489906
0.0489843
0.0489784
0.0489731
0.0489681
0.0489636
0.0489595
0.0489557
0.0489523
0.0489493
0.0489466
0.0489443
0.0489423
0.0489407
0.0489394
0.0489384
0.0489376
0.0489372
0.0489369
0.0489367
0.0489367
0.0489367
0.0489368
0.0489369
0.048937
0.0489371
0.0489374
0.0489377
0.0489382
0.0489389
0.0489398
0.0489409
0.0489422
0.0489438
0.0489455
0.0489475
0.0489497
0.048952
0.0489545
0.0489572
0.0489599
0.0489628
0.0489657
0.0489686
0.0489714
0.048974
0.0489762
0.0489778
0.0489782
0.0489768
0.0489729
0.0489661
0.0489558
0.0489394
0.0489115
0.0488696
0.0488223
0.0487829
0.0487574
0.0487461
0.0487549
0.048803
0.0489016
0.0491281
0.04926
0.049257
0.0492489
0.0492445
0.049242
0.0492402
0.0492386
0.0492367
0.0492341
0.0492309
0.0492273
0.0492231
0.0492186
0.0492136
0.0492081
0.0492018
0.0491946
0.0491864
0.0491771
0.0491666
0.0491551
0.0491426
0.0491294
0.0491158
0.049102
0.0490883
0.049075
0.0490623
0.0490505
0.0490394
0.0490293
0.04902
0.0490116
0.0490039
0.048997
0.0489906
0.0489848
0.0489794
0.0489746
0.0489701
0.048966
0.0489623
0.048959
0.048956
0.0489534
0.0489511
0.0489491
0.0489475
0.0489463
0.0489453
0.0489447
0.0489444
0.0489442
0.0489442
0.0489444
0.0489446
0.0489447
0.0489449
0.0489449
0.0489449
0.0489448
0.0489447
0.0489447
0.0489447
0.0489449
0.0489453
0.0489459
0.0489468
0.0489479
0.0489492
0.0489507
0.0489524
0.0489542
0.0489562
0.0489582
0.0489603
0.0489625
0.0489647
0.0489668
0.0489689
0.0489709
0.0489726
0.0489739
0.0489744
0.0489733
0.0489697
0.0489625
0.0489516
0.0489367
0.0489161
0.0488847
0.0488402
0.0487902
0.0487474
0.0487188
0.048707
0.0487201
0.0487781
0.0488862
0.0491246
0.0492636
0.0492614
0.0492535
0.0492493
0.0492465
0.0492445
0.0492424
0.0492399
0.0492369
0.0492332
0.049229
0.0492242
0.0492189
0.0492129
0.0492061
0.0491984
0.0491897
0.0491799
0.0491689
0.0491567
0.0491437
0.0491298
0.0491155
0.0491011
0.0490868
0.0490731
0.0490603
0.0490483
0.0490375
0.0490277
0.049019
0.0490112
0.0490042
0.0489979
0.0489923
0.0489871
0.0489824
0.0489781
0.0489741
0.0489705
0.0489672
0.0489642
0.0489616
0.0489592
0.0489573
0.0489556
0.0489543
0.0489533
0.0489527
0.0489523
0.0489522
0.0489523
0.0489525
0.0489528
0.0489531
0.0489534
0.0489535
0.0489534
0.0489532
0.0489528
0.0489522
0.0489516
0.0489509
0.0489504
0.0489501
0.0489501
0.0489504
0.0489509
0.0489517
0.0489528
0.0489542
0.0489558
0.0489576
0.0489594
0.0489612
0.048963
0.0489648
0.0489665
0.048968
0.0489695
0.0489708
0.0489717
0.0489722
0.0489716
0.048969
0.0489629
0.0489521
0.0489363
0.0489162
0.0488906
0.0488553
0.0488077
0.0487548
0.0487091
0.0486785
0.0486675
0.0486863
0.048755
0.0488709
0.049121
0.049267
0.0492661
0.0492589
0.0492547
0.0492519
0.0492495
0.0492469
0.0492439
0.0492403
0.049236
0.049231
0.0492253
0.0492188
0.0492114
0.0492031
0.0491937
0.0491833
0.0491716
0.0491588
0.049145
0.0491305
0.0491155
0.0491004
0.0490856
0.0490715
0.0490585
0.0490467
0.0490362
0.0490271
0.0490192
0.0490123
0.0490062
0.0490009
0.0489961
0.0489917
0.0489877
0.0489839
0.0489805
0.0489772
0.0489743
0.0489716
0.0489692
0.0489671
0.0489653
0.0489638
0.0489627
0.0489619
0.0489614
0.0489612
0.0489612
0.0489614
0.0489618
0.0489621
0.0489624
0.0489626
0.0489626
0.0489623
0.0489617
0.0489609
0.0489597
0.0489583
0.0489568
0.0489554
0.048954
0.048953
0.0489524
0.048952
0.0489522
0.0489527
0.0489538
0.0489552
0.048957
0.0489589
0.0489608
0.0489627
0.0489645
0.0489662
0.0489676
0.0489688
0.0489698
0.0489705
0.0489709
0.0489706
0.0489691
0.048965
0.0489564
0.0489414
0.0489202
0.0488942
0.0488632
0.0488234
0.0487725
0.0487171
0.0486694
0.0486382
0.0486297
0.0486556
0.0487354
0.048857
0.0491172
0.0492704
0.0492711
0.0492648
0.0492608
0.0492578
0.049255
0.049252
0.0492483
0.0492438
0.0492385
0.0492323
0.0492253
0.0492173
0.0492082
0.0491982
0.0491869
0.0491746
0.0491611
0.0491465
0.0491313
0.0491155
0.0490998
0.0490845
0.0490701
0.0490571
0.0490456
0.0490358
0.0490276
0.0490207
0.049015
0.0490102
0.049006
0.0490021
0.0489986
0.0489953
0.0489922
0.0489892
0.0489863
0.0489837
0.0489812
0.048979
0.048977
0.0489753
0.048974
0.0489729
0.0489722
0.0489717
0.0489716
0.0489716
0.0489718
0.0489721
0.0489723
0.0489725
0.0489724
0.0489721
0.0489715
0.0489704
0.048969
0.0489671
0.0489649
0.0489624
0.0489598
0.0489571
0.0489547
0.0489527
0.0489512
0.0489502
0.0489499
0.0489503
0.0489514
0.0489531
0.0489552
0.0489576
0.04896
0.0489623
0.0489644
0.0489662
0.0489677
0.0489688
0.0489696
0.04897
0.04897
0.0489692
0.048967
0.0489615
0.0489502
0.0489307
0.0489033
0.0488709
0.0488342
0.0487897
0.0487355
0.0486782
0.0486299
0.0485997
0.0485952
0.0486297
0.0487205
0.0488453
0.0491133
0.0492734
0.0492763
0.0492707
0.049267
0.0492638
0.0492605
0.0492566
0.0492519
0.0492462
0.0492395
0.0492318
0.0492231
0.0492133
0.0492024
0.0491904
0.0491773
0.0491631
0.0491479
0.0491319
0.0491155
0.0490991
0.0490834
0.0490689
0.049056
0.0490451
0.0490362
0.0490292
0.0490238
0.0490195
0.049016
0.049013
0.0490103
0.0490077
0.0490052
0.0490026
0.0490001
0.0489976
0.0489952
0.0489929
0.0489908
0.0489889
0.0489873
0.0489859
0.0489849
0.0489841
0.0489836
0.0489834
0.0489833
0.0489833
0.0489833
0.0489833
0.0489831
0.0489827
0.0489819
0.0489807
0.0489791
0.0489769
0.0489743
0.0489712
0.0489677
0.0489638
0.0489598
0.0489558
0.0489521
0.0489488
0.0489462
0.0489444
0.0489437
0.048944
0.0489454
0.0489477
0.0489505
0.0489537
0.0489569
0.04896
0.0489627
0.0489649
0.0489667
0.048968
0.0489688
0.0489691
0.0489689
0.0489679
0.0489651
0.0489584
0.0489444
0.04892
0.048886
0.0488467
0.048804
0.048755
0.048698
0.0486399
0.0485923
0.0485648
0.0485658
0.0486097
0.0487109
0.0488363
0.049109
0.0492762
0.0492812
0.0492763
0.0492724
0.0492687
0.0492645
0.0492595
0.0492534
0.0492461
0.0492377
0.0492281
0.0492175
0.0492059
0.0491931
0.0491793
0.0491644
0.0491485
0.049132
0.049115
0.0490982
0.0490822
0.0490677
0.0490552
0.0490452
0.0490375
0.049032
0.0490282
0.0490255
0.0490235
0.0490218
0.0490202
0.0490185
0.0490167
0.0490148
0.0490127
0.0490106
0.0490084
0.0490063
0.0490043
0.0490025
0.0490009
0.0489995
0.0489984
0.0489975
0.0489969
0.0489964
0.048996
0.0489957
0.0489954
0.0489949
0.0489941
0.0489931
0.0489917
0.0489898
0.0489874
0.0489845
0.048981
0.048977
0.0489725
0.0489676
0.0489623
0.0489568
0.0489513
0.0489462
0.0489415
0.0489377
0.0489351
0.048934
0.0489345
0.0489364
0.0489394
0.0489432
0.0489475
0.0489518
0.0489559
0.0489594
0.0489624
0.0489647
0.0489663
0.0489673
0.0489678
0.0489677
0.0489666
0.0489636
0.048956
0.0489392
0.0489097
0.0488687
0.0488223
0.0487738
0.0487207
0.0486616
0.0486038
0.0485585
0.0485349
0.0485426
0.0485966
0.0487071
0.04883
0.0491044
0.0492787
0.0492857
0.0492808
0.0492763
0.0492715
0.049266
0.0492594
0.0492515
0.0492423
0.0492319
0.0492205
0.049208
0.0491945
0.04918
0.0491646
0.0491482
0.0491311
0.0491138
0.0490967
0.0490807
0.0490664
0.0490546
0.0490457
0.0490396
0.0490358
0.0490337
0.0490327
0.0490321
0.0490317
0.0490311
0.0490304
0.0490293
0.049028
0.0490264
0.0490247
0.0490228
0.0490209
0.049019
0.0490173
0.0490156
0.0490142
0.0490129
0.0490119
0.049011
0.0490102
0.0490094
0.0490086
0.0490077
0.0490066
0.0490051
0.0490033
0.049001
0.0489982
0.0489949
0.0489912
0.0489868
0.048982
0.0489766
0.0489708
0.0489645
0.0489579
0.0489511
0.0489443
0.0489377
0.0489317
0.0489267
0.0489234
0.0489221
0.0489228
0.0489253
0.0489293
0.0489343
0.0489398
0.0489454
0.0489506
0.0489552
0.048959
0.0489619
0.048964
0.0489654
0.0489662
0.0489664
0.0489656
0.0489626
0.0489542
0.048935
0.0489003
0.0488522
0.0487989
0.0487449
0.0486883
0.0486283
0.0485721
0.0485301
0.0485115
0.0485267
0.0485913
0.0487092
0.0488263
0.0490997
0.0492808
0.0492893
0.0492838
0.0492779
0.0492715
0.0492641
0.0492555
0.0492455
0.0492342
0.0492219
0.0492086
0.0491943
0.0491792
0.0491633
0.0491465
0.0491292
0.0491116
0.0490945
0.0490786
0.0490649
0.0490541
0.0490466
0.0490422
0.0490403
0.04904
0.0490405
0.0490413
0.0490421
0.0490425
0.0490426
0.0490423
0.0490416
0.0490405
0.0490392
0.0490377
0.049036
0.0490342
0.0490325
0.0490309
0.0490293
0.0490279
0.0490266
0.0490254
0.0490242
0.0490229
0.0490215
0.0490198
0.0490179
0.0490155
0.0490127
0.0490093
0.0490055
0.0490012
0.0489965
0.0489912
0.0489855
0.0489794
0.0489729
0.048966
0.0489587
0.0489512
0.0489434
0.0489356
0.0489278
0.0489207
0.0489149
0.048911
0.0489094
0.0489104
0.0489135
0.0489185
0.0489247
0.0489315
0.0489383
0.0489447
0.0489503
0.048955
0.0489586
0.0489613
0.0489632
0.0489645
0.0489651
0.0489648
0.0489621
0.0489534
0.0489319
0.0488923
0.0488375
0.0487776
0.048719
0.0486598
0.0486
0.0485463
0.0485084
0.0484952
0.0485185
0.0485942
0.0487169
0.048825
0.0490948
0.0492826
0.0492919
0.0492851
0.049277
0.0492684
0.0492588
0.0492479
0.0492356
0.0492222
0.0492079
0.0491928
0.049177
0.0491605
0.0491435
0.0491259
0.0491084
0.0490914
0.0490761
0.0490632
0.0490537
0.0490478
0.0490453
0.0490453
0.0490466
0.0490486
0.0490507
0.0490524
0.0490538
0.0490547
0.0490551
0.049055
0.0490544
0.0490535
0.0490523
0.0490509
0.0490493
0.0490476
0.049046
0.0490443
0.0490427
0.049041
0.0490394
0.0490377
0.0490358
0.0490336
0.0490311
0.0490281
0.0490247
0.0490207
0.0490162
0.0490112
0.0490057
0.0489999
0.0489936
0.0489871
0.0489802
0.0489731
0.0489657
0.0489581
0.0489503
0.0489422
0.048934
0.0489255
0.048917
0.0489092
0.0489028
0.0488985
0.0488969
0.0488982
0.0489021
0.0489081
0.0489154
0.0489234
0.0489314
0.0489388
0.0489453
0.0489508
0.0489551
0.0489584
0.0489609
0.0489628
0.0489641
0.0489645
0.0489624
0.0489535
0.0489303
0.0488863
0.0488255
0.0487599
0.0486979
0.0486376
0.0485787
0.0485279
0.0484942
0.0484866
0.0485186
0.0486055
0.0487296
0.0488258
0.04909
0.0492842
0.0492931
0.0492844
0.0492738
0.0492627
0.0492507
0.0492373
0.0492226
0.0492069
0.0491906
0.0491738
0.0491567
0.0491392
0.0491216
0.0491041
0.0490876
0.0490729
0.0490612
0.0490532
0.0490492
0.0490486
0.0490502
0.0490532
0.0490564
0.0490595
0.0490622
0.0490644
0.049066
0.0490671
0.0490675
0.0490675
0.0490671
0.0490662
0.0490651
0.0490637
0.0490621
0.0490603
0.0490585
0.0490567
0.0490547
0.0490526
0.0490502
0.0490476
0.0490445
0.049041
0.0490369
0.0490322
0.0490269
0.0490211
0.0490148
0.0490081
0.049001
0.0489938
0.0489863
0.0489787
0.0489709
0.0489631
0.0489551
0.048947
0.0489388
0.0489306
0.0489222
0.0489134
0.0489044
0.0488963
0.0488897
0.0488855
0.0488844
0.0488865
0.0488914
0.0488985
0.048907
0.0489161
0.048925
0.0489333
0.0489406
0.0489467
0.0489516
0.0489556
0.0489587
0.0489613
0.0489635
0.0489648
0.0489635
0.0489548
0.0489303
0.0488817
0.0488159
0.0487481
0.0486843
0.0486233
0.0485658
0.0485177
0.0484877
0.0484856
0.0485271
0.0486255
0.0487465
0.0488281
0.0490853
0.0492851
0.0492932
0.0492822
0.0492688
0.0492553
0.0492406
0.0492243
0.0492069
0.0491888
0.0491706
0.0491524
0.0491343
0.0491164
0.0490991
0.0490831
0.0490694
0.0490591
0.0490529
0.0490507
0.0490518
0.049055
0.0490591
0.0490635
0.0490674
0.049071
0.0490739
0.0490761
0.0490778
0.0490789
0.0490794
0.0490794
0.049079
0.0490781
0.0490769
0.0490754
0.0490736
0.0490716
0.0490695
0.0490671
0.0490644
0.0490614
0.0490579
0.0490538
0.0490492
0.0490438
0.0490378
0.0490311
0.0490239
0.0490162
0.0490082
0.0489999
0.0489915
0.0489831
0.0489746
0.0489661
0.0489575
0.0489489
0.0489402
0.0489315
0.048923
0.0489147
0.0489057
0.0488965
0.0488876
0.0488799
0.0488743
0.0488715
0.048872
0.0488756
0.048882
0.0488904
0.0488999
0.0489099
0.0489195
0.0489284
0.0489363
0.0489429
0.0489484
0.0489529
0.0489568
0.0489602
0.0489634
0.0489658
0.0489655
0.0489571
0.0489299
0.0488792
0.0488129
0.0487441
0.0486789
0.0486174
0.0485609
0.0485152
0.0484887
0.0484928
0.0485444
0.0486528
0.0487666
0.0488313
0.0490808
0.0492847
0.0492923
0.0492788
0.0492629
0.0492468
0.0492291
0.0492097
0.0491892
0.0491687
0.0491487
0.0491294
0.049111
0.0490937
0.0490783
0.0490657
0.049057
0.0490527
0.0490523
0.0490549
0.0490591
0.0490642
0.0490693
0.0490742
0.0490783
0.0490819
0.0490848
0.049087
0.0490887
0.0490898
0.0490902
0.0490901
0.0490896
0.0490886
0.0490872
0.0490854
0.0490833
0.0490808
0.049078
0.0490747
0.0490709
0.0490665
0.0490614
0.0490555
0.0490489
0.0490414
0.0490334
0.0490247
0.0490156
0.0490063
0.0489968
0.0489873
0.0489778
0.0489684
0.0489589
0.0489494
0.0489396
0.0489297
0.0489197
0.0489099
0.0489007
0.0488919
0.0488821
0.048873
0.0488655
0.0488602
0.0488575
0.0488576
0.0488606
0.0488663
0.0488743
0.0488839
0.0488943
0.0489048
0.0489149
0.0489242
0.0489324
0.0489395
0.0489455
0.0489507
0.0489553
0.0489597
0.0489639
0.0489675
0.0489678
0.048959
0.0489314
0.0488814
0.0488165
0.0487479
0.0486818
0.0486196
0.0485634
0.0485192
0.0484966
0.0485082
0.0485699
0.0486862
0.0487884
0.048835
0.0490764
0.049282
0.0492906
0.0492749
0.0492566
0.0492378
0.0492167
0.0491936
0.0491699
0.0491471
0.0491258
0.0491062
0.0490887
0.0490735
0.049062
0.049055
0.0490525
0.0490537
0.0490575
0.0490627
0.0490684
0.049074
0.0490792
0.0490841
0.0490881
0.0490917
0.0490944
0.0490966
0.0490983
0.0490992
0.0490996
0.0490994
0.0490987
0.0490975
0.0490957
0.0490934
0.0490906
0.0490873
0.0490834
0.0490789
0.0490735
0.0490673
0.0490602
0.0490523
0.0490435
0.049034
0.0490241
0.0490137
0.0490031
0.0489925
0.0489819
0.0489714
0.0489609
0.0489504
0.0489397
0.0489284
0.0489167
0.0489046
0.0488926
0.0488809
0.0488709
0.0488593
0.0488509
0.0488456
0.0488428
0.0488419
0.048843
0.0488463
0.0488519
0.0488595
0.0488688
0.0488792
0.0488901
0.0489009
0.0489112
0.0489207
0.0489292
0.0489366
0.0489431
0.0489489
0.0489544
0.0489597
0.0489651
0.0489698
0.0489708
0.0489621
0.0489354
0.0488879
0.0488258
0.0487583
0.0486916
0.0486281
0.0485715
0.0485288
0.0485112
0.0485314
0.0486032
0.0487242
0.0488107
0.0488386
0.049073
0.0492763
0.0492888
0.0492712
0.0492507
0.0492288
0.0492036
0.0491762
0.0491494
0.0491248
0.0491032
0.0490845
0.0490696
0.0490591
0.0490534
0.049052
0.0490543
0.0490591
0.0490652
0.0490716
0.0490778
0.0490834
0.0490884
0.0490928
0.0490966
0.0491
0.0491025
0.0491047
0.0491062
0.0491071
0.0491073
0.0491069
0.0491059
0.0491043
0.0491019
0.0490989
0.0490952
0.0490907
0.0490854
0.0490791
0.0490719
0.0490637
0.0490545
0.0490445
0.0490339
0.0490227
0.0490113
0.0489997
0.0489881
0.0489765
0.048965
0.0489535
0.0489419
0.04893
0.0489176
0.0489041
0.0488896
0.0488752
0.0488612
0.0488471
0.048833
0.0488284
0.0488269
0.0488265
0.0488273
0.0488296
0.0488335
0.0488391
0.0488464
0.0488553
0.0488653
0.048876
0.0488871
0.0488979
0.0489082
0.0489177
0.0489264
0.0489342
0.0489413
0.0489478
0.0489542
0.0489607
0.0489672
0.0489729
0.0489745
0.0489665
0.0489418
0.0488979
0.0488394
0.0487734
0.0487057
0.0486403
0.0485831
0.0485432
0.0485323
0.0485623
0.048643
0.0487646
0.048832
0.0488413
0.0490714
0.0492707
0.0492878
0.0492683
0.0492453
0.0492197
0.0491896
0.0491579
0.0491284
0.049103
0.0490826
0.0490674
0.0490572
0.0490519
0.0490512
0.0490541
0.0490595
0.0490662
0.0490732
0.04908
0.0490861
0.0490916
0.0490963
0.0491003
0.0491037
0.0491066
0.0491089
0.049111
0.0491124
0.0491131
0.0491131
0.0491124
0.0491111
0.0491088
0.0491057
0.0491017
0.0490967
0.0490907
0.0490837
0.0490756
0.0490664
0.0490562
0.0490453
0.0490336
0.0490216
0.0490093
0.0489969
0.0489845
0.0489722
0.0489599
0.0489476
0.0489351
0.0489223
0.0489089
0.048895
0.0488799
0.0488636
0.0488484
0.0488359
0.0488263
0.0488204
0.0488178
0.048817
0.0488178
0.0488201
0.0488238
0.048829
0.0488357
0.0488438
0.0488531
0.0488633
0.048874
0.0488849
0.0488956
0.0489058
0.0489154
0.0489243
0.0489325
0.0489402
0.0489476
0.048955
0.0489626
0.0489702
0.0489767
0.0489792
0.0489722
0.04895
0.0489101
0.0488549
0.0487898
0.0487204
0.0486532
0.0485969
0.0485621
0.04856
0.0486003
0.048688
0.0488047
0.0488509
0.0488425
0.0490717
0.0492701
0.0492884
0.0492664
0.0492405
0.0492102
0.0491747
0.049139
0.0491083
0.0490847
0.0490675
0.0490564
0.0490507
0.0490499
0.049053
0.0490586
0.0490657
0.0490732
0.0490805
0.0490871
0.049093
0.049098
0.0491024
0.0491061
0.0491092
0.0491118
0.049114
0.0491156
0.0491167
0.0491172
0.0491169
0.0491159
0.0491139
0.0491109
0.0491068
0.0491016
0.0490952
0.0490876
0.0490788
0.0490689
0.049058
0.0490462
0.0490339
0.0490212
0.0490083
0.0489954
0.0489825
0.0489697
0.048957
0.0489442
0.0489313
0.0489181
0.0489045
0.0488907
0.0488767
0.0488632
0.0488506
0.0488395
0.0488303
0.0488232
0.0488184
0.0488158
0.0488149
0.0488158
0.0488184
0.0488224
0.048828
0.0488349
0.0488431
0.0488524
0.0488623
0.0488728
0.0488834
0.048894
0.0489041
0.0489139
0.048923
0.0489318
0.0489402
0.0489484
0.0489568
0.0489655
0.048974
0.0489814
0.0489846
0.0489789
0.0489592
0.0489225
0.0488693
0.0488037
0.0487325
0.048665
0.0486124
0.0485856
0.0485943
0.0486445
0.0487362
0.0488411
0.0488661
0.0488417
0.0490734
0.0492755
0.0492904
0.0492652
0.0492359
0.0492
0.0491592
0.0491217
0.0490921
0.049071
0.0490574
0.0490503
0.0490486
0.0490512
0.0490567
0.0490639
0.0490717
0.0490793
0.0490864
0.0490926
0.049098
0.0491026
0.0491066
0.0491099
0.0491127
0.0491151
0.0491171
0.0491185
0.0491194
0.0491196
0.0491189
0.0491172
0.0491145
0.0491105
0.0491053
0.0490988
0.0490909
0.0490817
0.0490713
0.04906
0.0490478
0.049035
0.0490219
0.0490086
0.0489954
0.0489822