/*--------------------------------*- C++ -*----------------------------------*\
| =========                 |                                                 |
| \\      /  F ield         | OpenFOAM: The Open Source CFD Toolbox           |
|  \\    /   O peration     | Version:  4.1                                   |
|   \\  /    A nd           | Web:      www.OpenFOAM.org                      |
|    \\/     M anipulation  |                                                 |
\*---------------------------------------------------------------------------*/
FoamFile
{
    version     2.0;
    format      ascii;
    class       volScalarField;
    location    "1360";
    object      T;
}
// * * * * * * * * * * * * * * * * * * * * * * * * * * * * * * * * * * * * * //

dimensions      [0 0 0 1 0 0 0];

internalField   nonuniform List<scalar> 
5000
(
285.078
284.571
284.368
284.643
284.855
285.038
285.202
285.357
285.504
285.644
285.775
285.898
286.015
286.131
286.252
286.399
286.604
286.897
287.275
287.664
287.987
288.235
288.377
288.365
288.214
288.014
287.824
287.671
287.56
287.486
287.444
287.425
287.423
287.434
287.453
287.478
287.511
287.557
287.63
287.748
287.938
288.216
288.563
288.897
289.19
289.426
289.578
289.616
289.522
289.309
289.007
288.659
288.35
288.117
287.956
287.848
287.777
287.732
287.704
287.687
287.68
287.68
287.686
287.699
287.719
287.745
287.78
287.823
287.876
287.939
288.013
288.099
288.193
288.294
288.396
288.495
288.6
288.739
288.895
289.063
289.069
287.599
286.057
285.847
285.659
285.484
285.32
285.162
285.003
284.853
284.732
284.634
284.553
284.474
284.473
284.542
284.673
284.894
285.126
285.438
284.468
283.554
283.548
283.555
283.563
283.567
283.57
283.573
283.575
283.578
283.58
283.583
283.586
283.589
283.592
283.599
283.616
283.651
283.718
283.828
283.925
283.923
283.836
283.743
283.689
283.656
283.636
283.625
283.618
283.614
283.612
283.612
283.612
283.613
283.615
283.617
283.621
283.626
283.638
283.661
283.71
283.812
284.016
284.38
284.835
285.27
285.578
285.687
285.58
285.305
284.959
284.646
284.397
284.204
284.06
283.953
283.875
283.818
283.776
283.747
283.726
283.711
283.701
283.694
283.69
283.688
283.687
283.687
283.689
283.69
283.693
283.696
283.7
283.706
283.713
283.723
283.74
283.801
284.135
285.11
286.511
286.822
285.777
284.245
284.081
284.006
283.942
283.9
283.893
283.909
283.919
283.921
283.917
283.904
283.873
283.839
283.811
283.819
284.192
284.937
284.27
283.544
283.541
283.549
283.554
283.555
283.556
283.556
283.557
283.557
283.557
283.556
283.555
283.554
283.553
283.552
283.551
283.55
283.55
283.549
283.549
283.548
283.546
283.545
283.544
283.543
283.542
283.542
283.541
283.541
283.541
283.541
283.541
283.542
283.542
283.543
283.544
283.545
283.546
283.548
283.551
283.56
283.582
283.641
283.748
283.875
283.976
284.009
283.971
283.887
283.796
283.725
283.676
283.644
283.623
283.611
283.605
283.602
283.601
283.602
283.604
283.606
283.608
283.61
283.613
283.615
283.617
283.619
283.62
283.622
283.624
283.625
283.627
283.629
283.631
283.635
283.643
283.667
283.785
284.28
285.353
286.11
285.756
284.577
283.864
283.854
283.87
283.893
283.915
283.929
283.935
283.933
283.922
283.901
283.868
283.819
283.762
283.741
283.978
284.733
284.163
283.542
283.546
283.558
283.561
283.559
283.557
283.555
283.555
283.555
283.555
283.555
283.554
283.553
283.551
283.548
283.546
283.544
283.541
283.539
283.537
283.536
283.534
283.533
283.532
283.531
283.53
283.53
283.53
283.53
283.53
283.53
283.53
283.531
283.531
283.532
283.533
283.534
283.535
283.536
283.537
283.539
283.541
283.546
283.557
283.575
283.592
283.6
283.599
283.592
283.585
283.581
283.582
283.584
283.589
283.593
283.598
283.603
283.607
283.611
283.615
283.617
283.619
283.621
283.622
283.623
283.623
283.624
283.625
283.625
283.626
283.627
283.629
283.63
283.633
283.636
283.64
283.654
283.712
283.99
284.745
285.548
285.612
284.897
284.041
283.83
283.872
283.907
283.93
283.943
283.947
283.944
283.932
283.91
283.874
283.823
283.751
283.676
283.874
284.617
284.097
283.542
283.563
283.58
283.581
283.576
283.568
283.561
283.555
283.551
283.549
283.547
283.545
283.543
283.541
283.538
283.535
283.533
283.531
283.529
283.528
283.527
283.526
283.526
283.526
283.526
283.527
283.527
283.528
283.528
283.529
283.53
283.53
283.531
283.531
283.532
283.532
283.533
283.533
283.534
283.535
283.537
283.538
283.54
283.542
283.546
283.551
283.556
283.561
283.567
283.574
283.581
283.589
283.597
283.604
283.611
283.617
283.622
283.626
283.628
283.63
283.631
283.631
283.63
283.629
283.627
283.625
283.623
283.622
283.62
283.619
283.618
283.619
283.62
283.622
283.626
283.631
283.642
283.68
283.854
284.386
285.113
285.408
285.047
284.372
283.884
283.874
283.915
283.94
283.953
283.959
283.958
283.95
283.933
283.901
283.851
283.779
283.666
283.814
284.543
284.055
283.546
283.594
283.612
283.614
283.606
283.594
283.581
283.569
283.559
283.551
283.545
283.541
283.538
283.535
283.533
283.531
283.529
283.528
283.528
283.528
283.529
283.53
283.531
283.533
283.535
283.537
283.539
283.541
283.543
283.545
283.546
283.548
283.549
283.549
283.55
283.55
283.551
283.551
283.552
283.552
283.553
283.555
283.557
283.56
283.564
283.569
283.575
283.583
283.592
283.601
283.61
283.618
283.626
283.633
283.639
283.644
283.647
283.649
283.65
283.65
283.649
283.647
283.644
283.641
283.637
283.632
283.627
283.623
283.618
283.614
283.61
283.608
283.607
283.608
283.611
283.617
283.627
283.656
283.774
284.155
284.775
285.182
285.083
284.618
284.119
283.882
283.916
283.945
283.961
283.969
283.973
283.972
283.963
283.94
283.898
283.828
283.72
283.776
284.491
284.024
283.568
283.632
283.651
283.652
283.643
283.629
283.612
283.594
283.579
283.566
283.556
283.548
283.543
283.539
283.536
283.535
283.534
283.535
283.537
283.539
283.542
283.546
283.55
283.554
283.559
283.563
283.567
283.571
283.575
283.578
283.58
283.583
283.584
283.586
283.587
283.588
283.588
283.589
283.59
283.591
283.593
283.595
283.599
283.603
283.609
283.615
283.622
283.629
283.637
283.645
283.652
283.659
283.664
283.669
283.672
283.675
283.676
283.677
283.676
283.675
283.672
283.669
283.665
283.66
283.654
283.648
283.641
283.633
283.626
283.618
283.612
283.606
283.602
283.6
283.6
283.604
283.613
283.636
283.72
283.996
284.508
284.955
285.04
284.773
284.362
284.036
283.912
283.944
283.964
283.975
283.985
283.992
283.991
283.978
283.947
283.888
283.786
283.726
284.451
284.001
283.614
283.675
283.691
283.69
283.679
283.663
283.643
283.623
283.604
283.587
283.574
283.563
283.555
283.55
283.547
283.546
283.548
283.551
283.555
283.561
283.567
283.574
283.581
283.588
283.595
283.601
283.607
283.613
283.618
283.622
283.626
283.629
283.632
283.634
283.636
283.638
283.64
283.642
283.644
283.647
283.65
283.653
283.657
283.662
283.666
283.671
283.676
283.681
283.685
283.69
283.693
283.697
283.699
283.701
283.703
283.703
283.703
283.703
283.701
283.699
283.696
283.692
283.687
283.682
283.675
283.668
283.659
283.65
283.641
283.631
283.621
283.612
283.604
283.598
283.595
283.596
283.602
283.62
283.68
283.881
284.294
284.737
284.944
284.846
284.557
284.242
284.028
283.938
283.961
283.976
283.99
284.005
284.014
284.011
283.991
283.945
283.853
283.669
284.413
283.984
283.667
283.717
283.727
283.721
283.708
283.69
283.669
283.648
283.627
283.608
283.592
283.579
283.57
283.564
283.562
283.564
283.569
283.575
283.584
283.593
283.602
283.612
283.621
283.63
283.637
283.644
283.651
283.657
283.662
283.667
283.671
283.675
283.679
283.682
283.684
283.687
283.69
283.693
283.695
283.698
283.701
283.704
283.706
283.709
283.711
283.714
283.716
283.718
283.72
283.722
283.723
283.725
283.726
283.726
283.727
283.727
283.726
283.725
283.723
283.721
283.717
283.714
283.709
283.703
283.696
283.688
283.679
283.67
283.659
283.647
283.636
283.624
283.613
283.603
283.596
283.593
283.595
283.607
283.65
283.796
284.124
284.535
284.814
284.851
284.686
284.435
284.203
284.045
283.962
283.97
283.988
284.011
284.029
284.036
284.026
283.994
283.927
283.701
284.389
283.972
283.714
283.749
283.752
283.742
283.726
283.707
283.685
283.663
283.641
283.621
283.604
283.591
283.583
283.58
283.582
283.589
283.599
283.61
283.62
283.631
283.641
283.65
283.658
283.664
283.67
283.676
283.682
283.688
283.693
283.697
283.702
283.706
283.709
283.712
283.716
283.718
283.721
283.724
283.726
283.728
283.73
283.732
283.733
283.735
283.736
283.737
283.739
283.74
283.741
283.742
283.743
283.744
283.745
283.745
283.745
283.745
283.744
283.743
283.741
283.739
283.736
283.732
283.727
283.722
283.715
283.707
283.698
283.688
283.677
283.664
283.651
283.637
283.624
283.611
283.6
283.593
283.592
283.599
283.629
283.733
283.988
284.354
284.666
284.801
284.751
284.583
284.38
284.202
284.075
283.996
283.982
284.011
284.038
284.054
284.052
284.031
283.994
283.886
284.381
283.966
283.751
283.77
283.767
283.752
283.733
283.712
283.69
283.667
283.646
283.626
283.61
283.6
283.597
283.601
283.611
283.624
283.636
283.645
283.652
283.659
283.665
283.67
283.674
283.679
283.684
283.69
283.696
283.701
283.707
283.712
283.717
283.721
283.725
283.729
283.732
283.735
283.738
283.741
283.743
283.745
283.747
283.749
283.75
283.752
283.753
283.754
283.756
283.757
283.758
283.759
283.76
283.761
283.761
283.761
283.761
283.761
283.76
283.759
283.757
283.755
283.751
283.748
283.743
283.737
283.73
283.722
283.713
283.703
283.692
283.679
283.665
283.65
283.635
283.62
283.607
283.596
283.591
283.593
283.613
283.687
283.881
284.196
284.513
284.714
284.758
284.676
284.527
284.365
284.223
284.115
284.043
284.016
284.046
284.067
284.071
284.057
284.042
284.055
284.372
283.961
283.779
283.781
283.772
283.752
283.73
283.707
283.685
283.663
283.643
283.627
283.618
283.616
283.623
283.635
283.648
283.657
283.66
283.66
283.659
283.66
283.663
283.667
283.673
283.679
283.687
283.695
283.703
283.71
283.718
283.724
283.73
283.736
283.741
283.745
283.749
283.752
283.755
283.758
283.76
283.762
283.764
283.766
283.767
283.768
283.77
283.771
283.772
283.773
283.773
283.774
283.775
283.775
283.775
283.775
283.775
283.774
283.773
283.772
283.769
283.767
283.763
283.759
283.754
283.748
283.741
283.734
283.725
283.714
283.703
283.69
283.676
283.661
283.645
283.628
283.613
283.6
283.591
283.589
283.601
283.653
283.798
284.06
284.364
284.603
284.719
284.716
284.629
284.502
284.371
284.254
284.162
284.082
284.064
284.08
284.087
284.075
284.069
284.122
284.362
283.956
283.794
283.787
283.77
283.746
283.722
283.7
283.678
283.659
283.646
283.639
283.64
283.648
283.658
283.664
283.663
283.658
283.651
283.645
283.643
283.646
283.653
283.662
283.673
283.685
283.696
283.708
283.718
283.728
283.736
283.744
283.75
283.756
283.761
283.765
283.769
283.771
283.774
283.776
283.777
283.779
283.78
283.781
283.781
283.782
283.783
283.783
283.783
283.784
283.784
283.784
283.784
283.784
283.784
283.783
283.783
283.782
283.78
283.778
283.776
283.772
283.769
283.764
283.759
283.753
283.746
283.738
283.73
283.72
283.709
283.696
283.683
283.668
283.651
283.635
283.618
283.603
283.592
283.587
283.593
283.628
283.735
283.947
284.225
284.48
284.648
284.71
284.684
284.602
284.494
284.383
284.283
284.204
284.126
284.102
284.103
284.09
284.082
284.145
284.351
283.951
283.798
283.787
283.765
283.74
283.718
283.698
283.683
283.672
283.668
283.67
283.673
283.671
283.664
283.652
283.639
283.629
283.624
283.624
283.63
283.641
283.655
283.671
283.687
283.703
283.718
283.731
283.742
283.752
283.761
283.768
283.773
283.778
283.781
283.784
283.786
283.788
283.789
283.789
283.789
283.789
283.789
283.789
283.788
283.788
283.788
283.787
283.787
283.786
283.786
283.786
283.785
283.785
283.784
283.783
283.782
283.78
283.778
283.776
283.773
283.769
283.765
283.76
283.755
283.749
283.742
283.735
283.727
283.718
283.708
283.696
283.683
283.669
283.654
283.637
283.62
283.605
283.592
283.584
283.586
283.609
283.686
283.855
284.1
284.355
284.555
284.669
284.698
284.662
284.585
284.49
284.391
284.301
284.216
284.147
284.124
284.103
284.088
284.147
284.338
283.947
283.795
283.784
283.761
283.739
283.723
283.713
283.709
283.707
283.701
283.688
283.669
283.648
283.629
283.614
283.606
283.604
283.609
283.619
283.633
283.652
283.672
283.693
283.712
283.73
283.745
283.758
283.769
283.777
283.784
283.789
283.792
283.795
283.796
283.797
283.797
283.797
283.796
283.795
283.794
283.792
283.791
283.789
283.788
283.786
283.784
283.783
283.782
283.78
283.779
283.778
283.777
283.776
283.774
283.773
283.771
283.768
283.766
283.762
283.759
283.755
283.75
283.745
283.74
283.734
283.728
283.721
283.714
283.707
283.698
283.688
283.677
283.665
283.651
283.635
283.619
283.604
283.59
283.581
283.58
283.595
283.65
283.781
283.991
284.235
284.451
284.602
284.677
284.685
284.642
284.568
284.477
284.384
284.296
284.206
284.154
284.119
284.091
284.137
284.321
283.943
283.79
283.781
283.759
283.742
283.731
283.721
283.709
283.692
283.67
283.646
283.623
283.604
283.592
283.587
283.59
283.598
283.611
283.628
283.649
283.671
283.695
283.718
283.739
283.756
283.77
283.782
283.79
283.796
283.8
283.803
283.804
283.805
283.805
283.804
283.802
283.801
283.798
283.796
283.793
283.79
283.787
283.784
283.781
283.778
283.775
283.773
283.77
283.768
283.765
283.763
283.761
283.758
283.756
283.753
283.75
283.746
283.742
283.738
283.733
283.729
283.724
283.718
283.713
283.708
283.703
283.698
283.692
283.687
283.68
283.673
283.664
283.654
283.642
283.629
283.615
283.6
283.587
283.577
283.573
283.583
283.623
283.722
283.898
284.122
284.344
284.52
284.631
284.677
284.668
284.617
284.54
284.449
284.355
284.265
284.188
284.141
284.095
284.119
284.298
283.938
283.785
283.778
283.757
283.739
283.722
283.703
283.68
283.655
283.628
283.604
283.586
283.576
283.573
283.578
283.588
283.604
283.623
283.645
283.669
283.694
283.719
283.742
283.762
283.778
283.791
283.799
283.805
283.809
283.811
283.812
283.812
283.811
283.809
283.807
283.805
283.802
283.798
283.794
283.79
283.786
283.782
283.778
283.773
283.769
283.764
283.76
283.756
283.752
283.748
283.744
283.74
283.736
283.731
283.726
283.722
283.716
283.711
283.705
283.7
283.694
283.689
283.684
283.679
283.675
283.671
283.667
283.664
283.66
283.657
283.652
283.646
283.639
283.63
283.619
283.606
283.593
283.581
283.571
283.567
283.573
283.601
283.677
283.82
284.021
284.238
284.429
284.568
284.646
284.667
284.642
284.581
284.497
284.402
284.309
284.223
284.166
284.104
284.099
284.268
283.932
283.785
283.774
283.749
283.725
283.701
283.676
283.647
283.618
283.593
283.574
283.564
283.562
283.568
283.579
283.595
283.614
283.637
283.661
283.688
283.714
283.74
283.762
283.781
283.795
283.805
283.812
283.815
283.817
283.818
283.818
283.817
283.815
283.813
283.81
283.807
283.803
283.799
283.794
283.789
283.784
283.779
283.773
283.767
283.761
283.755
283.748
283.742
283.736
283.73
283.724
283.718
283.711
283.705
283.698
283.691
283.684
283.677
283.671
283.664
283.658
283.653
283.648
283.644
283.641
283.638
283.636
283.635
283.633
283.631
283.629
283.626
283.621
283.614
283.606
283.596
283.584
283.573
283.564
283.559
283.563
283.584
283.642
283.757
283.932
284.138
284.335
284.493
284.598
284.647
284.645
284.601
284.527
284.436
284.341
284.256
284.187
284.121
284.081
284.228
283.925
283.785
283.769
283.739
283.711
283.681
283.649
283.618
283.589
283.568
283.556
283.554
283.559
283.57
283.585
283.604
283.625
283.649
283.676
283.703
283.731
283.756
283.777
283.794
283.806
283.815
283.82
283.823
283.824
283.825
283.824
283.823
283.821
283.819
283.816
283.812
283.808
283.803
283.797
283.792
283.785
283.779
283.771
283.764
283.756
283.748
283.74
283.732
283.724
283.715
283.707
283.698
283.69
283.681
283.673
283.664
283.656
283.649
283.641
283.635
283.629
283.625
283.621
283.617
283.615
283.614
283.612
283.612
283.611
283.61
283.609
283.607
283.604
283.599
283.592
283.584
283.574
283.564
283.555
283.551
283.553
283.57
283.614
283.706
283.856
284.046
284.243
284.414
284.539
284.611
284.631
284.605
284.543
284.457
284.363
284.277
284.206
284.14
284.072
284.181
283.917
283.785
283.765
283.732
283.698
283.663
283.628
283.595
283.569
283.553
283.547
283.551
283.56
283.575
283.592
283.612
283.634
283.659
283.686
283.715
283.743
283.768
283.789
283.804
283.815
283.823
283.827
283.83
283.831
283.832
283.832
283.831
283.829
283.827
283.824
283.82
283.815
283.81
283.804
283.797
283.79
283.783
283.775
283.766
283.757
283.747
283.737
283.727
283.717
283.706
283.695
283.685
283.675
283.664
283.655
283.646
283.637
283.63
283.623
283.618
283.613
283.609
283.607
283.605
283.603
283.602
283.601
283.6
283.599
283.598
283.596
283.594
283.59
283.586
283.58
283.572
283.563
283.554
283.546
283.542
283.544
283.557
283.592
283.666
283.793
283.965
284.155
284.333
284.474
284.565
284.605
284.595
284.545
284.467
284.376
284.291
284.221
284.154
284.075
284.136
283.909
283.786
283.764
283.726
283.688
283.648
283.611
283.578
283.555
283.544
283.544
283.552
283.565
283.58
283.598
283.618
283.64
283.665
283.693
283.722
283.751
283.776
283.797
283.812
283.823
283.83
283.835
283.838
283.84
283.842
283.842
283.841
283.84
283.837
283.834
283.83
283.825
283.819
283.813
283.806
283.799
283.791
283.782
283.773
283.763
283.752
283.74
283.729
283.716
283.704
283.691
283.679
283.668
283.657
283.647
283.638
283.63
283.623
283.618
283.614
283.611
283.609
283.608
283.607
283.606
283.605
283.603
283.601
283.598
283.594
283.591
283.587
283.582
283.576
283.57
283.562
283.553
283.545
283.537
283.533
283.534
283.545
283.574
283.634
283.74
283.894
284.075
284.254
284.406
284.513
284.569
284.575
284.538
284.468
284.382
284.298
284.229
284.162
284.082
284.101
283.903
283.787
283.764
283.723
283.68
283.638
283.598
283.567
283.547
283.54
283.544
283.555
283.57
283.586
283.603
283.622
283.643
283.668
283.696
283.726
283.756
283.782
283.803
283.819
283.83
283.838
283.844
283.848
283.851
283.853
283.854
283.853
283.852
283.849
283.846
283.841
283.836
283.831
283.824
283.818
283.811
283.803
283.794
283.784
283.774
283.762
283.75
283.737
283.723
283.709
283.695
283.682
283.67
283.658
283.648
283.64
283.633
283.628
283.624
283.622
283.621
283.62
283.62
283.62
283.619
283.617
283.614
283.61
283.605
283.599
283.592
283.585
283.578
283.57
283.562
283.553
283.544
283.535
283.528
283.524
283.525
283.535
283.558
283.608
283.697
283.833
284.003
284.18
284.338
284.458
284.528
284.548
284.522
284.461
284.381
284.3
284.232
284.166
284.088
284.074
283.899
283.789
283.766
283.722
283.676
283.631
283.59
283.56
283.543
283.54
283.546
283.559
283.575
283.591
283.608
283.625
283.645
283.668
283.696
283.727
283.758
283.786
283.808
283.825
283.838
283.847
283.853
283.858
283.862
283.865
283.866
283.866
283.864
283.861
283.858
283.853
283.848
283.843
283.837
283.831
283.825
283.817
283.809
283.8
283.79
283.778
283.765
283.752
283.737
283.722
283.708
283.694
283.681
283.669
283.659
283.652
283.646
283.642
283.639
283.638
283.637
283.636
283.635
283.634
283.632
283.63
283.626
283.621
283.614
283.606
283.597
283.587
283.576
283.566
283.556
283.546
283.536
283.527
283.519
283.515
283.516
283.525
283.545
283.587
283.663
283.782
283.939
284.112
284.274
284.403
284.485
284.516
284.5
284.447
284.373
284.297
284.231
284.164
284.09
284.058
283.895
283.79
283.77
283.724
283.675
283.627
283.586
283.556
283.541
283.541
283.55
283.565
283.581
283.596
283.611
283.627
283.644
283.666
283.693
283.725
283.757
283.787
283.812
283.831
283.845
283.856
283.864
283.87
283.874
283.877
283.879
283.878
283.876
283.874
283.87
283.866
283.861
283.856
283.851
283.845
283.84
283.834
283.827
283.819
283.809
283.798
283.786
283.772
283.758
283.742
283.727
283.713
283.699
283.688
283.678
283.671
283.665
283.661
283.658
283.655
283.652
283.649
283.645
283.642
283.639
283.636
283.633
283.628
283.622
283.612
283.601
283.589
283.576
283.563
283.551
283.539
283.528
283.518
283.511
283.506
283.507
283.515
283.534
283.569
283.635
283.74
283.885
284.052
284.215
284.35
284.442
284.483
284.475
284.43
284.362
284.291
284.226
284.157
284.085
284.048
283.893
283.791
283.775
283.728
283.677
283.627
283.584
283.555
283.542
283.543
283.555
283.571
283.587
283.602
283.616
283.629
283.643
283.663
283.689
283.72
283.754
283.787
283.815
283.836
283.852
283.865
283.874
283.881
283.886
283.889
283.891
283.89
283.888
283.885
283.881
283.877
283.873
283.868
283.864
283.86
283.855
283.85
283.845
283.838
283.831
283.821
283.81
283.797
283.783
283.768
283.753
283.738
283.725
283.713
283.703
283.695
283.688
283.683
283.677
283.671
283.664
283.656
283.648
283.642
283.638
283.636
283.634
283.631
283.625
283.616
283.604
283.59
283.575
283.56
283.545
283.532
283.52
283.51
283.502
283.498
283.499
283.506
283.523
283.555
283.612
283.706
283.84
284
284.163
284.302
284.4
284.449
284.449
284.409
284.347
284.281
284.218
284.145
284.074
284.04
283.892
283.791
283.782
283.735
283.683
283.63
283.586
283.556
283.544
283.547
283.56
283.577
283.594
283.609
283.621
283.631
283.643
283.659
283.682
283.713
283.749
283.784
283.815
283.84
283.859
283.873
283.884
283.892
283.898
283.901
283.902
283.901
283.899
283.895
283.891
283.887
283.883
283.879
283.876
283.873
283.87
283.866
283.863
283.858
283.852
283.845
283.836
283.824
283.811
283.797
283.783
283.768
283.755
283.743
283.732
283.723
283.714
283.706
283.697
283.686
283.673
283.66
283.647
283.637
283.632
283.631
283.631
283.63
283.626
283.617
283.603
283.588
283.571
283.554
283.538
283.524
283.511
283.501
283.493
283.489
283.491
283.498
283.514
283.543
283.594
283.679
283.803
283.957
284.118
284.259
284.363
284.417
284.422
284.387
284.33
284.269
284.205
284.129
284.063
284.034
283.892
283.789
283.791
283.746
283.692
283.637
283.591
283.56
283.547
283.551
283.565
283.584
283.602
283.616
283.627
283.635
283.643
283.655
283.675
283.704
283.741
283.779
283.814
283.842
283.864
283.88
283.893
283.902
283.908
283.911
283.912
283.91
283.908
283.904
283.9
283.896
283.892
283.889
283.886
283.884
283.882
283.88
283.878
283.875
283.872
283.867
283.86
283.851
283.841
283.829
283.816
283.802
283.789
283.777
283.766
283.755
283.744
283.733
283.719
283.703
283.682
283.659
283.639
283.627
283.623
283.625
283.628
283.628
283.624
283.614
283.6
283.583
283.564
283.547
283.53
283.515
283.502
283.491
283.484
283.481
283.482
283.49
283.506
283.533
283.58
283.658
283.774
283.922
284.081
284.224
284.33
284.387
284.396
284.365
284.312
284.255
284.188
284.11
284.053
284.03
283.892
283.783
283.801
283.759
283.705
283.649
283.599
283.565
283.551
283.555
283.57
283.591
283.61
283.625
283.636
283.641
283.645
283.652
283.667
283.693
283.73
283.771
283.81
283.842
283.867
283.886
283.9
283.91
283.916
283.92
283.92
283.919
283.915
283.911
283.907
283.903
283.899
283.896
283.894
283.893
283.892
283.891
283.891
283.89
283.888
283.886
283.882
283.876
283.869
283.86
283.85
283.839
283.828
283.816
283.805
283.792
283.78
283.764
283.745
283.719
283.685
283.647
283.618
283.61
283.613
283.62
283.625
283.625
283.619
283.608
283.592
283.573
283.555
283.536
283.519
283.504
283.491
283.481
283.475
283.472
283.475
283.483
283.499
283.525
283.569
283.643
283.753
283.897
284.054
284.197
284.304
284.362
284.371
284.343
284.294
284.239
284.166
284.09
284.045
284.026
283.892
283.771
283.807
283.775
283.724
283.664
283.611
283.573
283.556
283.559
283.575
283.596
283.618
283.635
283.646
283.65
283.65
283.651
283.66
283.682
283.717
283.76
283.803
283.84
283.868
283.89
283.906
283.917
283.924
283.927
283.927
283.925
283.922
283.917
283.912
283.908
283.904
283.901
283.9
283.899
283.899
283.899
283.9
283.9
283.901
283.9
283.9
283.897
283.894
283.889
283.883
283.876
283.867
283.858
283.846
283.833
283.816
283.792
283.761
283.72
283.673
283.628
283.603
283.601
283.609
283.617
283.62
283.618
283.61
283.597
283.58
283.561
283.542
283.523
283.506
283.492
283.48
283.471
283.466
283.465
283.468
283.477
283.493
283.519
283.562
283.633
283.74
283.881
284.036
284.179
284.285
284.341
284.35
284.321
284.276
284.221
284.138
284.071
284.038
284.024
283.892
283.754
283.807
283.789
283.745
283.689
283.63
283.585
283.562
283.562
283.577
283.601
283.625
283.644
283.657
283.662
283.66
283.655
283.656
283.67
283.701
283.745
283.792
283.834
283.867
283.892
283.909
283.922
283.929
283.933
283.933
283.931
283.927
283.921
283.916
283.911
283.908
283.905
283.904
283.903
283.904
283.905
283.906
283.907
283.909
283.911
283.912
283.913
283.914
283.913
283.911
283.908
283.902
283.894
283.882
283.864
283.839
283.805
283.763
283.714
283.663
283.623
283.603
283.601
283.606
283.61
283.61
283.606
283.595
283.581
283.564
283.545
283.526
283.509
283.493
283.48
283.469
283.461
283.457
283.457
283.462
283.472
283.489
283.515
283.559
283.628
283.735
283.875
284.032
284.171
284.272
284.324
284.329
284.301
284.258
284.198
284.105
284.053
284.034
284.023
283.893
283.729
283.799
283.799
283.765
283.716
283.659
283.606
283.571
283.565
283.578
283.602
283.628
283.651
283.668
283.676
283.673
283.663
283.655
283.66
283.685
283.728
283.778
283.825
283.863
283.891
283.911
283.925
283.933
283.937
283.937
283.935
283.93
283.924
283.919
283.914
283.91
283.907
283.906
283.906
283.906
283.907
283.909
283.911
283.913
283.915
283.918
283.922
283.925
283.927
283.929
283.928
283.925
283.917
283.903
283.881
283.849
283.809
283.761
283.709
283.661
283.625
283.605
283.599
283.599
283.599
283.595
283.588
283.576
283.561
283.544
283.527
283.51
283.494
283.479
283.468
283.458
283.452
283.45
283.451
283.457
283.469
283.487
283.515
283.56
283.634
283.744
283.884
284.036
284.169
284.262
284.308
284.309
284.281
284.239
284.173
284.069
284.037
284.032
284.023
283.893
283.694
283.781
283.801
283.782
283.741
283.69
283.637
283.594
283.569
283.576
283.599
283.626
283.653
283.676
283.689
283.689
283.676
283.66
283.654
283.669
283.708
283.76
283.811
283.854
283.887
283.91
283.926
283.935
283.94
283.94
283.937
283.932
283.926
283.92
283.915
283.91
283.908
283.907
283.907
283.908
283.909
283.91
283.911
283.913
283.915
283.918
283.922
283.925
283.929
283.931
283.931
283.928
283.919
283.904
283.88
283.845
283.802
283.753
283.703
283.659
283.626
283.604
283.593
283.588
283.583
283.576
283.567
283.554
283.54
283.524
283.508
283.493
283.479
283.466
283.456
283.449
283.445
283.444
283.448
283.455
283.468
283.489
283.52
283.571
283.652
283.766
283.905
284.05
284.172
284.255
284.292
284.29
284.262
284.217
284.142
284.035
284.022
284.03
284.024
283.892
283.649
283.754
283.794
283.792
283.764
283.72
283.671
283.625
283.591
283.578
283.592
283.619
283.648
283.677
283.699
283.706
283.695
283.672
283.653
283.656
283.686
283.737
283.794
283.842
283.88
283.906
283.924
283.935
283.941
283.942
283.939
283.934
283.927
283.921
283.915
283.911
283.908
283.907
283.907
283.908
283.908
283.909
283.909
283.909
283.91
283.911
283.913
283.915
283.917
283.917
283.916
283.911
283.901
283.884
283.86
283.828
283.787
283.741
283.696
283.656
283.623
283.6
283.585
283.575
283.566
283.556
283.545
283.532
283.519
283.504
283.49
283.477
283.465
283.455
283.447
283.442
283.44
283.442
283.447
283.457
283.472
283.497
283.535
283.594
283.683
283.799
283.935
284.069
284.178
284.249
284.278
284.271
284.241
284.191
284.107
284.005
284.008
284.027
284.024
283.891
283.598
283.718
283.778
283.793
283.779
283.747
283.704
283.66
283.623
283.598
283.592
283.603
283.634
283.671
283.703
283.721
283.716
283.69
283.659
283.646
283.665
283.712
283.771
283.826
283.869
283.899
283.92
283.933
283.94
283.941
283.939
283.934
283.927
283.921
283.915
283.91
283.908
283.907
283.908
283.908
283.908
283.907
283.905
283.903
283.901
283.899
283.897
283.896
283.893
283.89
283.886
283.878
283.867
283.851
283.829
283.8
283.765
283.726
283.686
283.65
283.619
283.595
283.576
283.562
283.549
283.538
283.525
283.513
283.5
283.487
283.475
283.464
283.455
283.447
283.442
283.439
283.439
283.443
283.451
283.464
283.484
283.515
283.562
283.631
283.726
283.843
283.97
284.091
284.186
284.244
284.264
284.252
284.217
284.16
284.068
283.974
283.994
284.025
284.025
283.889
283.549
283.68
283.753
283.785
283.787
283.767
283.734
283.695
283.658
283.63
283.614
283.612
283.616
283.661
283.699
283.73
283.737
283.714
283.674
283.644
283.646
283.685
283.745
283.805
283.854
283.889
283.914
283.929
283.937
283.94
283.938
283.933
283.927
283.92
283.914
283.91
283.908
283.907
283.908
283.908
283.908
283.905
283.901
283.896
283.89
283.884
283.878
283.871
283.865
283.857
283.849
283.839
283.827
283.812
283.792
283.768
283.74
283.708
283.674
283.642
283.613
283.588
283.568
283.551
283.536
283.523
283.51
283.498
283.486
283.475
283.464
283.456
283.448
283.443
283.44
283.44
283.443
283.45
283.462
283.481
283.508
283.548
283.605
283.682
283.779
283.892
284.008
284.114
284.193
284.239
284.25
284.232
284.19
284.122
284.021
283.929
283.978
284.022
284.026
283.884
283.529
283.646
283.722
283.768
283.786
283.78
283.757
283.726
283.693
283.665
283.645
283.638
283.641
283.659
283.692
283.732
283.752
283.741
283.698
283.651
283.633
283.658
283.715
283.779
283.834
283.875
283.904
283.922
283.932
283.936
283.936
283.931
283.925
283.919
283.913
283.909
283.908
283.908
283.909
283.909
283.908
283.905
283.899
283.89
283.881
283.87
283.859
283.848
283.836
283.824
283.812
283.799
283.786
283.771
283.754
283.734
283.712
283.686
283.659
283.631
283.605
283.581
283.561
283.543
283.527
283.513
283.5
283.488
283.477
283.468
283.46
283.453
283.449
283.446
283.446
283.45
283.457
283.468
283.486
283.512
283.548
283.597
283.662
283.743
283.838
283.943
284.046
284.135
284.199
284.232
284.234
284.21
284.161
284.082
283.968
283.884
283.965
284.02
284.027
283.878
283.526
283.581
283.676
283.74
283.774
283.783
283.773
283.751
283.724
283.698
283.679
283.669
283.671
283.68
283.702
283.731
283.759
283.765
283.728
283.669
283.628
283.634
283.683
283.749
283.81
283.858
283.891
283.913
283.925
283.931
283.932
283.929
283.923
283.917
283.912
283.908
283.907
283.908
283.91
283.911
283.91
283.906
283.898
283.887
283.874
283.86
283.844
283.829
283.812
283.796
283.781
283.765
283.75
283.734
283.718
283.701
283.682
283.662
283.64
283.617
283.595
283.574
283.555
283.537
283.522
283.508
283.496
283.486
283.476
283.469
283.463
283.46
283.458
283.459
283.464
283.472
283.484
283.503
283.528
283.561
283.605
283.661
283.729
283.809
283.899
283.992
284.08
284.153
284.202
284.224
284.218
284.188
284.133