/*--------------------------------*- C++ -*----------------------------------*\
| =========                 |                                                 |
| \\      /  F ield         | OpenFOAM: The Open Source CFD Toolbox           |
|  \\    /   O peration     | Version:  4.1                                   |
|   \\  /    A nd           | Web:      www.OpenFOAM.org                      |
|    \\/     M anipulation  |                                                 |
\*---------------------------------------------------------------------------*/
FoamFile
{
    version     2.0;
    format      ascii;
    class       volScalarField;
    location    "200";
    object      mag(U);
}
// * * * * * * * * * * * * * * * * * * * * * * * * * * * * * * * * * * * * * //

dimensions      [0 1 -1 0 0 0 0];

internalField   nonuniform List<scalar> 
5000
(
0.0024196
0.00198251
0.00193491
0.00382705
0.00609542
0.00807317
0.00979611
0.0113758
0.0128933
0.0143853
0.015855
0.0172862
0.018654
0.0199308
0.0210903
0.0221098
0.0229724
0.0236675
0.0241903
0.0245424
0.0247288
0.0247568
0.0246385
0.0243881
0.0240237
0.0235649
0.0230306
0.0224383
0.0218029
0.0211374
0.0204513
0.0197506
0.019037
0.0183063
0.0175474
0.0167408
0.0158566
0.0148497
0.0136528
0.0121716
0.0103177
0.00807054
0.00561589
0.0032421
0.00288756
0.0048984
0.00734413
0.00973328
0.0119502
0.0139859
0.0158396
0.0175077
0.018986
0.0202723
0.0213661
0.0222686
0.0229822
0.0235104
0.023858
0.0240316
0.0240376
0.0238839
0.0235774
0.0231223
0.0225213
0.0217769
0.0208916
0.019868
0.0187088
0.0174158
0.0159873
0.0144115
0.0126471
0.0105866
0.00788241
0.00351755
0.00164048
0.00240667
0.00339968
0.00418856
0.00480347
0.00524871
0.00551387
0.0055875
0.00545962
0.00511709
0.0045682
0.00383564
0.00296036
0.00202041
0.00119059
0.000968756
0.00165525
0.00245433
0.00325087
0.0040544
0.00479156
0.00528846
0.0049349
0.00456965
0.00372066
0.00259501
0.00404151
0.00597504
0.00776013
0.00950179
0.0112335
0.0129272
0.0145688
0.0161535
0.0176732
0.0191126
0.0204509
0.0216648
0.0227314
0.0236309
0.0243487
0.0248762
0.0252117
0.0253606
0.0253311
0.0251362
0.0248044
0.0243634
0.0238313
0.0232241
0.0225566
0.0218426
0.0210948
0.0203242
0.0195396
0.0187471
0.0179491
0.0171435
0.0163225
0.015472
0.0145698
0.0135832
0.0124658
0.0111623
0.00964484
0.007992
0.00650574
0.00553509
0.0047303
0.00566887
0.00748989
0.00953695
0.0115524
0.0134616
0.0152347
0.0168541
0.0183085
0.0195912
0.0206995
0.021633
0.0223939
0.0229862
0.0234153
0.0236883
0.0238089
0.0237735
0.0235869
0.0232521
0.0227689
0.0221379
0.021359
0.0204315
0.0193541
0.0181228
0.0167288
0.0151546
0.0133782
0.0114617
0.00965147
0.00730565
0.00357591
0.00268387
0.00342691
0.0042849
0.00499872
0.00552548
0.00584652
0.00595526
0.00585172
0.00554621
0.00505209
0.00440003
0.00364074
0.00285534
0.00216724
0.00171011
0.00153995
0.00187969
0.00245563
0.00308026
0.00357775
0.00381077
0.00377083
0.00597537
0.00560121
0.00321947
0.00560587
0.00758308
0.00901607
0.0103549
0.0117895
0.0132876
0.0147864
0.0162421
0.0176243
0.0189083
0.0200712
0.0210919
0.021952
0.022638
0.0231427
0.0234658
0.0236145
0.0235997
0.0234363
0.0231446
0.0227534
0.022268
0.0217016
0.0210667
0.0203757
0.019641
0.0188746
0.018088
0.0172914
0.0164928
0.0156978
0.0149086
0.0141235
0.0133367
0.0125387
0.0117163
0.0108564
0.00996053
0.00908396
0.00838433
0.00805282
0.00792272
0.00738869
0.00765063
0.00866442
0.0100807
0.0116401
0.0132115
0.0147252
0.0161396
0.0174284
0.018575
0.0195695
0.0204065
0.0210841
0.0216032
0.0219672
0.0221818
0.0222557
0.0221942
0.0220045
0.0216909
0.0212548
0.0206968
0.0200154
0.0192085
0.018273
0.0172059
0.016006
0.0146826
0.0132953
0.0121068
0.0115758
0.0105836
0.00668306
0.00378017
0.00358546
0.00412957
0.00479203
0.00535563
0.00574284
0.0059254
0.00590429
0.00570379
0.00534629
0.00486422
0.00429965
0.00370715
0.00314974
0.00268612
0.00234275
0.00221152
0.00239767
0.00275705
0.00288463
0.00273855
0.00346872
0.00797847
0.0076055
0.00438309
0.0066988
0.00863385
0.0099124
0.0109779
0.0121183
0.01336
0.0146434
0.0159085
0.0171098
0.018213
0.0191914
0.0200244
0.0206973
0.0212022
0.0215391
0.0217142
0.0217419
0.0216358
0.0214122
0.0210982
0.0206932
0.0202026
0.0196338
0.0189954
0.0182973
0.0175508
0.016768
0.0159614
0.0151435
0.0143258
0.0135185
0.0127298
0.0119664
0.011234
0.0105399
0.00989769
0.00933789
0.00892714
0.00878937
0.00906635
0.00966814
0.00998883
0.00969647
0.00971161
0.010216
0.0110898
0.0121777
0.0133622
0.0145624
0.0157232
0.0168066
0.0177872
0.0186474
0.0193759
0.0199654
0.0204122
0.020716
0.0208801
0.0209089
0.0208095
0.0205905
0.0202598
0.0198232
0.0192853
0.0186492
0.0179172
0.0170916
0.0161787
0.0151947
0.0141857
0.0132901
0.0129011
0.0134531
0.0132831
0.00950895
0.00553369
0.00452584
0.00452104
0.00488135
0.00529553
0.00562204
0.00581358
0.00586386
0.00578859
0.00560261
0.00532011
0.00495746
0.00453315
0.00406828
0.00358972
0.00313598
0.00276094
0.00265689
0.00283936
0.00259871
0.00221679
0.0037542
0.00962333
0.00960965
0.00585141
0.00771735
0.00946525
0.0106179
0.0114995
0.0124053
0.0134069
0.0144663
0.0155239
0.0165279
0.0174386
0.0182276
0.0188761
0.0193746
0.0197225
0.0199276
0.0200038
0.0199686
0.0198374
0.0196193
0.0193299
0.0189555
0.0184974
0.0179581
0.0173428
0.0166589
0.0159166
0.0151278
0.0143063
0.0134666
0.012624
0.0117937
0.0109911
0.0102321
0.00953572
0.00892916
0.00845714
0.0081975
0.00827605
0.00884935
0.009976
0.0112496
0.0118287
0.0117135
0.0116492
0.0118501
0.012318
0.0129873
0.0137836
0.014642
0.0155107
0.0163505
0.0171322
0.0178337
0.0184382
0.0189332
0.0193093
0.0195608
0.0196871
0.0196878
0.0195683
0.0193375
0.0190047
0.0185784
0.0180674
0.0174796
0.0168233
0.0161088
0.0153537
0.0145918
0.0139004
0.0134748
0.0137807
0.0151512
0.0155226
0.0118903
0.0074351
0.00584005
0.00532141
0.00522662
0.0053272
0.00548827
0.00564365
0.00576427
0.00583534
0.00584642
0.00578168
0.00562367
0.00535655
0.00497423
0.00448857
0.003936
0.00338025
0.00302258
0.00306888
0.00261589
0.00186366
0.00410404
0.0108899
0.0115628
0.00739423
0.00875011
0.0102473
0.0112666
0.012007
0.0127278
0.01352
0.0143655
0.0152124
0.0160095
0.0167174
0.0173102
0.0177751
0.0181112
0.0183274
0.0184396
0.0184666
0.018423
0.0183175
0.01815
0.0179169
0.0176023
0.0172028
0.0167174
0.0161482
0.0155008
0.0147838
0.0140087
0.0131897
0.0123432
0.0114877
0.0106435
0.00983263
0.00908048
0.00841879
0.00789262
0.0075728
0.00757313
0.00805845
0.00920293
0.0109935
0.0127073
0.0134368
0.0134621
0.0133771
0.0133916
0.0135653
0.0138879
0.0143247
0.0148374
0.0153915
0.0159572
0.0165094
0.0170266
0.0174897
0.0178819
0.0181884
0.0183972
0.018502
0.0184956
0.0183798
0.0181622
0.0178531
0.0174631
0.0170046
0.0164899
0.0159327
0.0153502
0.0147684
0.0142332
0.0138422
0.0138302
0.0147073
0.0166985
0.0174397
0.0139454
0.00929022
0.00726572
0.00633757
0.00577512
0.00547746
0.00538784
0.00545459
0.0056261
0.00584542
0.00606382
0.00622394
0.00627075
0.00615813
0.00586147
0.00538377
0.00475282
0.00403424
0.00342673
0.00328999
0.0028357
0.00154735
0.00443697
0.0119284
0.0134194
0.00888828
0.0097775
0.011021
0.0119089
0.0125356
0.0131097
0.013723
0.0143709
0.0150108
0.015597
0.0160951
0.016487
0.0167705
0.0169564
0.0170648
0.0171175
0.0171328
0.0171163
0.0170643
0.0169671
0.0168063
0.016567
0.0162425
0.0158291
0.0153266
0.0147385
0.0140716
0.013336
0.0125458
0.0117181
0.0108741
0.0100384
0.00923982
0.00851244
0.00789885
0.0074564
0.00726878
0.00746322
0.00822451
0.0097671
0.0120446
0.0139999
0.0148192
0.014967
0.0148777
0.0147695
0.0147267
0.0147667
0.0148823
0.0150615
0.0152924
0.015563
0.0158597
0.0161672
0.0164686
0.0167454
0.0169787
0.0171506
0.0172477
0.0172554
0.0171689
0.016994
0.0167402
0.0164193
0.016046
0.0156365
0.0152087
0.0147838
0.0143921
0.0140851
0.0139713
0.0143144
0.0156583
0.0181278
0.019126
0.0157591
0.0110509
0.00869065
0.00743796
0.00645821
0.00574556
0.00534321
0.00526217
0.0054536
0.00581238
0.00623885
0.00662511
0.00687686
0.00692109
0.00671965
0.0062697
0.00558788
0.00472175
0.0038669
0.0034553
0.00309323
0.00123867
0.00473448
0.0128136
0.0151525
0.0102833
0.0107696
0.011783
0.0125511
0.013086
0.0135445
0.0140077
0.0144778
0.0149205
0.0152979
0.0155846
0.0157741
0.0158787
0.0159242
0.015941
0.0159544
0.015976
0.0159999
0.0160083
0.0159793
0.0158937
0.0157357
0.0154961
0.0151691
0.0147523
0.0142465
0.0136559
0.0129886
0.0122566
0.0114771
0.0106722
0.00987005
0.0091048
0.00841809
0.00786085
0.00749726
0.00741321
0.00773347
0.00865519
0.0104679
0.0130763
0.0150875
0.0160179
0.0162454
0.0161503
0.0159532
0.0157445
0.0155517
0.0153839
0.0152506
0.0151629
0.0151297
0.0151538
0.0152306
0.0153494
0.015494
0.0156449
0.0157801
0.0158798
0.0159222
0.0158922
0.0157912
0.0156262
0.0154086
0.0151546
0.0148825
0.0146128
0.0143682
0.014179
0.0140967
0.0142347
0.014881
0.0166097
0.0194519
0.0206293
0.0173849
0.0127089
0.0100603
0.0085475
0.00721755
0.00611765
0.00537119
0.00508216
0.00524885
0.00572697
0.00635532
0.00696622
0.00742401
0.00763054
0.00753715
0.00713799
0.00643851
0.0054562
0.0043531
0.00358506
0.00325254
0.000976794
0.00497099
0.0135734
0.0167542
0.0115633
0.0117049
0.0125195
0.0131832
0.0136447
0.014013
0.0143526
0.0146667
0.0149273
0.0151044
0.0151833
0.0151718
0.0150989
0.0150065
0.0149356
0.0149117
0.0149377
0.0149949
0.0150545
0.0150866
0.015074
0.015
0.0148538
0.0146276
0.014316
0.0139166
0.0134297
0.0128597
0.0122158
0.0115129
0.0107729
0.0100251
0.00930721
0.00866606
0.0081584
0.00785283
0.00783533
0.00822616
0.00923664
0.0112549
0.0139845
0.0160343
0.0170451
0.01731
0.017201
0.0169328
0.0165903
0.0162017
0.0157853
0.0153672
0.0149793
0.0146503
0.0143993
0.0142338
0.014152
0.0141443
0.0141948
0.0142827
0.0143846
0.0144753
0.0145248
0.0145277
0.0144851
0.0144054
0.0143036
0.0141987
0.0141114
0.0140637
0.0140828
0.0142164
0.014581
0.0154874
0.017538
0.0206727
0.0219759
0.0188554
0.0142485
0.0113695
0.00962636
0.00801212
0.00657469
0.00548248
0.00493054
0.00501438
0.00558127
0.00640002
0.00723276
0.00789858
0.00827449
0.00830311
0.00797851
0.00729673
0.0062402
0.00491291
0.00377101
0.00334869
0.00130526
0.00514099
0.0142412
0.0182255
0.0127258
0.0125695
0.0132155
0.0137907
0.014194
0.0144926
0.0147322
0.0149131
0.0150106
0.0150016
0.0148814
0.0146721
0.0144204
0.0141849
0.0140165
0.0139414
0.0139542
0.0140262
0.014121
0.0142031
0.0142592
0.0142719
0.0142285
0.0141186
0.0139331
0.0136648
0.0133089
0.0128647
0.0123367
0.0117361
0.0110825
0.0104045
0.00974114
0.00914207
0.00866825
0.00839288
0.00840532
0.00882688
0.00989681
0.0120441
0.0147598
0.0168719
0.0179086
0.0181748
0.0180411
0.0177098
0.0172538
0.016698
0.0160661
0.0153979
0.0147428
0.0141454
0.0136368
0.0132334
0.0129415
0.0127604
0.0126841
0.0127001
0.0127876
0.0129266
0.0130687
0.0131987
0.0133077
0.0133966
0.0134761
0.013563
0.0136762
0.0138346
0.0140608
0.014398
0.0149654
0.0160978
0.0184225
0.0217881
0.0231818
0.0201927
0.0156716
0.0126171
0.0106553
0.00881584
0.00709811
0.0056836
0.00482712
0.00475642
0.00537033
0.0063628
0.00741379
0.00829033
0.0088434
0.00900776
0.00878052
0.00815147
0.00706808
0.0055727
0.00409437
0.00348252
0.00173166
0.00529069
0.0148525
0.0195718
0.0137733
0.0133548
0.0138577
0.0143589
0.0147161
0.0149616
0.015122
0.0151921
0.0151482
0.0149715
0.0146652
0.0142638
0.0138298
0.0134382
0.0131514
0.0129982
0.0129691
0.01303
0.0131399
0.0132601
0.013381
0.0134846
0.0135554
0.0135791
0.0135415
0.0134293
0.013231
0.0129391
0.0125517
0.0120752
0.0115252
0.010928
0.0103221
0.0097587
0.00930216
0.00903162
0.00904396
0.00947108
0.0105975
0.0127109
0.015474
0.0175998
0.0186154
0.0188536
0.0186848
0.0182935
0.0177377
0.0170386
0.0162249
0.0153487
0.014474
0.0136557
0.012929
0.0123121
0.0118141
0.011443
0.0112071
0.0111118
0.0111496
0.0113167
0.0115486
0.0118172
0.0120984
0.0123801
0.0126633
0.0129595
0.0132835
0.0136499
0.0140762
0.014602
0.0153513
0.0166839
0.019246
0.022794
0.0242576
0.0214128
0.0169898
0.013805
0.0116268
0.0096115
0.00766909
0.00597273
0.00479211
0.00448
0.00509043
0.00623571
0.00750118
0.00859142
0.00932945
0.00964212
0.00953258
0.00898843
0.00792359
0.00632453
0.00458018
0.00367383
0.00207974
0.00545867
0.0154273
0.0207998
0.0147104
0.0140557
0.0144354
0.0148742
0.0151951
0.0154005
0.0154998
0.0154807
0.0153184
0.0149956
0.0145202
0.0139349
0.0133149
0.0127498
0.0123151
0.0120471
0.0119386
0.0119552
0.0120569
0.0122069
0.0123891
0.0125903
0.0127892
0.0129657
0.0130987
0.0131668
0.0131506
0.0130343
0.0128089
0.0124741
0.0120409
0.0115324
0.0109856
0.0104521
0.00999976
0.00971487
0.00970497
0.0101232
0.0112233
0.0133242
0.0161149
0.0182166
0.0191731
0.0193611
0.0191483
0.0186981
0.0180532
0.0172337
0.0162741
0.0152391
0.0142039
0.0132271
0.0123395
0.0115514
0.0108673
0.0102993
0.00987112
0.00961453
0.00955
0.00970112
0.0100044
0.0104099
0.0108731
0.0113622
0.0118626
0.0123768
0.0129136
0.0134829
0.0140979
0.0147965
0.0157099
0.017223
0.0199939
0.0236858
0.0252105
0.0225276
0.0182137
0.0149448
0.0125397
0.0103874
0.00826974
0.00634015
0.00484339
0.00420967
0.00474042
0.00601412
0.00748945
0.00879599
0.00972599
0.0101975
0.0102223
0.00979075
0.00878375
0.00713289
0.0052015
0.0039475
0.00232559
0.00563607
0.0159577
0.0219165
0.015542
0.0146694
0.0149405
0.0153256
0.0156174
0.0157931
0.0158466
0.0157585
0.0155011
0.0150561
0.0144322
0.0136753
0.0128679
0.0121112
0.0114947
0.0110683
0.010836
0.0107719
0.0108401
0.0110052
0.0112502
0.0115603
0.0119048
0.0122549
0.0125802
0.0128505
0.0130372
0.0131157
0.0130688
0.0128894
0.012583
0.0121692
0.0116828
0.0111755
0.0107189
0.0104067
0.0103587
0.0107433
0.0117771
0.0138735
0.0166768
0.0187214
0.0195895
0.019712
0.0194492
0.018941
0.0182175
0.0173019
0.016235
0.0150944
0.0139625
0.0128946
0.0119091
0.0110013
0.0101646
0.00940742
0.00876343
0.00829329
0.00806212
0.00813056
0.00847431
0.00900438
0.00965102
0.0103531
0.0110748
0.0118065
0.0125502
0.0133114
0.0141007
0.014956
0.0160183
0.0176973
0.0206535
0.0244588
0.0260452
0.0235463
0.0193546
0.0160222
0.0134335
0.0111379
0.00888379
0.00676715
0.00498648
0.00397577
0.00432674
0.00569711
0.00737582
0.00889984
0.0100273
0.0106652
0.0108366
0.0105397
0.00962317
0.00795835
0.00588844
0.00429136
0.0024761
0.00580139
0.0164166
0.022929
0.0162732
0.0151945
0.015367
0.0157044
0.0159718
0.0161256
0.0161463
0.0160075
0.0156778
0.015136
0.0143876
0.0134767
0.0124867
0.0115247
0.0106928
0.0100598
0.00965137
0.00946097
0.00946617
0.00963617
0.00995071
0.0103878
0.0109001
0.0114451
0.0119816
0.0124706
0.0128747
0.0131608
0.0133034
0.0132883
0.0131155
0.0128007
0.0123766
0.0118941
0.0114288
0.0110809
0.0109835
0.0112972
0.0122674
0.0143526
0.017154
0.0191137
0.0198728
0.0199209
0.0196051
0.0190417
0.0182517
0.0172661
0.0161318
0.014938
0.0137689
0.0126695
0.0116418
0.0106639
0.00971525
0.00879429
0.00793123
0.00720595
0.00673708
0.00665103
0.00698575
0.00762151
0.00844896
0.00936294
0.0103015
0.0112418
0.0121796
0.0131173
0.014064
0.0150604
0.016259
0.0180926
0.0212143
0.0251088
0.0267647
0.0244752
0.0204245
0.0170318
0.0143381
0.0118651
0.00949863
0.00722996
0.00520857
0.00380346
0.00386037
0.00528692
0.00716036
0.00890063
0.0102288
0.0110374
0.011362
0.0112158
0.0104165
0.00876521
0.00656001
0.00465623
0.00254372
0.00590935
0.0167737
0.023844
0.0169093
0.0156312
0.0157112
0.016004
0.0162499
0.0163872
0.0163855
0.0162122
0.0158319
0.0152191
0.0143737
0.013333
0.0121745
0.0110039
0.00993059
0.00904291
0.00839736
0.00802376
0.00792988
0.0080979
0.008501
0.00909546
0.00980322
0.0105622
0.0113215
0.0120359
0.012662
0.0131594
0.013495
0.0136477
0.0136115
0.0133982
0.0130382
0.012581
0.0121054
0.0117165
0.0115563
0.0117853
0.0126871
0.0147556
0.0175413
0.0193935
0.0200309
0.0200021
0.0196337
0.0190202
0.0181784
0.0171501
0.0159866
0.014786
0.0136265
0.0125393
0.0115101
0.0105023
0.0094838
0.00844023
0.00738371
0.00638923
0.0056147
0.00528257
0.00554691
0.00627105
0.00727795
0.00839925
0.00954347
0.0106766
0.0117905
0.0128856
0.0139719
0.0150942
0.0164186
0.0183978
0.0216676
0.0256325
0.0273704
0.0253171
0.021431
0.0179882
0.0152398
0.0126039
0.0101081
0.00770582
0.00548
0.00370084
0.00335556
0.00478874
0.00684633
0.00879826
0.0103273
0.0113076
0.0117863
0.0118006
0.0111401
0.00952421
0.00718985
0.00497224
0.00250343
0.00562134
0.0170194
0.0246682
0.0174557
0.0159808
0.0159708
0.0162202
0.0164453
0.0165694
0.0165533
0.0163592
0.0159481
0.01529
0.0143776
0.013238
0.0119372
0.0105716
0.00924843
0.0080675
0.00711772
0.00648515
0.00624284
0.00641002
0.00694511
0.00774669
0.00868112
0.00966466
0.0106439
0.0115749
0.0124131
0.0131136
0.0136363
0.0139532
0.0140523
0.0139403
0.0136458
0.0132151
0.012729
0.0122945
0.0120644
0.0122037
0.0130305
0.0150773
0.0178347
0.0195618
0.0200725
0.0199693
0.0195518
0.0188963
0.0180198
0.0169757
0.0158162
0.014644
0.013525
0.0124763
0.0114712
0.0104645
0.00941609
0.00830086
0.00710546
0.00587428
0.00475562
0.00405683
0.00415451
0.0049528
0.00614506
0.00746759
0.00880076
0.0101056
0.0113732
0.0126047
0.0138119
0.015046
0.0164871
0.0186046
0.0220064
0.026027
0.0278613
0.0260708
0.0223781
0.0189023
0.0160882
0.0134137
0.0107216
0.00818166
0.00577187
0.00365709
0.00282437
0.00421141
0.00644169
0.00859576
0.0103222
0.0114717
0.0121007
0.0122788
0.0117752
0.0102165
0.0077667
0.00526889
0.00258934
0.00506193
0.0171864
0.0254082
0.0179179
0.0162456
0.0161456
0.0163508
0.0165542
0.0166666
0.0166414
0.0164373
0.0160127
0.0153335
0.0143851
0.0131833
0.0117794
0.0102541
0.00870197
0.00721771
0.00590393
0.00490754
0.00443449
0.00462181
0.00538152
0.00646338
0.00764764
0.00884512
0.0100177
0.0111346
0.0121568
0.0130374
0.0137301
0.0141993
0.0144266
0.0144123
0.0141823
0.013779
0.0132809
0.0128042
0.0124989
0.0125455
0.0132923
0.0153135
0.0180308
0.0196202
0.0200058
0.0198348
0.0193748
0.0186886
0.0177958
0.0167595
0.01563
0.0145083
0.0134458
0.0124486
0.0114839
0.0105028
0.00946116
0.00832737
0.00706694
0.00568265
0.00426005
0.00307186
0.0028145
0.00366618
0.0050596
0.00657433
0.00807363
0.009524
0.0109203
0.0122656
0.0135751
0.0149075
0.0164578
0.0187069
0.0222254
0.02629
0.0282354
0.0267317
0.0232644
0.0197815
0.0168885
0.0142089
0.0114172
0.00866572
0.00607443
0.00365642
0.00226814
0.00357519
0.00596096
0.0083003
0.0102159
0.0115294
0.0123005
0.0126404
0.0123095
0.010834
0.00829084
0.00553817
0.00271379
0.00439752
0.0173073
0.0260706
0.0183022
0.0164293
0.0162373
0.0163959
0.0165755
0.0166754
0.0166443
0.0164379
0.0160134
0.0153343
0.0143802
0.0131562
0.0116989
0.0100712
0.00834931
0.00660721
0.00492215
0.00343855
0.002557
0.00284894
0.00401947
0.00544469
0.00685784
0.00821812
0.00952561
0.010773
0.0119315
0.012954
0.0137878
0.0143886
0.0147302
0.0148059
0.0146353
0.0142569
0.0137513
0.0132353
0.0128522
0.0128042
0.0134677
0.0154605
0.0181275
0.0195712
0.0198389
0.0196097
0.0191167
0.018413
0.0175225
0.0165128
0.0154295
0.0143685
0.0133686
0.0124287
0.0115152
0.0105797
0.00957687
0.008472
0.00722116
0.00579439
0.00422128
0.00255723
0.00155957
0.00242353
0.00404328
0.00573064
0.00736416
0.00892913
0.0104264
0.011862
0.0132553
0.0146736
0.0163267
0.0187011
0.0223216
0.0264205
0.0284893
0.0272923
0.0240839
0.0206282
0.017651
0.014934
0.0121303
0.00923896
0.00641717
0.0037309
0.00170618
0.00288877
0.00542378
0.00792371
0.0100145
0.0114843
0.0123864
0.0128811
0.0127365
0.011375
0.00876904
0.00579312
0.00285738
0.00371126
0.0173969
0.0266619
0.0186152
0.0165368
0.0162491
0.0163576
0.0165101
0.0165957
0.0165592
0.0163556
0.0159422
0.0152817
0.01435
0.0131445
0.0116894
0.0100332
0.00823693
0.00635737
0.00443591
0.00250972
0.000758639
0.00152129
0.00327557
0.00493591
0.00646061
0.00788324
0.00923983
0.010544
0.0117768
0.0128909
0.0138266
0.0145298
0.0149647
0.0151163
0.0149947
0.0146438
0.0141347
0.0135757
0.0131168
0.0129735
0.0135521
0.0155155
0.0181234
0.0194178
0.0195787
0.0193034
0.0187892
0.0180825
0.0172096
0.0162394
0.0152233
0.0142256
0.0132846
0.0124008
0.0115425
0.0106631
0.00971675
0.00866508
0.00747795
0.00613361
0.00461702
0.00291153
0.000790231
0.00133777
0.00317313
0.00496175
0.00667833
0.00832085
0.00988905
0.0113907
0.0128496
0.0143424
0.0160929
0.0185863
0.0222941
0.026419
0.0286198
0.0277433
0.0248256
0.0214399
0.0183852
0.0156015
0.012768
0.00981567
0.0068732
0.00396298
0.00129923
0.00218042
0.00486176
0.00748518
0.00972809
0.0113437
0.0123641
0.0130014
0.0130534
0.0118389
0.0092066
0.00604683
0.00300896
0.00307548
0.0174629
0.0271889
0.0188639
0.0165741
0.0161859
0.0162402
0.0163618
0.0164299
0.0163874
0.0161876
0.0157885
0.0151554
0.0142646
0.0131103
0.01171
0.0101037
0.00834649
0.00649652
0.00461161
0.00278104
0.00143464
0.00202684
0.00353578
0.00506825
0.00651461
0.00787938
0.00919478
0.0104803
0.011722
0.0128722
0.0138642
0.0146334
0.0151334
0.0153421
0.0152652
0.0149358
0.014419
0.0138187
0.0132854
0.0130474
0.0135412
0.015476
0.0180179
0.0191628
0.0192315
0.0189236
0.0184015
0.017706
0.0168804
0.0159616
0.0150048
0.0140671
0.0131833
0.0123552
0.0115561
0.0107435
0.00987326
0.00890558
0.00780715
0.00655338
0.00513167
0.00353776
0.00178385
0.000788852
0.00243823
0.0043134
0.00603415
0.00770281
0.00930869
0.0108514
0.0123583
0.0139155
0.0157587
0.0183643
0.0221452
0.0262878
0.0286242
0.0280747
0.025475
0.0222075
0.019099
0.0162337
0.0133518
0.0103482
0.00731115
0.0043228
0.00141647
0.00151041
0.00431576
0.0070104
0.00937352
0.0111176
0.0122426
0.0130062
0.013259
0.0122233
0.00960188
0.00629899
0.00315693
0.00258434
0.0174777
0.0276581
0.0190556
0.016548
0.016054
0.0160495
0.0161361
0.0161822
0.0161284
0.01593
0.0155485
0.0149511
0.0141158
0.0130374
0.0117319
0.0102375
0.00861269
0.00693336
0.00530643
0.00392832
0.00322521
0.00355614
0.00454698
0.00575275
0.00698407
0.008196
0.00939821
0.0106027
0.0117947
0.0129255
0.0139243
0.0147192
0.0152542
0.0154984
0.0154484
0.0151302
0.0146009
0.0139581
0.0133515
0.0130203
0.0134311
0.0153406
0.0178108
0.0188091
0.0188021
0.0184766
0.0179639
0.017309
0.0165304
0.0156696
0.0147758
0.0138974
0.0130666
0.0122892
0.0115452
0.010799
0.0100097
0.00913887
0.00815431
0.00703275
0.00576219
0.004346
0.00284377
0.00165427
0.0021552
0.00368724
0.00539864
0.00708611
0.00868882
0.0102473
0.0117852
0.0133978
0.0153296
0.0180405
0.0218802
0.0260319
0.0285019
0.0282771
0.0260147
0.0229137
0.0197906
0.016846
0.0139103
0.0108697
0.00778634
0.00476637
0.00190347
0.00119383
0.00383213
0.00652138
0.00896463
0.0108206
0.0120341
0.0129034
0.0133533
0.0125237
0.00994746
0.00653507
0.0032799
0.00221648
0.0174323
0.0280761
0.0191978
0.0164662
0.0158608
0.0157928
0.0158391
0.0158572
0.0157884
0.0155894
0.0152253
0.0146668
0.0138955
0.0129093
0.011726
0.0103865
0.00895609
0.00752735
0.0062332
0.00526787
0.00487669
0.00512631
0.005814
0.0067217
0.0077131
0.00873788
0.00979335
0.0108836
0.0119905
0.0130633
0.0140286
0.0148099
0.0153448
0.0155952
0.0155506
0.0152285
0.0146781
0.0139893
0.0133098
0.012887
0.0132183
0.0151081
0.0175024
0.0183592
0.0182949
0.0179687
0.0174925
0.0168834
0.0161648
0.0153712
0.0145442
0.0137249
0.0129431
0.0122089
0.0115107
0.0108214
0.0101059
0.00932857
0.00845801
0.00747052
0.00635372
0.00511519
0.00381195
0.00265469
0.00239717
0.00332959
0.00477116
0.00639906
0.00803648
0.00958475
0.0111376
0.012798
0.0148151
0.0176233
0.0215076
0.0256591
0.0282542
0.0283428
0.026427
0.0235351
0.0204457
0.017443
0.0144552
0.0113933
0.00830442
0.00530826
0.00258352
0.00140439
0.00355196
0.00609785
0.00851379
0.0104599
0.0117507
0.0127043
0.0133379
0.012735
0.0102353
0.0067398
0.00336852
0.00192557
0.0173368
0.0284491
0.019298
0.0163364
0.0156138
0.0154771
0.0154778
0.0154634
0.0153755
0.0151721
0.0148226
0.0143028
0.0135993
0.0127139
0.0116685
0.0105079
0.0093024
0.00814987
0.0071776
0.00652978
0.00632785
0.00655195
0.00707159
0.00776941
0.00856174
0.009414
0.0103237
0.0112914
0.0122958
0.013285
0.014185
0.0149178
0.0154184
0.0156444
0.0155796
0.0152346
0.0146506
0.01391
0.0131562
0.0126434
0.0128998
0.0147786
0.0170934
0.0178155
0.0177134
0.0174114
0.0169815
0.0164337
0.0157882
0.0150723
0.0143188
0.0135617
0.0128275
0.0121295
0.0114646
0.0108155
0.0101557
0.00945499
0.00868418
0.00781895
0.00684445
0.00576316
0.0046137
0.00352718
0.0028893
0.00321379
0.00427438
0.00569231
0.00729166
0.00887001
0.0104258
0.0121285
0.0142279
0.017125
0.0210397
0.0251801
0.0278861
0.0282676
0.026696
0.0240452
0.021039
0.0180143
0.0149886
0.0119175
0.00884901
0.00590978
0.00332098
0.00194267
0.00340928
0.00576524
0.00811605
0.0100525
0.0114002
0.0124197
0.0132175
0.012853
0.0104598
0.0069027
0.00341505
0.00170421
0.0172056
0.0287831
0.0193633
0.0161667
0.0153202
0.0151103
0.0150617
0.0150099
0.0148977
0.0146854
0.0143469
0.0138633
0.0132269
0.0124449
0.0115434
0.0105702
0.00959637
0.00871371
0.0080261
0.00762522
0.00756211
0.00779225
0.00822372
0.00878841
0.00943812
0.0101555
0.0109426
0.011798
0.0126979
0.0135895
0.0144002
0.0150542
0.0154877
0.0156575
0.0155443
0.0151539
0.0145205
0.013719
0.0128877
0.0122858
0.0124736
0.014353
0.0165846
0.0171804
0.0170632
0.0168029
0.0164328
0.0159616
0.0154037
0.0147779
0.0141087
0.0134216
0.0127386
0.0120739
0.0114308
0.0108019
0.0101715
0.00951821
0.00881836
0.00804941
0.00719416
0.00624738
0.00522992
0.00421855
0.00341967
0.00327744
0.00389749
0.00503841
0.00646516
0.00808723
0.0096625
0.0114044
0.0135838
0.0165608
0.0204919
0.0246091
0.027406
0.0280516
0.0268099
0.0244189
0.0215399
0.0185361
0.0154991
0.0124353
0.00940536
0.00654007
0.00406862
0.00259381
0.00342013
0.00549809
0.00774148
0.00965427
0.0110135
0.0120601
0.0129971
0.0128755
0.0106173
0.00701904
0.0034198
0.001551
0.0170543
0.0290836
0.0194007
0.0159647
0.0149867
0.0147023
0.0145996
0.0145058
0.0143643
0.0141382
0.013806
0.0133547
0.0127825
0.012102
0.0113433
0.0105557
0.00980618
0.00917313
0.00873179
0.00853189
0.0085855
0.00884433
0.00924014
0.00973183
0.010294
0.0109219
0.0116201
0.0123844
0.0131871
0.0139748
0.0146782
0.015227
0.0155624
0.0156441
0.015453
0.0149923
0.0142909
0.0134167
0.0125026
0.0118117
0.0119386
0.0138335
0.0159778
0.0164567
0.0163484
0.016142
0.0158463
0.0154672
0.0150119
0.0144914
0.0139207
0.0133169
0.0126957
0.0120689
0.011443
0.0108181
0.010189
0.00954577
0.00887507
0.00816131
0.00738899
0.00654784
0.00564344
0.00471648
0.00388115
0.00342521
0.00363073
0.00444403
0.0056601
0.00718824
0.00885946
0.0106432
0.0129015
0.015949
0.0198828
0.0239629
0.0268261
0.0276999
0.0267629
0.0246366
0.0219178
0.0189776
0.0159625
0.0129276
0.00995187
0.00716766
0.0047871
0.00327741
0.00355478
0.00529683
0.00739619
0.00925
0.0106005
0.0116601
0.0126848
0.0128005
0.0107066
0.00708888
0.00338543
0.001463
0.0168965
0.0293558
0.0194165
0.0157379
0.0146217
0.0142615
0.0141007
0.0139606
0.0137848
0.01354
0.0132093
0.0127855
0.0122729
0.0116895
0.0110686
0.0104587
0.00991971
0.00951278
0.00928591
0.00925724
0.00942319
0.00972687
0.0101249
0.0105921
0.0111163
0.0116998
0.0123453
0.0130424
0.0137581
0.0144387
0.0150201
0.0154402
0.0156485
0.0156111
0.0153123
0.014755
0.013965
0.0130042
0.012
0.0112195
0.011295
0.0132244
0.0152758
0.0156497
0.0155701
0.0154282
0.0152209
0.0149487
0.0146117
0.0142124
0.0137575
0.0132549
0.012713
0.0121386
0.0115371
0.0109118
0.0102645
0.00959614
0.0089062
0.00819221
0.00744857
0.00666772
0.00584592
0.00499746
0.0041841
0.00357197
0.00344567
0.00392041
0.00489155
0.00623923
0.00800562
0.00986561
0.0122022
0.0153101
0.0192329
0.023261
0.0261622
0.0272227
0.0265565
0.0246866
0.0221482
0.0193073
0.0163482
0.0133662
0.0104587
0.00775677
0.00544621
0.00388853
0.00376444
0.00515267
0.00707996
0.00884706
0.0101614
0.0112172
0.0123078
0.0126285
0.010728
0.00711048
0.00331745
0.00144776
0.0167404
0.0296046
0.0194166
0.0154932
0.0142323
0.0137965
0.013574
0.0133835
0.0131689
0.0129006
0.0125664
0.012165
0.011707
0.0112151
0.0107251
0.0102832
0.00993953
0.00973729
0.00970079
0.00982605
0.0101014
0.0104686
0.0109018
0.0113862
0.0119174
0.0124976
0.0131229
0.0137731
0.0144092
0.0149782
0.0154232
0.0156926
0.015747
0.0155614
0.0151259
0.0144459
0.0135457
0.012483
0.0113802
0.0105089
0.0105452
0.0125328
0.0144835
0.0147658
0.0147285
0.0146619
0.0145555
0.0144036
0.014199
0.0139369
0.0136156
0.0132346
0.0127942
0.0122952
0.0117385
0.0111259
0.010461
0.00975008
0.0090025
0.00823
0.00744424
0.00665324
0.00585966
0.00506646
0.00429659
0.0036373
0.00329089
0.00346815
0.00418443
0.0053498
0.00705884
0.00909243
0.0115072
0.0146662
0.0185647
0.0225243
0.0254325
0.0266349
0.0261987
0.0245662
0.0222155
0.0194998
0.0166262
0.0137201
0.0108939
0.00827513
0.00602275
0.00441736
0.00400167
0.00505706
0.00679272
0.00844798
0.00970093
0.010734
0.0118732
0.0123772
0.0106823
0.00707527
0.00321627
0.00149547
0.0165865
0.0298343
0.0194065
0.0152332
0.0138301
0.0133154
0.013028
0.0127834
0.0125257
0.0122291
0.0118865
0.0115028
0.0110943
0.0106887
0.0103232
0.0100401
0.00987849
0.00986387
0.0100008
0.0102708
0.0106564
0.011108
0.0116085
0.0121494
0.0127278
0.013339
0.0139672
0.0145813
0.0151373
0.0155854
0.015878
0.0159759
0.015852
0.0154918
0.0148933
0.0140659
0.0130349
0.0118547
0.0106444
0.00968111
0.00969459
0.0117695
0.0136084
0.0138114
0.0138282
0.0138456
0.0138495
0.0138281
0.0137677
0.0136564
0.0134846
0.0132443
0.0129285
0.0125315
0.0120488
0.0114781
0.0108201
0.0100802
0.00926935
0.00840579
0.00751468
0.00662574
0.00576719
0.00495868
0.00421214
0.0035582
0.00310994
0.0030689
0.00355656
0.00454435
0.00608815
0.0083357
0.0108395
0.0140409
0.017901
0.0217743
0.0246568
0.0259544
0.0257035
0.024281
0.0221144
0.0195389
0.0167732
0.0139626
0.0112296
0.00869607
0.00649736
0.00485768
0.00423247
0.00499725
0.00653287
0.00805428
0.00922208
0.0102139
0.0113859
0.0120545
0.0105712
0.0069838
0.00308242
0.0015977
0.0164315
0.0300484
0.0193902
0.0149632
0.0134224
0.0128258
0.0124707
0.0121685
0.0118636
0.0115342
0.0111786
0.010808
0.0104451
0.0101219
0.00987641
0.00974571
0.0097567
0.00991806
0.0102175
0.0106291
0.0111364
0.0116971
0.0122984
0.0129331
0.0135912
0.0142546
0.0148931
0.0154668
0.0159308
0.0162419
0.0163638
0.0162705
0.0159475
0.0153913
0.0146081
0.0136128
0.0124328
0.0111213
0.00979504
0.00873922
0.00875214
0.0109499
0.0126617
0.0127974
0.012876
0.0129833
0.0131031
0.0132184
0.0133094
0.0133575
0.0133463
0.0132611
0.0130887
0.0128177
0.0124389
0.0119457
0.0113348
0.0106074