/*--------------------------------*- C++ -*----------------------------------*\
| =========                 |                                                 |
| \\      /  F ield         | OpenFOAM: The Open Source CFD Toolbox           |
|  \\    /   O peration     | Version:  4.1                                   |
|   \\  /    A nd           | Web:      www.OpenFOAM.org                      |
|    \\/     M anipulation  |                                                 |
\*---------------------------------------------------------------------------*/
FoamFile
{
    version     2.0;
    format      ascii;
    class       volScalarField;
    location    "200";
    object      p_rgh;
}
// * * * * * * * * * * * * * * * * * * * * * * * * * * * * * * * * * * * * * //

dimensions      [0 2 -2 0 0 0 0];

internalField   nonuniform List<scalar> 
5000
(
0.0492094
0.0492146
0.0492122
0.0492144
0.0492191
0.0492226
0.0492238
0.0492223
0.049218
0.0492111
0.049202
0.0491911
0.0491792
0.0491668
0.0491547
0.0491436
0.0491341
0.0491268
0.0491218
0.0491195
0.0491198
0.0491228
0.0491282
0.0491357
0.0491449
0.0491555
0.0491671
0.0491795
0.0491923
0.0492054
0.0492187
0.0492322
0.0492459
0.04926
0.0492749
0.0492909
0.0493086
0.0493285
0.0493514
0.0493777
0.0494066
0.0494349
0.049457
0.0494682
0.0494713
0.0494705
0.0494614
0.0494456
0.0494253
0.0494017
0.0493761
0.0493493
0.0493225
0.0492965
0.049272
0.0492498
0.0492302
0.0492138
0.0492007
0.0491909
0.0491845
0.0491813
0.049181
0.0491834
0.0491882
0.0491951
0.0492037
0.0492136
0.0492244
0.0492357
0.049247
0.0492579
0.0492681
0.049277
0.0492841
0.0492878
0.0492874
0.0492813
0.0492754
0.0492694
0.0492636
0.0492583
0.0492539
0.0492508
0.0492491
0.0492483
0.0492482
0.0492484
0.0492483
0.0492475
0.0492457
0.049243
0.0492393
0.0492357
0.0492323
0.0492289
0.0492244
0.049219
0.0492151
0.0492169
0.049234
0.0492692
0.0492529
0.0492389
0.049241
0.0492458
0.0492483
0.0492475
0.0492434
0.0492366
0.0492274
0.0492165
0.0492045
0.049192
0.0491798
0.0491686
0.0491589
0.0491512
0.0491458
0.0491429
0.0491424
0.0491444
0.0491488
0.0491555
0.0491639
0.0491739
0.0491849
0.0491967
0.0492089
0.0492214
0.0492339
0.0492465
0.0492592
0.0492721
0.0492855
0.0492997
0.0493152
0.0493327
0.0493527
0.0493756
0.049401
0.0494265
0.0494477
0.0494599
0.0494667
0.0494677
0.0494602
0.0494461
0.0494273
0.0494053
0.0493812
0.0493558
0.0493304
0.0493058
0.0492827
0.0492619
0.0492438
0.0492288
0.0492173
0.0492092
0.0492044
0.0492026
0.0492034
0.0492068
0.0492123
0.0492197
0.0492286
0.0492386
0.0492494
0.0492603
0.049271
0.0492808
0.0492885
0.0492913
0.0492881
0.0492875
0.0493036
0.0493085
0.0493057
0.0493013
0.0492958
0.0492901
0.0492844
0.049279
0.0492742
0.049271
0.0492689
0.0492675
0.0492663
0.0492647
0.0492625
0.0492598
0.0492573
0.0492551
0.0492531
0.0492512
0.0492492
0.0492472
0.0492339
0.0492143
0.0492451
0.0492952
0.049275
0.0492585
0.0492582
0.0492629
0.0492657
0.0492647
0.0492597
0.0492514
0.0492403
0.0492271
0.0492126
0.0491975
0.0491828
0.0491691
0.0491573
0.0491477
0.0491409
0.049137
0.0491362
0.0491383
0.049143
0.04915
0.0491588
0.049169
0.0491803
0.0491923
0.0492046
0.0492171
0.0492296
0.049242
0.0492543
0.0492666
0.0492791
0.0492922
0.0493063
0.0493218
0.0493395
0.0493598
0.0493824
0.0494057
0.0494259
0.0494391
0.0494478
0.04945
0.0494441
0.0494316
0.0494143
0.0493936
0.0493705
0.0493461
0.0493215
0.0492976
0.0492752
0.0492549
0.0492373
0.0492228
0.0492115
0.0492038
0.0491994
0.0491984
0.0492004
0.0492051
0.0492123
0.0492215
0.0492323
0.0492443
0.0492568
0.0492692
0.0492808
0.0492904
0.0492956
0.0492916
0.0492761
0.0492696
0.0492996
0.0493197
0.0493171
0.0493101
0.0493009
0.0492914
0.0492827
0.0492756
0.0492704
0.0492669
0.0492647
0.0492632
0.0492618
0.0492601
0.049258
0.0492554
0.0492529
0.049251
0.0492497
0.0492487
0.0492478
0.0492468
0.0492352
0.0491977
0.0492477
0.0493114
0.0492924
0.0492747
0.0492715
0.0492747
0.0492765
0.0492743
0.0492676
0.0492571
0.0492434
0.0492275
0.0492104
0.0491929
0.0491762
0.0491611
0.0491483
0.0491385
0.0491317
0.0491282
0.049128
0.0491307
0.049136
0.0491434
0.0491525
0.049163
0.0491744
0.0491865
0.0491989
0.0492113
0.0492236
0.0492356
0.0492473
0.0492588
0.0492702
0.0492819
0.0492942
0.0493076
0.0493228
0.0493403
0.0493603
0.0493819
0.0494015
0.0494159
0.0494256
0.0494285
0.0494239
0.0494129
0.0493971
0.0493777
0.0493558
0.0493324
0.0493088
0.0492857
0.0492641
0.0492445
0.0492276
0.0492136
0.0492029
0.0491956
0.0491917
0.049191
0.0491933
0.0491985
0.0492062
0.0492161
0.0492279
0.0492409
0.0492546
0.0492682
0.0492805
0.04929
0.049293
0.0492825
0.0492555
0.0492433
0.0492843
0.049319
0.0493179
0.0493089
0.0492976
0.0492866
0.0492771
0.0492698
0.0492645
0.049261
0.0492587
0.0492571
0.0492557
0.049254
0.049252
0.0492497
0.0492472
0.0492454
0.0492446
0.0492448
0.0492453
0.0492448
0.0492329
0.0491794
0.0492431
0.0493208
0.0493043
0.0492866
0.049281
0.0492818
0.0492818
0.0492777
0.0492689
0.049256
0.0492399
0.0492217
0.0492025
0.0491835
0.0491659
0.0491504
0.0491378
0.0491285
0.0491225
0.0491198
0.0491204
0.0491237
0.0491295
0.0491372
0.0491467
0.0491574
0.049169
0.0491812
0.0491936
0.0492058
0.0492178
0.0492293
0.0492403
0.0492509
0.0492611
0.0492713
0.0492817
0.0492928
0.0493054
0.0493201
0.0493377
0.0493578
0.0493769
0.0493919
0.0494018
0.0494051
0.0494015
0.0493919
0.0493774
0.0493592
0.0493385
0.0493162
0.0492935
0.0492714
0.0492506
0.0492318
0.0492156
0.0492024
0.0491924
0.0491857
0.0491823
0.049182
0.0491847
0.0491901
0.049198
0.0492081
0.04922
0.0492334
0.0492475
0.0492616
0.0492743
0.0492834
0.0492846
0.0492688
0.0492321
0.0492147
0.0492635
0.0493106
0.0493123
0.0493023
0.0492903
0.049279
0.0492696
0.0492624
0.0492572
0.0492537
0.0492514
0.0492499
0.0492485
0.049247
0.0492452
0.049243
0.0492407
0.0492389
0.0492384
0.0492396
0.049242
0.0492422
0.0492297
0.0491627
0.049232
0.049324
0.0493109
0.0492937
0.0492865
0.0492848
0.0492825
0.0492762
0.0492653
0.0492502
0.049232
0.0492121
0.0491917
0.049172
0.0491542
0.0491391
0.0491272
0.0491188
0.0491138
0.0491121
0.0491133
0.0491172
0.0491234
0.0491315
0.0491412
0.0491521
0.0491639
0.0491761
0.0491884
0.0492005
0.0492121
0.049223
0.0492333
0.0492429
0.0492519
0.0492606
0.0492692
0.0492782
0.0492883
0.0493004
0.0493158
0.0493347
0.0493534
0.0493683
0.0493779
0.0493812
0.0493782
0.0493695
0.0493561
0.049339
0.0493192
0.0492978
0.049276
0.0492547
0.0492347
0.0492167
0.0492012
0.0491887
0.0491794
0.0491735
0.0491708
0.0491711
0.0491742
0.0491799
0.049188
0.0491982
0.0492101
0.0492235
0.0492376
0.0492517
0.0492644
0.0492732
0.0492729
0.0492526
0.0492077
0.0491855
0.0492399
0.0492971
0.0493021
0.0492919
0.0492801
0.0492693
0.0492603
0.0492535
0.0492486
0.0492452
0.049243
0.0492416
0.0492404
0.0492391
0.0492376
0.0492357
0.0492337
0.0492319
0.0492314
0.0492336
0.0492377
0.0492392
0.0492261
0.0491472
0.0492158
0.0493224
0.0493131
0.0492967
0.0492881
0.0492842
0.0492796
0.0492711
0.0492581
0.0492412
0.0492215
0.0492004
0.0491794
0.0491597
0.0491423
0.0491281
0.0491172
0.0491098
0.0491058
0.0491049
0.0491067
0.049111
0.0491175
0.0491259
0.0491359
0.0491471
0.049159
0.0491712
0.0491834
0.0491953
0.0492065
0.0492168
0.0492263
0.0492349
0.0492428
0.04925
0.049257
0.0492642
0.0492721
0.0492819
0.0492954
0.0493136
0.0493317
0.0493459
0.0493549
0.0493579
0.0493551
0.049347
0.0493343
0.0493178
0.0492987
0.049278
0.0492568
0.0492362
0.0492168
0.0491995
0.0491848
0.049173
0.0491645
0.0491593
0.0491573
0.0491584
0.0491621
0.0491683
0.0491767
0.049187
0.0491989
0.049212
0.0492259
0.0492398
0.0492523
0.0492609
0.0492593
0.0492351
0.049183
0.0491564
0.0492146
0.0492801
0.0492886
0.0492787
0.0492676
0.0492576
0.0492494
0.0492431
0.0492386
0.0492355
0.0492335
0.0492323
0.0492314
0.0492305
0.0492294
0.0492281
0.0492265
0.0492248
0.0492241
0.0492269
0.0492325
0.0492368
0.0492224
0.0491323
0.0491959
0.0493174
0.0493119
0.0492964
0.0492867
0.0492807
0.0492739
0.0492633
0.0492485
0.04923
0.0492092
0.0491876
0.0491665
0.0491472
0.0491306
0.0491174
0.0491076
0.0491013
0.049098
0.0490977
0.0491
0.0491046
0.0491114
0.0491202
0.0491304
0.0491418
0.0491539
0.0491662
0.0491784
0.04919
0.0492008
0.0492106
0.0492193
0.0492269
0.0492336
0.0492395
0.049245
0.0492505
0.0492566
0.0492646
0.049277
0.0492947
0.0493118
0.0493253
0.0493335
0.049336
0.049333
0.0493251
0.0493127
0.0492967
0.0492779
0.0492576
0.0492368
0.0492166
0.0491977
0.049181
0.0491668
0.0491557
0.0491478
0.0491433
0.0491422
0.049144
0.0491485
0.0491554
0.0491642
0.0491747
0.0491867
0.0491996
0.0492133
0.0492269
0.0492391
0.0492474
0.0492447
0.0492169
0.0491585
0.0491278
0.0491885
0.0492605
0.0492725
0.0492633
0.0492532
0.0492442
0.049237
0.0492315
0.0492275
0.0492247
0.049223
0.0492221
0.0492216
0.0492212
0.0492208
0.0492202
0.0492192
0.0492178
0.0492168
0.0492195
0.0492266
0.0492358
0.049219
0.0491182
0.0491735
0.0493099
0.0493082
0.0492936
0.049283
0.0492751
0.0492661
0.0492537
0.0492373
0.0492176
0.0491961
0.0491742
0.0491534
0.0491347
0.0491191
0.049107
0.0490982
0.0490927
0.0490901
0.0490902
0.0490927
0.0490976
0.0491047
0.0491138
0.0491244
0.0491362
0.0491485
0.049161
0.0491732
0.0491846
0.0491951
0.0492043
0.0492122
0.0492188
0.0492243
0.049229
0.0492331
0.0492372
0.0492418
0.0492484
0.0492603
0.0492775
0.0492941
0.0493068
0.0493141
0.0493159
0.0493126
0.0493046
0.0492923
0.0492763
0.0492576
0.0492374
0.0492168
0.0491968
0.0491783
0.0491619
0.0491482
0.0491375
0.0491302
0.0491263
0.0491259
0.0491286
0.0491339
0.0491415
0.0491509
0.0491618
0.0491738
0.0491867
0.0492001
0.0492134
0.0492254
0.0492333
0.0492297
0.0491988
0.0491348
0.0491002
0.049162
0.0492389
0.0492548
0.0492464
0.0492373
0.0492295
0.0492234
0.0492189
0.0492155
0.049213
0.0492117
0.0492111
0.0492111
0.0492113
0.0492117
0.049212
0.049212
0.049211
0.0492096
0.0492114
0.0492194
0.0492333
0.0492155
0.0491047
0.0491496
0.049301
0.049303
0.0492891
0.0492776
0.0492679
0.049257
0.0492429
0.0492252
0.0492046
0.0491826
0.0491607
0.0491403
0.0491225
0.0491078
0.0490966
0.0490887
0.0490838
0.0490816
0.0490819
0.0490846
0.0490897
0.0490971
0.0491066
0.0491177
0.0491299
0.0491427
0.0491555
0.0491678
0.0491792
0.0491893
0.0491979
0.049205
0.0492106
0.049215
0.0492184
0.0492212
0.049224
0.0492275
0.0492333
0.0492449
0.0492619
0.0492786
0.0492907
0.0492971
0.049298
0.0492942
0.0492859
0.0492736
0.0492575
0.0492387
0.0492184
0.0491977
0.0491778
0.0491595
0.0491435
0.04913
0.0491197
0.0491127
0.0491092
0.0491094
0.0491128
0.0491189
0.0491272
0.0491373
0.0491486
0.0491609
0.0491737
0.0491869
0.0492
0.0492117
0.0492193
0.0492148
0.049181
0.049112
0.049074
0.0491355
0.0492162
0.0492359
0.0492285
0.0492204
0.0492139
0.049209
0.0492054
0.0492026
0.0492005
0.0491995
0.0491994
0.0492
0.0492009
0.0492023
0.0492038
0.0492049
0.0492046
0.049203
0.0492032
0.0492109
0.049228
0.0492114
0.0490914
0.0491249
0.0492913
0.0492969
0.0492836
0.0492712
0.0492599
0.0492472
0.0492316
0.0492127
0.0491915
0.0491692
0.0491475
0.0491275
0.0491104
0.0490966
0.0490862
0.0490788
0.0490743
0.0490723
0.0490726
0.0490753
0.0490805
0.0490883
0.0490983
0.04911
0.0491229
0.0491363
0.0491496
0.0491622
0.0491736
0.0491835
0.0491917
0.049198
0.0492026
0.0492058
0.0492079
0.0492095
0.0492111
0.0492136
0.0492189
0.0492303
0.0492482
0.0492653
0.0492769
0.0492824
0.0492825
0.0492781
0.0492696
0.0492571
0.0492409
0.0492218
0.0492012
0.0491805
0.0491607
0.0491426
0.0491268
0.0491137
0.0491036
0.0490967
0.0490934
0.0490938
0.0490976
0.0491044
0.0491134
0.0491241
0.0491358
0.0491483
0.0491612
0.0491742
0.049187
0.0491985
0.0492058
0.0492004
0.049164
0.0490908
0.0490493
0.0491094
0.0491927
0.0492165
0.0492102
0.0492029
0.0491976
0.0491941
0.0491914
0.0491891
0.0491874
0.0491866
0.0491871
0.0491883
0.0491902
0.0491925
0.0491954
0.0491979
0.0491987
0.0491969
0.0491954
0.0492019
0.0492205
0.0492063
0.0490777
0.0491001
0.0492815
0.0492905
0.0492777
0.0492644
0.0492515
0.0492373
0.0492203
0.0492005
0.0491787
0.0491562
0.0491346
0.0491152
0.0490987
0.0490855
0.0490755
0.0490685
0.049064
0.0490618
0.049062
0.0490646
0.0490699
0.0490781
0.0490887
0.0491013
0.049115
0.0491293
0.0491433
0.0491564
0.0491681
0.0491779
0.0491856
0.0491913
0.0491949
0.0491969
0.0491977
0.049198
0.0491984
0.0492
0.0492049
0.0492169
0.0492362
0.049254
0.0492653
0.04927
0.0492693
0.0492645
0.0492558
0.0492432
0.0492268
0.0492075
0.0491867
0.0491659
0.0491463
0.0491286
0.0491132
0.0491003
0.0490904
0.0490835
0.04908
0.0490803
0.0490843
0.0490914
0.0491009
0.049112
0.049124
0.0491367
0.0491495
0.0491624
0.0491749
0.0491861
0.0491931
0.0491868
0.0491481
0.0490712
0.0490264
0.0490839
0.0491689
0.0491969
0.0491917
0.0491851
0.0491812
0.049179
0.0491771
0.0491752
0.0491737
0.0491733
0.0491743
0.0491763
0.0491791
0.0491825
0.0491869
0.0491912
0.0491933
0.0491916
0.0491886
0.0491933
0.0492119
0.0492
0.0490636
0.0490756
0.0492719
0.0492843
0.0492719
0.0492578
0.0492435
0.0492278
0.0492096
0.0491889
0.0491666
0.049144
0.0491226
0.0491034
0.0490873
0.0490745
0.0490647
0.0490576
0.0490529
0.0490503
0.0490501
0.0490524
0.0490578
0.0490664
0.0490778
0.0490914
0.0491063
0.0491217
0.0491367
0.0491506
0.0491627
0.0491726
0.04918
0.049185
0.0491877
0.0491885
0.049188
0.0491869
0.0491861
0.0491871
0.0491916
0.0492045
0.0492258
0.0492447
0.0492559
0.0492598
0.0492584
0.0492532
0.0492446
0.049232
0.0492156
0.049196
0.0491751
0.0491545
0.0491353
0.0491181
0.0491032
0.0490908
0.049081
0.0490741
0.0490703
0.04907
0.0490737
0.0490808
0.0490904
0.0491016
0.0491138
0.0491264
0.0491392
0.0491518
0.049164
0.049175
0.0491816
0.0491745
0.0491337
0.0490537
0.0490056
0.0490593
0.0491448
0.0491775
0.0491735
0.0491675
0.0491649
0.0491641
0.0491629
0.0491611
0.0491597
0.0491595
0.0491611
0.0491641
0.0491678
0.0491724
0.0491783
0.0491846
0.0491885
0.0491873
0.049183
0.0491856
0.0492032
0.0491935
0.0490493
0.0490518
0.0492631
0.0492786
0.0492667
0.0492518
0.0492362
0.0492192
0.0491999
0.0491784
0.0491557
0.0491329
0.0491115
0.0490926
0.0490766
0.0490639
0.0490539
0.0490465
0.0490411
0.0490378
0.0490369
0.0490388
0.0490442
0.0490533
0.0490657
0.0490806
0.0490969
0.0491137
0.04913
0.0491448
0.0491576
0.0491677
0.049175
0.0491794
0.0491812
0.0491808
0.049179
0.0491765
0.0491746
0.0491748
0.0491791
0.0491933
0.049217
0.0492372
0.0492484
0.0492516
0.0492497
0.0492444
0.0492359
0.0492236
0.0492072
0.0491877
0.049167
0.0491467
0.0491281
0.0491115
0.0490971
0.0490851
0.0490756
0.0490686
0.0490645
0.0490636
0.0490665
0.0490732
0.0490825
0.0490936
0.0491056
0.049118
0.0491305
0.0491429
0.0491547
0.0491653
0.0491716
0.0491635
0.0491209
0.0490384
0.0489871
0.0490358
0.0491208
0.0491581
0.0491559
0.0491502
0.049149
0.0491496
0.0491488
0.049147
0.0491455
0.0491455
0.0491478
0.0491518
0.0491567
0.0491624
0.0491698
0.0491784
0.0491844
0.0491841
0.0491791
0.0491797
0.0491954
0.0491882
0.0490359
0.049029
0.0492551
0.0492739
0.0492623
0.0492467
0.04923
0.0492118
0.0491916
0.0491695
0.0491464
0.0491234
0.049102
0.049083
0.049067
0.049054
0.0490437
0.0490355
0.0490292
0.0490249
0.049023
0.0490242
0.0490295
0.0490392
0.0490528
0.0490691
0.0490871
0.0491056
0.0491233
0.0491394
0.0491529
0.0491634
0.0491707
0.0491746
0.0491757
0.0491741
0.0491709
0.0491671
0.0491641
0.0491634
0.0491675
0.0491834
0.0492099
0.0492317
0.0492428
0.0492454
0.049243
0.0492377
0.0492295
0.0492176
0.0492016
0.0491824
0.0491622
0.0491425
0.0491245
0.0491086
0.0490947
0.0490831
0.0490738
0.049067
0.0490626
0.0490611
0.0490631
0.049069
0.0490777
0.0490882
0.0490997
0.0491118
0.0491239
0.0491358
0.0491472
0.0491574
0.0491631
0.0491542
0.04911
0.0490256
0.048971
0.0490138
0.049097
0.0491388
0.0491394
0.0491334
0.0491337
0.0491356
0.0491353
0.0491331
0.0491313
0.0491314
0.0491345
0.0491397
0.0491458
0.0491527
0.0491616
0.0491725
0.0491813
0.0491824
0.0491769
0.0491759
0.0491893
0.0491859
0.049024
0.0490072
0.0492483
0.0492703
0.0492592
0.049243
0.0492253
0.0492061
0.0491851
0.0491624
0.049139
0.0491158
0.0490942
0.049075
0.0490588
0.0490454
0.0490345
0.0490254
0.0490179
0.0490122
0.049009
0.0490094
0.0490146
0.049025
0.0490398
0.0490577
0.0490774
0.0490976
0.049117
0.0491345
0.049149
0.04916
0.0491673
0.0491709
0.0491712
0.0491686
0.049164
0.0491588
0.0491548
0.0491531
0.0491571
0.0491749
0.0492046
0.0492279
0.049239
0.0492409
0.0492381
0.049233
0.0492253
0.049214
0.0491986
0.0491802
0.0491606
0.0491417
0.0491244
0.0491089
0.0490955
0.0490841
0.049075
0.0490684
0.049064
0.049062
0.0490632
0.0490681
0.0490758
0.0490855
0.0490964
0.0491078
0.0491193
0.0491307
0.0491417
0.0491514
0.0491565
0.0491467
0.0491011
0.0490155
0.0489577
0.0489934
0.0490736
0.0491197
0.0491239
0.0491178
0.049119
0.0491224
0.0491225
0.0491199
0.0491176
0.0491177
0.0491214
0.049128
0.0491355
0.0491434
0.0491537
0.0491671
0.0491791
0.0491822
0.0491766
0.0491739
0.0491862
0.0491855
0.0490135
0.0489867
0.0492427
0.0492681
0.0492575
0.0492409
0.0492223
0.0492023
0.0491807
0.0491576
0.0491338
0.0491105
0.0490887
0.0490692
0.0490526
0.0490388
0.0490271
0.0490171
0.0490085
0.0490013
0.0489965
0.0489958
0.0490009
0.049012
0.0490279
0.0490472
0.0490685
0.0490905
0.0491115
0.0491304
0.0491459
0.0491575
0.0491649
0.0491683
0.049168
0.0491643
0.0491586
0.0491522
0.0491468
0.0491439
0.0491478
0.0491679
0.049201
0.0492259
0.0492367
0.0492379
0.0492349
0.04923
0.0492229
0.0492124
0.049198
0.0491806
0.0491621
0.049144
0.0491272
0.0491122
0.0490989
0.0490877
0.0490786
0.049072
0.0490678
0.0490658
0.0490663
0.0490701
0.0490768
0.0490855
0.0490955
0.0491061
0.0491169
0.0491277
0.0491382
0.0491473
0.0491518
0.049141
0.0490943
0.0490081
0.0489471
0.0489751
0.0490508
0.0491005
0.0491093
0.0491039
0.0491051
0.04911
0.0491107
0.0491078
0.0491045
0.0491045
0.0491089
0.0491169
0.049126
0.0491351
0.0491464
0.0491622
0.0491778
0.0491835
0.0491781
0.0491735
0.0491848
0.0491862
0.0490037
0.0489676
0.0492386
0.0492673
0.0492574
0.0492405
0.0492213
0.0492007
0.0491786
0.0491552
0.0491313
0.0491078
0.0490858
0.0490661
0.049049
0.0490346
0.0490223
0.0490116
0.0490021
0.0489938
0.0489876
0.0489857
0.0489906
0.0490021
0.0490186
0.0490387
0.0490613
0.0490847
0.0491073
0.0491275
0.049144
0.0491562
0.0491638
0.0491669
0.0491661
0.0491616
0.0491549
0.0491473
0.0491403
0.0491362
0.04914
0.0491625
0.0491991
0.0492255
0.049236
0.0492364
0.0492331
0.0492285
0.0492221
0.0492126
0.0491995
0.0491834
0.0491661
0.0491489
0.0491327
0.0491179
0.0491048
0.0490935
0.0490842
0.0490775
0.0490732
0.0490713
0.0490715
0.0490745
0.0490803
0.0490879
0.0490969
0.0491067
0.0491167
0.0491268
0.0491366
0.0491451
0.0491488
0.0491371
0.0490897
0.0490034
0.0489395
0.0489591
0.0490292
0.0490816
0.0490955
0.0490921
0.0490929
0.0490985
0.0491002
0.0490975
0.0490937
0.0490928
0.0490974
0.0491067
0.0491176
0.0491279
0.04914
0.0491579
0.0491772
0.0491861
0.0491812
0.0491746
0.0491841
0.0491875
0.0489942
0.0489498
0.0492359
0.0492681
0.0492589
0.0492419
0.0492223
0.0492013
0.0491789
0.0491555
0.0491316
0.0491081
0.0490859
0.0490659
0.0490483
0.0490334
0.0490206
0.0490094
0.0489996
0.0489911
0.0489845
0.0489814
0.0489859
0.0489971
0.0490134
0.0490336
0.0490567
0.0490811
0.0491048
0.049126
0.0491434
0.0491561
0.049164
0.0491669
0.0491656
0.0491607
0.0491531
0.0491439
0.0491353
0.0491299
0.0491336
0.0491588
0.0491991
0.0492268
0.0492366
0.0492362
0.0492326
0.0492283
0.0492226
0.0492141
0.0492026
0.0491883
0.0491723
0.0491561
0.0491405
0.049126
0.0491129
0.0491015
0.049092
0.0490847
0.0490799
0.0490776
0.0490784
0.0490809
0.0490858
0.0490925
0.0491005
0.0491093
0.0491185
0.0491279
0.049137
0.0491449
0.0491477
0.049135
0.0490872
0.0490013
0.0489349
0.0489459
0.0490091
0.049063
0.0490824
0.0490822
0.0490832
0.0490887
0.0490914
0.0490892
0.0490851
0.0490831
0.0490873
0.0490978
0.0491105
0.0491221
0.0491347
0.0491542
0.0491773
0.0491898
0.0491856
0.0491771
0.0491838
0.0491889
0.0489849
0.0489333
0.0492345
0.0492704
0.0492622
0.0492452
0.0492253
0.0492041
0.0491817
0.0491583
0.0491345
0.0491112
0.0490891
0.0490689
0.049051
0.0490355
0.0490221
0.0490106
0.0490007
0.0489925
0.0489866
0.0489844
0.0489882
0.0489981
0.0490132
0.0490329
0.0490558
0.0490804
0.0491046
0.0491265
0.0491444
0.0491575
0.0491655
0.0491685
0.0491671
0.0491615
0.0491528
0.0491422
0.0491319
0.0491251
0.0491288
0.0491569
0.0492009
0.0492296
0.0492385
0.049237
0.0492332
0.0492291
0.049224
0.0492168
0.0492069
0.0491944
0.0491801
0.0491651
0.0491503
0.0491362
0.0491233
0.0491117
0.049102
0.0490942
0.0490888
0.0490859
0.0490858
0.0490882
0.0490927
0.0490989
0.049106
0.0491138
0.0491222
0.0491309
0.0491392
0.0491463
0.0491481
0.0491345
0.0490865
0.0490018
0.0489332
0.0489357
0.0489911
0.0490451
0.0490698
0.0490737
0.0490757
0.0490812
0.0490844
0.0490829
0.049079
0.0490762
0.0490794
0.0490905
0.049105
0.0491179
0.0491308
0.0491513
0.049178
0.0491943
0.0491911
0.0491809
0.0491842
0.0491892
0.0489765
0.0489181
0.0492345
0.0492742
0.049267
0.0492502
0.0492303
0.0492091
0.0491867
0.0491636
0.0491402
0.0491172
0.0490953
0.0490751
0.049057
0.0490411
0.0490273
0.0490155
0.0490054
0.0489975
0.0489923
0.048991
0.0489948
0.0490039
0.0490181
0.0490368
0.0490591
0.0490833
0.0491074
0.0491293
0.0491474
0.0491606
0.0491687
0.0491717
0.0491699
0.0491637
0.049154
0.049142
0.0491301
0.0491219
0.0491255
0.0491568
0.0492045
0.0492338
0.0492414
0.0492389
0.0492347
0.0492306
0.049226
0.04922
0.0492119
0.0492013
0.049189
0.0491755
0.0491617
0.0491483
0.0491356
0.0491242
0.0491142
0.049106
0.0491
0.0490963
0.0490953
0.0490969
0.0491008
0.0491064
0.0491129
0.0491201
0.0491276
0.0491354
0.049143
0.0491491
0.04915
0.0491354
0.0490876
0.0490045
0.0489343
0.0489287
0.0489756
0.0490282
0.0490575
0.0490662
0.04907
0.0490755
0.049079
0.0490782
0.0490745
0.0490717
0.0490742
0.0490852
0.0491011
0.0491155
0.0491285
0.0491494
0.0491793
0.0491998
0.0491974
0.0491859
0.0491858
0.0491895
0.0489691
0.0489041
0.0492357
0.0492793
0.0492733
0.0492569
0.049237
0.0492159
0.0491939
0.0491712
0.0491483
0.0491258
0.0491043
0.0490843
0.0490662
0.0490501
0.0490361
0.049024
0.049014
0.0490063
0.0490016
0.0490009
0.0490048
0.0490135
0.0490271
0.0490451
0.0490665
0.04909
0.0491135
0.0491349
0.0491526
0.0491656
0.0491734
0.0491762
0.049174
0.0491673
0.0491566
0.0491433
0.0491298
0.0491202
0.0491238
0.0491585
0.0492097
0.0492392
0.0492453
0.0492416
0.0492368
0.0492326
0.0492284
0.0492233
0.0492168
0.0492083
0.049198
0.0491865
0.0491742
0.0491617
0.0491497
0.0491385
0.0491285
0.0491201
0.0491135
0.0491091
0.0491071
0.0491078
0.0491105
0.0491152
0.049121
0.0491276
0.0491344
0.0491414
0.0491481
0.0491532
0.0491529
0.0491373
0.04909
0.049009
0.048938
0.0489248
0.048963
0.0490128
0.0490457
0.0490593
0.0490656
0.0490715
0.0490751
0.0490747
0.0490714
0.0490689
0.0490715
0.0490824
0.0490991
0.0491149
0.049128
0.0491487
0.0491813
0.049206
0.0492047
0.0491921
0.0491889
0.0491917
0.0489628
0.0488911
0.0492379
0.0492857
0.049281
0.049265
0.0492454
0.0492246
0.0492029
0.0491809
0.0491587
0.0491369
0.0491159
0.0490964
0.0490785
0.0490624
0.0490483
0.0490361
0.0490262
0.0490187
0.0490144
0.049014
0.0490181
0.0490267
0.0490398
0.0490571
0.0490777
0.0491002
0.0491227
0.0491432
0.04916
0.0491723
0.0491796
0.0491819
0.0491793
0.049172
0.0491605
0.0491459
0.0491309
0.0491199
0.0491236
0.049162
0.0492166
0.0492457
0.0492499
0.049245
0.0492395
0.0492348
0.0492307
0.0492263
0.0492211
0.0492145
0.0492065
0.0491972
0.0491869
0.049176
0.049165
0.0491544
0.0491447
0.0491362
0.0491292
0.0491241
0.0491211
0.0491204
0.049122
0.0491256
0.0491305
0.0491362
0.0491424
0.0491485
0.0491543
0.0491582
0.0491566
0.0491401
0.0490934
0.049015
0.0489438
0.0489241
0.0489537
0.0489997
0.0490346
0.0490528
0.0490621
0.0490687
0.0490726
0.0490726
0.0490696
0.0490676
0.0490705
0.049082
0.0490995
0.0491161
0.0491295
0.0491495
0.0491841
0.0492129
0.0492127
0.049199
0.0491934
0.0491958
0.0489576
0.048879
0.0492411
0.0492931
0.0492899
0.0492743
0.0492551
0.0492348
0.0492137
0.0491924
0.049171
0.04915
0.0491299
0.0491109
0.0490934
0.0490776
0.0490636
0.0490515
0.0490417
0.0490345
0.0490305
0.0490305
0.0490346
0.0490431
0.0490559
0.0490725
0.0490923
0.0491136
0.0491347
0.0491537
0.0491692
0.0491803
0.0491868
0.0491885
0.0491855
0.0491777
0.0491654
0.0491497
0.0491331
0.0491208
0.0491247
0.0491673
0.0492249
0.0492531
0.0492551
0.0492488
0.0492425
0.0492371
0.0492327
0.0492286
0.0492243
0.0492194
0.0492135
0.0492066
0.0491987
0.04919
0.0491807
0.0491713
0.0491622
0.0491539
0.0491467
0.049141
0.0491371
0.0491352
0.0491353
0.0491378
0.0491414
0.049146
0.0491513
0.0491566
0.0491612
0.0491638
0.0491607
0.0491432
0.0490974
0.0490218
0.0489513
0.0489261
0.0489478
0.0489891
0.0490249
0.0490468
0.0490591
0.049067
0.0490713
0.0490715
0.049069
0.0490676
0.0490712
0.0490836
0.049102
0.0491194
0.0491329
0.0491519
0.0491877
0.0492206
0.0492215
0.0492064
0.049199
0.0492012
0.0489535
0.0488676
0.0492451
0.0493013
0.0492997
0.0492847
0.0492661
0.0492463
0.049226
0.0492055
0.0491851
0.0491651
0.0491458
0.0491276
0.0491107
0.0490953
0.0490816
0.0490699
0.0490603
0.0490534
0.0490497
0.04905
0.0490542
0.0490626
0.0490751
0.0490911
0.0491098
0.0491296
0.0491489
0.0491659
0.0491796
0.0491894
0.0491948
0.0491958
0.0491922
0.0491839
0.049171
0.0491542
0.0491362
0.0491226
0.0491271
0.0491742
0.0492345
0.0492611
0.0492606
0.0492531
0.0492456
0.0492394
0.0492343
0.04923
0.0492261
0.0492223
0.0492182
0.0492136
0.0492083
0.0492022
0.0491954
0.049188
0.0491803
0.0491727
0.0491657
0.0491597
0.049155
0.049152
0.0491509
0.0491516
0.0491539
0.0491572
0.0491612
0.0491655
0.0491686
0.0491696
0.0491649
0.0491464
0.0491015
0.0490291
0.0489599
0.0489306
0.0489451
0.0489815
0.049017
0.0490415
0.0490566
0.049066
0.0490708
0.0490715
0.0490695
0.0490685
0.0490735
0.049087
0.0491065
0.0491245
0.0491379
0.0491563
0.0491922
0.0492288
0.0492311
0.049214
0.0492055
0.0492072
0.0489503
0.0488569
0.0492496
0.0493103
0.0493102
0.049296
0.049278
0.049259
0.0492395
0.0492199
0.0492005
0.0491816
0.0491634
0.0491461
0.04913
0.0491152
0.049102
0.0490907
0.0490815
0.049075
0.0490718
0.0490723
0.0490767
0.0490851
0.0490972
0.0491124
0.0491297
0.0491476
0.0491646
0.0491792
0.0491908
0.0491988
0.049203
0.0492033
0.0491992
0.0491905
0.0491769
0.0491592
0.0491399
0.0491251
0.0491304
0.0491828
0.0492451
0.0492693
0.0492665
0.0492576
0.0492489
0.0492415
0.0492354
0.0492305
0.0492264
0.0492229
0.0492199
0.049217
0.0492141
0.0492109
0.0492071
0.0492027
0.0491974
0.0491915
0.0491854
0.0491795
0.0491744
0.0491705
0.049168
0.0491669
0.0491678
0.0491697
0.0491721
0.0491749
0.0491766
0.0491756
0.0491689
0.0491493
0.0491053
0.0490362
0.0489691
0.0489369
0.0489454
0.048977
0.0490112
0.0490375
0.0490548
0.0490656
0.0490711
0.0490723
0.049071
0.0490709
0.0490773
0.0490924
0.0491129
0.0491312
0.0491442
0.0491619
0.0491983
0.0492377
0.0492415
0.0492219
0.0492125
0.0492134
0.048948
0.0488466
0.0492546
0.0493198
0.0493214
0.049308
0.0492908
0.0492725
0.049254
0.0492354
0.0492172
0.0491994
0.0491823
0.0491661
0.0491509
0.0491369
0.0491245
0.0491137
0.0491052
0.0490992
0.0490965
0.0490974
0.049102
0.0491103
0.0491219
0.049136
0.0491514
0.0491668
0.0491808
0.0491927
0.0492018
0.049208
0.049211
0.0492105
0.049206
0.0491969
0.0491828
0.0491641
0.0491436
0.0491279
0.0491345
0.0491927
0.0492563
0.0492775
0.0492725
0.0492622
0.0492521
0.0492434
0.0492361
0.0492301
0.0492252
0.0492213
0.0492185
0.0492165
0.0492152
0.0492143
0.0492136
0.0492126
0.0492109
0.0492082
0.0492044
0.0491998
0.0491948
0.0491902
0.0491865
0.0491839
0.0491831
0.0491833
0.0491842
0.0491851
0.0491852
0.0491813
0.0491725
0.0491515
0.0491085
0.0490427
0.0489782
0.0489444
0.0489483
0.0489754
0.0490079
0.0490348
0.0490538
0.0490658
0.0490721
0.0490738
0.0490734
0.0490746
0.0490827
0.0490996
0.049121
0.0491393
0.0491517
0.0491686
0.0492056
0.0492477
0.0492531
0.0492303
0.0492196
0.0492193
0.0489467
0.0488366
0.0492599
0.0493297
0.0493329
0.0493204
0.0493041
0.0492867
0.0492692
0.0492518
0.0492347
0.0492182
0.0492023
0.0491873
0.0491732
0.0491602
0.0491486
0.0491387
0.0491309
0.0491255
0.0491236
0.049125
0.0491299
0.049138
0.0491487
0.049161
0.0491738
0.0491858
0.0491965
0.0492052
0.0492118
0.0492162
0.0492181
0.049217
0.0492122
0.0492028
0.0491881
0.0491686
0.049147
0.0491304
0.0491392
0.049204
0.0492678
0.0492853
0.0492783
0.0492666
0.0492552
0.0492451
0.0492364
0.049229
0.0492228
0.0492179
0.0492143
0.0492121
0.0492111
0.0492115
0.0492129
0.049215
0.0492172
0.0492188
0.0492193
0.049218
0.049215
0.0492108
0.0492064
0.0492026
0.0491997
0.0491984
0.0491974
0.0491964
0.0491945
0.0491871
0.0491756
0.0491531
0.0491107
0.0490483
0.0489868
0.0489527
0.0489531
0.0489765
0.0490069
0.0490338
0.0490537
0.0490666
0.0490735
0.049076
0.0490765
0.0490795
0.0490897
0.0491085
0.0491307
0.0491487
0.0491601
0.0491761
0.0492138
0.0492586
0.0492659
0.0492392
0.0492268
0.0492254
0.0489464
0.0488268
0.0492653
0.0493399
0.0493447
0.0493332
0.0493178
0.0493014
0.049285
0.0492687
0.049253
0.0492378
0.0492233
0.0492095
0.0491966
0.0491848
0.0491744
0.0491655
0.0491585
0.049154
0.049153
0.0491551
0.0491601
0.0491676
0.0491765
0.049186
0.0491951
0.0492031
0.04921
0.0492155
0.0492198
0.0492226
0.0492236
0.0492221
0.0492171
0.0492075
0.0491924
0.0491722
0.0491495
0.0491324
0.0491442
0.0492163
0.049279
0.0492924
0.0492838
0.0492708
0.049258
0.0492465
0.0492364
0.0492276
0.0492199
0.0492135
0.0492084
0.0492049
0.0492031
0.0492031
0.0492049
0.0492084
0.0492133
0.049219
0.0492246
0.0492289
0.049231
0.0492301
0.0492268
0.0492223
0.0492177
0.0492148
0.0492121
0.0492089
0.0492045
0.0491938
0.0491782
0.0491537
0.0491119
0.0490526
0.0489946
0.0489612
0.0489595
0.0489797
0.049008
0.0490344
0.0490546
0.049068
0.0490755
0.0490786
0.0490805
0.0490856
0.0490983
0.0491191
0.0491418
0.049159
0.049169
0.0491841
0.0492226
0.0492704
0.0492799
0.0492489
0.0492343
0.0492319
0.0489473
0.0488171
0.0492709
0.0493502
0.0493566
0.0493462
0.0493317
0.0493164
0.0493011
0.0492861
0.0492717
0.049258
0.0492449
0.0492326
0.0492211
0.0492107
0.0492015
0.0491938
0.049188
0.0491851
0.049185
0.0491874
0.0491918
0.0491974
0.0492031
0.0492084
0.0492129
0.0492167
0.0492198
0.0492226
0.0492249
0.0492266
0.0492271
0.0492253
0.0492203
0.0492105
0.0491951
0.0491741
0.0491505
0.0491334
0.0491495
0.0492296
0.0492894
0.0492986
0.0492887
0.0492745
0.0492604
0.0492477
0.0492364
0.0492262