/*--------------------------------*- C++ -*----------------------------------*\
| =========                 |                                                 |
| \\      /  F ield         | OpenFOAM: The Open Source CFD Toolbox           |
|  \\    /   O peration     | Version:  4.1                                   |
|   \\  /    A nd           | Web:      www.OpenFOAM.org                      |
|    \\/     M anipulation  |                                                 |
\*---------------------------------------------------------------------------*/
FoamFile
{
    version     2.0;
    format      ascii;
    class       volScalarField;
    location    "200";
    object      T;
}
// * * * * * * * * * * * * * * * * * * * * * * * * * * * * * * * * * * * * * //

dimensions      [0 0 0 1 0 0 0];

internalField   nonuniform List<scalar> 
5000
(
284.816
284.461
284.505
284.271
283.899
283.55
283.254
283.012
282.815
282.654
282.519
282.406
282.307
282.22
282.142
282.071
282.005
281.943
281.883
281.825
281.769
281.713
281.658
281.609
281.567
281.53
281.496
281.465
281.434
281.405
281.374
281.343
281.31
281.275
281.237
281.197
281.155
281.111
281.065
281.019
280.974
280.931
280.897
280.886
280.932
280.954
280.976
280.998
281.021
281.046
281.073
281.102
281.134
281.17
281.209
281.252
281.3
281.353
281.413
281.481
281.55
281.621
281.692
281.766
281.841
281.921
282.005
282.096
282.194
282.303
282.425
282.567
282.737
282.957
283.225
283.258
282.94
282.754
282.599
282.46
282.331
282.206
282.081
281.952
281.82
281.715
281.634
281.571
281.523
281.487
281.46
281.454
281.507
281.554
281.584
281.617
281.704
281.914
282.149
282.455
283.259
282.028
282.445
282.817
282.663
282.359
282.064
281.813
281.607
281.432
281.282
281.15
281.033
280.929
280.837
280.759
280.692
280.639
280.598
280.569
280.551
280.544
280.545
280.548
280.55
280.551
280.552
280.553
280.553
280.553
280.552
280.551
280.55
280.548
280.547
280.544
280.542
280.538
280.534
280.528
280.521
280.51
280.497
280.48
280.463
280.456
280.45
280.445
280.442
280.438
280.436
280.434
280.432
280.431
280.431
280.43
280.43
280.43
280.43
280.431
280.438
280.454
280.481
280.519
280.568
280.631
280.707
280.797
280.904
281.029
281.176
281.358
281.605
281.987
282.497
282.629
281.854
281.371
281.104
280.904
280.753
280.642
280.57
280.538
280.54
280.542
280.543
280.544
280.545
280.543
280.541
280.536
280.526
280.511
280.494
280.477
280.463
280.48
280.931
281.819
282.625
281.529
281.833
282.082
281.991
281.752
281.504
281.29
281.117
280.977
280.865
280.775
280.705
280.652
280.615
280.59
280.577
280.571
280.571
280.574
280.578
280.582
280.586
280.589
280.591
280.593
280.595
280.596
280.597
280.597
280.597
280.596
280.595
280.594
280.591
280.588
280.584
280.579
280.572
280.562
280.549
280.532
280.51
280.485
280.465
280.454
280.445
280.437
280.431
280.427
280.423
280.42
280.418
280.417
280.416
280.416
280.416
280.416
280.417
280.417
280.418
280.42
280.423
280.429
280.439
280.457
280.484
280.525
280.581
280.659
280.764
280.912
281.139
281.527
282.082
282.287
281.558
280.955
280.748
280.635
280.576
280.551
280.545
280.548
280.552
280.555
280.558
280.561
280.562
280.562
280.56
280.555
280.546
280.528
280.505
280.477
280.452
280.448
280.696
281.564
282.253
281.281
281.466
281.623
281.558
281.374
281.177
281.007
280.873
280.771
280.696
280.644
280.61
280.59
280.58
280.579
280.581
280.586
280.592
280.597
280.601
280.605
280.608
280.611
280.614
280.617
280.62
280.622
280.625
280.627
280.629
280.63
280.631
280.63
280.629
280.627
280.623
280.617
280.608
280.596
280.577
280.552
280.521
280.49
280.467
280.451
280.439
280.43
280.422
280.416
280.412
280.409
280.407
280.406
280.405
280.405
280.405
280.406
280.406
280.407
280.409
280.41
280.412
280.414
280.418
280.424
280.434
280.451
280.48
280.525
280.595
280.706
280.9
281.26
281.809
282.052
281.42
280.798
280.635
280.574
280.554
280.552
280.555
280.559
280.563
280.566
280.57
280.573
280.576
280.578
280.577
280.573
280.565
280.55
280.524
280.489
280.452
280.44
280.61
281.421
282.004
281.103
281.209
281.311
281.262
281.122
280.969
280.839
280.739
280.669
280.623
280.595
280.582
280.578
280.579
280.584
280.589
280.594
280.598
280.601
280.603
280.605
280.607
280.61
280.614
280.618
280.623
280.628
280.633
280.638
280.643
280.647
280.65
280.653
280.654
280.654
280.652
280.648
280.64
280.626
280.603
280.57
280.53
280.492
280.467
280.448
280.434
280.422
280.413
280.407
280.402
280.4
280.399
280.398
280.398
280.399
280.399
280.399
280.4
280.401
280.402
280.403
280.405
280.407
280.409
280.413
280.418
280.427
280.442
280.468
280.515
280.599
280.761
281.091
281.618
281.876
281.33
280.734
280.591
280.56
280.555
280.558
280.561
280.565
280.569
280.572
280.577
280.581
280.585
280.588
280.588
280.586
280.58
280.568
280.543
280.504
280.456
280.436
280.568
281.329
281.826
280.966
281.021
281.088
281.051
280.947
280.83
280.733
280.662
280.615
280.589
280.576
280.573
280.575
280.58
280.584
280.587
280.589
280.589
280.589
280.589
280.59
280.592
280.595
280.6
280.605
280.612
280.619
280.627
280.635
280.643
280.65
280.657
280.663
280.668
280.671
280.672
280.671
280.665
280.651
280.625
280.583
280.535
280.495
280.466
280.445
280.428
280.415
280.405
280.399
280.395
280.394
280.395
280.396
280.397
280.399
280.399
280.4
280.4
280.399
280.399
280.4
280.401
280.402
280.405
280.407
280.411
280.416
280.425
280.441
280.473
280.537
280.676
280.978
281.477
281.738
281.263
280.705
280.574
280.558
280.559
280.562
280.566
280.568
280.572
280.576
280.581
280.586
280.591
280.595
280.596
280.595
280.59
280.581
280.56
280.52
280.464
280.435
280.547
281.265
281.692
280.86
280.878
280.925
280.898
280.821
280.735
280.664
280.614
280.585
280.571
280.568
280.569
280.573
280.576
280.577
280.576
280.574
280.572
280.569
280.567
280.567
280.569
280.572
280.577
280.584
280.592
280.602
280.612
280.623
280.634
280.646
280.656
280.666
280.674
280.68
280.685
280.686
280.683
280.671
280.643
280.593
280.538
280.496
280.464
280.44
280.422
280.408
280.398
280.393
280.391
280.393
280.396
280.399
280.403
280.405
280.407
280.407
280.407
280.405
280.403
280.402
280.402
280.402
280.403
280.405
280.407
280.411
280.416
280.427
280.45
280.5
280.619
280.898
281.37
281.628
281.209
280.691
280.567
280.56
280.564
280.567
280.569
280.571
280.574
280.578
280.583
280.59
280.595
280.599
280.601
280.6
280.596
280.59
280.575
280.537
280.478
280.435
280.536
281.22
281.588
280.776
280.768
280.802
280.785
280.729
280.667
280.617
280.584
280.567
280.561
280.562
280.565
280.568
280.568
280.565
280.561
280.555
280.55
280.545
280.542
280.541
280.543
280.546
280.552
280.559
280.569
280.58
280.593
280.607
280.621
280.636
280.65
280.663
280.675
280.685
280.692
280.696
280.696
280.686
280.655
280.597
280.54
280.495
280.461
280.435
280.416
280.402
280.393
280.389
280.39
280.394
280.401
280.408
280.414
280.419
280.421
280.422
280.42
280.417
280.413
280.41
280.407
280.405
280.404
280.404
280.406
280.408
280.412
280.419
280.435
280.476
280.581
280.839
281.286
281.537
281.166
280.687
280.565
280.565
280.569
280.571
280.572
280.573
280.575
280.58
280.586
280.592
280.598
280.603
280.604
280.603
280.599
280.595
280.586
280.555
280.495
280.431
280.529
281.185
281.506
280.708
280.681
280.708
280.698
280.661
280.617
280.583
280.563
280.555
280.555
280.558
280.56
280.56
280.557
280.551
280.543
280.534
280.527
280.521
280.517
280.516
280.517
280.52
280.525
280.533
280.544
280.556
280.571
280.587
280.605
280.623
280.64
280.657
280.673
280.686
280.697
280.704
280.705
280.696
280.662
280.6
280.54
280.491
280.456
280.43
280.41
280.396
280.388
280.387
280.391
280.4
280.41
280.421
280.43
280.437
280.44
280.441
280.439
280.435
280.429
280.422
280.416
280.412
280.408
280.406
280.406
280.407
280.409
280.414
280.426
280.459
280.553
280.795
281.218
281.461
281.131
280.688
280.567
280.57
280.575
280.577
280.576
280.575
280.577
280.581
280.588
280.594
280.601
280.605
280.606
280.604
280.6
280.597
280.593
280.572
280.516
280.436
280.526
281.158
281.44
280.653
280.612
280.634
280.632
280.609
280.58
280.56
280.549
280.547
280.55
280.553
280.554
280.552
280.545
280.535
280.525
280.514
280.505
280.498
280.494
280.492
280.493
280.495
280.5
280.508
280.518
280.531
280.547
280.566
280.586
280.607
280.628
280.649
280.669
280.686
280.699
280.709
280.712
280.704
280.666
280.602
280.537
280.487
280.45
280.424
280.405
280.392
280.385
280.386
280.394
280.407
280.422
280.436
280.448
280.457
280.462
280.463
280.46
280.455
280.446
280.437
280.428
280.421
280.414
280.41
280.408
280.407
280.408
280.412
280.421
280.448
280.533
280.761
281.161
281.396
281.103
280.692
280.571
280.576
280.582
280.582
280.579
280.577
280.579
280.583
280.59
280.596
280.603
280.607
280.607
280.604
280.598
280.595
280.596
280.586
280.538
280.45
280.525
281.135
281.387
280.608
280.557
280.576
280.58
280.568
280.552
280.542
280.538
280.541
280.545
280.549
280.548
280.543
280.533
280.521
280.508
280.497
280.487
280.48
280.476
280.473
280.473
280.474
280.478
280.485
280.494
280.507
280.524
280.543
280.566
280.59
280.615
280.639
280.663
280.683
280.7
280.712
280.717
280.708
280.669
280.601
280.533
280.481
280.445
280.42
280.401
280.389
280.384
280.387
280.399
280.416
280.435
280.452
280.466
280.476
280.482
280.483
280.48
280.474
280.464
280.453
280.441
280.43
280.421
280.415
280.411
280.409
280.408
280.41
280.417
280.44
280.518
280.733
281.113
281.339
281.081
280.7
280.577
280.582
280.589
280.588
280.583
280.58
280.581
280.585
280.592
280.599
280.605
280.608
280.609
280.603
280.596
280.592
280.595
280.595
280.558
280.469
280.526
281.116
281.342
280.572
280.513
280.53
280.539
280.536
280.53
280.528
280.53
280.536
280.541
280.544
280.542
280.535
280.523
280.509
280.496
280.483
280.474
280.467
280.463
280.46
280.459
280.459
280.46
280.465
280.473
280.485
280.501
280.521
280.545
280.571
280.599
280.628
280.655
280.679
280.7
280.715
280.721
280.712
280.671
280.598
280.527
280.474
280.439
280.415
280.398
280.386
280.383
280.389
280.404
280.425
280.447
280.466
280.481
280.491
280.496
280.497
280.495
280.488
280.479
280.466
280.453
280.44
280.428
280.42
280.414
280.41
280.409
280.409
280.414
280.434
280.506
280.71
281.07
281.288
281.064
280.711
280.584
280.589
280.596
280.593
280.586
280.582
280.583
280.588
280.595
280.601
280.607
280.61
280.61
280.603
280.592
280.586
280.591
280.598
280.572
280.488
280.529
281.101
281.306
280.542
280.476
280.492
280.506
280.511
280.513
280.516
280.523
280.531
280.538
280.54
280.537
280.528
280.515
280.501
280.487
280.475
280.466
280.46
280.457
280.454
280.452
280.449
280.448
280.45
280.455
280.465
280.48
280.5
280.525
280.553
280.583
280.615
280.646
280.674
280.699
280.716
280.724
280.715
280.672
280.594
280.52
280.468
280.434
280.412
280.396
280.385
280.383
280.391
280.409
280.432
280.455
280.475
280.49
280.5
280.504
280.505
280.502
280.496
280.487
280.475
280.461
280.447
280.434
280.424
280.417
280.412
280.409
280.409
280.412
280.43
280.497
280.691
281.031
281.243
281.05
280.724
280.593
280.595
280.603
280.598
280.589
280.584
280.586
280.592
280.599
280.604
280.609
280.612
280.611
280.603
280.589
280.58
280.585
280.597
280.581
280.506
280.534
281.091
281.276
280.517
280.446
280.461
280.479
280.49
280.498
280.507
280.517
280.527
280.534
280.537
280.533
280.523
280.51
280.496
280.482
280.472
280.465
280.461
280.459
280.456
280.452
280.447
280.443
280.441
280.442
280.449
280.461
280.48
280.505
280.534
280.567
280.602
280.636
280.668
280.696
280.717
280.726
280.718
280.672
280.589
280.513
280.461
280.43
280.41
280.395
280.385
280.383
280.393
280.413
280.437
280.46
280.479
280.493
280.502
280.505
280.505
280.502
280.497
280.489
280.478
280.465
280.451
280.438
280.427
280.419
280.414
280.41
280.409
280.411
280.426
280.49
280.674
280.996
281.201
281.039
280.739
280.603
280.601
280.61
280.603
280.591
280.587
280.59
280.597
280.603
280.608
280.612
280.614
280.613
280.603
280.586
280.573
280.577
280.593
280.586
280.521
280.542
281.086
281.25
280.496
280.421
280.435
280.456
280.472
280.485
280.498
280.511
280.523
280.531
280.534
280.53
280.52
280.508
280.494
280.482
280.474
280.47
280.469
280.468
280.466
280.46
280.452
280.444
280.437
280.434
280.437
280.446
280.463
280.487
280.517
280.551
280.588
280.626
280.661
280.693
280.716
280.728
280.72
280.67
280.583
280.505
280.455
280.427
280.409
280.395
280.385
280.384
280.394
280.414
280.438
280.461
280.479
280.491
280.499
280.501
280.5
280.496
280.491
280.485
280.476
280.464
280.452
280.439
280.429
280.421
280.415
280.411
280.409
280.41
280.424
280.484
280.659
280.963
281.162
281.03
280.756
280.615
280.606
280.616
280.607
280.593
280.588
280.593
280.602
280.609
280.613
280.615
280.616
280.615
280.605
280.585
280.567
280.569
280.588
280.588
280.536
280.548
281.083
281.23
280.479
280.4
280.413
280.436
280.456
280.474
280.49
280.506
280.519
280.529
280.532
280.528
280.52
280.508
280.495
280.486
280.481
280.48
280.482
280.483
280.482
280.474
280.463
280.451
280.439
280.431
280.428
280.434
280.449
280.471
280.501
280.536
280.575
280.615
280.654
280.688
280.715
280.729
280.721
280.669
280.576
280.498
280.45
280.425
280.409
280.396
280.386
280.385
280.395
280.414
280.436
280.457
280.474
280.485
280.492
280.494
280.493
280.488
280.483
280.477
280.47
280.461
280.45
280.439
280.429
280.421
280.416
280.411
280.409
280.409
280.422
280.479
280.645
280.931
281.126
281.022
280.775
280.63
280.611
280.621
280.61
280.594
280.59
280.597
280.607
280.616
280.619
280.619
280.619
280.618
280.608
280.584
280.562
280.561
280.581
280.589
280.548
280.553
281.082
281.212
280.465
280.382
280.395
280.419
280.442
280.463
280.483
280.5
280.515
280.526
280.53
280.528
280.52
280.51
280.499
280.492
280.489
280.492
280.497
280.502
280.501
280.492
280.478
280.461
280.445
280.431
280.424
280.426
280.437
280.458
280.487
280.522
280.562
280.604
280.646
280.683
280.712
280.729
280.723
280.666
280.569
280.49
280.446
280.424
280.41
280.397
280.388
280.386
280.394
280.411
280.431
280.45
280.466
280.477
280.483
280.486
280.485
280.481
280.474
280.468
280.462
280.455
280.446
280.437
280.429
280.422
280.416
280.412
280.409
280.409
280.421
280.475
280.632
280.902
281.092
281.015
280.794
280.647
280.617
280.625
280.614
280.595
280.59
280.599
280.613
280.623
280.627
280.625
280.622
280.621
280.611
280.586
280.557
280.552
280.574
280.59
280.557
280.557
281.081
281.198
280.454
280.367
280.379
280.404
280.43
280.453
280.475
280.494
280.511
280.523
280.528
280.528
280.522
280.513
280.504
280.498
280.497
280.502
280.511
280.519
280.518
280.508
280.492
280.473
280.453
280.435
280.423
280.42
280.428
280.446
280.474
280.51
280.55
280.594
280.637
280.677
280.709
280.729
280.723
280.664
280.562
280.484
280.443
280.424
280.412
280.4
280.39
280.387
280.393
280.407
280.424
280.441
280.456
280.466
280.474
280.477
280.477
280.474
280.468
280.461
280.455
280.449
280.442
280.435
280.428
280.421
280.416
280.412
280.409
280.408
280.419
280.472
280.62
280.873
281.058
281.007
280.814
280.667
280.625
280.628
280.619
280.598
280.592
280.601
280.618
280.631
280.635
280.631
280.626
280.624
280.615
280.588
280.554
280.544
280.566
280.588
280.565
280.558
281.082
281.187
280.444
280.354
280.365
280.391
280.418
280.443
280.467
280.488
280.506
280.519
280.526
280.528
280.524
280.517
280.509
280.504
280.504
280.509
280.518
280.529
280.528
280.519
280.504
280.483
280.461
280.44
280.424
280.417
280.422
280.438
280.464
280.499
280.539
280.583
280.628
280.671
280.706
280.729
280.724
280.66
280.555
280.477
280.44
280.426
280.415
280.403
280.393
280.388
280.392
280.402
280.416
280.431
280.444
280.455
280.463
280.467
280.469
280.468
280.464
280.458
280.451
280.445
280.439
280.433
280.427
280.421
280.416
280.412
280.408
280.408
280.419
280.469
280.609
280.845
281.026
280.999
280.833
280.69
280.636
280.631
280.623
280.604
280.595
280.604
280.621
280.638
280.644
280.638
280.63
280.627
280.619
280.592
280.552
280.536
280.557
280.585
280.572
280.56
281.083
281.177
280.437
280.343
280.352
280.379
280.407
280.434
280.458
280.481
280.5
280.515
280.524
280.527
280.525
280.521
280.515
280.511
280.511
280.514
280.521
280.528
280.529
280.523
280.509
280.49
280.467
280.444
280.426
280.416
280.418
280.432
280.456
280.49
280.53
280.574
280.62
280.665
280.703
280.728
280.724
280.657
280.548
280.472
280.439
280.428
280.419
280.407
280.397
280.391
280.39
280.397
280.407
280.42
280.432
280.442
280.451
280.456
280.46
280.46
280.458
280.454
280.449
280.443
280.437
280.431
280.426
280.421
280.416
280.412
280.408
280.407
280.418
280.466
280.598
280.818
280.994
280.99
280.851
280.714
280.65
280.636
280.627
280.61
280.602
280.608
280.626
280.644
280.652
280.646
280.635
280.63
280.623
280.596
280.552
280.529
280.549
280.581
280.576
280.565
281.084
281.17
280.431
280.334
280.341
280.367
280.396
280.424
280.45
280.473
280.493
280.509
280.52
280.525
280.526
280.524
280.52
280.517
280.517
280.52
280.525
280.529
280.528
280.522
280.51
280.492
280.469
280.446
280.427
280.416
280.415
280.427
280.45
280.482
280.521
280.566
280.613
280.659
280.7
280.727
280.723
280.653
280.541
280.467
280.439
280.431
280.423
280.413
280.402
280.394
280.39
280.393
280.399
280.409
280.419
280.429
280.438
280.444
280.449
280.452
280.452
280.45
280.446
280.441
280.436
280.43
280.425
280.42
280.415
280.411
280.407
280.406
280.417
280.464
280.587
280.793
280.964
280.978
280.866
280.74
280.668
280.644
280.632
280.617
280.61
280.616
280.633
280.651
280.661
280.655
280.641
280.633
280.627
280.601
280.553
280.523
280.541
280.575
280.579
280.572
281.084
281.164
280.426
280.326
280.331
280.357
280.386
280.414
280.441
280.465
280.486
280.503
280.515
280.522
280.525
280.525
280.523
280.522
280.522
280.524
280.527
280.529
280.527
280.52
280.507
280.489
280.468
280.445
280.426
280.414
280.413
280.424
280.445
280.477
280.515
280.559
280.606
280.654
280.697
280.726
280.723
280.648
280.533
280.463
280.44
280.434
280.428
280.419
280.408
280.398
280.392
280.39
280.393
280.399
280.406
280.415
280.423
280.431
280.436
280.441
280.443
280.443
280.442
280.439
280.434
280.429
280.424
280.419
280.414
280.41
280.406
280.406
280.417
280.462
280.578
280.769
280.934
280.965
280.878
280.765
280.689
280.656
280.64
280.626
280.62
280.626
280.642
280.66
280.669
280.663
280.647
280.636
280.63
280.606
280.555
280.518
280.534
280.569
280.581
280.575
281.083
281.159
280.422
280.318
280.322
280.347
280.376
280.405
280.432
280.456
280.477
280.495
280.508
280.517
280.522
280.524
280.524
280.525
280.525
280.526
280.528
280.527
280.523
280.515
280.502
280.484
280.462
280.44
280.422
280.411
280.411
280.421
280.442
280.473
280.51
280.554
280.601
280.65
280.694
280.726
280.722
280.643
280.526
280.459
280.441
280.438
280.434
280.426
280.416
280.405
280.396
280.391
280.389
280.391
280.395
280.401
280.408
280.415
280.422
280.427
280.431
280.434
280.434
280.433
280.43
280.426
280.421
280.417
280.412
280.407
280.404
280.404
280.416
280.46
280.569
280.746
280.905
280.95
280.887
280.788
280.712
280.671
280.651
280.637
280.632
280.638
280.653
280.669
280.677
280.67
280.653
280.639
280.633
280.611
280.557
280.513
280.527
280.564
280.58
280.576
281.081
281.155
280.419
280.312
280.313
280.338
280.367
280.395
280.422
280.447
280.468
280.486
280.5
280.51
280.517
280.521
280.523
280.524
280.525
280.525
280.525
280.523
280.517
280.507
280.493
280.475
280.454
280.433
280.416
280.407
280.408
280.42
280.441
280.471
280.508
280.55
280.597
280.646
280.692
280.725
280.721
280.637
280.519
280.457
280.443
280.443
280.441
280.434
280.425
280.414
280.404
280.395
280.389
280.386
280.386
280.389
280.393
280.399
280.405
280.411
280.417
280.421
280.423
280.424
280.424
280.421
280.417
280.413
280.409
280.404
280.402
280.403
280.416
280.459
280.561
280.725
280.877
280.934
280.893
280.809
280.736
280.691
280.666
280.651
280.646
280.652
280.666
280.681
280.687
280.677
280.658
280.642
280.635
280.615
280.56
280.51
280.52
280.559
280.578
280.575
281.079
281.153
280.417
280.306
280.305
280.329
280.357
280.386
280.412
280.436
280.458
280.476
280.491
280.502
280.509
280.514
280.518
280.52
280.52
280.521
280.519
280.515
280.508
280.496
280.481
280.462
280.442
280.423
280.409
280.403
280.406
280.419
280.441
280.47
280.506
280.548
280.595
280.644
280.691
280.725
280.72
280.63
280.511
280.455
280.446
280.448
280.448
280.443
280.435
280.425
280.414
280.404
280.395
280.387
280.383
280.381
280.381
280.384
280.388
280.394
280.399
280.405
280.409
280.412
280.413
280.412
280.41
280.407
280.403
280.4
280.398
280.401
280.416
280.458
280.554
280.706
280.851
280.917
280.894
280.826
280.759
280.712
280.684
280.668
280.663
280.668
280.681
280.693
280.696
280.684
280.663
280.645
280.637
280.618
280.564
280.507
280.514
280.555
280.576
280.574
281.075
281.15
280.415
280.301
280.298
280.321
280.348
280.376
280.402
280.425
280.447
280.465
280.48
280.491
280.5
280.506
280.509
280.512
280.512
280.512
280.509
280.503
280.494
280.481
280.465
280.447
280.428
280.412
280.401
280.399
280.405
280.42
280.442
280.472
280.507
280.548
280.594
280.643
280.69
280.725
280.719
280.622
280.504
280.454
280.45
280.454
280.455
280.453
280.446
280.438
280.427
280.416
280.405
280.395
280.386
280.379
280.375
280.372
280.373
280.376
280.38
280.386
280.391
280.395
280.399
280.4
280.4
280.398
280.396
280.393
280.393
280.399
280.415
280.458
280.548
280.689
280.828
280.9
280.893
280.84
280.78
280.734
280.704
280.688
280.682
280.686
280.696
280.706
280.705
280.69
280.666
280.647
280.638
280.62
280.566
280.505
280.508
280.551
280.574
280.573
281.071
281.149
280.414
280.297
280.292
280.313
280.339
280.366
280.391
280.414
280.435
280.452
280.467
280.479
280.488
280.494
280.498
280.5
280.5
280.499
280.494
280.487
280.476
280.462
280.446
280.428
280.412
280.4
280.394
280.396
280.405
280.422
280.446
280.475
280.509
280.549
280.594
280.643
280.69
280.725
280.717
280.613
280.497
280.453
280.453
280.459
280.463
280.463
280.459
280.452
280.443
280.433
280.422
280.41
280.399
280.387
280.377
280.369
280.364
280.361
280.362
280.365
280.371
280.376
280.381
280.384
280.386
280.386
280.385
280.385
280.387
280.395
280.415
280.458
280.544
280.675
280.807
280.883
280.889
280.85
280.799
280.756
280.726
280.708
280.702
280.704
280.712
280.718
280.713
280.694
280.668
280.648
280.639
280.622
280.567
280.502
280.502
280.549
280.572
280.573
281.065
281.147
280.414
280.293
280.286
280.305
280.331
280.356
280.38
280.402
280.422
280.439
280.453
280.465
280.474
280.48
280.483
280.485
280.484
280.482
280.475
280.466
280.454
280.439
280.424
280.408
280.396
280.389
280.389
280.395
280.408
280.427
280.451
280.48
280.513
280.552
280.596
280.644
280.691
280.726
280.714
280.603
280.49
280.454
280.457
280.465
280.471
280.473
280.471
280.467
280.461
280.452
280.443
280.432
280.419
280.406
280.392
280.379
280.367
280.357
280.35
280.348
280.349
280.354
280.359
280.364
280.368
280.37
280.371
280.373
280.377
280.391
280.414
280.459
280.542
280.664
280.789
280.867
280.883
280.857
280.814
280.775
280.747
280.729
280.722
280.723
280.728
280.73
280.72
280.696
280.668
280.648
280.64
280.624
280.568
280.5
280.495
280.546
280.571
280.574
281.059
281.146
280.413
280.289
280.28
280.298
280.322
280.346
280.369
280.39
280.409
280.425
280.438
280.449
280.457
280.463
280.466
280.466
280.465
280.46
280.452
280.441
280.428
280.414
280.4
280.389
280.383
280.382
280.387
280.398
280.414
280.435
280.459
280.487
280.519
280.556
280.599
280.646
280.693
280.728
280.711
280.591
280.483
280.455
280.46
280.47
280.479
280.483
280.484
280.482
280.479
280.473
280.466
280.457
280.446
280.434
280.419
280.403
280.386
280.369
280.353
280.341
280.334
280.332
280.335
280.341
280.347
280.35
280.354
280.358
280.366
280.384
280.413
280.46
280.541
280.657
280.775
280.853
280.877
280.861
280.827
280.792
280.766
280.749
280.741
280.74
280.742
280.739
280.724
280.697
280.667
280.648
280.641
280.625
280.569
280.497
280.487
280.543
280.57
280.574
281.052
281.145
280.412
280.285
280.275
280.291
280.313
280.336
280.358
280.378
280.395
280.41
280.422
280.432
280.439
280.443
280.445
280.445
280.441
280.435
280.425
280.413
280.4
280.388
280.38
280.375
280.376
280.381
280.392
280.406
280.424
280.445
280.469
280.495
280.526
280.561
280.603
280.65
280.697
280.73
280.706
280.577
280.477
280.457
280.463
280.476
280.486
280.492
280.495
280.496
280.495
280.493
280.489
280.483
280.475
280.466
280.453
280.438
280.421
280.4
280.378
280.357
280.337
280.322
280.315
280.316
280.321
280.327
280.333
280.34
280.352
280.374
280.412
280.463
280.543
280.653
280.765
280.842
280.871
280.862
280.836
280.807
280.783
280.767
280.759
280.756
280.754
280.746
280.725
280.695
280.665
280.647
280.642
280.626
280.569
280.493
280.479
280.539
280.569
280.574
281.044
281.144
280.412
280.282
280.269
280.284
280.305
280.326
280.346
280.365
280.381
280.394
280.405
280.413
280.419
280.422
280.422
280.42
280.415
280.405
280.394
280.383
280.374
280.368
280.366
280.37
280.377
280.389
280.403
280.419
280.438
280.458
280.481
280.506
280.534
280.568
280.609
280.655
280.701
280.733
280.7
280.561
280.472
280.458
280.466
280.48
280.492
280.5
280.506
280.508
280.51
280.51
280.509
280.506
280.503
280.497
280.489
280.477
280.463
280.444
280.422
280.396
280.368
280.341
280.317
280.302
280.298
280.304
280.311
280.321
280.337
280.366
280.41
280.467
280.548
280.654
280.759
280.834
280.865
280.863
280.843
280.819
280.798
280.783
280.774
280.769
280.763
280.749
280.723
280.69
280.661
280.645
280.642
280.628
280.57
280.49
280.47
280.533
280.567
280.573
281.035
281.143
280.412
280.278
280.265
280.278
280.297
280.316
280.335
280.352
280.366
280.378
280.387
280.393
280.397
280.398
280.396
280.392
280.383
280.373
280.364
280.358
280.357
280.36
280.367
280.377
280.39
280.404
280.42
280.437
280.454
280.473
280.494
280.517
280.544
280.576
280.616
280.661
280.707
280.735
280.691
280.544
280.468
280.46
280.469
280.484
280.497
280.507
280.514
280.518
280.521
280.523
280.524
280.525
280.524
280.522
280.519
280.512
280.503
280.489
280.471
280.448
280.42
280.389
280.355
280.324
280.3
280.292
280.298
280.31
280.331
280.364
280.414
280.475
280.556
280.658
280.758
280.829
280.861
280.863
280.848
280.828
280.809
280.796
280.787
280.779
280.768
280.748
280.718
280.683
280.656
280.644
280.643
280.629
280.57
280.487
280.461
280.525
280.563
280.57
281.025
281.142
280.411
280.275
280.26
280.272
280.289
280.307
280.324
280.338
280.351
280.36
280.367
280.372
280.373
280.372
280.368
280.36
280.351
280.346
280.346
280.35
280.358
280.369
280.382
280.396
280.41
280.425
280.44
280.456
280.472
280.488
280.507
280.528
280.554
280.585
280.624
280.669
280.714
280.739
280.679
280.525
280.465
280.461
280.471
280.486
280.501
280.512
280.52
280.525
280.529
280.531
280.534
280.536
280.538
280.539
280.54
280.538
280.535
280.527
280.516
280.499
280.476
280.448
280.414
280.378
280.343
280.317
280.31
280.319
280.341
280.376
280.428
280.491
280.57
280.666
280.759
280.828
280.859
280.863
280.852
280.835
280.819
280.806
280.796
280.785
280.769
280.744
280.71
280.675
280.651
280.642
280.644
280.631
280.57
280.485
280.453
280.514
280.557
280.565
281.014
281.141
280.41
280.271
280.256
280.266
280.281
280.298
280.313
280.325
280.335
280.343
280.347
280.349
280.348
280.344
280.337
280.333
280.334
280.341
280.352
280.365
280.379
280.393
280.407
280.421
280.434
280.448
280.461
280.475
280.489
280.504
280.521
280.541
280.565
280.596
280.634
280.679
280.723
280.741
280.661
280.506
280.463
280.462
280.471
280.488
280.503
280.515
280.523
280.529
280.533
280.536
280.538
280.541
280.545
280.548
280.551
280.554
280.555
280.554
280.55
280.54
280.525
280.503
280.475
280.442
280.406
280.373
280.352
280.355
280.372
280.405
280.454
280.516
280.592
280.679
280.764
280.827
280.858
280.863
280.854
280.84
280.826
280.813
280.801
280.787
280.765
280.734
280.698
280.666
280.646
280.642
280.646
280.633
280.571
280.483
280.445
280.5
280.549
280.56
281.003
281.14
280.409
280.268
280.251
280.26
280.274
280.289
280.302
280.312
280.32
280.325
280.326
280.326
280.323
280.319
280.322
280.332
280.347
280.363
280.379
280.395
280.408
280.421
280.433
280.445
280.457
280.468
280.48
280.492
280.505
280.519
280.535
280.554
280.578
280.609
280.647
280.692
280.733
280.742
280.638
280.488
280.463
280.463
280.472
280.488
280.504
280.517
280.525
280.53
280.534
280.537
280.539
280.542
280.546
280.55
280.555
280.56
280.565
280.569
280.571
280.57
280.563
280.549
280.529
280.503
280.472
280.441
280.416
280.411
280.422
280.449
280.493
280.55
280.619
280.697
280.772
280.829
280.858
280.863
280.856
280.843
280.83
280.816
280.802
280.783
280.756
280.721
280.685
280.656
280.642
280.642
280.648
280.635
280.571
280.481
280.439
280.483
280.54
280.553
280.991
281.138
280.408
280.265
280.247
280.255
280.267
280.28
280.291
280.299
280.304
280.307
280.307
280.305
280.309
280.323
280.343
280.363
280.382
280.398
280.412
280.424
280.435
280.445
280.455
280.465
280.476
280.488
280.499
280.511
280.524
280.537
280.552
280.57
280.594
280.625
280.665
280.712
280.748
280.74
280.609
280.474
280.464
280.463
280.471
280.487
280.504
280.517
280.525
280.53
280.533
280.535
280.538
280.54
280.544
280.549
280.554
280.56
280.567
280.575
280.582
280.588
280.589
280.585
280.574
280.557
280.536
280.512
280.49
280.478
280.483
280.504
280.541
280.591
280.652
280.719
280.783
280.831
280.857
280.863
280.856
280.844
280.83
280.815
280.797
280.772
280.741
280.704
280.67
280.647
280.639
280.644
280.652
280.638
280.572
280.481
280.434
280.465
280.528
280.547
280.979
281.135
280.406
280.261
280.243
280.25
280.261
280.272
280.28
280.286
280.29
280.292
280.295
280.31
280.336
280.362
280.385
280.403
280.417
280.428
280.437
280.446
280.454
280.464
280.475
280.486
280.499
280.511
280.524
280.536
280.548
280.56
280.575
280.592
280.615
280.65
280.694
280.737
280.761
280.729
280.579
280.464
280.464
280.464
280.469
280.485
280.502
280.515
280.524
280.529
280.531
280.533
280.535
280.538
280.542
280.547
280.552
280.558
280.564
280.573
280.584
280.595
280.604
280.609
280.608
280.601
280.589
280.573
280.558
280.547
280.549
280.565
280.594
280.635
280.686
280.742
280.795
280.835
280.857
280.862
280.855
280.841
280.826
280.808
280.785
280.755
280.721
280.685
280.657
280.641
280.639
280.648
280.656
280.64
280.573