/*--------------------------------*- C++ -*----------------------------------*\
| =========                 |                                                 |
| \\      /  F ield         | OpenFOAM: The Open Source CFD Toolbox           |
|  \\    /   O peration     | Version:  4.1                                   |
|   \\  /    A nd           | Web:      www.OpenFOAM.org                      |
|    \\/     M anipulation  |                                                 |
\*---------------------------------------------------------------------------*/
FoamFile
{
    version     2.0;
    format      ascii;
    class       volVectorField;
    location    "200";
    object      U;
}
// * * * * * * * * * * * * * * * * * * * * * * * * * * * * * * * * * * * * * //

dimensions      [0 1 -1 0 0 0 0];

internalField   nonuniform List<vector> 
1600
(
(-0.00189283 -7.69836e-05 0)
(0.0017067 -0.000711625 0)
(-0.00480262 0.00174202 0)
(-0.0120109 0.00100312 0)
(-0.0124799 -7.63692e-05 0)
(-0.0120042 -0.000112892 0)
(-0.0117581 -1.92706e-05 0)
(-0.011787 1.11324e-05 0)
(-0.0119097 2.68009e-05 0)
(-0.0120425 2.10757e-05 0)
(-0.0121012 -2.51832e-06 0)
(-0.0120267 -3.96779e-05 0)
(-0.0117709 -8.74573e-05 0)
(-0.0113108 -0.000142166 0)
(-0.0106324 -0.000202861 0)
(-0.00971903 -0.000270869 0)
(-0.00854293 -0.000351281 0)
(-0.00706927 -0.000457029 0)
(-0.00526884 -0.000594904 0)
(-0.00299373 -0.00061013 0)
(-0.000651986 -0.000391819 0)
(0.0019427 -0.000587676 0)
(0.0050252 -0.000706398 0)
(0.00818634 -0.000683972 0)
(0.0110867 -0.00058346 0)
(0.0134891 -0.000446362 0)
(0.0152743 -0.000298588 0)
(0.016416 -0.000157145 0)
(0.0169495 -3.22461e-05 0)
(0.0169411 7.48867e-05 0)
(0.0164325 0.000180808 0)
(0.0152648 0.000390997 0)
(0.0132881 0.00131711 0)
(0.00489368 0.00261456 0)
(-0.00677083 0.00114177 0)
(-0.00894305 0.000408276 0)
(-0.0117132 8.33225e-05 0)
(-0.0128025 -0.000322178 0)
(-0.0112928 -0.00117647 0)
(-0.0072818 -0.00337048 0)
(0.000355873 0.000269271 0)
(-0.00244775 0.00137665 0)
(-0.00834241 0.00391862 0)
(-0.0128012 0.00198798 0)
(-0.0131939 -0.000136541 0)
(-0.0130511 -0.000227231 0)
(-0.0130985 -1.87024e-05 0)
(-0.0132496 5.54537e-05 0)
(-0.0134294 8.52069e-05 0)
(-0.0135613 6.23364e-05 0)
(-0.0135805 -2.57721e-06 0)
(-0.0134407 -9.60793e-05 0)
(-0.0131183 -0.00021004 0)
(-0.0125951 -0.00033368 0)
(-0.0118624 -0.000463161 0)
(-0.0109116 -0.000600034 0)
(-0.00973094 -0.000754203 0)
(-0.00830981 -0.000950522 0)
(-0.00662732 -0.00120878 0)
(-0.00463851 -0.00141554 0)
(-0.00231834 -0.00142475 0)
(0.00140295 -0.00185309 0)
(0.00461253 -0.00196408 0)
(0.0078791 -0.00186611 0)
(0.0108915 -0.00160733 0)
(0.0134231 -0.00126083 0)
(0.0153619 -0.000884885 0)
(0.0166852 -0.000520219 0)
(0.0174308 -0.000186838 0)
(0.0176161 0.000123548 0)
(0.0172082 0.00045575 0)
(0.0160083 0.00105156 0)
(0.0139167 0.00297168 0)
(0.00794277 0.00563683 0)
(-0.00411045 0.00372963 0)
(-0.00719742 0.00189464 0)
(-0.00998144 0.00133472 0)
(-0.011006 0.00055014 0)
(-0.00942377 -0.00130509 0)
(-0.00501531 -0.00597307 0)
(0.000588228 0.000648405 0)
(-0.00534333 0.00367843 0)
(-0.00928695 0.00555363 0)
(-0.0118217 0.00276838 0)
(-0.0117502 -4.95082e-05 0)
(-0.0121326 -0.000177025 0)
(-0.0125658 7.63553e-05 0)
(-0.012988 0.000156904 0)
(-0.0133606 0.000161319 0)
(-0.0136189 9.15438e-05 0)
(-0.0137249 -3.61201e-05 0)
(-0.013653 -0.000202765 0)
(-0.0133872 -0.000397286 0)
(-0.0129158 -0.000605745 0)
(-0.012231 -0.000821839 0)
(-0.0113249 -0.00104692 0)
(-0.0101884 -0.00129282 0)
(-0.00881131 -0.0015829 0)
(-0.00716726 -0.00193002 0)
(-0.00520623 -0.00229677 0)
(-0.00294606 -0.00265968 0)
(0.000591753 -0.0032775 0)
(0.00389192 -0.00334153 0)
(0.00708532 -0.00314935 0)
(0.0100424 -0.00272714 0)
(0.0125299 -0.00215923 0)
(0.0144324 -0.00153949 0)
(0.015724 -0.000938164 0)
(0.0164316 -0.000381358 0)
(0.0165745 0.000155949 0)
(0.0161272 0.000752169 0)
(0.0149549 0.00174661 0)
(0.0132452 0.00453835 0)
(0.00903393 0.00852123 0)
(-0.000853869 0.0065636 0)
(-0.00506362 0.00310849 0)
(-0.00785342 0.00186368 0)
(-0.00898337 0.000304016 0)
(-0.00771312 -0.00253059 0)
(-0.00358192 -0.00883474 0)
(-0.000994661 0.00195151 0)
(-0.00626538 0.00548092 0)
(-0.00922595 0.00661786 0)
(-0.0106439 0.00315545 0)
(-0.010622 0.000122158 0)
(-0.0113889 5.49313e-05 0)
(-0.0120928 0.000302486 0)
(-0.0126964 0.000367495 0)
(-0.0131962 0.000327456 0)
(-0.0135461 0.000198162 0)
(-0.0137218 4.43957e-07 0)
(-0.0137045 -0.000244472 0)
(-0.0134847 -0.000521559 0)
(-0.0130512 -0.000816463 0)
(-0.0123971 -0.00112149 0)
(-0.011516 -0.00143898 0)
(-0.0104004 -0.00178373 0)
(-0.00903822 -0.00217934 0)
(-0.00739818 -0.0026389 0)
(-0.00542548 -0.00316156 0)
(-0.00311491 -0.0037826 0)
(-0.000122174 -0.00456984 0)
(0.00317083 -0.00467676 0)
(0.00621983 -0.00438092 0)
(0.00908532 -0.00380258 0)
(0.0115136 -0.00301824 0)
(0.0133768 -0.00215653 0)
(0.0146437 -0.00132028 0)
(0.0153435 -0.000537728 0)
(0.0154875 0.00022499 0)
(0.0150515 0.00106866 0)
(0.0139375 0.00237587 0)
(0.0124939 0.00575649 0)
(0.00950466 0.0108296 0)
(0.00183492 0.00933675 0)
(-0.00316709 0.00455334 0)
(-0.00591191 0.0027231 0)
(-0.0071122 0.000600736 0)
(-0.00617043 -0.00330821 0)
(-0.00257735 -0.0110622 0)
(-0.00196797 0.00349624 0)
(-0.00641179 0.00700436 0)
(-0.00871719 0.00732667 0)
(-0.00953828 0.00335497 0)
(-0.00975851 0.000382699 0)
(-0.0107854 0.000369109 0)
(-0.011642 0.000581515 0)
(-0.0123626 0.000607735 0)
(-0.0129488 0.000509648 0)
(-0.0133662 0.000311815 0)
(-0.0135954 3.8943e-05 0)
(-0.01362 -0.000285958 0)
(-0.0134337 -0.000647427 0)
(-0.0130277 -0.00103006 0)
(-0.012397 -0.00142454 0)
(-0.0115383 -0.00183405 0)
(-0.0104465 -0.00227586 0)
(-0.00910968 -0.00277542 0)
(-0.00749617 -0.0033511 0)
(-0.00555569 -0.00401832 0)
(-0.00327836 -0.00481593 0)
(-0.000716481 -0.0057319 0)
(0.00240313 -0.00594572 0)
(0.00525874 -0.0055589 0)
(0.00799462 -0.00484565 0)
(0.010344 -0.00386052 0)
(0.0121641 -0.00276732 0)
(0.0134162 -0.00170744 0)
(0.0141349 -0.000711614 0)
(0.0143321 0.000266942 0)
(0.0139858 0.00134446 0)
(0.0130199 0.00290559 0)
(0.0118209 0.0066544 0)
(0.00970105 0.0125182 0)
(0.00392043 0.0117608 0)
(-0.00140161 0.00611155 0)
(-0.00422465 0.00350058 0)
(-0.00533042 0.000801123 0)
(-0.00466264 -0.00392015 0)
(-0.00179659 -0.0127965 0)
(-0.00232347 0.00510015 0)
(-0.00614701 0.00828805 0)
(-0.0080194 0.00786142 0)
(-0.0085537 0.00352898 0)
(-0.00903465 0.00072684 0)
(-0.0102113 0.000742988 0)
(-0.0111576 0.000910571 0)
(-0.0119558 0.000886891 0)
(-0.0126037 0.00072471 0)
(-0.0130726 0.000453662 0)
(-0.0133448 0.000100952 0)
(-0.0134042 -0.000309234 0)
(-0.0132446 -0.000758854 0)
(-0.0128629 -0.00123162 0)
(-0.0122569 -0.0017166 0)
(-0.0114277 -0.00221772 0)
(-0.0103736 -0.0027544 0)
(-0.00908461 -0.00335515 0)
(-0.00753186 -0.00404489 0)
(-0.00567265 -0.0048441 0)
(-0.00350423 -0.00577139 0)
(-0.00122758 -0.00677715 0)
(0.00157235 -0.007109 0)
(0.00421537 -0.00666593 0)
(0.00677989 -0.00584157 0)
(0.00902172 -0.00467486 0)
(0.010787 -0.00336394 0)
(0.0120265 -0.00209577 0)
(0.0127821 -0.000902871 0)
(0.0130731 0.000275118 0)
(0.0128752 0.00156151 0)
(0.0121326 0.00332911 0)
(0.0112036 0.00731433 0)
(0.00975008 0.0137289 0)
(0.0054546 0.0137128 0)
(0.000507657 0.0079021 0)
(-0.00276327 0.00423502 0)
(-0.00364801 0.00106067 0)
(-0.00318184 -0.00434618 0)
(-0.00116179 -0.0140693 0)
(-0.00234002 0.00667387 0)
(-0.00566031 0.00937999 0)
(-0.00725198 0.00830928 0)
(-0.0076842 0.00373594 0)
(-0.00838094 0.00112544 0)
(-0.00962527 0.00114852 0)
(-0.0106199 0.0012668 0)
(-0.0114686 0.0011872 0)
(-0.012161 0.0009574 0)
(-0.0126699 0.000610235 0)
(-0.0129765 0.000175054 0)
(-0.0130646 -0.000322116 0)
(-0.0129283 -0.000861045 0)
(-0.0125705 -0.00142359 0)
(-0.0119929 -0.00199708 0)
(-0.0112017 -0.00258596 0)
(-0.0102 -0.00321183 0)
(-0.00898116 -0.00390721 0)
(-0.00752014 -0.00470367 0)
(-0.005781 -0.00562133 0)
(-0.0037688 -0.0066529 0)
(-0.0016841 -0.00771041 0)
(0.000690076 -0.00813835 0)
(0.00311871 -0.00769114 0)
(0.0054687 -0.00677655 0)
(0.00756671 -0.00545224 0)
(0.00925886 -0.00394317 0)
(0.0104822 -0.00248908 0)
(0.0112848 -0.0011244 0)
(0.0117005 0.000227863 0)
(0.0116925 0.00169324 0)
(0.0112273 0.00362966 0)
(0.0106063 0.00778457 0)
(0.00970123 0.0145845 0)
(0.00659495 0.0152609 0)
(0.00242117 0.00975011 0)
(-0.00139448 0.00485376 0)
(-0.0021028 0.00119187 0)
(-0.00174357 -0.00459446 0)
(-0.000634472 -0.0149046 0)
(-0.00218765 0.00814561 0)
(-0.00506102 0.0103216 0)
(-0.00647038 0.00871572 0)
(-0.00690467 0.00398706 0)
(-0.00775539 0.00155266 0)
(-0.00901005 0.00156933 0)
(-0.010023 0.00163957 0)
(-0.0109013 0.00150291 0)
(-0.0116245 0.00120487 0)
(-0.0121638 0.000780496 0)
(-0.012498 0.000261041 0)
(-0.0126103 -0.000325003 0)
(-0.0124943 -0.000953829 0)
(-0.0121603 -0.00160485 0)
(-0.0116139 -0.00226334 0)
(-0.0108676 -0.00293417 0)
(-0.00993041 -0.00364121 0)
(-0.00880079 -0.00442186 0)
(-0.00745795 -0.00531446 0)
(-0.00587058 -0.0063373 0)
(-0.00404679 -0.00745718 0)
(-0.00213996 -0.00853581 0)
(-0.000176168 -0.00902667 0)
(0.00199911 -0.00861925 0)
(0.00409617 -0.00763374 0)
(0.0060106 -0.00618082 0)
(0.00760638 -0.00449914 0)
(0.0088064 -0.00288674 0)
(0.00965837 -0.00138192 0)
(0.0102202 0.000113866 0)
(0.0104293 0.00172352 0)
(0.0102781 0.00379254 0)
(0.00999906 0.00808496 0)
(0.00956515 0.0151569 0)
(0.00741921 0.016441 0)
(0.00404786 0.0113247 0)
(0.000418947 0.00599158 0)
(-0.000549482 0.00134457 0)
(-0.000389784 -0.00463952 0)
(-0.000193409 -0.0153225 0)
(-0.0019569 0.00946579 0)
(-0.00440756 0.0111371 0)
(-0.00569607 0.00910916 0)
(-0.00618676 0.00427941 0)
(-0.00713355 0.00198735 0)
(-0.00835926 0.00199202 0)
(-0.00936709 0.00201929 0)
(-0.010258 0.00182769 0)
(-0.0110002 0.00146252 0)
(-0.0115615 0.000960967 0)
(-0.0119174 0.000356411 0)
(-0.0120499 -0.000319377 0)
(-0.0119514 -0.00103787 0)
(-0.0116402 -0.00177504 0)
(-0.0111263 -0.00251373 0)
(-0.0104291 -0.00325898 0)
(-0.00956505 -0.00403708 0)
(-0.0085396 -0.00489088 0)
(-0.00733711 -0.00586632 0)
(-0.00592838 -0.0069805 0)
(-0.00431855 -0.00817518 0)
(-0.002626 -0.00925977 0)
(-0.000965674 -0.00978294 0)
(0.000879793 -0.00943053 0)
(0.00270081 -0.00839658 0)
(0.00439478 -0.00684721 0)
(0.00586656 -0.00502502 0)
(0.00703683 -0.00328687 0)
(0.00793228 -0.00167813 0)
(0.00864609 -7.25114e-05 0)
(0.00908819 0.00164201 0)
(0.00927287 0.00380638 0)
(0.00935926 0.00822469 0)
(0.00933919 0.015493 0)
(0.00797576 0.017296 0)
(0.00538184 0.0126222 0)
(0.00228495 0.00695685 0)
(0.00129792 0.00170262 0)
(0.000817992 -0.00441908 0)
(0.000171499 -0.0153327 0)
(-0.00169816 0.0106102 0)
(-0.00372627 0.0118357 0)
(-0.00492991 0.0095072 0)
(-0.00550457 0.00460691 0)
(-0.00650217 0.00241461 0)
(-0.0076719 0.00240613 0)
(-0.00865569 0.00239815 0)
(-0.0095444 0.0021562 0)
(-0.0102952 0.00172662 0)
(-0.0108713 0.00114908 0)
(-0.0112439 0.000459403 0)
(-0.011393 -0.000306462 0)
(-0.0113094 -0.00111392 0)
(-0.0110195 -0.00193436 0)
(-0.0105376 -0.00274755 0)
(-0.00989066 -0.00355851 0)
(-0.00910398 -0.00439563 0)
(-0.00819266 -0.00530778 0)
(-0.00714778 -0.00635016 0)
(-0.00593988 -0.00754085 0)
(-0.0045645 -0.00879883 0)
(-0.00311056 -0.00989 0)
(-0.00168158 -0.0104139 0)
(-0.000211797 -0.0101116 0)
(0.00132189 -0.00905577 0)
(0.00276921 -0.00743676 0)
(0.00408578 -0.00551232 0)
(0.00522233 -0.00368552 0)
(0.00614894 -0.0020106 0)
(0.0069835 -0.000334688 0)
(0.00767642 0.00144177 0)
(0.00820826 0.00366354 0)
(0.0086713 0.00821273 0)
(0.00901432 0.0156304 0)
(0.00828853 0.0178651 0)
(0.00640815 0.0136318 0)
(0.00393877 0.00776984 0)
(0.00291761 0.00215937 0)
(0.00181464 -0.00404169 0)
(0.00045716 -0.0150304 0)
(-0.00144372 0.0115724 0)
(-0.00302472 0.0124159 0)
(-0.00415955 0.00991956 0)
(-0.00483518 0.0049642 0)
(-0.00585499 0.00282485 0)
(-0.0069502 0.00280336 0)
(-0.00789382 0.0027695 0)
(-0.008767 0.00248364 0)
(-0.0095168 0.00199382 0)
(-0.0101015 0.00134262 0)
(-0.010487 0.000568593 0)
(-0.0106503 -0.000287283 0)
(-0.0105797 -0.00118276 0)
(-0.0103095 -0.00208338 0)
(-0.00985789 -0.0029651 0)
(-0.0092593 -0.00383242 0)
(-0.0085494 -0.00471514 0)
(-0.00775625 -0.00566828 0)
(-0.00688043 -0.00675894 0)
(-0.00589083 -0.00801025 0)
(-0.00476707 -0.00932223 0)
(-0.00356793 -0.010425 0)
(-0.00237281 -0.0109376 0)
(-0.00120351 -0.0106511 0)
(1.52515e-06 -0.00960738 0)
(0.00118855 -0.00794256 0)
(0.00231956 -0.0059535 0)
(0.00341181 -0.00407213 0)
(0.00435395 -0.00236857 0)
(0.00527606 -0.000670703 0)
(0.00621133 0.00111907 0)
(0.00708714 0.00336028 0)
(0.0079257 0.00806117 0)
(0.00858026 0.0156036 0)
(0.00836692 0.0181884 0)
(0.00711592 0.0143689 0)
(0.00523138 0.00847209 0)
(0.00406542 0.0027044 0)
(0.00254621 -0.00345771 0)
(0.000654608 -0.0145254 0)
(-0.00121921 0.0123555 0)
(-0.00230113 0.0128674 0)
(-0.00336393 0.0103507 0)
(-0.00415727 0.00534995 0)
(-0.00519011 0.00321296 0)
(-0.00619867 0.00317707 0)
(-0.00708766 0.00312744 0)
(-0.00793262 0.00280557 0)
(-0.00867232 0.00226109 0)
(-0.00926024 0.00153978 0)
(-0.00965636 0.000683053 0)
(-0.0098329 -0.000262467 0)
(-0.00977431 -0.00124501 0)
(-0.00952288 -0.00222289 0)
(-0.00909957 -0.00316743 0)
(-0.00854523 -0.004082 0)
(-0.00790688 -0.00499614 0)
(-0.00722926 -0.00597065 0)
(-0.00652705 -0.00708792 0)
(-0.005768 -0.00838231 0)
(-0.0049099 -0.00974012 0)
(-0.00397799 -0.0108593 0)
(-0.00302898 -0.0113626 0)
(-0.00210573 -0.0110652 0)
(-0.00120534 -0.0100344 0)
(-0.000291632 -0.00837012 0)
(0.000634207 -0.00635125 0)
(0.00164076 -0.00443459 0)
(0.0025797 -0.00272842 0)
(0.00356369 -0.00106169 0)
(0.00472326 0.000677897 0)
(0.00591552 0.00289926 0)
(0.00711625 0.00778571 0)
(0.00802717 0.0154456 0)
(0.00821565 0.0183061 0)
(0.00750278 0.0148699 0)
(0.00610704 0.00908739 0)
(0.00481449 0.00332948 0)
(0.00303569 -0.00273395 0)
(0.00077912 -0.0138583 0)
(-0.00104915 0.0129672 0)
(-0.00155187 0.0131709 0)
(-0.00251576 0.0108002 0)
(-0.00344856 0.00576989 0)
(-0.00450884 0.00357827 0)
(-0.00542389 0.00352183 0)
(-0.00624448 0.00346638 0)
(-0.00704815 0.00311753 0)
(-0.00776808 0.00252542 0)
(-0.0083542 0.00173901 0)
(-0.00876004 0.000802358 0)
(-0.00895084 -0.000232113 0)
(-0.00890471 -0.00130087 0)
(-0.00867226 -0.00235345 0)
(-0.00827601 -0.00335594 0)
(-0.00776097 -0.00430975 0)
(-0.00718547 -0.00524149 0)
(-0.00661407 -0.0062161 0)
(-0.00608204 -0.00733502 0)
(-0.00555968 -0.00865248 0)
(-0.00497804 -0.0100482 0)
(-0.00432308 -0.0111888 0)
(-0.00362651 -0.0116902 0)
(-0.00294279 -0.0113842 0)
(-0.0022779 -0.0103365 0)
(-0.00160604 -0.00868412 0)
(-0.000901511 -0.00671917 0)
(-5.22426e-05 -0.00478476 0)
(0.000850172 -0.00307853 0)
(0.00187446 -0.00147632 0)
(0.00325461 0.000124468 0)
(0.00468899 0.00229215 0)
(0.0062345 0.00740377 0)
(0.00734652 0.0151876 0)
(0.00784032 0.0182561 0)
(0.00757789 0.0151773 0)
(0.00657414 0.00962698 0)
(0.00522551 0.00400409 0)
(0.00331422 -0.00191958 0)
(0.000850491 -0.0130888 0)
(-0.000958029 0.0134185 0)
(-0.000780411 0.0133002 0)
(-0.00158367 0.0112587 0)
(-0.00268194 0.00623955 0)
(-0.00381545 0.00392517 0)
(-0.00463464 0.00383325 0)
(-0.00537304 0.0037807 0)
(-0.00612087 0.00341472 0)
(-0.00680915 0.0027837 0)
(-0.00738677 0.00193919 0)
(-0.00780185 0.00092711 0)
(-0.00801029 -0.000195266 0)
(-0.00797897 -0.00134995 0)
(-0.00776682 -0.00247513 0)
(-0.00739848 -0.00353171 0)
(-0.00691898 -0.00451869 0)
(-0.00639669 -0.00545586 0)
(-0.00591691 -0.00640888 0)
(-0.00554297 -0.00750125 0)
(-0.00525622 -0.00881821 0)
(-0.00495828 -0.010243 0)
(-0.00458784 -0.0114114 0)
(-0.00414556 -0.0119202 0)
(-0.00369375 -0.0116115 0)
(-0.00324034 -0.0105627 0)
(-0.00275554 -0.00891121 0)
(-0.0022145 -0.00696204 0)
(-0.00156753 -0.00510172 0)
(-0.000782124 -0.00347755 0)
(0.000243277 -0.00194558 0)
(0.00179474 -0.000526911 0)
(0.00336394 0.00156286 0)
(0.00526279 0.00692821 0)
(0.00653169 0.0148578 0)
(0.00725066 0.0180713 0)
(0.00736279 0.0153285 0)
(0.00667498 0.0100954 0)
(0.00534901 0.00468903 0)
(0.00340786 -0.00106898 0)
(0.000888872 -0.0122693 0)
(-0.000965855 0.0137244 0)
(-1.25378e-05 0.0132353 0)
(-0.000533382 0.011699 0)
(-0.00181984 0.0067698 0)
(-0.00311733 0.00426484 0)
(-0.00384231 0.00410782 0)
(-0.00448441 0.00406437 0)
(-0.00516018 0.00369131 0)
(-0.0058018 0.00303156 0)
(-0.00636034 0.00213851 0)
(-0.00678102 0.00105873 0)
(-0.00701047 -0.000148932 0)
(-0.00699995 -0.00139117 0)
(-0.00680982 -0.00258718 0)
(-0.00647305 -0.00369487 0)
(-0.00602839 -0.00471127 0)
(-0.00555236 -0.00564456 0)
(-0.00514756 -0.00655589 0)
(-0.00491135 -0.00759108 0)
(-0.00485045 -0.0088793 0)
(-0.00483943 -0.0103224 0)
(-0.00475992 -0.0115256 0)
(-0.00457131 -0.0120545 0)
(-0.00434104 -0.0117526 0)
(-0.00407879 -0.0107141 0)
(-0.00375252 -0.00908336 0)
(-0.0033435 -0.00716257 0)
(-0.00282912 -0.00533136 0)
(-0.00213561 -0.00379029 0)
(-0.00115577 -0.00249509 0)
(0.000362399 -0.00126178 0)
(0.00183395 0.000746622 0)
(0.00417183 0.00635902 0)
(0.00558165 0.0144773 0)
(0.00646227 0.0177767 0)
(0.00689078 0.015352 0)
(0.00646708 0.0104923 0)
(0.00523562 0.00534842 0)
(0.0033276 -0.000196736 0)
(0.000913561 -0.0114423 0)
(-0.00107579 0.0139033 0)
(0.000697466 0.0129188 0)
(0.000631157 0.0121132 0)
(-0.00078139 0.00739887 0)
(-0.0024106 0.00462338 0)
(-0.00306127 0.00434289 0)
(-0.00359209 0.00431117 0)
(-0.00417848 0.00394049 0)
(-0.00475582 0.00326298 0)
(-0.00528152 0.00233239 0)
(-0.00570035 0.00119531 0)
(-0.00594815 -9.09978e-05 0)
(-0.00596479 -0.00142328 0)
(-0.00579759 -0.00268806 0)
(-0.0054985 -0.00384415 0)
(-0.00509187 -0.00488807 0)
(-0.00466144 -0.00581184 0)
(-0.00431805 -0.00666551 0)
(-0.00419315 -0.00761251 0)
(-0.00433822 -0.0088383 0)
(-0.00461231 -0.0102848 0)
(-0.00483 -0.0115305 0)
(-0.00489428 -0.0120953 0)
(-0.00487483 -0.011814 0)
(-0.0047848 -0.0107994 0)
(-0.00459161 -0.00920266 0)
(-0.00428671 -0.0073221 0)
(-0.00386939 -0.00554443 0)
(-0.00325865 -0.00410238 0)
(-0.00230624 -0.00295708 0)
(-0.000967895 -0.00188959 0)
(2.84181e-05 -0.000201764 0)
(0.00287899 0.00570501 0)
(0.00450661 0.0140578 0)
(0.00549986 0.0173889 0)
(0.0062065 0.0152683 0)
(0.00601489 0.010814 0)
(0.00493607 0.00595754 0)
(0.00308536 0.000678928 0)
(0.000942205 -0.0106369 0)
(-0.00128432 0.0139769 0)
(0.00133442 0.0123187 0)
(0.00180419 0.0123739 0)
(0.000508647 0.00824275 0)
(-0.00164733 0.00502851 0)
(-0.00231089 0.00453757 0)
(-0.00271134 0.00451499 0)
(-0.00319077 0.00415472 0)
(-0.00368269 0.00347105 0)
(-0.00415674 0.00251553 0)
(-0.00456194 0.00133282 0)
(-0.00482075 -2.51879e-05 0)
(-0.00486699 -0.00144561 0)
(-0.00472122 -0.00277533 0)
(-0.00446693 -0.00397695 0)
(-0.00410453 -0.00504724 0)
(-0.00372699 -0.00595892 0)
(-0.00344016 -0.00674563 0)
(-0.00339907 -0.00757674 0)
(-0.00371911 -0.00870117 0)
(-0.00426961 -0.0101296 0)
(-0.00479135 -0.0114251 0)
(-0.0051097 -0.0120448 0)
(-0.00529232 -0.0118013 0)
(-0.0053588 -0.0108275 0)
(-0.00527659 -0.00927924 0)
(-0.00504983 -0.00744762 0)
(-0.00470596 -0.00572515 0)
(-0.00418804 -0.00437748 0)
(-0.00334851 -0.0033807 0)
(-0.00222931 -0.00244326 0)
(-0.00149384 -0.000785068 0)
(0.00103212 0.00473568 0)
(0.00333424 0.0135954 0)
(0.00440588 0.016919 0)
(0.00536586 0.0150907 0)
(0.00538734 0.0110554 0)
(0.00450867 0.00649723 0)
(0.00279984 0.00139994 0)
(0.000985955 -0.00986818 0)
(-0.00156511 0.0139786 0)
(0.00189114 0.0114275 0)
(0.00291297 0.0124738 0)
(0.00190639 0.00910934 0)
(-0.000647255 0.00562495 0)
(-0.00160136 0.00471156 0)
(-0.00185838 0.00467032 0)
(-0.00221522 0.00432565 0)
(-0.00259729 0.00364693 0)
(-0.00299346 0.00268073 0)
(-0.00336574 0.00146757 0)
(-0.00363156 4.8821e-05 0)
(-0.00369978 -0.00145828 0)
(-0.00357095 -0.00284645 0)
(-0.00336697 -0.0040906 0)
(-0.00305596 -0.00518504 0)
(-0.00274501 -0.00608324 0)
(-0.00252219 -0.00680136 0)
(-0.00254386 -0.00749701 0)
(-0.00299743 -0.00847796 0)
(-0.00380563 -0.00985759 0)
(-0.00463896 -0.0112072 0)
(-0.00521639 -0.0119038 0)
(-0.00559606 -0.0117188 0)
(-0.00580844 -0.010805 0)
(-0.00582044 -0.00932183 0)
(-0.00564954 -0.00754743 0)
(-0.00535834 -0.00587442 0)
(-0.00494052 -0.00460108 0)
(-0.00427992 -0.00372848 0)
(-0.0034367 -0.00292128 0)
(-0.00282869 -0.00121212 0)
(-0.00132457 0.00358683 0)
(0.00209973 0.0130496 0)
(0.00325684 0.0163838 0)
(0.00443338 0.0148283 0)
(0.00465335 0.0112113 0)
(0.00401141 0.00695181 0)
(0.00246082 0.00206435 0)
(0.00104642 -0.00914441 0)
(-0.00187643 0.0139454 0)
(0.00235679 0.0102465 0)
(0.00390282 0.0124068 0)
(0.00324448 0.00989603 0)
(0.000680155 0.00645783 0)
(-0.000892757 0.00490862 0)
(-0.00105454 0.00477229 0)
(-0.00127363 0.00444483 0)
(-0.00152124 0.00377972 0)
(-0.00180702 0.0028171 0)
(-0.00211392 0.00159267 0)
(-0.00237275 0.000134045 0)
(-0.00246278 -0.00146341 0)
(-0.00234144 -0.00290155 0)
(-0.00218831 -0.00418397 0)
(-0.00193534 -0.00529764 0)
(-0.0017066 -0.00617949 0)
(-0.00156604 -0.00683324 0)
(-0.00164424 -0.00738658 0)
(-0.00218355 -0.00818336 0)
(-0.00321638 -0.0094718 0)
(-0.00436838 -0.0108737 0)
(-0.0052154 -0.0116714 0)
(-0.00579205 -0.0115685 0)
(-0.00614624 -0.0107364 0)
(-0.00624251 -0.00933734 0)
(-0.00610896 -0.00762978 0)
(-0.00584464 -0.00599697 0)
(-0.00551499 -0.00476703 0)
(-0.00506214 -0.00397903 0)
(-0.00453156 -0.00327062 0)
(-0.00415178 -0.00157778 0)
(-0.00327452 0.00302638 0)
(0.000626507 0.0120395 0)
(0.00213673 0.0157981 0)
(0.00346905 0.0144877 0)
(0.00387623 0.0112791 0)
(0.00348676 0.00731713 0)
(0.00207362 0.00262184 0)
(0.00112842 -0.00847136 0)
(-0.00216729 0.013901 0)
(0.00272318 0.0087971 0)
(0.00473006 0.0121775 0)
(0.00443418 0.0105711 0)
(0.00210948 0.00735077 0)
(4.24073e-05 0.00529137 0)
(-0.000313581 0.00482595 0)
(-0.000388541 0.00450691 0)
(-0.000483713 0.00386117 0)
(-0.000626314 0.00291372 0)
(-0.000822218 0.00169462 0)
(-0.00104139 0.000212302 0)
(-0.0011551 -0.00146493 0)
(-0.00103485 -0.00294579 0)
(-0.000925597 -0.00425806 0)
(-0.000737337 -0.00538172 0)
(-0.000603288 -0.00624067 0)
(-0.000566954 -0.00683592 0)
(-0.000714467 -0.00725496 0)
(-0.00129543 -0.00783609 0)
(-0.00250022 -0.00897891 0)
(-0.00397439 -0.0104207 0)
(-0.00510844 -0.0113445 0)
(-0.00588775 -0.0113501 0)
(-0.00638717 -0.0106232 0)
(-0.00656659 -0.00933048 0)
(-0.00645808 -0.00770371 0)
(-0.00618921 -0.00610442 0)
(-0.00590657 -0.00488209 0)
(-0.00563795 -0.00412715 0)
(-0.0054145 -0.00347979 0)
(-0.00531853 -0.00186899 0)
(-0.00473456 0.00245844 0)
(-0.00107413 0.0107402 0)
(0.00109939 0.0151681 0)
(0.00252662 0.0140795 0)
(0.00310825 0.0112607 0)
(0.0029559 0.007604 0)
(0.00163655 0.00304832 0)
(0.00123021 -0.00785108 0)
(-0.00237584 0.0138536 0)
(0.00296711 0.00712709 0)
(0.00535361 0.0118027 0)
(0.0054176 0.0110928 0)
(0.00348236 0.00823345 0)
(0.001255 0.00585622 0)
(0.000455915 0.00490668 0)
(0.0004286 0.00450569 0)
(0.00048328 0.00387665 0)
(0.000501062 0.00295525 0)
(0.000457069 0.00177244 0)
(0.000356659 0.000339209 0)
(0.000238936 -0.00144382 0)
(0.000340783 -0.00298073 0)
(0.000419079 -0.00431359 0)
(0.000534654 -0.00543134 0)
(0.000567288 -0.00625688 0)
(0.000482888 -0.00679708 0)
(0.000238123 -0.00710435 0)
(-0.00035867 -0.0074568 0)
(-0.00166024 -0.00839116 0)
(-0.00344956 -0.00984306 0)
(-0.00489632 -0.0109171 0)
(-0.00589005 -0.0110602 0)
(-0.00654593 -0.0104634 0)
(-0.00681846 -0.00930228 0)
(-0.00673479 -0.00777719 0)
(-0.00643402 -0.00621468 0)
(-0.00613386 -0.00496874 0)
(-0.00597382 -0.00418778 0)
(-0.00600086 -0.0035515 0)
(-0.00619081 -0.00204046 0)
(-0.00584632 0.00193834 0)
(-0.0027733 0.0094438 0)
(9.1101e-05 0.0143666 0)
(0.0016513 0.0136139 0)
(0.00238112 0.0111635 0)
(0.00241707 0.00783662 0)
(0.00115208 0.00332583 0)
(0.00134211 -0.00728969 0)
(-0.00244187 0.013802 0)
(0.00302794 0.00531239 0)
(0.00573602 0.0113002 0)
(0.00615813 0.011431 0)
(0.00471152 0.00902795 0)
(0.00262777 0.00652272 0)
(0.00141709 0.00510432 0)
(0.00123423 0.0044734 0)
(0.0013765 0.00382236 0)
(0.00153792 0.00291802 0)
(0.00164378 0.00175837 0)
(0.0016783 0.000353165 0)
(0.00169546 -0.0013925 0)
(0.00176922 -0.00298735 0)
(0.00183387 -0.0043409 0)
(0.00187278 -0.00543738 0)
(0.00180234 -0.00622246 0)
(0.0015892 -0.00670698 0)
(0.00121575 -0.0069288 0)
(0.000594716 -0.00706824 0)
(-0.000708071 -0.00772732 0)
(-0.00278291 -0.00913657 0)
(-0.00457734 -0.0103806 0)
(-0.0058034 -0.0106926 0)
(-0.0066338 -0.0102505 0)
(-0.00702169 -0.00924816 0)
(-0.00698104 -0.00785282 0)
(-0.00664236 -0.00634576 0)
(-0.00626129 -0.00506138 0)
(-0.00609724 -0.00419768 0)
(-0.00626702 -0.00351101 0)
(-0.00669215 -0.00207701 0)
(-0.00663446 0.00153776 0)
(-0.00425644 0.00819826 0)
(-0.00091638 0.0133845 0)
(0.000875041 0.0131045 0)
(0.00170121 0.0110028 0)
(0.00185011 0.00804575 0)
(0.00064893 0.0034332 0)
(0.00144578 -0.00679093 0)
(-0.00232497 0.0137474 0)
(0.00282386 0.00346091 0)
(0.00585484 0.0106782 0)
(0.00664279 0.0115647 0)
(0.00575483 0.00966398 0)
(0.00402792 0.00720055 0)
(0.00263551 0.00543862 0)
(0.00216611 0.00448407 0)
(0.00226309 0.0037327 0)
(0.00250849 0.00282338 0)
(0.00273828 0.0016824 0)
(0.00289196 0.000289261 0)
(0.00309119 -0.00140269 0)
(0.00323458 -0.00300527 0)
(0.00329859 -0.0043581 0)
(0.00326901 -0.00541526 0)
(0.00309438 -0.00614465 0)
(0.00275079 -0.00656415 0)
(0.00223301 -0.00671108 0)
(0.00151561 -0.00669869 0)
(0.000327216 -0.00701389 0)
(-0.00196011 -0.00830252 0)
(-0.0041453 -0.00972298 0)
(-0.00562827 -0.0102387 0)
(-0.00665542 -0.00997454 0)
(-0.00719169 -0.00915679 0)
(-0.00723275 -0.00792288 0)
(-0.006887 -0.00650531 0)
(-0.00640219 -0.00519548 0)
(-0.00612397 -0.00421158 0)
(-0.0062913 -0.00340809 0)
(-0.00683923 -0.00200161 0)
(-0.00705798 0.00125174 0)
(-0.00536613 0.00705812 0)
(-0.00190357 0.0122558 0)
(0.000149527 0.0125515 0)
(0.00104941 0.0107975 0)
(0.00122584 0.00825148 0)
(0.000203138 0.00335304 0)
(0.00151412 -0.00635112 0)
(-0.00201655 0.0137012 0)
(0.00233689 0.00166978 0)
(0.0057163 0.00991495 0)
(0.00688945 0.0114789 0)
(0.00660149 0.0100976 0)
(0.00535681 0.00780014 0)
(0.00404543 0.00585305 0)
(0.00334823 0.00458932 0)
(0.00328294 0.00366003 0)
(0.00351757 0.00269994 0)
(0.00382126 0.00156091 0)
(0.00408735 0.000167603 0)
(0.00446986 -0.00147223 0)
(0.00472264 -0.00304836 0)
(0.00479764 -0.00436499 0)
(0.00470266 -0.00536055 0)
(0.00442161 -0.00601974 0)
(0.00394787 -0.00636618 0)
(0.00328873 -0.00643807 0)
(0.00243226 -0.00632177 0)
(0.00133901 -0.00631168 0)
(-0.000964414 -0.0073551 0)
(-0.00358583 -0.00892842 0)
(-0.00536046 -0.00968736 0)
(-0.00660651 -0.00962308 0)
(-0.00733 -0.00901092 0)
(-0.00750666 -0.0079672 0)
(-0.00722233 -0.00667933 0)
(-0.00668365 -0.00538472 0)
(-0.00624954 -0.00428197 0)
(-0.00627845 -0.00330763 0)
(-0.00679599 -0.00185601 0)
(-0.00719003 0.00108874 0)
(-0.00609156 0.0060947 0)
(-0.00287717 0.0110684 0)
(-0.000586777 0.0119397 0)
(0.000387782 0.010572 0)
(0.000522493 0.00843162 0)
(-7.85631e-05 0.00309922 0)
(0.0015185 -0.00595565 0)
(-0.00154075 0.0136604 0)
(0.00168316 0.000188725 0)
(0.00533745 0.00895251 0)
(0.00694345 0.0111703 0)
(0.00725762 0.0103075 0)
(0.00655155 0.00825293 0)
(0.00552079 0.00626084 0)
(0.00478053 0.0047748 0)
(0.00456031 0.00364439 0)
(0.00471763 0.00258375 0)
(0.00504215 0.00141264 0)
(0.00541367 8.21993e-06 0)
(0.00593396 -0.00159386 0)
(0.0062553 -0.00311245 0)
(0.0063187 -0.00435832 0)
(0.00614781 -0.0052709 0)
(0.00575507 -0.00584707 0)
(0.00515215 -0.00611428 0)
(0.00435733 -0.00611089 0)
(0.00337293 -0.00590989 0)
(0.00221947 -0.00567723 0)
(0.000210309 -0.00631789 0)
(-0.00287139 -0.00798246 0)
(-0.00499121 -0.00902642 0)
(-0.00647337 -0.00918356 0)
(-0.00742114 -0.00879076 0)
(-0.00779051 -0.00795704 0)
(-0.00765452 -0.00683119 0)
(-0.00717521 -0.00560053 0)
(-0.0066621 -0.00441924 0)
(-0.00650983 -0.00325875 0)
(-0.00686589 -0.00169065 0)
(-0.00727637 0.00103766 0)
(-0.00657947 0.00534728 0)
(-0.00383674 0.00991762 0)
(-0.00139836 0.0112627 0)
(-0.000346479 0.0103337 0)
(-0.000241828 0.00850596 0)
(-0.000134081 0.00271799 0)
(0.00144247 -0.00557965 0)
(-0.000962731 0.0135924 0)
(0.00114665 -0.000847764 0)
(0.00475937 0.00775828 0)
(0.00685988 0.0106546 0)
(0.00773201 0.0102894 0)
(0.00757217 0.00851926 0)
(0.00694039 0.00658529 0)
(0.00634578 0.00497686 0)
(0.00608997 0.00367687 0)
(0.00618937 0.00249248 0)
(0.00651427 0.00125234 0)
(0.00700064 -0.000179769 0)
(0.00753229 -0.00173658 0)
(0.00783437 -0.00317431 0)
(0.00783772 -0.00432569 0)
(0.00756927 -0.00514064 0)
(0.00705789 -0.00562551 0)
(0.00632856 -0.00581044 0)
(0.00540795 -0.00573338 0)
(0.00431433 -0.00545556 0)
(0.00304889 -0.00508629 0)
(0.0014083 -0.00527296 0)
(-0.00195519 -0.0068874 0)
(-0.00450498 -0.00824019 0)
(-0.00623451 -0.0086452 0)
(-0.00743403 -0.00847881 0)
(-0.00804311 -0.00786416 0)
(-0.00813175 -0.00691689 0)
(-0.00783379 -0.0057843 0)
(-0.00739431 -0.00457559 0)
(-0.00715237 -0.00326291 0)
(-0.00730783 -0.00155401 0)
(-0.00757269 0.00103862 0)
(-0.00703618 0.00478493 0)
(-0.00478601 0.00887119 0)
(-0.00234343 0.0105548 0)
(-0.00116481 0.0100499 0)
(-0.000988035 0.00846727 0)
(5.00821e-05 0.00212894 0)
(0.00128654 -0.00518178 0)
(-0.000358763 0.0134579 0)
(0.00073193 -0.00156745 0)
(0.00401304 0.00638453 0)
(0.00667119 0.00996497 0)
(0.00802509 0.0100505 0)
(0.00839016 0.0085843 0)
(0.00821009 0.00677619 0)
(0.00789023 0.00512765 0)
(0.00773709 0.00371077 0)
(0.00785603 0.00241114 0)
(0.00819551 0.00108526 0)
(0.00873289 -0.000371727 0)
(0.00919595 -0.00186779 0)
(0.009403 -0.00320804 0)
(0.00930162 -0.00425278 0)
(0.00891694 -0.00496382 0)
(0.00828409 -0.00535478 0)
(0.00743564 -0.00545804 0)
(0.00640414 -0.00531109 0)
(0.00521921 -0.00496539 0)
(0.00386899 -0.00451575 0)
(0.0024496 -0.00430944 0)
(-0.000767904 -0.00565926 0)
(-0.00387138 -0.0073072 0)
(-0.00586494 -0.00799981 0)
(-0.00732791 -0.00806381 0)
(-0.00820499 -0.00766909 0)
(-0.00856385 -0.00690464 0)
(-0.00852552 -0.0058871 0)
(-0.00828331 -0.00469255 0)
(-0.00808872 -0.00328988 0)
(-0.00809914 -0.00148183 0)
(-0.00813778 0.00101277 0)
(-0.00759367 0.00433161 0)
(-0.00573268 0.00795098 0)
(-0.00340557 0.0098349 0)
(-0.00203387 0.0096891 0)
(-0.00163704 0.00824781 0)
(0.000525627 0.00137404 0)
(0.00106724 -0.00472327 0)
(0.000204639 0.0132403 0)
(0.000426335 -0.00197285 0)
(0.00309183 0.00491212 0)
(0.00637944 0.009132 0)
(0.00812885 0.00960421 0)
(0.00898362 0.0084502 0)