/*--------------------------------*- C++ -*----------------------------------*\
| =========                 |                                                 |
| \\      /  F ield         | OpenFOAM: The Open Source CFD Toolbox           |
|  \\    /   O peration     | Version:  4.1                                   |
|   \\  /    A nd           | Web:      www.OpenFOAM.org                      |
|    \\/     M anipulation  |                                                 |
\*---------------------------------------------------------------------------*/
FoamFile
{
    version     2.0;
    format      ascii;
    class       surfaceScalarField;
    location    "50";
    object      phi;
}
// * * * * * * * * * * * * * * * * * * * * * * * * * * * * * * * * * * * * * //

dimensions      [0 3 -1 0 0 0 0];

internalField   nonuniform List<scalar> 
760
(
-3.27127e-11
3.2687e-11
-1.86605e-11
-1.40564e-11
-7.96633e-12
-1.0693e-11
-4.46642e-12
-3.49711e-12
-1.59144e-12
-2.87482e-12
-2.48236e-13
-1.34144e-12
1.32437e-12
-1.57323e-12
1.75916e-12
-4.33801e-13
1.54364e-12
2.12678e-13
5.43136e-13
9.98306e-13
-5.69635e-13
1.11206e-12
-1.13269e-12
5.62422e-13
-1.15599e-12
2.22635e-14
-1.08536e-12
-7.1699e-14
-1.07931e-12
-7.22124e-15
-8.20914e-13
-2.5986e-13
-6.105e-13
-2.1149e-13
1.67292e-13
-7.77829e-13
1.85982e-12
-1.69159e-12
1.86027e-12
1.10156e-11
2.16689e-11
4.31973e-12
-7.3586e-12
8.68928e-14
-6.45993e-12
-3.36326e-13
-3.07407e-12
-4.06348e-14
-3.16955e-12
1.02738e-12
-2.40925e-12
1.04456e-12
-1.5928e-12
1.16421e-12
-5.55532e-13
4.4169e-13
9.3222e-13
-2.30909e-13
1.66858e-12
-4.8924e-13
1.36888e-12
-6.69349e-13
7.41138e-13
-7.42929e-13
9.45142e-14
-6.02305e-13
-2.12899e-13
-5.15308e-13
-9.46032e-14
-5.17467e-13
-2.59326e-13
-6.25976e-13
-1.05219e-13
-6.52117e-13
-7.55552e-13
2.38799e-13
-2.58791e-12
2.10369e-12
1.07376e-11
1.09368e-11
5.70145e-12
-2.3205e-12
1.30514e-12
-2.06216e-12
5.8721e-13
-2.35299e-12
4.66096e-13
-3.04643e-12
9.48765e-13
-2.89063e-12
8.55304e-13
-1.49678e-12
1.38115e-13
1.61037e-13
-4.10722e-13
1.48194e-12
-3.84655e-13
1.64449e-12
-2.37137e-13
1.22322e-12
-3.82413e-13
8.88044e-13
-6.70121e-13
3.83623e-13
-5.85634e-13
-2.96102e-13
-2.68563e-13
-4.10063e-13
1.22484e-14
-5.3793e-13
1.96591e-13
-2.86587e-13
-5.44605e-13
-1.22229e-14
-1.14999e-12
-1.9854e-12
9.54485e-13
4.66199e-12
6.27512e-12
3.69737e-12
-1.35625e-12
2.28187e-12
-6.46904e-13
1.67113e-12
-1.74014e-12
9.68401e-13
-2.34454e-12
1.49418e-13
-2.07525e-12
1.30006e-15
-1.34974e-12
-5.55769e-13
7.17275e-13
-6.93419e-13
1.61967e-12
-4.00968e-13
1.35225e-12
-2.00238e-13
1.02244e-12
-2.26853e-13
9.1488e-13
-4.5901e-13
6.15823e-13
-5.27556e-13
-2.28782e-13
-3.71699e-13
-5.67386e-13
2.86799e-14
-9.39446e-13
6.51809e-13
-9.10014e-13
2.9415e-13
3.47721e-13
-6.56921e-13
-1.03486e-12
2.97772e-13
2.19795e-12
4.07461e-12
2.02197e-12
-1.18228e-12
2.00156e-12
-6.25734e-13
1.66187e-12
-1.3993e-12
7.75441e-13
-1.45755e-12
-1.25485e-13
-1.1737e-12
-1.04477e-12
-4.3326e-13
-1.03742e-12
7.09956e-13
-5.75557e-13
1.15878e-12
-4.39199e-13
1.21619e-12
-4.40742e-13
1.0237e-12
-2.47645e-13
7.21614e-13
-1.04109e-13
4.71996e-13
-1.50307e-13
-1.8393e-13
-1.40886e-13
-5.78171e-13
-4.05584e-14
-1.04151e-12
2.55786e-13
-1.20709e-12
2.80738e-13
3.23607e-13
-3.62451e-13
-3.91316e-13
-6.42054e-14
1.18423e-12
2.89238e-12
1.18724e-12
-1.18452e-12
1.34082e-12
-7.78791e-13
8.07345e-13
-8.65738e-13
8.92497e-14
-7.4029e-13
-2.42365e-13
-8.40677e-13
-1.11103e-12
4.35928e-13
-9.5498e-13
5.54973e-13
-3.80487e-13
5.85449e-13
-3.50382e-13
1.18716e-12
-5.23953e-13
1.198e-12
-3.30635e-13
5.28319e-13
-2.46712e-14
1.65762e-13
8.93358e-14
-2.9817e-13
2.55854e-13
-7.45005e-13
1.77202e-14
-8.03452e-13
-2.28869e-13
-9.61202e-13
-2.5804e-13
3.53579e-13
-3.53243e-13
-2.95548e-13
-4.17184e-13
1.05475e-12
1.83969e-12
8.82245e-13
-1.01116e-12
6.40024e-13
-5.35785e-13
3.50471e-13
-5.74787e-13
-9.04595e-14
-2.98775e-13
-7.17106e-13
-2.16138e-13
-6.37989e-13
3.58432e-13
-5.26803e-13
4.4455e-13
-4.29088e-13
4.8755e-13
-3.50149e-13
1.1085e-12
-3.73136e-13
1.22126e-12
-3.31616e-13
4.85559e-13
-2.59862e-13
9.21477e-14
-1.63114e-13
-3.96483e-13
1.46331e-13
-1.0547e-12
-1.49798e-13
-5.06231e-13
-5.30383e-13
-5.79424e-13
-4.46096e-13
2.70846e-13
-1.86131e-13
-5.55042e-13
-6.0302e-13
6.37811e-13
1.20358e-12
4.38262e-13
-8.12864e-13
2.78924e-13
-3.77414e-13
1.77147e-13
-4.74187e-13
-1.88081e-14
-1.02133e-13
-6.5358e-13
4.17999e-13
-3.00833e-13
6.52292e-15
-3.49704e-13
4.94181e-13
-7.49987e-13
8.88134e-13
-6.39964e-13
9.99278e-13
-4.09349e-13
9.91698e-13
-3.55581e-13
4.32031e-13
-2.71157e-13
8.31879e-15
-3.89743e-13
-2.77857e-13
-1.77247e-13
-1.26735e-12
-3.12769e-13
-3.69101e-13
-4.68508e-13
-4.22611e-13
-2.0413e-13
7.81927e-15
1.2915e-13
-8.87535e-13
-4.73389e-13
4.9706e-13
7.08614e-13
4.03919e-13
-7.1932e-13
4.65153e-13
-4.37627e-13
1.46612e-13
-1.55558e-13
-2.75705e-13
3.19363e-13
-2.39436e-13
3.83964e-13
-2.74373e-13
4.16604e-14
-5.37679e-13
7.58364e-13
-8.93674e-13
1.2452e-12
-8.35435e-13
9.41506e-13
-6.034e-13
7.59463e-13
-5.94118e-13
4.22083e-13
-1.58357e-13
-4.27997e-13
1.76953e-15
-4.36293e-13
2.9801e-14
-1.29455e-12
-1.13231e-13
-2.24718e-13
-1.53712e-13
-3.81417e-13
2.23277e-13
-3.68005e-13
4.54872e-13
-1.1181e-12
-1.80826e-14
5.16662e-13
1.9111e-13
4.15785e-13
-6.20473e-13
2.57353e-13
-2.80878e-13
-1.87107e-15
1.03779e-13
-3.21575e-13
6.38599e-13
-1.61497e-13
2.24641e-13
-6.63345e-13
5.42942e-13
-7.92127e-13
8.87792e-13
-6.64022e-13
1.11869e-12
-6.54731e-13
9.32955e-13
-5.83898e-13
6.88208e-13
-5.97668e-13
4.35623e-13
-1.17237e-13
-9.09225e-13
3.42732e-13
-8.96016e-13
4.33204e-13
-1.3847e-12
3.54595e-13
-1.44835e-13
3.81096e-13
-4.07183e-13
6.56366e-13
-6.42368e-13
5.96634e-13
-1.05739e-12
5.78845e-13
3.60612e-13
-1.70062e-13
2.97597e-13
-5.57275e-13
-9.71709e-14
1.13467e-13
-3.56221e-13
3.61898e-13
-6.70584e-14
3.5076e-13
-2.99429e-13
4.5628e-13
-8.88069e-13
1.13147e-12
-8.22391e-13
8.217e-13
-5.95282e-13
8.91149e-13
-5.68614e-13
9.05679e-13
-4.35566e-13
5.55068e-13
-1.31685e-13
1.31546e-13
1.67046e-13
-1.20843e-12
5.56795e-13
-1.28569e-12
7.50036e-13
-1.57787e-12
8.75385e-13
-2.69221e-13
8.17652e-13
-3.48932e-13
7.83983e-13
-6.08086e-13
4.82731e-13
-7.55303e-13
1.06173e-12
4.90065e-14
-2.20581e-13
-8.754e-14
-4.22305e-13
-1.77718e-13
2.0358e-13
-3.51759e-13
5.34658e-13
-1.90829e-13
1.89043e-13
-6.06093e-13
8.70553e-13
-5.16386e-13
1.04325e-12
-3.24561e-13
6.31052e-13
-3.35865e-13
9.03023e-13
-5.50298e-13
1.11915e-12
-2.67982e-13
2.71702e-13
2.56642e-13
-3.93071e-13
6.0431e-13
-1.55607e-12
8.66253e-13
-1.54737e-12
9.90728e-13
-1.7025e-12
1.13095e-12
-4.08802e-13
9.21187e-13
-1.38579e-13
6.21608e-13
-3.07917e-13
2.38638e-13
-3.71772e-13
1.30032e-12
-1.45315e-14
-2.05594e-13
-3.33041e-13
-1.0437e-13
-2.97676e-13
1.67566e-13
-1.27792e-13
3.6601e-13
-5.55622e-13
6.16242e-13
-5.86294e-13
9.02019e-13
-8.09787e-14
5.3862e-13
-1.17185e-14
5.61084e-13
-3.95255e-14
9.30413e-13
-1.14129e-13
1.1945e-12
1.86691e-13
-2.95277e-14
6.87958e-13
-8.9426e-13
9.8079e-13
-1.84893e-12
1.05562e-12
-1.62188e-12
9.92927e-13
-1.63982e-12
1.02823e-12
-4.43325e-13
7.62466e-13
1.28081e-13
3.74139e-13
8.09542e-14
1.23355e-14
-9.82293e-15
1.31241e-12
-3.47994e-14
-1.7158e-13
-2.28839e-13
8.93971e-14
-3.72395e-13
3.09841e-13
-3.21065e-13
3.14231e-13
-6.8069e-13
9.75584e-13
-8.57818e-14
3.0825e-13
3.81251e-13
7.20358e-14
2.82043e-14
9.14094e-13
1.66649e-13
7.90855e-13
5.65077e-13
7.9644e-13
8.27527e-13
-2.92346e-13
9.97926e-13
-1.06493e-12
1.00743e-12
-1.8585e-12
9.86077e-13
-1.59974e-12
8.48474e-13
-1.50154e-12
7.78234e-13
-3.72045e-13
4.9338e-13
4.13776e-13
1.07149e-13
4.67345e-13
-2.21557e-13
3.18565e-13
1.09055e-12
-2.60984e-13
8.83607e-14
-4.86874e-13
3.14457e-13
-4.13879e-13
2.37612e-13
-5.66837e-13
4.66929e-13
-2.26219e-13
6.36478e-13
2.98335e-13
-2.16437e-13
3.89196e-13
-2.02805e-14
3.24238e-13
9.78869e-13
5.55148e-13
5.59145e-13
1.08123e-12
2.6973e-13
1.10144e-12
-3.12964e-13
1.02524e-12
-9.88691e-13
8.72872e-13
-1.70564e-12
8.01058e-13
-1.52676e-12
6.09709e-13
-1.30925e-12
4.44932e-13
-2.0642e-13
1.6405e-13
6.95064e-13
-1.50336e-13
7.81434e-13
-3.83718e-13
5.51352e-13
7.06535e-13
-3.21537e-13
4.10274e-13
-5.40917e-13
5.33788e-13
-3.44099e-13
4.07124e-14
-1.88343e-13
3.11129e-13
5.27357e-13
-7.82884e-14
4.56128e-13
-1.45969e-13
7.586e-14
3.58462e-13
5.7365e-13
4.8061e-13
1.00661e-12
1.26388e-13
1.34759e-12
-7.16993e-14
1.04343e-12
-9.01016e-15
8.0161e-13
-7.46667e-13
7.02604e-13
-1.60576e-12
5.59736e-13
-1.38258e-12
2.36282e-13
-9.85104e-13
1.22029e-15
2.88731e-14
-1.66995e-13
8.63118e-13
-3.12597e-13
9.26422e-13
-4.07525e-13
6.45591e-13
2.98704e-13
-1.09971e-13
5.20074e-13
-1.01592e-13
5.25737e-13
-1.6074e-13
9.87981e-14
1.64889e-13
-1.3871e-14
5.60854e-13
-4.74739e-13
3.3608e-13
7.87892e-14
1.34917e-13
5.60341e-13
7.82739e-13
-1.67494e-13
1.11243e-12
-2.03385e-13
1.25312e-12
-2.12684e-13
8.98056e-13
3.46618e-13
5.05679e-13
-3.53809e-13
3.39492e-13
-1.43893e-12
1.75718e-13
-1.21778e-12
-1.9067e-13
-6.1836e-13
-4.06237e-13
2.44059e-13
-3.97952e-13
8.5409e-13
-3.376e-13
8.65202e-13
-3.02701e-13
6.09941e-13
-4.33953e-15
1.78437e-13
3.41299e-13
1.68486e-13
5.36136e-13
1.65192e-13
1.02508e-13
3.23757e-13
-1.72284e-13
1.36234e-13
-2.87988e-13
1.81028e-13
3.43727e-14
5.52036e-13
1.91225e-13
9.52105e-13
-5.66945e-13
8.19828e-13
-7.12313e-14
6.44719e-13
-3.82939e-14
5.80513e-13
4.11755e-13
3.15389e-13
-8.74699e-14
-1.42129e-14
-1.10876e-12
-2.59709e-13
-9.71874e-13
-5.59559e-13
-3.18676e-13
-6.53144e-13
3.36753e-13
-4.90503e-13
6.90263e-13
-2.8708e-13
6.6071e-13
-1.67742e-13
4.8981e-13
-1.72436e-13
1.91395e-13
1.49888e-13
3.74175e-13
3.54119e-13
5.30307e-13
-5.30557e-14
4.14678e-13
-5.6602e-14
1.32612e-13
-5.42294e-15
2.63045e-13
-9.50593e-14
6.00372e-13
-1.45e-13
4.81146e-13
-4.4738e-13
2.72616e-13
1.37938e-13
7.38174e-14
1.60407e-13
2.70033e-13
2.16427e-13
2.37257e-13
-5.32577e-14
-2.48012e-13
-6.22909e-13
-6.77379e-13
-5.42713e-13
-8.88847e-13
-1.07997e-13
-8.08728e-13
2.55365e-13
-5.0972e-13
3.89914e-13
-2.10204e-13
3.60113e-13
-1.24259e-14
2.91264e-13
-1.85205e-13
1.49219e-13
5.02948e-13
4.49521e-13
3.93364e-13
3.8891e-13
2.94577e-13
1.4979e-13
-2.97948e-13
-1.59439e-13
1.59858e-15
2.18464e-13
1.65594e-13
-4.57391e-13
-1.00069e-12
-1.10949e-12
-8.54892e-13
-4.65549e-13
-1.05793e-13
1.85204e-13
)
;

boundaryField
{
    floor
    {
        type            calculated;
        value           uniform 0;
    }
    ceiling
    {
        type            calculated;
        value           nonuniform List<scalar> 
20
(
0
0
0
0
0
-2.01948e-28
0
0
0
0
0
0
0
0
0
0
0
0
0
9.86076e-32
)
;
    }
    fixedWalls
    {
        type            calculated;
        value           uniform 0;
    }
    frontAndBack
    {
        type            empty;
        value           nonuniform 0();
    }
}


// ************************************************************************* //
