/*--------------------------------*- C++ -*----------------------------------*\
| =========                 |                                                 |
| \\      /  F ield         | OpenFOAM: The Open Source CFD Toolbox           |
|  \\    /   O peration     | Version:  4.1                                   |
|   \\  /    A nd           | Web:      www.OpenFOAM.org                      |
|    \\/     M anipulation  |                                                 |
\*---------------------------------------------------------------------------*/
FoamFile
{
    version     2.0;
    format      ascii;
    class       volVectorField;
    location    "50";
    object      U;
}
// * * * * * * * * * * * * * * * * * * * * * * * * * * * * * * * * * * * * * //

dimensions      [0 1 -1 0 0 0 0];

internalField   nonuniform List<vector> 
400
(
(-5.53708e-09 5.33618e-09 0)
(-6.35322e-09 -2.44842e-09 0)
(-1.72966e-09 -1.77013e-09 0)
(-1.32203e-09 -5.24187e-10 0)
(-5.02562e-10 -3.97188e-10 0)
(-1.94461e-10 -1.48817e-10 0)
(1.19076e-10 -2.14813e-10 0)
(3.63036e-10 -4.12276e-11 0)
(3.49161e-10 -1.06052e-11 0)
(2.4311e-10 9.7138e-11 0)
(-1.68178e-11 1.35553e-10 0)
(-1.97082e-10 6.89467e-11 0)
(-2.3981e-10 2.86126e-12 0)
(-2.26663e-10 -4.37672e-12 0)
(-2.22297e-10 -1.50562e-12 0)
(-1.99633e-10 -3.92866e-11 0)
(-1.11139e-10 -3.79499e-11 0)
(-1.60945e-10 -9.34183e-11 0)
(2.54428e-10 -1.77026e-10 0)
(3.89981e-10 2.23188e-10 0)
(2.07151e-09 6.65496e-09 0)
(1.93006e-09 -2.66918e-09 0)
(-6.53756e-12 -2.14149e-09 0)
(2.96471e-11 -7.77184e-10 0)
(-1.48777e-10 -6.825e-10 0)
(1.38559e-10 -3.87726e-10 0)
(2.28492e-10 -3.68574e-10 0)
(2.24487e-10 -1.34867e-10 0)
(2.02184e-10 9.88952e-11 0)
(-5.2087e-12 2.84205e-10 0)
(-8.54469e-11 2.80794e-10 0)
(-1.1628e-10 1.44267e-10 0)
(-1.4668e-10 4.43645e-12 0)
(-1.40799e-10 -2.56396e-11 0)
(-1.0947e-10 3.37649e-13 0)
(-1.03839e-10 -5.29007e-11 0)
(-8.99885e-11 -3.68603e-11 0)
(-1.84993e-10 -2.00616e-10 0)
(-3.84784e-11 -4.80884e-10 0)
(1.12512e-10 4.76862e-10 0)
(1.83892e-09 2.52757e-09 0)
(2.05913e-09 -5.1328e-10 0)
(3.90892e-10 -5.96495e-10 0)
(1.78596e-10 -5.02282e-10 0)
(4.07414e-11 -6.11952e-10 0)
(1.61674e-10 -5.66223e-10 0)
(2.03547e-10 -2.97833e-10 0)
(1.11876e-10 -6.44147e-11 0)
(-4.56265e-11 2.56834e-10 0)
(-1.06602e-10 3.5508e-10 0)
(-5.422e-11 2.65755e-10 0)
(-4.87659e-11 1.62416e-10 0)
(-1.12854e-10 4.01336e-11 0)
(-1.42456e-10 -5.47349e-11 0)
(-7.99381e-11 -4.575e-11 0)
(-3.65501e-11 -6.46552e-11 0)
(4.49812e-11 -1.15795e-11 0)
(1.77413e-11 -7.61562e-11 0)
(-2.33722e-10 -5.01075e-10 0)
(-1.85099e-10 3.1866e-10 0)
(7.14155e-10 1.72743e-09 0)
(1.00404e-09 -3.78595e-10 0)
(5.34893e-10 -2.28962e-10 0)
(3.90462e-10 -4.06109e-10 0)
(2.87998e-10 -5.63302e-10 0)
(6.93219e-11 -5.39422e-10 0)
(8.13814e-12 -3.02356e-10 0)
(-1.2121e-11 1.17195e-10 0)
(-1.8079e-10 3.25266e-10 0)
(-1.14136e-10 3.02456e-10 0)
(-5.03238e-11 2.21169e-10 0)
(-3.27553e-11 1.85355e-10 0)
(-6.87086e-11 1.11276e-10 0)
(-1.05302e-10 -5.63153e-11 0)
(-9.46063e-11 -1.06588e-10 0)
(-5.29954e-11 -1.52683e-10 0)
(6.93603e-11 -1.15218e-10 0)
(1.6922e-10 6.87135e-11 0)
(-6.99206e-11 -2.97132e-10 0)
(-1.57136e-10 9.33805e-11 0)
(3.32629e-10 9.10863e-10 0)
(4.85086e-10 -2.04063e-10 0)
(3.68939e-10 -6.51652e-11 0)
(3.87492e-10 -3.06235e-10 0)
(2.60831e-10 -3.79889e-10 0)
(7.36702e-11 -3.05244e-10 0)
(-1.36129e-10 -2.09135e-10 0)
(-2.40852e-10 1.59692e-10 0)
(-1.67169e-10 2.986e-10 0)
(-8.30484e-11 2.5371e-10 0)
(-8.98266e-11 1.98984e-10 0)
(-7.79861e-11 1.69802e-10 0)
(-2.60902e-11 1.22919e-10 0)
(-1.97067e-11 -3.79359e-11 0)
(-3.44884e-11 -1.14052e-10 0)
(-2.03221e-11 -2.10602e-10 0)
(5.93303e-12 -2.32254e-10 0)
(1.05171e-10 6.76655e-11 0)
(-1.44081e-11 -1.2305e-10 0)
(-1.05445e-10 2.36745e-11 0)
(1.67047e-10 6.83029e-10 0)
(2.65021e-10 -2.45435e-10 0)
(2.43367e-10 -1.61534e-10 0)
(2.58787e-10 -2.32897e-10 0)
(4.62682e-11 -2.17939e-10 0)
(1.15837e-12 -1.88004e-10 0)
(-1.16545e-10 3.12071e-11 0)
(-2.84027e-10 1.28892e-10 0)
(-1.15964e-10 1.67506e-10 0)
(-4.89554e-11 2.37957e-10 0)
(-9.75799e-11 2.22025e-10 0)
(-1.02982e-10 1.23452e-10 0)
(-1.85651e-11 5.7521e-11 0)
(5.01267e-12 -4.34736e-11 0)
(4.0337e-11 -1.28615e-10 0)
(4.68783e-11 -1.91915e-10 0)
(-3.80748e-11 -2.29152e-10 0)
(-4.54013e-11 6.79283e-11 0)
(-7.03568e-11 -4.55794e-11 0)
(-5.48149e-11 -5.12572e-11 0)
(1.40356e-10 4.6306e-10 0)
(2.35853e-10 -2.1782e-10 0)
(1.44179e-10 -1.38226e-10 0)
(1.05754e-10 -1.30842e-10 0)
(4.6461e-11 -8.82881e-11 0)
(-9.30048e-11 -1.28084e-10 0)
(-1.57207e-10 1.23212e-10 0)
(-1.22833e-10 9.97958e-11 0)
(-8.78398e-11 8.24264e-11 0)
(-7.56298e-11 2.2882e-10 0)
(-7.47649e-11 2.48913e-10 0)
(-7.33484e-11 9.76287e-11 0)
(-4.99452e-11 1.32335e-11 0)
(-6.32427e-11 -7.96397e-11 0)
(1.10458e-11 -1.79217e-10 0)
(3.36808e-11 -1.2776e-10 0)
(-8.70504e-11 -1.48003e-10 0)
(-1.14101e-10 6.99317e-11 0)
(-6.15287e-11 -7.86977e-11 0)
(-1.07842e-11 -1.1174e-10 0)
(9.16348e-11 2.9813e-10 0)
(1.28994e-10 -1.82959e-10 0)
(7.36216e-11 -8.4107e-11 0)
(1.83277e-11 -1.10464e-10 0)
(6.88928e-11 -3.81488e-11 0)
(-8.15738e-11 3.70895e-11 0)
(-1.39646e-10 2.68976e-11 0)
(-5.10417e-12 8.61227e-11 0)
(-1.23384e-10 1.24427e-10 0)
(-1.60037e-10 2.12497e-10 0)
(-9.72003e-11 2.26834e-10 0)
(-7.86681e-11 8.94739e-11 0)
(-4.86085e-11 2.73162e-11 0)
(-7.38315e-11 -6.72738e-11 0)
(-6.1289e-11 -2.34759e-10 0)
(-2.36207e-11 -8.19906e-11 0)
(-9.36669e-11 -9.20696e-11 0)
(-8.31777e-11 3.49539e-11 0)
(8.12827e-12 -1.47161e-10 0)
(3.54141e-11 -1.20241e-10 0)
(7.68317e-11 1.90241e-10 0)
(9.62905e-11 -1.52498e-10 0)
(8.94615e-11 -7.77113e-11 0)
(7.64147e-11 -6.73297e-11 0)
(-2.41904e-11 3.58659e-12 0)
(-6.71532e-11 1.14272e-10 0)
(-4.48175e-11 -2.18328e-11 0)
(-6.36458e-11 1.21963e-10 0)
(-1.56358e-10 2.26209e-10 0)
(-1.90961e-10 1.95957e-10 0)
(-1.27602e-10 1.70687e-10 0)
(-1.33739e-10 8.09965e-11 0)
(-7.67058e-11 -2.59794e-11 0)
(5.10283e-13 -5.39613e-11 0)
(1.9335e-12 -2.57053e-10 0)
(5.2859e-12 -5.87802e-11 0)
(-4.59603e-11 -7.92613e-11 0)
(-7.40536e-12 -3.34242e-11 0)
(9.40291e-11 -2.07051e-10 0)
(7.07883e-11 -6.01229e-11 0)
(7.31797e-11 9.06104e-11 0)
(1.17022e-10 -1.38709e-10 0)
(5.27529e-11 -8.84493e-11 0)
(5.97146e-11 2.4595e-13 0)
(-6.21407e-11 1.15446e-10 0)
(-4.34268e-11 5.10548e-11 0)
(-4.06612e-11 4.1109e-11 0)
(-1.90456e-10 1.68566e-10 0)
(-1.4647e-10 2.5073e-10 0)
(-1.2927e-10 1.87798e-10 0)
(-1.18831e-10 1.40124e-10 0)
(-1.29007e-10 9.32233e-11 0)
(-8.78729e-11 -1.37689e-10 0)
(3.4662e-11 -1.28053e-10 0)
(9.26035e-11 -2.66853e-10 0)
(7.71698e-11 -2.97391e-11 0)
(6.43919e-11 -7.92272e-11 0)
(1.00646e-10 -1.08991e-10 0)
(1.47858e-10 -2.26169e-10 0)
(7.64572e-11 5.40705e-11 0)
(4.8376e-11 -1.04061e-11 0)
(8.90529e-11 -1.17641e-10 0)
(2.35652e-11 -1.4023e-11 0)
(-7.00436e-11 4.30989e-11 0)
(-4.72075e-11 1.22884e-10 0)
(8.78347e-12 4.84601e-11 0)
(-1.22988e-10 1.82408e-10 0)
(-2.08644e-10 1.78345e-10 0)
(-1.35447e-10 1.9816e-10 0)
(-1.11107e-10 1.77027e-10 0)
(-1.07424e-10 1.29019e-10 0)
(-5.74056e-11 7.08852e-11 0)
(1.12088e-12 -2.13676e-10 0)
(7.13658e-11 -2.21181e-10 0)
(1.38795e-10 -2.96154e-10 0)
(1.65674e-10 -3.44179e-11 0)
(1.73052e-10 -8.07632e-11 0)
(1.64253e-10 -1.37158e-10 0)
(1.3549e-10 -1.85417e-10 0)
(5.35476e-11 1.70419e-10 0)
(2.82728e-11 -5.19485e-11 0)
(-1.43702e-11 -1.03977e-10 0)
(-1.176e-11 5.31185e-11 0)
(-7.28583e-11 9.92111e-11 0)
(-4.43739e-11 2.83801e-11 0)
(-5.18207e-11 1.31211e-10 0)
(-1.55728e-10 2.44035e-10 0)
(-7.56215e-11 1.51902e-10 0)
(-4.63877e-11 1.74758e-10 0)
(-9.66754e-11 1.96225e-10 0)
(-1.06513e-10 8.60686e-11 0)
(4.80649e-12 -2.16871e-11 0)
(9.07388e-11 -2.77109e-10 0)
(1.49351e-10 -2.87345e-10 0)
(1.87084e-10 -3.31603e-10 0)
(2.20002e-10 -7.1347e-11 0)
(2.14134e-10 -5.36532e-11 0)
(1.56368e-10 -9.70914e-11 0)
(8.31253e-11 -1.13028e-10 0)
(1.97493e-11 2.43318e-10 0)
(2.78488e-11 -3.96472e-11 0)
(-3.62602e-11 -5.28279e-11 0)
(-8.57649e-11 2.69648e-11 0)
(-2.00459e-11 1.01627e-10 0)
(-4.47712e-11 5.69122e-11 0)
(-1.56511e-10 2.01553e-10 0)
(-5.51153e-11 1.66815e-10 0)
(9.62889e-12 1.02371e-10 0)
(-1.01668e-11 1.83175e-10 0)
(-1.08411e-11 2.44728e-10 0)
(-2.53831e-11 2.36551e-11 0)
(9.44231e-11 -1.35246e-10 0)
(1.74014e-10 -3.4564e-10 0)
(2.08728e-10 -3.21543e-10 0)
(2.03828e-10 -3.3922e-10 0)
(2.07178e-10 -8.91115e-11 0)
(1.85919e-10 -1.28186e-12 0)
(1.17563e-10 -2.26166e-11 0)
(2.49102e-11 -3.74866e-11 0)
(-1.72237e-11 2.67162e-10 0)
(-1.82967e-13 -4.38373e-11 0)
(-1.25421e-11 3.85569e-12 0)
(-8.5738e-11 4.37232e-11 0)
(-4.6568e-11 5.52818e-11 0)
(-1.03194e-10 1.77423e-10 0)
(-1.32573e-10 1.41779e-10 0)
(8.84659e-11 5.65011e-11 0)
(4.43195e-11 1.37999e-10 0)
(-2.61495e-11 1.73517e-10 0)
(8.2806e-11 2.13953e-10 0)
(1.45557e-10 -3.63557e-11 0)
(1.86947e-10 -2.07273e-10 0)
(2.04491e-10 -3.78522e-10 0)
(2.0103e-10 -3.23949e-10 0)
(1.83293e-10 -3.14643e-10 0)
(1.65936e-10 -8.36691e-11 0)
(1.30835e-10 5.50406e-11 0)
(6.76232e-11 5.57226e-11 0)
(-2.84589e-11 3.25658e-11 0)
(-4.82219e-11 2.45637e-10 0)
(-2.74874e-11 -1.93784e-11 0)
(-8.39433e-11 3.57493e-11 0)
(-9.11288e-11 7.35028e-11 0)
(-9.54619e-11 7.84959e-11 0)
(-1.06805e-10 1.90823e-10 0)
(1.25192e-11 -1.27846e-11 0)
(9.41333e-11 -2.3601e-11 0)
(6.98154e-11 2.10217e-10 0)
(6.77671e-11 1.40955e-10 0)
(1.66126e-10 1.01988e-10 0)
(2.41843e-10 -7.37499e-11 0)
(2.13418e-10 -2.11401e-10 0)
(1.90082e-10 -3.58523e-10 0)
(1.66545e-10 -3.1274e-10 0)
(1.42004e-10 -2.81081e-10 0)
(1.08259e-10 -5.94755e-11 0)
(6.09198e-11 1.12627e-10 0)
(8.35327e-12 1.275e-10 0)
(-7.18227e-11 9.01702e-11 0)
(-6.67399e-11 1.82129e-10 0)
(-2.44275e-11 5.41998e-11 0)
(-1.13878e-10 9.17624e-11 0)
(-8.12028e-11 1.79496e-11 0)
(-7.43384e-11 9.25803e-11 0)
(1.61313e-11 5.62206e-11 0)
(1.65708e-10 -6.24913e-11 0)
(1.06194e-11 1.73765e-11 0)
(3.04844e-11 1.60844e-10 0)
(1.75091e-10 7.51947e-11 0)
(2.49177e-10 1.07425e-11 0)
(2.58354e-10 -4.36034e-11 0)
(1.77438e-10 -1.77582e-10 0)
(1.49028e-10 -3.29065e-10 0)
(1.3059e-10 -2.90711e-10 0)
(8.02347e-11 -2.3068e-10 0)
(2.00543e-11 -1.87437e-11 0)
(-1.96987e-11 1.59813e-10 0)
(-4.2781e-11 1.7604e-10 0)
(-8.67092e-11 1.23647e-10 0)
(-6.37024e-11 9.98012e-11 0)
(-1.78954e-11 1.03823e-10 0)
(-1.98995e-11 1.11898e-10 0)
(-2.87731e-11 1.45945e-12 0)
(-2.4232e-11 3.09453e-11 0)
(8.41729e-11 -8.2659e-11 0)
(1.25632e-10 1.04171e-12 0)
(2.04182e-12 1.16296e-10 0)
(6.53305e-11 2.88867e-11 0)
(2.16688e-10 -2.31224e-11 0)
(2.50206e-10 -3.96959e-11 0)
(2.28248e-10 4.04736e-11 0)
(1.32257e-10 -1.12731e-10 0)
(7.74958e-11 -3.05327e-10 0)
(6.19275e-11 -2.59371e-10 0)
(3.73623e-13 -1.60189e-10 0)
(-7.00573e-11 3.00036e-11 0)
(-8.50482e-11 1.76375e-10 0)
(-6.88656e-11 1.84338e-10 0)
(-7.11241e-11 1.28811e-10 0)
(-4.33134e-11 2.3054e-11 0)
(2.05898e-11 9.29347e-11 0)
(4.48531e-11 1.07041e-10 0)
(1.9279e-11 3.4568e-11 0)
(5.46692e-11 -3.47515e-11 0)
(5.822e-11 -9.67823e-11 0)
(7.55701e-12 2.44784e-11 0)
(6.36286e-11 9.42096e-11 0)
(1.63481e-10 -9.08679e-11 0)
(1.94009e-10 -4.84286e-11 0)
(1.44624e-10 -3.8376e-11 0)
(1.24693e-10 8.94278e-11 0)
(9.57016e-11 -3.18007e-11 0)
(2.38679e-11 -2.57889e-10 0)
(-2.76106e-11 -2.21533e-10 0)
(-8.31458e-11 -9.2207e-11 0)
(-1.30881e-10 6.27468e-11 0)
(-1.19373e-10 1.57589e-10 0)
(-7.4174e-11 1.55512e-10 0)
(-4.59738e-11 1.12946e-10 0)
(-2.05885e-11 -2.42137e-11 0)
(2.29262e-11 4.98135e-11 0)
(5.74974e-11 9.6643e-11 0)
(9.28637e-11 1.80723e-12 0)
(1.08241e-10 -2.87231e-11 0)
(4.95835e-11 -1.71257e-11 0)
(1.14302e-11 -1.18971e-11 0)
(9.80026e-11 -1.39136e-11 0)
(1.23643e-10 -1.21163e-10 0)
(8.25725e-11 1.88244e-11 0)
(1.70069e-11 2.45632e-11 0)
(1.89314e-11 6.89756e-11 0)
(7.91168e-11 -6.76896e-12 0)
(5.55606e-12 -1.77056e-10 0)
(-9.78265e-11 -1.56969e-10 0)
(-1.64608e-10 -3.92081e-11 0)
(-1.78213e-10 6.57051e-11 0)
(-1.35561e-10 1.11245e-10 0)
(-7.27403e-11 1.05648e-10 0)
(-1.44719e-11 8.29933e-11 0)
(7.48854e-12 -4.34265e-11 0)
(3.89246e-12 1.24223e-11 0)
(6.68218e-11 3.94401e-11 0)
(1.12566e-10 -1.90412e-11 0)
(7.95056e-11 1.59075e-12 0)
(8.26773e-11 1.38047e-11 0)
(5.86692e-11 -1.98155e-11 0)
(7.34796e-11 -3.59331e-11 0)
(-2.71083e-11 -5.25383e-11 0)
(-6.99045e-11 2.88467e-11 0)
(-6.05899e-12 3.18012e-11 0)
(7.81646e-12 2.28014e-11 0)
(7.13264e-11 -1.11032e-11 0)
(-1.45508e-11 -6.53137e-11 0)
(-1.58011e-10 -5.71418e-11 0)
(-2.2493e-10 -8.55237e-12 0)
(-2.04175e-10 2.98065e-11 0)
(-1.32482e-10 4.07726e-11 0)
(-6.27635e-11 3.83129e-11 0)
(2.33107e-11 3.17908e-11 0)
(4.17737e-11 -2.54342e-11 0)
)
;

boundaryField
{
    floor
    {
        type            noSlip;
    }
    ceiling
    {
        type            noSlip;
    }
    fixedWalls
    {
        type            noSlip;
    }
    frontAndBack
    {
        type            empty;
    }
}


// ************************************************************************* //
