/*--------------------------------*- C++ -*----------------------------------*\
| =========                 |                                                 |
| \\      /  F ield         | OpenFOAM: The Open Source CFD Toolbox           |
|  \\    /   O peration     | Version:  4.1                                   |
|   \\  /    A nd           | Web:      www.OpenFOAM.org                      |
|    \\/     M anipulation  |                                                 |
\*---------------------------------------------------------------------------*/
FoamFile
{
    version     2.0;
    format      ascii;
    class       volScalarField;
    location    "1900";
    object      T;
}
// * * * * * * * * * * * * * * * * * * * * * * * * * * * * * * * * * * * * * //

dimensions      [0 0 0 1 0 0 0];

internalField   nonuniform List<scalar> 
5000
(
286.598
286.139
285.713
285.758
285.885
286.054
286.286
286.56
286.98
287.992
288.733
288.588
288.458
288.343
288.238
288.138
288.042
287.949
287.858
287.767
287.677
287.586
287.495
287.404
287.33
287.27
287.223
287.187
287.163
287.151
287.15
287.163
287.19
287.229
287.278
287.331
287.382
287.423
287.452
287.475
287.504
287.546
287.605
287.679
287.768
287.871
287.991
288.129
288.286
288.453
288.634
288.827
289.027
289.219
289.387
289.515
289.592
289.615
289.591
289.533
289.457
289.372
289.288
289.208
289.135
289.069
289.013
288.966
288.927
288.897
288.874
288.854
288.838
288.824
288.813
288.803
288.79
288.761
288.699
288.583
288.404
288.174
287.919
287.675
287.481
287.382
287.428
287.647
287.912
288.201
288.448
288.311
287.866
287.468
287.01
286.621
286.213
286.146
286.517
287.002
286.196
285.456
285.282
285.249
285.308
285.382
285.476
285.805
286.617
287.683
287.354
286.73
286.343
286.081
285.885
285.727
285.596
285.485
285.393
285.32
285.266
285.232
285.218
285.22
285.221
285.221
285.219
285.217
285.213
285.209
285.204
285.199
285.193
285.186
285.179
285.172
285.165
285.159
285.152
285.146
285.139
285.133
285.127
285.121
285.116
285.112
285.109
285.106
285.105
285.105
285.106
285.108
285.11
285.113
285.116
285.119
285.121
285.123
285.123
285.123
285.122
285.12
285.118
285.116
285.113
285.111
285.108
285.105
285.103
285.101
285.098
285.096
285.094
285.092
285.09
285.088
285.086
285.083
285.08
285.075
285.07
285.064
285.057
285.052
285.054
285.071
285.136
285.343
285.91
286.757
287.467
287.363
286.285
285.411
285.308
285.318
285.339
285.341
285.333
286.385
286.059
285.464
285.242
285.178
285.239
285.343
285.471
285.803
286.671
287.338
286.588
286.002
285.698
285.527
285.423
285.358
285.318
285.297
285.288
285.288
285.293
285.301
285.308
285.313
285.316
285.317
285.316
285.314
285.31
285.305
285.299
285.292
285.283
285.274
285.263
285.252
285.241
285.229
285.218
285.205
285.193
285.18
285.167
285.154
285.141
285.129
285.116
285.105
285.094
285.085
285.076
285.068
285.062
285.056
285.052
285.048
285.045
285.042
285.04
285.039
285.037
285.036
285.034
285.033
285.032
285.031
285.029
285.028
285.026
285.025
285.024
285.022
285.02
285.019
285.017
285.015
285.014
285.012
285.01
285.008
285.005
285.003
285.001
285.001
285.005
285.022
285.074
285.22
285.596
286.271
286.927
286.9
286.139
285.517
285.339
285.346
285.373
285.377
285.348
286.192
285.983
285.471
285.22
285.137
285.186
285.318
285.494
285.877
286.752
286.968
286.127
285.667
285.466
285.375
285.335
285.323
285.325
285.336
285.351
285.366
285.38
285.391
285.398
285.402
285.406
285.408
285.409
285.409
285.407
285.404
285.4
285.394
285.386
285.377
285.367
285.355
285.342
285.328
285.314
285.299
285.284
285.267
285.249
285.232
285.215
285.198
285.181
285.164
285.148
285.133
285.119
285.106
285.094
285.083
285.074
285.066
285.059
285.053
285.049
285.045
285.041
285.038
285.036
285.034
285.032
285.03
285.029
285.027
285.025
285.024
285.022
285.02
285.018
285.016
285.014
285.012
285.01
285.008
285.006
285.003
285
284.997
284.995
284.994
284.997
285.012
285.059
285.183
285.48
286.022
286.578
286.615
286.099
285.597
285.393
285.381
285.408
285.412
285.383
286.096
285.932
285.464
285.21
285.113
285.143
285.295
285.521
285.957
286.786
286.638
285.839
285.499
285.375
285.334
285.33
285.341
285.36
285.38
285.399
285.414
285.425
285.431
285.434
285.437
285.442
285.447
285.453
285.457
285.461
285.464
285.464
285.463
285.459
285.454
285.446
285.437
285.424
285.411
285.397
285.382
285.365
285.347
285.329
285.31
285.29
285.27
285.249
285.229
285.209
285.19
285.171
285.153
285.136
285.121
285.107
285.095
285.083
285.074
285.065
285.058
285.052
285.047
285.042
285.039
285.035
285.033
285.03
285.028
285.026
285.024
285.022
285.02
285.017
285.015
285.013
285.011
285.008
285.006
285.003
285
284.997
284.993
284.99
284.988
284.99
285.003
285.046
285.158
285.411
285.86
286.331
286.417
286.073
285.661
285.444
285.415
285.438
285.444
285.424
286.042
285.896
285.445
285.206
285.098
285.11
285.265
285.538
286.022
286.78
286.37
285.656
285.409
285.336
285.325
285.338
285.36
285.383
285.403
285.418
285.427
285.429
285.426
285.424
285.426
285.432
285.442
285.453
285.464
285.474
285.483
285.49
285.495
285.497
285.497
285.494
285.489
285.481
285.472
285.46
285.446
285.431
285.414
285.395
285.375
285.354
285.333
285.311
285.288
285.266
285.244
285.222
285.201
285.181
285.162
285.144
285.127
285.112
285.099
285.087
285.077
285.067
285.059
285.052
285.047
285.042
285.037
285.033
285.03
285.027
285.024
285.022
285.019
285.017
285.014
285.012
285.009
285.006
285.003
285
284.997
284.993
284.989
284.985
284.982
284.983
284.994
285.032
285.134
285.355
285.737
286.143
286.267
286.049
285.721
285.502
285.449
285.467
285.478
285.461
286.014
285.883
285.44
285.201
285.087
285.09
285.231
285.537
286.061
286.73
286.196
285.552
285.356
285.316
285.321
285.343
285.369
285.394
285.412
285.423
285.424
285.416
285.407
285.401
285.401
285.408
285.422
285.437
285.453
285.469
285.483
285.495
285.505
285.512
285.517
285.519
285.518
285.515
285.509
285.5
285.489
285.476
285.46
285.443
285.424
285.403
285.382
285.359
285.336
285.313
285.289
285.266
285.243
285.221
285.199
285.179
285.16
285.142
285.125
285.11
285.096
285.084
285.074
285.064
285.056
285.049
285.043
285.038
285.033
285.029
285.025
285.022
285.018
285.015
285.013
285.01
285.007
285.003
285
284.997
284.993
284.989
284.985
284.981
284.977
284.976
284.984
285.017
285.108
285.304
285.634
285.991
286.144
286.023
285.773
285.569
285.49
285.494
285.513
285.498
286.007
285.887
285.45
285.192
285.076
285.079
285.202
285.517
286.07
286.649
286.103
285.516
285.332
285.304
285.317
285.341
285.369
285.394
285.413
285.425
285.426
285.414
285.399
285.389
285.387
285.396
285.41
285.429
285.449
285.468
285.486
285.501
285.514
285.523
285.53
285.534
285.535
285.534
285.53
285.524
285.514
285.503
285.489
285.473
285.455
285.435
285.414
285.392
285.369
285.346
285.322
285.298
285.275
285.252
285.229
285.208
285.187
285.167
285.148
285.131
285.115
285.101
285.088
285.076
285.066
285.057
285.049
285.042
285.036
285.031
285.026
285.022
285.018
285.014
285.01
285.007
285.003
285
284.996
284.993
284.989
284.984
284.98
284.975
284.971
284.969
284.974
285.001
285.08
285.253
285.541
285.861
286.035
285.991
285.814
285.637
285.544
285.529
285.545
285.533
286.015
285.893
285.454
285.175
285.063
285.076
285.19
285.486
286.051
286.551
286.073
285.535
285.331
285.297
285.309
285.334
285.359
285.383
285.401
285.414
285.418
285.41
285.395
285.384
285.385
285.397
285.416
285.439
285.462
285.484
285.502
285.518
285.53
285.539
285.545
285.548
285.549
285.547
285.543
285.536
285.527
285.515
285.502
285.486
285.469
285.45
285.43
285.408
285.386
285.363
285.34
285.317
285.294
285.272
285.249
285.227
285.206
285.186
285.166
285.148
285.131
285.115
285.1
285.087
285.075
285.064
285.055
285.046
285.039
285.032
285.026
285.021
285.016
285.011
285.007
285.003
284.999
284.995
284.991
284.987
284.983
284.978
284.974
284.969
284.964
284.961
284.963
284.984
285.05
285.202
285.455
285.745
285.934
285.95
285.838
285.697
285.603
285.574
285.576
285.564
286.029
285.899
285.425
285.145
285.048
285.08
285.202
285.459
286.013
286.45
286.073
285.596
285.359
285.298
285.301
285.32
285.341
285.361
285.376
285.386
285.387
285.378
285.371
285.375
285.391
285.414
285.442
285.469
285.494
285.516
285.532
285.545
285.553
285.559
285.561
285.56
285.558
285.553
285.546
285.537
285.527
285.514
285.5
285.484
285.467
285.448
285.429
285.408
285.387
285.365
285.343
285.322
285.3
285.279
285.258
285.237
285.216
285.197
285.177
285.159
285.141
285.124
285.109
285.094
285.081
285.069
285.059
285.049
285.04
285.032
285.025
285.019
285.013
285.008
285.003
284.998
284.993
284.989
284.984
284.98
284.975
284.971
284.966
284.961
284.957
284.953
284.953
284.967
285.021
285.15
285.373
285.638
285.836
285.899
285.845
285.743
285.658
285.62
285.613
285.593
286.044
285.901
285.368
285.107
285.034
285.089
285.236
285.451
285.972
286.357
286.082
285.678
285.426
285.323
285.3
285.305
285.318
285.33
285.338
285.341
285.338
285.343
285.361
285.39
285.425
285.46
285.493
285.521
285.542
285.558
285.568
285.573
285.574
285.572
285.568
285.562
285.554
285.545
285.534
285.523
285.51
285.496
285.481
285.464
285.447
285.429
285.41
285.39
285.371
285.351
285.331
285.311
285.292
285.273
285.254
285.235
285.217
285.198
285.18
285.163
285.146
285.129
285.114
285.099
285.085
285.072
285.061
285.05
285.041
285.032
285.024
285.016
285.01
285.003
284.997
284.992
284.986
284.981
284.976
284.971
284.966
284.961
284.957
284.952
284.947
284.943
284.942
284.95
284.992
285.1
285.294
285.537
285.74
285.84
285.835
285.771
285.703
285.662
285.649
285.619
286.056
285.893
285.291
285.068
285.024
285.102
285.278
285.475
285.946
286.277
286.089
285.766
285.525
285.394
285.335
285.314
285.308
285.306
285.304
285.311
285.337
285.376
285.42
285.466
285.506
285.54
285.565
285.582
285.591
285.594
285.591
285.585
285.575
285.564
285.552
285.539
285.526
285.512
285.498
285.484
285.47
285.455
285.439
285.423
285.407
285.39
285.373
285.355
285.338
285.321
285.304
285.287
285.271
285.255
285.239
285.223
285.207
285.191
285.176
285.16
285.144
285.129
285.114
285.099
285.086
285.073
285.061
285.05
285.039
285.03
285.021
285.013
285.005
284.997
284.99
284.984
284.977
284.971
284.965
284.96
284.955
284.95
284.945
284.94
284.936
284.931
284.929
284.935
284.965
285.052
285.22
285.442
285.646
285.773
285.808
285.781
285.733
285.695
285.676
285.644
286.062
285.868
285.206
285.038
285.021
285.116
285.313
285.561
285.941
286.215
286.092
285.846
285.641
285.508
285.431
285.39
285.369
285.358
285.375
285.413
285.46
285.508
285.551
285.585
285.61
285.624
285.628
285.624
285.613
285.598
285.58
285.56
285.54
285.52
285.5
285.482
285.465
285.448
285.432
285.417
285.403
285.388
285.374
285.36
285.346
285.331
285.317
285.303
285.29
285.276
285.263
285.251
285.238
285.226
285.214
285.202
285.189
285.177
285.164
285.151
285.137
285.124
285.11
285.097
285.084
285.071
285.059
285.048
285.037
285.027
285.017
285.007
284.998
284.99
284.981
284.974
284.966
284.959
284.953
284.947
284.942
284.936
284.932
284.927
284.923
284.919
284.917
284.92
284.942
285.01
285.151
285.352
285.554
285.701
285.77
285.775
285.748
285.719
285.696
285.663
286.059
285.825
285.13
285.023
285.021
285.117
285.327
285.647
285.953
286.168
286.09
285.915
285.756
285.643
285.572
285.532
285.514
285.526
285.559
285.597
285.633
285.66
285.677
285.682
285.676
285.66
285.636
285.608
285.577
285.545
285.514
285.484
285.456
285.431
285.408
285.388
285.37
285.354
285.339
285.326
285.313
285.302
285.291
285.28
285.27
285.26
285.25
285.24
285.231
285.222
285.214
285.206
285.198
285.19
285.182
285.174
285.166
285.157
285.147
285.137
285.126
285.115
285.103
285.091
285.079
285.067
285.055
285.044
285.033
285.022
285.011
285
284.99
284.98
284.97
284.962
284.954
284.946
284.94
284.933
284.928
284.923
284.918
284.913
284.91
284.906
284.904
284.906
284.922
284.974
285.09
285.27
285.466
285.626
285.721
285.756
285.751
285.732
285.71
285.673
286.049
285.758
285.082
285.021
285.01
285.087
285.28
285.562
285.979
286.134
286.084
285.968
285.857
285.775
285.723
285.697
285.695
285.715
285.737
285.752
285.757
285.748
285.726
285.693
285.653
285.608
285.561
285.514
285.47
285.429
285.393
285.361
285.333
285.309
285.288
285.271
285.257
285.244
285.234
285.225
285.217
285.21
285.203
285.197
285.191
285.186
285.181
285.176
285.172
285.168
285.164
285.16
285.156
285.153
285.149
285.145
285.14
285.135
285.129
285.121
285.113
285.104
285.094
285.084
285.073
285.062
285.05
285.039
285.027
285.015
285.002
284.99
284.979
284.968
284.958
284.949
284.942
284.935
284.928
284.922
284.917
284.912
284.907
284.903
284.899
284.896
284.894
284.895
284.906
284.945
285.039
285.196
285.383
285.551
285.668
285.727
285.744
285.737
285.719
285.679
286.033
285.612
285.074
285.023
284.991
285.025
285.168
285.457
285.995
286.102
286.075
286.004
285.935
285.884
285.853
285.842
285.848
285.848
285.837
285.809
285.767
285.712
285.65
285.585
285.52
285.459
285.403
285.354
285.311
285.275
285.245
285.22
285.2
285.184
285.172
285.161
285.153
285.147
285.142
285.138
285.135
285.132
285.13
285.128
285.126
285.125
285.124
285.123
285.122
285.122
285.121
285.121
285.121
285.12
285.119
285.118
285.116
285.113
285.11
285.105
285.1
285.093
285.085
285.076
285.066
285.056
285.044
285.032
285.018
285.005
284.991
284.978
284.966
284.956
284.948
284.941
284.935
284.93
284.925
284.92
284.915
284.91
284.905
284.901
284.896
284.893
284.89
284.889
284.895
284.923
284.997
285.132
285.307
285.479
285.612
285.693
285.729
285.735
285.722
285.683
286.015
285.476
285.085
285.038
284.978
284.96
285.026
285.208
285.529
286.069
286.055
286.018
285.981
285.954
285.939
285.928
285.899
285.847
285.776
285.693
285.605
285.519
285.438
285.367
285.305
285.254
285.212
285.179
285.154
285.134
285.119
285.108
285.1
285.094
285.09
285.087
285.085
285.084
285.084
285.083
285.083
285.084
285.084
285.085
285.086
285.087
285.088
285.089
285.091
285.092
285.094
285.095
285.096
285.098
285.099
285.1
285.1
285.099
285.097
285.095
285.091
285.085
285.078
285.07
285.061
285.05
285.037
285.022
285.007
284.991
284.977
284.965
284.956
284.949
284.946
284.944
284.943
284.942
284.939
284.936
284.931
284.926
284.92
284.914
284.907
284.901
284.895
284.891
284.892
284.911
284.967
285.08
285.241
285.412
285.556
285.655
285.709
285.728
285.722
285.684
285.996
285.392
285.112
285.078
284.992
284.925
284.91
284.956
285.104
285.724
285.928
285.956
285.954
285.946
285.896
285.804
285.693
285.577
285.467
285.37
285.288
285.221
285.17
285.132
285.104
285.084
285.071
285.063
285.058
285.056
285.055
285.055
285.055
285.056
285.057
285.057
285.058
285.059
285.06
285.062
285.063
285.064
285.066
285.067
285.069
285.07
285.072
285.074
285.076
285.079
285.081
285.083
285.085
285.088
285.09
285.092
285.093
285.093
285.092
285.09
285.086
285.081
285.074
285.066
285.055
285.042
285.026
285.009
284.992
284.976
284.964
284.957
284.955
284.957
284.963
284.969
284.975
284.98
284.982
284.98
284.976
284.969
284.96
284.95
284.938
284.926
284.914
284.904
284.898
284.907
284.948
285.041
285.185
285.351
285.503
285.616
285.685
285.717
285.719
285.684
285.979
285.356
285.161
285.146
285.035
284.937
284.886
284.871
284.873
284.881
285.409
285.452
285.419
285.33
285.245
285.175
285.119
285.078
285.048
285.028
285.016
285.011
285.01
285.013
285.017
285.023
285.029
285.034
285.039
285.043
285.047
285.049
285.051
285.052
285.053
285.054
285.054
285.055
285.055
285.056
285.057
285.058
285.059
285.061
285.062
285.064
285.066
285.069
285.071
285.074
285.077
285.079
285.082
285.085
285.088
285.09
285.091
285.091
285.091
285.088
285.084
285.079
285.071
285.061
285.047
285.03
285.011
284.991
284.975
284.964
284.961
284.966
284.976
284.992
285.009
285.026
285.041
285.052
285.058
285.057
285.053
285.043
285.03
285.012
284.991
284.97
284.948
284.929
284.915
284.913
284.939
285.013
285.141
285.299
285.454
285.578
285.661
285.705
285.714
285.682
285.963
285.35
285.237
285.229
285.085
284.962
284.897
284.875
284.875
284.884
284.893
284.899
284.904
284.91
284.917
284.926
284.936
284.948
284.96
284.973
284.986
285
285.012
285.023
285.033
285.041
285.048
285.052
285.055
285.056
285.056
285.056
285.054
285.053
285.051
285.05
285.049
285.048
285.048
285.048
285.049
285.05
285.051
285.052
285.054
285.057
285.06
285.063
285.066
285.069
285.073
285.077
285.081
285.084
285.087
285.09
285.091
285.092
285.091
285.088
285.083
285.076
285.066
285.052
285.033
285.011
284.989
284.972
284.964
284.967
284.98
285.002
285.03
285.06
285.089
285.115
285.135
285.15
285.157
285.159
285.153
285.139
285.118
285.092
285.061
285.028
284.995
284.965
284.94
284.927
284.94
284.997
285.107
285.257
285.412
285.544
285.638
285.691
285.707
285.678
285.949
285.354
285.289
285.29
285.119
284.98
284.907
284.882
284.884
284.897
284.91
284.922
284.933
284.944
284.955
284.967
284.98
284.993
285.007
285.02
285.032
285.043
285.053
285.06
285.064
285.067
285.067
285.065
285.062
285.058
285.054
285.049
285.044
285.04
285.036
285.034
285.031
285.03
285.029
285.029
285.03
285.031
285.033
285.036
285.039
285.042
285.046
285.05
285.055
285.06
285.066
285.071
285.077
285.082
285.086
285.09
285.092
285.092
285.09
285.087
285.08
285.07
285.056
285.036
285.011
284.986
284.969
284.964
284.974
284.998
285.034
285.075
285.117
285.156
285.188
285.213
285.231
285.243
285.249
285.249
285.24
285.223
285.199
285.168
285.13
285.089
285.046
285.005
284.97
284.946
284.947
284.988
285.084
285.223
285.376
285.513
285.616
285.678
285.7
285.673
285.936
285.364
285.349
285.281
285.114
284.981
284.911
284.889
284.895
284.913
284.933
284.952
284.969
284.985
285.001
285.015
285.029
285.043
285.055
285.065
285.073
285.078
285.081
285.08
285.078
285.073
285.066
285.058
285.049
285.041
285.032
285.024
285.018
285.012
285.008
285.004
285.002
285.001
285.001
285.001
285.003
285.005
285.008
285.011
285.016
285.02
285.025
285.032
285.039
285.047
285.055
285.064
285.072
285.079
285.085
285.09
285.092
285.092
285.089
285.083
285.074
285.059
285.037
285.008
284.981
284.963
284.963
284.983
285.021
285.071
285.125
285.175
285.216
285.247
285.269
285.283
285.292
285.298
285.299
285.297
285.288
285.272
285.251
285.222
285.184
285.14
285.092
285.044
285.001
284.968
284.958
284.987
285.068
285.197
285.347
285.488
285.597
285.665
285.692
285.667
285.926
285.38
285.402
285.239
285.07
284.956
284.903
284.892
284.907
284.932
284.96
284.986
285.009
285.029
285.046
285.061
285.073
285.083
285.09
285.094
285.094
285.092
285.086
285.078
285.068
285.056
285.044
285.031
285.018
285.007
284.997
284.988
284.981
284.976
284.972
284.97
284.969
284.968
284.969
284.97
284.972
284.975
284.979
284.984
284.989
284.995
285.002
285.011
285.021
285.032
285.044
285.056
285.067
285.077
285.085
285.09
285.092
285.091
285.085
285.076
285.061
285.038
285.005
284.973
284.956
284.961
284.995
285.049
285.114
285.177
285.228
285.263
285.284
285.297
285.305
285.311
285.315
285.318
285.32
285.318
285.311
285.299
285.28
285.255
285.221
285.179
285.129
285.078
285.029
284.989
284.971
284.99
285.06
285.179
285.326
285.467
285.581
285.654
285.684
285.661
285.917
285.403
285.328
285.141
284.997
284.918
284.89
284.897
284.923
284.958
284.992
285.023
285.049
285.069
285.085
285.096
285.104
285.107
285.106
285.101
285.094
285.083
285.07
285.055
285.039
285.022
285.006
284.991
284.977
284.966
284.957
284.95
284.945
284.942
284.94
284.94
284.939
284.94
284.941
284.943
284.945
284.949
284.953
284.957
284.963
284.971
284.98
284.991
285.005
285.019
285.035
285.051
285.065
285.077
285.086
285.09
285.091
285.087
285.077
285.062
285.037
285
284.962
284.946
284.962
285.007
285.085
285.165
285.23
285.27
285.289
285.298
285.304
285.31
285.314
285.318
285.322
285.326
285.328
285.329
285.325
285.314
285.298
285.275
285.244
285.204
285.156
285.103
285.051
285.008
284.984
284.995
285.057
285.169
285.311
285.452
285.568
285.645
285.677
285.654
285.91
285.438
285.187
285.016
284.922
284.884
284.885
284.91
284.948
284.989
285.028
285.061
285.085
285.102
285.112
285.116
285.115
285.11
285.1
285.088
285.073
285.056
285.038
285.019
284.999
284.98
284.963
284.948
284.937
284.928
284.923
284.92
284.919
284.919
284.92
284.921
284.922
284.922
284.923
284.924
284.926
284.929
284.932
284.937
284.944
284.953
284.964
284.978
284.995
285.013
285.032
285.051
285.067
285.08
285.088
285.091
285.087
285.077
285.06
285.034
284.988
284.953
284.931
284.961
285.037
285.122
285.232
285.279
285.29
285.295
285.299
285.304
285.309
285.314
285.319
285.322
285.326
285.329
285.333
285.335
285.333
285.323
285.307
285.285
285.256
285.218
285.172
285.12
285.068
285.023
284.996
285.002
285.058
285.164
285.303
285.443
285.56
285.638
285.67
285.646
285.904
285.202
285.002
284.908
284.871
284.87
284.894
284.933
284.979
285.026
285.065
285.095
285.114
285.123
285.123
285.118
285.108
285.095
285.08
285.062
285.042
285.021
284.999
284.977
284.956
284.937
284.922
284.911
284.904
284.901
284.902
284.905
284.909
284.913
284.916
284.918
284.919
284.919
284.919
284.918
284.918
284.919
284.921
284.925
284.932
284.942
284.956
284.972
284.992
285.014
285.037
285.057
285.074
285.085
285.09
285.087
285.077
285.057
285.027
284.982
284.928
284.941
284.956
285.07
285.252
285.277
285.285
285.289
285.292
285.296
285.3
285.307
285.313
285.32
285.324
285.327
285.329
285.331
285.334
285.338
285.337
285.327
285.31
285.288
285.26
285.224
285.179
285.129
285.078
285.033
285.006
285.011
285.063
285.166
285.301
285.44
285.555
285.632
285.663
285.638
285.899
284.874
284.861
284.852
284.855
284.877
284.915
284.965
285.017
285.064
285.099
285.121
285.129
285.127
285.119
285.106
285.089
285.071
285.051
285.03
285.007
284.983
284.959
284.936
284.916
284.899
284.889
284.884
284.885
284.89
284.899
284.908
284.918
284.925
284.93
284.933
284.933
284.93
284.926
284.922
284.919
284.918
284.918
284.922
284.929
284.94
284.956
284.976
284.999
285.025
285.049
285.069
285.082
285.089
285.086
285.075
285.053
285.017
284.968
284.903
284.921
285.188
285.248
285.27
285.281
285.285
285.286
285.288
285.291
285.296
285.303
285.312
285.321
285.328
285.332
285.333
285.333
285.333
285.335
285.338
285.339
285.327
285.309
285.287
285.259
285.223
285.18
285.131
285.082
285.04
285.014
285.02
285.073
285.173
285.306
285.441
285.554
285.628
285.657
285.629
285.896
284.866
284.852
284.848
284.862
284.896
284.946
285.003
285.056
285.099
285.124
285.134
285.13
285.119
285.103
285.085
285.065
285.044
285.021
284.997
284.971
284.946
284.921
284.898
284.881
284.87
284.867
284.872
284.883
284.898
284.914
284.93
284.944
284.953
284.958
284.959
284.955
284.949
284.941
284.934
284.927
284.922
284.921
284.924
284.932
284.946
284.965
284.989
285.016
285.044
285.065
285.079
285.085
285.082
285.069
285.044
285.005
284.959
284.993
285.107
285.187
285.243
285.27
285.279
285.281
285.281
285.282
285.285
285.29
285.299
285.309
285.32
285.331
285.338
285.342
285.342
285.338
285.335
285.335
285.337
285.338
285.326
285.306
285.282
285.254
285.218
285.175
285.128
285.082
285.044
285.022
285.032
285.086
285.187
285.317
285.448
285.556
285.626
285.651
285.619
285.894
284.861
284.847
284.849
284.875
284.922
284.982
285.043
285.093
285.125
285.137
285.133
285.12
285.103
285.084
285.063
285.041
285.017
284.992
284.965
284.938
284.911
284.886
284.866
284.854
284.852
284.86
284.876
284.898
284.922
284.945
284.965
284.979
284.987
284.989
284.986
284.978
284.967
284.955
284.944
284.933
284.927
284.926
284.931
284.943
284.962
284.989
285.015
285.04
285.061
285.075
285.08
285.075
285.06
285.035
285.004
284.991
285.031
285.115
285.191
285.239
285.264
285.274
285.276
285.275
285.275
285.277
285.283
285.292
285.304
285.317
285.331
285.343
285.351
285.354
285.351
285.345
285.338
285.335
285.336
285.334
285.323
285.302
285.277
285.247
285.21
285.167
285.123
285.081
285.047
285.032
285.048
285.107
285.208
285.333
285.458
285.559
285.624
285.644
285.609
285.893
284.858
284.845
284.855
284.894
284.954
285.021
285.081
285.121
285.138
285.136
285.123
285.105
285.085
285.064
285.041
285.017
284.992
284.964
284.936
284.907
284.879
284.856
284.842
284.838
284.847
284.867
284.895
284.927
284.956
284.982
285
285.012
285.015
285.012
285.002
284.988
284.973
284.958
284.944
284.935
284.934
284.94
284.952
284.97
284.992
285.018
285.04
285.058
285.07
285.073
285.066
285.051
285.028
285.008
285.009
285.05
285.12
285.187
285.233
285.258
285.268
285.27
285.268
285.267
285.269
285.274
285.283
285.296
285.311
285.327
285.343
285.356
285.364
285.366
285.361
285.351
285.342
285.336
285.334
285.33
285.318
285.297
285.271
285.239
285.201
285.159
285.118
285.081
285.055
285.048
285.072
285.135
285.234
285.353
285.47
285.563
285.621
285.636
285.598
285.893
284.855
284.845
284.865
284.918
284.99
285.06
285.112
285.137
285.138
285.127
285.109
285.089
285.067
285.045
285.022
284.996
284.969
284.939
284.909
284.879
284.852
284.834
284.827
284.834
284.855
284.886
284.923
284.958
284.988
285.01
285.025
285.03
285.028
285.019
285.005
284.986
284.967
284.958
284.954
284.953
284.958
284.969
284.984
285.002
285.022
285.041
285.055
285.064
285.064
285.057
285.042
285.024
285.012
285.021
285.06
285.121
285.181
285.225
285.251
285.261
285.263
285.261
285.259
285.259
285.263
285.272
285.285
285.302
285.32
285.339
285.356
285.369
285.377
285.378
285.37
285.358
285.345
285.337
285.332
285.326
285.313
285.292
285.264
285.231
285.193
285.154
285.117
285.087
285.069
285.072
285.103
285.168
285.264
285.375
285.482
285.566
285.617
285.628
285.587
285.894
284.853
284.846
284.88
284.947
285.027
285.093
285.13
285.138
285.13
285.114
285.094
285.073
285.052
285.029
285.004
284.977
284.948
284.916
284.885
284.855
284.832
284.819
284.821
284.839
284.87
284.909
284.948
284.981
285.006
285.022
285.032
285.034
285.03
285.021
285.01
284.997
284.988
284.983
284.981
284.983
284.99
285.001
285.015
285.029
285.042
285.052
285.057
285.055
285.047
285.034
285.02
285.015
285.029
285.067
285.12
285.175
285.217
285.243
285.254
285.257
285.254
285.25
285.249
285.252
285.26
285.273
285.291
285.311
285.332
285.353
285.37
285.382
285.388
285.387
285.378
285.364
285.349
285.338
285.33
285.322
285.308
285.286
285.258
285.225
285.189
285.154
285.124
285.101
285.092
285.103
285.139
285.205
285.295
285.397
285.494
285.569
285.613
285.618
285.575
285.896
284.851
284.851
284.898
284.978
285.061
285.115
285.135
285.133
285.119
285.1
285.08
285.06
285.038
285.015
284.989
284.961
284.93
284.897
284.865
284.837
284.818
284.812
284.823
284.849
284.885
284.923
284.957
284.985
285.006
285.021
285.03
285.034
285.033
285.03
285.024
285.019
285.014
285.01
285.01
285.012
285.018
285.026
285.034
285.042
285.047
285.048
285.045
285.036
285.026
285.017
285.018
285.035
285.071
285.119
285.168
285.209
285.235
285.247
285.25
285.247
285.242
285.239
285.24
285.247
285.26
285.278
285.3
285.323
285.346
285.366
285.382
285.393
285.397
285.394
285.383
285.367
285.351
285.339
285.329
285.319
285.304
285.283
285.255
285.224
285.192
285.162
285.138
285.124
285.122
285.139
285.179
285.243
285.327
285.419
285.504
285.57
285.607
285.607
285.564
285.898
284.85
284.857
284.919
285.01
285.084
285.124
285.133
285.125
285.108
285.088
285.068
285.048
285.027
285.003
284.976
284.947
284.915
284.882
284.851
284.826
284.811
284.81
284.826
284.853
284.887
284.921
284.951
284.976
284.996
285.012
285.022
285.029
285.033
285.034
285.034
285.032
285.03
285.028
285.028
285.03
285.033
285.036
285.039
285.04
285.038
285.033
285.025
285.018
285.014
285.019
285.039
285.074
285.118
285.163
285.2
285.226
285.239
285.243
285.24
285.234
285.229
285.228
285.233
285.245
285.263
285.286
285.312
285.337
285.36
285.379
285.393
285.401
285.403
285.397
285.385
285.369
285.353
285.339
285.328
285.317
285.303
285.282
285.257
285.229
285.202
285.178
285.16
285.152
285.157
285.179
285.22
285.28
285.356
285.438
285.513
285.57
285.6
285.596
285.555
285.901
284.85
284.867
284.943
285.033
285.098
285.127
285.128
285.115
285.097
285.078
285.058
285.039
285.017
284.994
284.967
284.937
284.905
284.873
284.843
284.82
284.808
284.809
284.823
284.848
284.877
284.907
284.935
284.958
284.978
284.994
285.007
285.017
285.024
285.029
285.031
285.032
285.031
285.031
285.031
285.031
285.031
285.03
285.028
285.025
285.02
285.014
285.01
285.011
285.02
285.042
285.075
285.116
285.157
285.193
285.218
285.232
285.236
285.233
285.227
285.219
285.216
285.219
285.229
285.247
285.271
285.298
285.326
285.352
285.373
285.39
285.401
285.406
285.405
285.397
285.385
285.369
285.353
285.339
285.328
285.317
285.303
285.285
285.263
285.24
285.217
285.199
285.187
285.185
285.194
285.218
285.259
285.315
285.383
285.455
285.52
285.569
285.592
285.585
285.546
285.903
284.85
284.879
284.962
285.05
285.106
285.126
285.122
285.107
285.088
285.069
285.051
285.032
285.011
284.987
284.961
284.931
284.9
284.869
284.84
284.818
284.806
284.805
284.816
284.835
284.859
284.885
284.909
284.932
284.951
284.968
284.982
284.994
285.003
285.01
285.014
285.016
285.018
285.018
285.018
285.017
285.015
285.012
285.009
285.005
285.002
285.002
285.008
285.021
285.044
285.076
285.114
285.152
285.185
285.21
285.224
285.229
285.227
285.22
285.211
285.205
285.205
285.213
285.229
285.253
285.282
285.312
285.341
285.365
285.384
285.397
285.405
285.407
285.404
285.395
285.382
285.367
285.352
285.34
285.329
285.318
285.306
285.29
285.273
285.254
285.237
285.224
285.217
285.219
285.231
285.256
285.295
285.346
285.407
285.469
285.525
285.565
285.583
285.573
285.539
285.906
284.852
284.89
284.977
285.061
285.11
285.124
285.115
285.099
285.08
285.062
285.045
285.027
285.008
284.985
284.959
284.931
284.9
284.87
284.842
284.82
284.805
284.801
284.806
284.819
284.837
284.858
284.879
284.899
284.918
284.934
284.949
284.961
284.971
284.979
284.985
284.989
284.992
284.993
284.993
284.993
284.992
284.99
284.99
284.991
284.995
285.005
285.022
285.046
285.077
285.113
285.148
285.179
285.203
285.217
285.223
285.221
285.213
285.203
285.194
285.191
285.196
285.21
285.233
285.262
285.295
285.327
285.354
285.375
285.391
285.4
285.405
285.405
285.399
285.39
285.378
285.364
285.351
285.34
285.33
285.32
285.31
285.298
285.285
285.271
285.259
285.25
285.248
285.252
285.267
285.291
285.327
285.373
285.426
285.479
285.526
285.56
285.573
285.561