/*--------------------------------*- C++ -*----------------------------------*\
| =========                 |                                                 |
| \\      /  F ield         | OpenFOAM: The Open Source CFD Toolbox           |
|  \\    /   O peration     | Version:  4.1                                   |
|   \\  /    A nd           | Web:      www.OpenFOAM.org                      |
|    \\/     M anipulation  |                                                 |
\*---------------------------------------------------------------------------*/
FoamFile
{
    version     2.0;
    format      ascii;
    class       volVectorField;
    location    "1900";
    object      U;
}
// * * * * * * * * * * * * * * * * * * * * * * * * * * * * * * * * * * * * * //

dimensions      [0 1 -1 0 0 0 0];

internalField   nonuniform List<vector> 
5000
(
(-0.00359229 0.00164038 0)
(-0.00391529 -0.000928056 0)
(-0.00183612 -0.00359469 0)
(0.00287264 -0.00340308 0)
(0.00632622 -0.00238111 0)
(0.00893296 -0.00148531 0)
(0.0103486 -0.000794705 0)
(0.0105197 -8.50875e-05 0)
(0.00939123 0.00124266 0)
(0.00481798 0.00324408 0)
(-0.00179669 0.00246436 0)
(-0.00389844 0.0012746 0)
(-0.00564448 0.000793215 0)
(-0.00687553 0.000572704 0)
(-0.00781925 0.000453715 0)
(-0.00858827 0.000378152 0)
(-0.00923353 0.000321744 0)
(-0.00977509 0.000272586 0)
(-0.0102192 0.000224347 0)
(-0.0105656 0.000174366 0)
(-0.0108113 0.000122176 0)
(-0.0109538 6.81733e-05 0)
(-0.0109928 1.26835e-05 0)
(-0.0109316 -4.36267e-05 0)
(-0.0107782 -9.64271e-05 0)
(-0.0105435 -0.000143107 0)
(-0.0102409 -0.000182884 0)
(-0.00988385 -0.000215771 0)
(-0.00948413 -0.000241967 0)
(-0.00905208 -0.000261443 0)
(-0.008597 -0.000273733 0)
(-0.00812813 -0.000278054 0)
(-0.0076551 -0.000273867 0)
(-0.00718754 -0.000261739 0)
(-0.00673361 -0.000244227 0)
(-0.00629769 -0.000226265 0)
(-0.00587775 -0.000214318 0)
(-0.00546398 -0.000214032 0)
(-0.0050414 -0.000226997 0)
(-0.00459804 -0.000247698 0)
(-0.00413099 -0.000265296 0)
(-0.00364457 -0.000277217 0)
(-0.00314551 -0.000281721 0)
(-0.00264039 -0.000280783 0)
(-0.00213381 -0.000276519 0)
(-0.00162901 -0.000269591 0)
(-0.00112973 -0.000258451 0)
(-0.000642436 -0.000241975 0)
(-0.000170043 -0.000218729 0)
(0.000261666 -0.000192557 0)
(0.000655248 -0.000160828 0)
(0.00100277 -0.000122122 0)
(0.00129085 -7.82087e-05 0)
(0.00151391 -3.30989e-05 0)
(0.0016743 6.91858e-06 0)
(0.00178376 3.4689e-05 0)
(0.00186172 4.49256e-05 0)
(0.00193056 3.69107e-05 0)
(0.00201053 1.51524e-05 0)
(0.00211581 -1.31738e-05 0)
(0.00225264 -4.18251e-05 0)
(0.00242045 -6.71825e-05 0)
(0.00261489 -8.79494e-05 0)
(0.00283044 -0.000104152 0)
(0.00306183 -0.000116272 0)
(0.00330432 -0.000124746 0)
(0.00355365 -0.00012981 0)
(0.00380572 -0.000131596 0)
(0.00405666 -0.000130331 0)
(0.00430307 -0.000126528 0)
(0.00454235 -0.000121013 0)
(0.00477308 -0.000114691 0)
(0.00499472 -0.000108082 0)
(0.00520691 -0.00010084 0)
(0.00540832 -9.17124e-05 0)
(0.00559609 -7.93938e-05 0)
(0.00576713 -6.4519e-05 0)
(0.00592226 -5.22107e-05 0)
(0.00607264 -5.33042e-05 0)
(0.00624566 -8.175e-05 0)
(0.00648507 -0.000148354 0)
(0.00684236 -0.000255128 0)
(0.00736375 -0.000393697 0)
(0.00807934 -0.00054637 0)
(0.00899232 -0.000684405 0)
(0.0100587 -0.000759822 0)
(0.0111505 -0.000696268 0)
(0.0120102 -0.000394001 0)
(0.0121838 0.000286413 0)
(0.0109724 0.00150844 0)
(0.00741736 0.00286465 0)
(0.0015793 0.00233971 0)
(-0.00139246 0.00053625 0)
(-0.00191063 -0.000191864 0)
(-0.00171737 -0.000469673 0)
(-0.00123965 -0.000741058 0)
(0.000127162 -0.00136265 0)
(0.00179925 -0.00152181 0)
(0.00305025 -0.000654401 0)
(0.00328528 0.00163427 0)
(-0.00260007 0.00465072 0)
(-0.00233091 0.000122299 0)
(-0.00105307 -0.00555145 0)
(0.0021168 -0.00633506 0)
(0.00507264 -0.00456611 0)
(0.0073299 -0.00258857 0)
(0.00841719 -0.000798349 0)
(0.00805985 0.00131158 0)
(0.00624738 0.00451503 0)
(0.00108815 0.00716527 0)
(-0.00255426 0.00523041 0)
(-0.00421907 0.00317716 0)
(-0.00581062 0.00213876 0)
(-0.00701663 0.00158875 0)
(-0.00797671 0.00126434 0)
(-0.00876258 0.00104578 0)
(-0.00941339 0.000875283 0)
(-0.00994682 0.000723213 0)
(-0.0103678 0.000574456 0)
(-0.0106748 0.000422619 0)
(-0.0108646 0.000267006 0)
(-0.0109363 0.000110546 0)
(-0.0108906 -4.18217e-05 0)
(-0.0107484 -0.000183924 0)
(-0.0105284 -0.000308825 0)
(-0.0102453 -0.000412699 0)
(-0.00991473 -0.000495885 0)
(-0.00955023 -0.000560617 0)
(-0.00916258 -0.000609722 0)
(-0.00875951 -0.000645757 0)
(-0.00834625 -0.000670288 0)
(-0.00792645 -0.000683817 0)
(-0.00750253 -0.000686636 0)
(-0.00707535 -0.000680017 0)
(-0.00664412 -0.000667203 0)
(-0.00620703 -0.000653633 0)
(-0.00576304 -0.000645771 0)
(-0.00531431 -0.000648696 0)
(-0.00486524 -0.000664755 0)
(-0.00442019 -0.000689742 0)
(-0.00397947 -0.000713568 0)
(-0.0035396 -0.000732902 0)
(-0.00309765 -0.000745226 0)
(-0.00265178 -0.000750445 0)
(-0.00220313 -0.00074993 0)
(-0.00175462 -0.000744187 0)
(-0.00130844 -0.000731826 0)
(-0.000866146 -0.000710158 0)
(-0.000426609 -0.000675393 0)
(6.34416e-06 -0.000630388 0)
(0.000418281 -0.000576966 0)
(0.000823212 -0.000514466 0)
(0.00122193 -0.000444736 0)
(0.00161638 -0.00037303 0)
(0.00200652 -0.000307353 0)
(0.00238934 -0.000256356 0)
(0.00275978 -0.0002263 0)
(0.0031125 -0.000218608 0)
(0.0034435 -0.000229416 0)
(0.00375119 -0.000251631 0)
(0.00403697 -0.000278117 0)
(0.00430459 -0.000303792 0)
(0.0045585 -0.000325984 0)
(0.00480256 -0.00034376 0)
(0.00503954 -0.000357054 0)
(0.00527128 -0.00036604 0)
(0.00549898 -0.000370842 0)
(0.00572357 -0.000371539 0)
(0.00594576 -0.000368346 0)
(0.00616613 -0.000361807 0)
(0.00638495 -0.000352848 0)
(0.00660215 -0.00034258 0)
(0.00681753 -0.000331861 0)
(0.0070314 -0.000320866 0)
(0.00724545 -0.0003091 0)
(0.00746363 -0.000296365 0)
(0.0076923 -0.000284851 0)
(0.00793895 -0.000281652 0)
(0.00820999 -0.000299829 0)
(0.00850873 -0.00035576 0)
(0.00883581 -0.000463116 0)
(0.00919331 -0.000627257 0)
(0.0095898 -0.000842687 0)
(0.0100402 -0.00109065 0)
(0.0105562 -0.00132926 0)
(0.0111266 -0.00147003 0)
(0.01169 -0.00134362 0)
(0.0120883 -0.000672371 0)
(0.0119282 0.000881673 0)
(0.0107858 0.00332222 0)
(0.00821821 0.00573977 0)
(0.00467294 0.00590175 0)
(0.00221858 0.00300656 0)
(0.000921361 0.000320635 0)
(0.000471941 -0.000395639 0)
(0.0004422 -0.000885609 0)
(0.000742099 -0.00183773 0)
(0.00124223 -0.00235916 0)
(0.00181098 -0.000611687 0)
(0.00259352 0.00405085 0)
(-0.00196436 0.00654679 0)
(-0.00131282 -0.000221419 0)
(-0.000379117 -0.0075399 0)
(0.00166306 -0.00918839 0)
(0.00404285 -0.00717081 0)
(0.00596592 -0.00413615 0)
(0.00669929 -0.00106255 0)
(0.00603676 0.00284352 0)
(0.00377315 0.00808513 0)
(-0.000866237 0.0104898 0)
(-0.00228177 0.00737041 0)
(-0.0034799 0.00479264 0)
(-0.00463238 0.00340592 0)
(-0.00561562 0.00260957 0)
(-0.00646304 0.00210719 0)
(-0.00718918 0.00174961 0)
(-0.00780449 0.00145825 0)
(-0.00831145 0.0011908 0)
(-0.00870716 0.000925073 0)
(-0.00898568 0.000651639 0)
(-0.00914038 0.00037074 0)
(-0.00916638 9.10019e-05 0)
(-0.00906301 -0.000172429 0)
(-0.00887244 -0.0004025 0)
(-0.00860549 -0.00059519 0)
(-0.00828464 -0.000749241 0)
(-0.00792725 -0.000867491 0)
(-0.00754726 -0.000954958 0)
(-0.00715504 -0.0010175 0)
(-0.00675714 -0.00106088 0)
(-0.00635729 -0.00108914 0)
(-0.00595824 -0.00110434 0)
(-0.00556212 -0.00110819 0)
(-0.00516973 -0.00110345 0)
(-0.00477994 -0.00109442 0)
(-0.00439024 -0.00108641 0)
(-0.00399753 -0.00108375 0)
(-0.00360463 -0.00108646 0)
(-0.00321363 -0.00109607 0)
(-0.00282664 -0.00111234 0)
(-0.0024434 -0.0011311 0)
(-0.00206122 -0.00114923 0)
(-0.00167731 -0.00116502 0)
(-0.00129148 -0.00117419 0)
(-0.000900758 -0.00117648 0)
(-0.000506637 -0.001171 0)
(-0.000107185 -0.00115543 0)
(0.000279356 -0.00112949 0)
(0.000661837 -0.00109226 0)
(0.00104332 -0.0010431 0)
(0.00142364 -0.000984226 0)
(0.00180216 -0.000918862 0)
(0.00217828 -0.000849341 0)
(0.00255174 -0.000779664 0)
(0.00292134 -0.000715002 0)
(0.00328426 -0.000660283 0)
(0.00363645 -0.000618778 0)
(0.00397353 -0.000591381 0)
(0.00429195 -0.000576745 0)
(0.00458989 -0.000571877 0)
(0.00486769 -0.000573111 0)
(0.00512748 -0.000577201 0)
(0.00537227 -0.000581884 0)
(0.0056051 -0.000585815 0)
(0.00582855 -0.000588238 0)
(0.00604459 -0.000588685 0)
(0.00625473 -0.000586826 0)
(0.00646012 -0.000582467 0)
(0.00666164 -0.000575615 0)
(0.00685997 -0.000566565 0)
(0.00705556 -0.000555897 0)
(0.00724862 -0.000544395 0)
(0.00743939 -0.000532911 0)
(0.00762841 -0.000522332 0)
(0.0078171 -0.000513837 0)
(0.00800813 -0.000509591 0)
(0.00820539 -0.000513766 0)
(0.00841328 -0.000533449 0)
(0.00863529 -0.000578725 0)
(0.00887283 -0.000661419 0)
(0.00912518 -0.000792537 0)
(0.0093914 -0.000979124 0)
(0.00967263 -0.00122058 0)
(0.00997197 -0.00150067 0)
(0.0102888 -0.00176811 0)
(0.0106056 -0.00190024 0)
(0.0108701 -0.0016536 0)
(0.0109848 -0.000621992 0)
(0.0108057 0.00163193 0)
(0.0100364 0.00500495 0)
(0.00835921 0.00813617 0)
(0.00619597 0.00849176 0)
(0.00432747 0.00534556 0)
(0.00240669 0.00170589 0)
(0.00107229 2.39343e-05 0)
(0.000622744 -0.000797912 0)
(0.00055976 -0.00198969 0)
(0.000612762 -0.00294629 0)
(0.000986372 -0.000901025 0)
(0.00209308 0.00591654 0)
(-0.00157892 0.00774747 0)
(-0.000693306 -0.000496892 0)
(0.000161943 -0.00887601 0)
(0.00149814 -0.011138 0)
(0.00330077 -0.0092471 0)
(0.00495097 -0.00522732 0)
(0.00548766 -0.000726401 0)
(0.00470259 0.00477903 0)
(0.00203752 0.0114822 0)
(-0.00141329 0.0126464 0)
(-0.00172586 0.00859803 0)
(-0.00257557 0.00586929 0)
(-0.0033676 0.00436772 0)
(-0.00413879 0.00345843 0)
(-0.0048541 0.00284925 0)
(-0.0054938 0.0023891 0)
(-0.00604623 0.00199553 0)
(-0.00650097 0.00162207 0)
(-0.00684691 0.00124334 0)
(-0.00707234 0.000848965 0)
(-0.00716682 0.000441645 0)
(-0.00712171 3.66863e-05 0)
(-0.00695888 -0.000337247 0)
(-0.00670734 -0.000651281 0)
(-0.00638672 -0.00090373 0)
(-0.00601955 -0.00109799 0)
(-0.00562443 -0.00124059 0)
(-0.00521595 -0.00134027 0)
(-0.00480485 -0.00140665 0)
(-0.00439696 -0.00144967 0)
(-0.00399524 -0.00147549 0)
(-0.0036027 -0.00148582 0)
(-0.00322171 -0.0014828 0)
(-0.002854 -0.00147063 0)
(-0.00249821 -0.00145556 0)
(-0.00215183 -0.00144428 0)
(-0.00180812 -0.00144177 0)
(-0.00147533 -0.00144245 0)
(-0.00114911 -0.0014484 0)
(-0.000828479 -0.0014613 0)
(-0.00051269 -0.00147898 0)
(-0.000198234 -0.0014982 0)
(0.000124221 -0.00151382 0)
(0.000430093 -0.00152343 0)
(0.000739348 -0.00152885 0)
(0.00104939 -0.00152704 0)
(0.00136143 -0.00151398 0)
(0.00167715 -0.00148835 0)
(0.00199673 -0.00145135 0)
(0.00231939 -0.00140317 0)
(0.00264474 -0.00134488 0)
(0.00297224 -0.00127858 0)
(0.0033011 -0.00120688 0)
(0.00363028 -0.0011333 0)
(0.00395797 -0.00106201 0)
(0.00428143 -0.000997077 0)
(0.00459719 -0.000941652 0)
(0.0049017 -0.000897381 0)
(0.00519199 -0.000864261 0)
(0.00546632 -0.000840907 0)
(0.00572442 -0.00082513 0)
(0.00596725 -0.000814611 0)
(0.00619662 -0.000807343 0)
(0.00641455 -0.000801757 0)
(0.00662298 -0.000796651 0)
(0.00682354 -0.000791092 0)
(0.00701751 -0.000784348 0)
(0.00720584 -0.000775901 0)
(0.00738925 -0.000765485 0)
(0.00756819 -0.000753146 0)
(0.00774291 -0.000739269 0)
(0.00791349 -0.000724575 0)
(0.00808002 -0.000710107 0)
(0.0082428 -0.00069728 0)
(0.00840263 -0.000688085 0)
(0.00856095 -0.000685489 0)
(0.00871974 -0.000693996 0)
(0.00888093 -0.000720138 0)
(0.00904569 -0.000772572 0)
(0.00921365 -0.000861488 0)
(0.00938291 -0.000997181 0)
(0.0095507 -0.00118769 0)
(0.00971451 -0.00143436 0)
(0.00987241 -0.00172102 0)
(0.0100211 -0.00198929 0)
(0.01015 -0.00209419 0)
(0.010233 -0.00174847 0)
(0.0102147 -0.000491872 0)
(0.0100269 0.00216712 0)
(0.00947517 0.00610065 0)
(0.00836611 0.00964877 0)
(0.00695463 0.0101928 0)
(0.00540668 0.00728853 0)
(0.00339674 0.00353164 0)
(0.00162205 0.00114742 0)
(0.0007003 -0.000325146 0)
(0.000277378 -0.00180636 0)
(-1.13699e-06 -0.00316057 0)
(0.000455531 -0.00118884 0)
(0.00182126 0.00719731 0)
(-0.00136394 0.00856216 0)
(-0.000244817 -0.00118858 0)
(0.000582644 -0.00982077 0)
(0.00154031 -0.0124997 0)
(0.00282514 -0.0109552 0)
(0.00422101 -0.00615669 0)
(0.00467662 -0.0003029 0)
(0.00388617 0.00671858 0)
(0.00105136 0.0142736 0)
(-0.00113686 0.0138382 0)
(-0.00106555 0.00920692 0)
(-0.00165322 0.00653856 0)
(-0.00219369 0.00505856 0)
(-0.00277484 0.00412649 0)
(-0.00333815 0.0034652 0)
(-0.00385667 0.00293415 0)
(-0.00431168 0.00245518 0)
(-0.0046885 0.00198299 0)
(-0.00497212 0.00149227 0)
(-0.00514404 0.000973525 0)
(-0.00518219 0.00043467 0)
(-0.00506306 -9.80279e-05 0)
(-0.00484965 -0.000577932 0)
(-0.00454245 -0.000970709 0)
(-0.00417078 -0.00127674 0)
(-0.00375484 -0.00150458 0)
(-0.0033168 -0.00166404 0)
(-0.00287026 -0.00176806 0)
(-0.00242684 -0.00182964 0)
(-0.00198926 -0.00186249 0)
(-0.00156591 -0.00187482 0)
(-0.00116156 -0.00186911 0)
(-0.00077707 -0.00184915 0)
(-0.000415134 -0.00182006 0)
(-7.28118e-05 -0.00179007 0)
(0.00025749 -0.00176429 0)
(0.000572108 -0.00174917 0)
(0.000857174 -0.00173752 0)
(0.0011274 -0.00173328 0)
(0.00138632 -0.00173796 0)
(0.00163446 -0.00175 0)
(0.00187315 -0.00176649 0)
(0.00210629 -0.00178059 0)
(0.00233883 -0.00179073 0)
(0.00257248 -0.00179719 0)
(0.00280687 -0.00179721 0)
(0.00304265 -0.00178769 0)
(0.00328103 -0.00176697 0)
(0.00352271 -0.00173478 0)
(0.00376798 -0.00169137 0)
(0.00401714 -0.00163774 0)
(0.00427046 -0.00157566 0)
(0.00452798 -0.00150753 0)
(0.00478944 -0.00143626 0)
(0.00505391 -0.00136514 0)
(0.00531971 -0.00129739 0)
(0.00558443 -0.0012357 0)
(0.00584535 -0.0011818 0)
(0.00609985 -0.00113642 0)
(0.00634587 -0.00109926 0)
(0.00658217 -0.00106937 0)
(0.00680835 -0.00104543 0)
(0.00702466 -0.00102603 0)
(0.00723175 -0.00100982 0)
(0.00743043 -0.000995562 0)
(0.00762146 -0.000982127 0)
(0.00780548 -0.000968533 0)
(0.00798299 -0.000953992 0)
(0.00815427 -0.000937982 0)
(0.00831944 -0.000920316 0)
(0.00847842 -0.000901197 0)
(0.00863098 -0.000881258 0)
(0.00877684 -0.000861602 0)
(0.00891581 -0.000843884 0)
(0.00904792 -0.000830468 0)
(0.00917347 -0.000824672 0)
(0.00929286 -0.000831083 0)
(0.00940626 -0.000855785 0)
(0.00951309 -0.00090636 0)
(0.00961164 -0.000991508 0)
(0.00969885 -0.00112019 0)
(0.00977048 -0.00129991 0)
(0.00982172 -0.00153252 0)
(0.00984827 -0.0018031 0)
(0.00984742 -0.00205325 0)
(0.00981858 -0.00213058 0)
(0.00976052 -0.00172432 0)
(0.00965931 -0.000337705 0)
(0.00947597 0.00255049 0)
(0.00908124 0.00678212 0)
(0.00836537 0.0105645 0)
(0.00742632 0.0114022 0)
(0.0061336 0.00902024 0)
(0.0042239 0.00548308 0)
(0.00221557 0.00264403 0)
(0.000829332 0.000527247 0)
(-9.73191e-06 -0.00144002 0)
(-0.000291358 -0.00306547 0)
(-7.11608e-05 -0.00243894 0)
(0.00167325 0.00808863 0)
(-0.0012623 0.00916541 0)
(0.000149564 -0.00242074 0)
(0.000917948 -0.0105521 0)
(0.00174275 -0.0134788 0)
(0.0026208 -0.0122924 0)
(0.0037721 -0.00695152 0)
(0.00419819 0.000130148 0)
(0.00344607 0.00852831 0)
(0.000750783 0.0164345 0)
(-0.00040793 0.0144398 0)
(-0.000384423 0.00949496 0)
(-0.000780118 0.00694988 0)
(-0.00113293 0.00553448 0)
(-0.00153179 0.00461541 0)
(-0.00192379 0.00393141 0)
(-0.00228903 0.00335508 0)
(-0.00261353 0.00281471 0)
(-0.00288796 0.00226651 0)
(-0.00310135 0.00168361 0)
(-0.00322914 0.00105164 0)
(-0.0032283 0.00037805 0)
(-0.00304665 -0.00029079 0)
(-0.00279036 -0.000878969 0)
(-0.00244494 -0.00134677 0)
(-0.00203948 -0.00170269 0)
(-0.00158701 -0.00196082 0)
(-0.0011211 -0.00213222 0)
(-0.000646468 -0.00223897 0)
(-0.000175858 -0.00229717 0)
(0.000308265 -0.00231634 0)
(0.000758393 -0.00230356 0)
(0.00118078 -0.00227063 0)
(0.00157866 -0.00222469 0)
(0.00194961 -0.0021717 0)
(0.00229373 -0.00211879 0)
(0.0026105 -0.00207041 0)
(0.00290022 -0.00202918 0)
(0.00316453 -0.00199667 0)
(0.00340687 -0.00197476 0)
(0.00362983 -0.00196391 0)
(0.00383553 -0.00196283 0)
(0.00402647 -0.00196876 0)
(0.00420611 -0.00197765 0)
(0.00437832 -0.00198624 0)
(0.00454581 -0.00199202 0)
(0.00471008 -0.00199208 0)
(0.0048724 -0.00198372 0)
(0.00503403 -0.00196516 0)
(0.00519604 -0.00193577 0)
(0.0053593 -0.00189579 0)
(0.00552465 -0.00184629 0)
(0.00569305 -0.00178901 0)
(0.00586546 -0.00172617 0)
(0.00604277 -0.00166032 0)
(0.00622555 -0.00159409 0)
(0.00641386 -0.00152993 0)
(0.00660719 -0.0014699 0)
(0.00680449 -0.00141541 0)
(0.00700437 -0.00136718 0)
(0.00720535 -0.00132529 0)
(0.00740599 -0.00128929 0)
(0.00760509 -0.00125843 0)
(0.00780164 -0.00123175 0)
(0.00799482 -0.00120821 0)
(0.00818393 -0.00118675 0)
(0.00836833 -0.00116628 0)
(0.00854743 -0.00114581 0)
(0.00872063 -0.00112445 0)
(0.00888733 -0.00110155 0)
(0.00904684 -0.00107676 0)
(0.0091984 -0.00105014 0)
(0.00934113 -0.00102221 0)
(0.00947411 -0.00099405 0)
(0.00959642 -0.000967378 0)
(0.0097072 -0.000944665 0)
(0.00980564 -0.000929279 0)
(0.00989084 -0.000925651 0)
(0.00996155 -0.000939362 0)
(0.0100159 -0.000977062 0)
(0.010051 -0.00104621 0)
(0.010063 -0.00115451 0)
(0.0100465 -0.00130865 0)
(0.00999559 -0.00151079 0)
(0.00990471 -0.00174846 0)
(0.00977221 -0.00196859 0)
(0.0096053 -0.00202369 0)
(0.00942364 -0.00159559 0)
(0.00925115 -0.000157605 0)
(0.00908074 0.00283756 0)
(0.00882708 0.00720709 0)
(0.00841563 0.0111332 0)
(0.00781227 0.0123226 0)
(0.00675912 0.0105515 0)
(0.0050559 0.00742244 0)
(0.00306113 0.00442515 0)
(0.00131066 0.00177858 0)
(2.74851e-06 -0.000902805 0)
(-0.000175106 -0.00306263 0)
(-0.000439752 -0.0037507 0)
(0.00158675 0.0088087 0)
(-0.00118392 0.00965425 0)
(0.000636437 -0.00370405 0)
(0.00127117 -0.011309 0)
(0.00205357 -0.0142356 0)
(0.00265322 -0.0132934 0)
(0.00358917 -0.00764583 0)
(0.00399417 0.000496012 0)
(0.00330958 0.0100996 0)
(0.000994004 0.0179378 0)
(0.000559857 0.0149125 0)
(0.000289902 0.00974785 0)
(-3.23257e-06 0.00718599 0)
(-0.000206374 0.00582171 0)
(-0.000420291 0.00491846 0)
(-0.000620599 0.00422329 0)
(-0.000798664 0.00362017 0)
(-0.000948682 0.00304312 0)
(-0.0010718 0.00244862 0)
(-0.00117642 0.00180715 0)
(-0.00124298 0.0010962 0)
(-0.00117076 0.000290827 0)
(-0.000925492 -0.000538126 0)
(-0.000649212 -0.00122593 0)
(-0.000295117 -0.00175912 0)
(0.000120084 -0.00216636 0)
(0.000583538 -0.00244966 0)
(0.00104682 -0.00262411 0)
(0.00152236 -0.00272846 0)
(0.00199852 -0.00277912 0)
(0.00246644 -0.00278407 0)
(0.00292155 -0.00275233 0)
(0.00335934 -0.00269568 0)
(0.00377431 -0.00262274 0)
(0.00416228 -0.00254092 0)
(0.00452052 -0.00245712 0)
(0.00484725 -0.00237703 0)
(0.00514175 -0.00230506 0)
(0.00540464 -0.00224423 0)
(0.00563766 -0.0021966 0)
(0.00584307 -0.00216281 0)
(0.00602345 -0.00214182 0)
(0.00618182 -0.00213115 0)
(0.00632165 -0.00212732 0)
(0.00644664 -0.00212662 0)
(0.00656002 -0.0021255 0)
(0.00666432 -0.00212056 0)
(0.00676161 -0.00210883 0)
(0.00685366 -0.00208827 0)
(0.00694194 -0.00205797 0)
(0.00702774 -0.00201814 0)
(0.00711225 -0.00196989 0)
(0.00719682 -0.00191513 0)
(0.00728296 -0.0018562 0)
(0.00737234 -0.00179564 0)
(0.00746673 -0.00173587 0)
(0.00756777 -0.00167897 0)
(0.00767685 -0.00162646 0)
(0.00779497 -0.00157923 0)
(0.00792263 -0.00153755 0)
(0.00805989 -0.00150116 0)
(0.0082063 -0.00146938 0)
(0.008361 -0.00144133 0)
(0.00852275 -0.00141598 0)
(0.00869 -0.00139228 0)
(0.00886096 -0.00136918 0)
(0.00903368 -0.00134569 0)
(0.00920617 -0.00132085 0)
(0.00937641 -0.00129386 0)
(0.00954244 -0.00126409 0)
(0.00970228 -0.0012312 0)
(0.00985398 -0.00119521 0)
(0.00999554 -0.00115662 0)
(0.010125 -0.00111646 0)
(0.0102403 -0.00107643 0)
(0.0103394 -0.001039 0)
(0.0104204 -0.00100744 0)
(0.010481 -0.000985946 0)
(0.0105188 -0.000979648 0)
(0.0105306 -0.000994439 0)
(0.0105129 -0.00103674 0)
(0.0104609 -0.00111311 0)
(0.0103689 -0.00122932 0)
(0.0102303 -0.00138765 0)
(0.0100391 -0.00157864 0)
(0.00979416 -0.00175796 0)
(0.00950696 -0.0017929 0)
(0.00921256 -0.00137436 0)
(0.00896975 4.3604e-05 0)
(0.00881094 0.00304111 0)
(0.00868705 0.00743298 0)
(0.00852241 0.0114488 0)
(0.00818245 0.0130023 0)
(0.00736674 0.0118405 0)
(0.00592715 0.00919137 0)
(0.00413785 0.00628461 0)
(0.00245092 0.00347981 0)
(0.000638253 0.000120402 0)
(0.000310184 -0.00284561 0)
(-0.000692648 -0.00459898 0)
(0.00148497 0.00935396 0)
(-0.00097767 0.00981431 0)
(0.0012345 -0.0047694 0)
(0.00171046 -0.0120668 0)
(0.00240861 -0.0148608 0)
(0.00282983 -0.0140298 0)
(0.0036024 -0.0082503 0)
(0.00399481 0.000761438 0)
(0.0033883 0.0113547 0)
(0.0016252 0.0188526 0)
(0.00157825 0.015402 0)
(0.000995521 0.0101183 0)
(0.000663185 0.00735852 0)
(0.000565255 0.00595368 0)
(0.000532154 0.00503978 0)
(0.000530476 0.00432689 0)
(0.000557977 0.00370122 0)
(0.000615064 0.00310303 0)
(0.000702294 0.00249421 0)
(0.000790215 0.00184869 0)
(0.000855706 0.00110421 0)
(0.00114385 0.000156269 0)
(0.00138701 -0.000783324 0)
(0.00165864 -0.00154662 0)
(0.00199145 -0.00213636 0)
(0.00236982 -0.00257466 0)
(0.00278411 -0.0028825 0)
(0.00322789 -0.00308401 0)
(0.00369141 -0.00320192 0)
(0.00416178 -0.00325325 0)
(0.00462845 -0.00325069 0)
(0.00508398 -0.00320555 0)
(0.00552246 -0.00312911 0)
(0.00593856 -0.00303126 0)
(0.00632783 -0.0029207 0)
(0.00668692 -0.00280527 0)
(0.00701343 -0.00269177 0)
(0.00730592 -0.00258578 0)
(0.00756398 -0.0024915 0)
(0.00778819 -0.00241177 0)
(0.00797989 -0.00234791 0)
(0.00814104 -0.00229955 0)
(0.00827421 -0.00226479 0)
(0.00838252 -0.00224053 0)
(0.00846931 -0.00222298 0)
(0.0085379 -0.00220815 0)
(0.00859128 -0.00219217 0)
(0.00863207 -0.00217169 0)
(0.00866255 -0.0021443 0)
(0.0086847 -0.00210876 0)
(0.00870021 -0.00206508 0)
(0.00871069 -0.00201441 0)
(0.00871776 -0.00195879 0)
(0.00872325 -0.00190083 0)
(0.00872926 -0.00184331 0)
(0.0087382 -0.00178884 0)
(0.00875272 -0.00173951 0)
(0.00877556 -0.00169671 0)
(0.00880938 -0.00166097 0)
(0.00885656 -0.00163206 0)
(0.00891895 -0.00160909 0)
(0.00899774 -0.00159071 0)
(0.00909333 -0.00157533 0)
(0.00920524 -0.00156129 0)
(0.00933222 -0.00154701 0)
(0.00947227 -0.00153102 0)
(0.00962285 -0.00151205 0)
(0.009781 -0.00148902 0)
(0.00994354 -0.0014611 0)
(0.0101071 -0.00142766 0)
(0.0102684 -0.0013884 0)
(0.010424 -0.00134338 0)
(0.0105703 -0.00129309 0)
(0.010704 -0.00123858 0)
(0.0108214 -0.00118154 0)
(0.0109192 -0.00112439 0)
(0.0109938 -0.00107033 0)
(0.0110414 -0.00102338 0)
(0.0110584 -0.000988305 0)
(0.0110405 -0.00097047 0)
(0.0109832 -0.000975531 0)
(0.0108813 -0.00100911 0)
(0.0107287 -0.00107615 0)
(0.010519 -0.00117904 0)
(0.0102461 -0.00131135 0)
(0.00990859 -0.00143899 0)
(0.00951898 -0.00145061 0)
(0.0091202 -0.00106214 0)
(0.00880038 0.000273264 0)
(0.00863899 0.00317264 0)
(0.00862428 0.00748785 0)
(0.00865975 0.0115501 0)
(0.00853811 0.0134517 0)
(0.00795316 0.0128643 0)
(0.00678601 0.0107001 0)
(0.00524527 0.0079657 0)
(0.00371846 0.00512981 0)
(0.00207253 0.00188619 0)
(0.00118068 -0.00187245 0)
(-0.000750912 -0.0047999 0)
(0.00128973 0.0097277 0)
(-0.000591382 0.0093091 0)
(0.00174073 -0.00558274 0)
(0.00217296 -0.012766 0)
(0.00269584 -0.0153827 0)
(0.00299396 -0.0145815 0)
(0.00363467 -0.00878583 0)
(0.00409876 0.000920772 0)
(0.00357142 0.0122517 0)
(0.00242292 0.0193078 0)
(0.00254702 0.0159646 0)
(0.00178 0.0106855 0)
(0.00128353 0.00751669 0)
(0.00120858 0.00593347 0)
(0.00131824 0.00496543 0)
(0.00149948 0.00421969 0)
(0.00172505 0.00356288 0)
(0.00198607 0.00293681 0)
(0.00227688 0.00231008 0)
(0.00256804 0.00165607 0)
(0.00286529 0.000896307 0)
(0.00330486 -2.68784e-05 0)
(0.00362294 -0.000963061 0)
(0.00393245 -0.00178301 0)
(0.00427747 -0.00244225 0)
(0.00465967 -0.00294076 0)
(0.00507366 -0.00329497 0)
(0.00551237 -0.0035274 0)
(0.00596617 -0.00366112 0)
(0.00642426 -0.00371564 0)
(0.00687699 -0.00370685 0)
(0.0073168 -0.00364833 0)
(0.00773777 -0.00355236 0)
(0.00813511 -0.00342994 0)
(0.00850494 -0.00329092 0)
(0.0088443 -0.00314405 0)
(0.00915101 -0.00299701 0)
(0.00942365 -0.00285628 0)
(0.0096615 -0.00272694 0)
(0.00986458 -0.00261264 0)
(0.0100335 -0.00251539 0)
(0.0101696 -0.00243553 0)
(0.0102746 -0.00237179 0)
(0.0103509 -0.00232154 0)
(0.0104012 -0.0022812 0)
(0.0104284 -0.00224671 0)
(0.0104354 -0.00221401 0)
(0.010425 -0.00217946 0)
(0.0103997 -0.00214036 0)
(0.0103618 -0.00209518 0)
(0.0103133 -0.00204372 0)
(0.0102564 -0.00198704 0)
(0.010193 -0.00192727 0)
(0.0101251 -0.00186724 0)
(0.0100551 -0.00181009 0)
(0.00998577 -0.00175877 0)
(0.00992028 -0.00171573 0)
(0.0098621 -0.00168252 0)
(0.00981496 -0.00165967 0)
(0.00978256 -0.00164664 0)
(0.00976833 -0.00164198 0)
(0.00977507 -0.00164355 0)
(0.00980473 -0.00164878 0)
(0.00985818 -0.00165499 0)
(0.00993512 -0.00165957 0)
(0.0100342 -0.00166018 0)
(0.0101529 -0.00165486 0)
(0.0102881 -0.00164201 0)
(0.0104361 -0.00162044 0)
(0.0105925 -0.00158933 0)
(0.0107528 -0.00154827 0)
(0.0109123 -0.00149723 0)
(0.011066 -0.00143667 0)
(0.0112086 -0.00136757 0)
(0.011335 -0.00129158 0)
(0.0114399 -0.00121109 0)
(0.0115179 -0.00112929 0)
(0.0115637 -0.00105012 0)
(0.0115718 -0.000978232 0)
(0.0115369 -0.000918732 0)
(0.0114537 -0.000876899 0)
(0.0113163 -0.000857795 0)
(0.0111187 -0.000865763 0)
(0.0108545 -0.000903219 0)
(0.010518 -0.000966401 0)
(0.0101072 -0.00103122 0)
(0.00963342 -0.00101084 0)
(0.00914008 -0.000659203 0)
(0.00873369 0.000546636 0)
(0.00854334 0.0032568 0)
(0.00860276 0.00740584 0)
(0.00879187 0.0114717 0)
(0.00885023 0.0136902 0)
(0.00847516 0.0136318 0)
(0.00755619 0.0119407 0)
(0.00624183 0.00943158 0)
(0.0048222 0.00659321 0)
(0.00338423 0.00344032 0)
(0.00215391 -0.000433202 0)
(-0.000479082 -0.00410794 0)
(0.000949876 0.00987674 0)
(-0.000108891 0.00829708 0)
(0.00206915 -0.00657751 0)
(0.00245946 -0.0133487 0)
(0.00273602 -0.0157798 0)
(0.00293994 -0.0149935 0)
(0.00338221 -0.00932369 0)
(0.00414228 0.000964548 0)
(0.00370887 0.012775 0)
(0.00314477 0.0193919 0)
(0.00339798 0.0164805 0)
(0.00266826 0.011415 0)
(0.00201607 0.00781039 0)
(0.00183084 0.0058543 0)
(0.00198258 0.00473261 0)
(0.00229138 0.00392236 0)
(0.00267769 0.00322511 0)
(0.0031085 0.00256781 0)
(0.00356321 0.00191924 0)
(0.00401174 0.00124664 0)
(0.00448264 0.00046729 0)
(0.00504621 -0.00045456 0)
(0.00553963 -0.00136276 0)
(0.0060076 -0.00217178 0)
(0.00646877 -0.00284032 0)
(0.00692897 -0.00335738 0)
(0.00739082 -0.00373019 0)
(0.00785332 -0.00397566 0)
(0.00831226 -0.0041139 0)
(0.00876178 -0.00416421 0)
(0.00919601 -0.0041437 0)
(0.00960997 -0.0040674 0)
(0.00999967 -0.00394874 0)
(0.010362 -0.00379974 0)
(0.0106944 -0.00363114 0)
(0.0109952 -0.00345247 0)
(0.011263 -0.00327207 0)
(0.0114971 -0.00309701 0)
(0.0116969 -0.00293296 0)
(0.0118627 -0.00278409 0)
(0.0119948 -0.00265295 0)
(0.0120939 -0.00254041 0)
(0.0121615 -0.00244573 0)
(0.0121991 -0.00236673 0)
(0.0122088 -0.00230014 0)
(0.0121928 -0.00224208 0)
(0.0121536 -0.00218851 0)
(0.0120937 -0.00213574 0)
(0.0120155 -0.00208092 0)
(0.0119215 -0.00202237 0)
(0.011814 -0.00195973 0)
(0.0116953 -0.00189402 0)
(0.0115675 -0.00182739 0)
(0.0114331 -0.00176286 0)
(0.0112947 -0.00170386 0)
(0.0111553 -0.00165378 0)
(0.0110182 -0.00161549 0)
(0.0108874 -0.00159097 0)
(0.010767 -0.00158098 0)
(0.0106617 -0.00158498 0)
(0.0105759 -0.0016012 0)
(0.0105137 -0.00162681 0)
(0.0104785 -0.00165825 0)
(0.0104726 -0.00169165 0)
(0.0104968 -0.0017231 0)
(0.0105509 -0.00174905 0)
(0.010633 -0.0017664 0)
(0.0107405 -0.00177265 0)
(0.0108693 -0.00176592 0)
(0.011015 -0.00174483 0)
(0.0111722 -0.00170856 0)
(0.011335 -0.00165674 0)
(0.0114972 -0.00158955 0)
(0.011652 -0.00150775 0)
(0.0117922 -0.00141282 0)
(0.0119105 -0.00130709 0)
(0.0119997 -0.00119373 0)
(0.0120523 -0.00107681 0)
(0.0120614 -0.000961098 0)
(0.0120203 -0.000851812 0)
(0.0119226 -0.000754267 0)
(0.0117624 -0.000673461 0)
(0.0115336 -0.000613556 0)
(0.0112301 -0.000577148 0)
(0.0108467 -0.000563043 0)
(0.0103808 -0.000556493 0)
(0.00983965 -0.000494275 0)
(0.00926666 -0.000166159 0)
(0.00876679 0.000883564 0)
(0.00851421 0.00333071 0)
(0.0085983 0.00723266 0)
(0.00888884 0.0112552 0)
(0.00908635 0.0137505 0)
(0.00888833 0.0141772 0)
(0.00817859 0.0129507 0)
(0.00705261 0.0107246 0)
(0.00572117 0.00797878 0)
(0.0043076 0.00490534 0)
(0.00298579 0.0012997 0)
(2.83791e-05 -0.00273486 0)
(0.000545236 0.00996564 0)
(0.00039898 0.0069728 0)
(0.0021075 -0.00750102 0)
(0.00237105 -0.0137218 0)
(0.00234758 -0.0159919 0)
(0.00245463 -0.0152561 0)
(0.00248697 -0.009996 0)
(0.0038723 0.000839318 0)
(0.00361437 0.0129122 0)
(0.00359862 0.0191184 0)
(0.0040782 0.016763 0)
(0.00363633 0.012121 0)
(0.00301987 0.0082966 0)
(0.00267951 0.00587971 0)
(0.0027225 0.00444595 0)
(0.00303361 0.00348731 0)
(0.00349221 0.00272349 0)
(0.00402523 0.0020375 0)
(0.00458571 0.0013824 0)
(0.00514623 0.000706848 0)
(0.00587698 -0.000149366 0)
(0.00662103 -0.00107439 0)
(0.00733484 -0.0019595 0)
(0.00800284 -0.00273794 0)
(0.00862012 -0.00337873 0)
(0.0091902 -0.0038729 0)
(0.00972029 -0.00422645 0)
(0.0102163 -0.00445381 0)
(0.0106815 -0.00457278 0)
(0.011117 -0.0046014 0)
(0.0115227 -0.00455648 0)
(0.0118978 -0.00445329 0)
(0.0122417 -0.00430561 0)
(0.0125537 -0.00412589 0)
(0.0128333 -0.00392528 0)
(0.01308 -0.0037137 0)
(0.0132937 -0.00349983 0)
(0.0134744 -0.00329103 0)
(0.0136221 -0.00309326 0)
(0.0137373 -0.00291096 0)
(0.0138203 -0.00274697 0)
(0.013872 -0.00260246 0)
(0.013893 -0.00247702 0)
(0.0138848 -0.00236882 0)
(0.0138486 -0.00227489 0)
(0.0137863 -0.00219157 0)
(0.0136996 -0.00211498 0)
(0.0135907 -0.00204153 0)
(0.0134618 -0.00196841 0)
(0.0133151 -0.00189391 0)
(0.0131529 -0.00181768 0)
(0.0129776 -0.00174074 0)
(0.0127917 -0.00166534 0)
(0.0125977 -0.00159464 0)
(0.0123986 -0.00153236 0)
(0.0121973 -0.00148226 0)
(0.0119976 -0.0014477 0)
(0.0118035 -0.00143112 0)
(0.0116196 -0.00143372 0)
(0.0114508 -0.00145519 0)
(0.0113023 -0.00149367 0)
(0.0111791 -0.00154586 0)
(0.0110856 -0.00160738 0)
(0.0110254 -0.00167314 0)
(0.0110007 -0.00173787 0)
(0.0110121 -0.00179655 0)
(0.0110589 -0.00184471 0)
(0.0111391 -0.00187863 0)
(0.0112491 -0.00189532 0)
(0.0113844 -0.00189255 0)
(0.0115393 -0.00186865 0)
(0.0117074 -0.00182256 0)
(0.0118809 -0.00175382 0)
(0.0120515 -0.00166264 0)
(0.0122102 -0.0015501 0)
(0.0123473 -0.00141835 0)
(0.0124536 -0.00127063 0)
(0.0125195 -0.0011113 0)
(0.0125365 -0.000945613 0)
(0.0124965 -0.000779342 0)
(0.0123927 -0.000618329 0)
(0.0122189 -0.000467952 0)
(0.0119693 -0.000333003 0)
(0.0116382 -0.000218118 0)
(0.0112231 -0.00012175 0)