/*--------------------------------*- C++ -*----------------------------------*\
| =========                 |                                                 |
| \\      /  F ield         | OpenFOAM: The Open Source CFD Toolbox           |
|  \\    /   O peration     | Version:  4.1                                   |
|   \\  /    A nd           | Web:      www.OpenFOAM.org                      |
|    \\/     M anipulation  |                                                 |
\*---------------------------------------------------------------------------*/
FoamFile
{
    version     2.0;
    format      ascii;
    class       volScalarField;
    location    "1320";
    object      p;
}
// * * * * * * * * * * * * * * * * * * * * * * * * * * * * * * * * * * * * * //

dimensions      [0 2 -2 0 0 0 0];

internalField   nonuniform List<scalar> 
5000
(
0
4.65722e-06
8.81819e-06
8.2277e-06
6.19644e-06
3.60968e-06
3.54794e-07
-3.155e-06
-6.59384e-06
-9.8457e-06
-1.29063e-05
-1.58103e-05
-1.85997e-05
-2.13128e-05
-2.39827e-05
-2.66369e-05
-2.92959e-05
-3.19718e-05
-3.4669e-05
-3.73867e-05
-4.01215e-05
-4.28701e-05
-4.56316e-05
-4.84071e-05
-5.11991e-05
-5.40093e-05
-5.68368e-05
-5.96774e-05
-6.25243e-05
-6.53696e-05
-6.82071e-05
-7.10346e-05
-7.38561e-05
-7.66817e-05
-7.95278e-05
-8.24147e-05
-8.53646e-05
-8.83992e-05
-9.15375e-05
-9.47935e-05
-9.8176e-05
-0.000101688
-0.000105329
-0.000109094
-0.000112977
-0.000116973
-0.00012108
-0.000125301
-0.000129642
-0.00013411
-0.000138712
-0.000143447
-0.000148305
-0.000153263
-0.000158282
-0.000163312
-0.000168291
-0.00017315
-0.000177816
-0.000182213
-0.000186268
-0.00018991
-0.000193067
-0.000195658
-0.000197594
-0.00019877
-0.000199053
-0.000198277
-0.000196266
-0.000192873
-0.000188042
-0.000181753
-0.000173318
-0.000159865
-0.000150187
-0.000152374
-0.000158424
-0.000165274
-0.000171482
-0.000175424
-0.000176075
-0.000173155
-0.000167079
-0.000158775
-0.000149276
-0.000139534
-0.000130316
-0.000121806
-0.000114092
-0.000108332
-0.000106016
-0.000108588
-0.000117499
-0.000132318
-0.000148001
-0.000157856
-0.000159526
-0.000158456
-0.000157795
-0.000158603
-0.0984287
-0.0984281
-0.0984261
-0.0984255
-0.0984262
-0.0984278
-0.0984298
-0.0984319
-0.0984338
-0.0984354
-0.098437
-0.0984384
-0.0984398
-0.0984411
-0.0984425
-0.0984441
-0.0984457
-0.0984474
-0.0984494
-0.0984514
-0.0984536
-0.098456
-0.0984584
-0.098461
-0.0984637
-0.0984664
-0.0984691
-0.0984718
-0.0984745
-0.0984771
-0.0984796
-0.098482
-0.0984844
-0.0984866
-0.0984888
-0.098491
-0.0984932
-0.0984954
-0.0984978
-0.0985003
-0.098503
-0.0985059
-0.098509
-0.0985122
-0.0985157
-0.0985194
-0.0985234
-0.0985274
-0.0985317
-0.0985361
-0.0985406
-0.0985453
-0.09855
-0.0985546
-0.0985593
-0.0985637
-0.0985681
-0.0985721
-0.0985758
-0.0985791
-0.098582
-0.0985843
-0.0985861
-0.0985872
-0.0985877
-0.0985874
-0.0985861
-0.0985838
-0.0985802
-0.098575
-0.0985681
-0.0985591
-0.0985483
-0.0985378
-0.0985415
-0.0985574
-0.0985705
-0.0985832
-0.0985937
-0.0986008
-0.0986034
-0.0986015
-0.0985958
-0.0985875
-0.0985779
-0.0985681
-0.0985592
-0.0985513
-0.0985446
-0.0985401
-0.0985388
-0.0985416
-0.0985488
-0.0985594
-0.0985688
-0.0985717
-0.0985685
-0.0985666
-0.0985669
-0.0985666
-0.196875
-0.196876
-0.196874
-0.196874
-0.196875
-0.196876
-0.196878
-0.19688
-0.196881
-0.196882
-0.196884
-0.196885
-0.196886
-0.196887
-0.196889
-0.19689
-0.196892
-0.196893
-0.196895
-0.196897
-0.196899
-0.196901
-0.196904
-0.196906
-0.196909
-0.196912
-0.196914
-0.196917
-0.19692
-0.196922
-0.196924
-0.196927
-0.196929
-0.196931
-0.196933
-0.196935
-0.196937
-0.196939
-0.196942
-0.196944
-0.196947
-0.19695
-0.196953
-0.196956
-0.196959
-0.196963
-0.196967
-0.196971
-0.196975
-0.19698
-0.196984
-0.196989
-0.196994
-0.196998
-0.197003
-0.197008
-0.197012
-0.197016
-0.19702
-0.197023
-0.197026
-0.197029
-0.19703
-0.197032
-0.197032
-0.197032
-0.19703
-0.197028
-0.197024
-0.197018
-0.19701
-0.197
-0.196987
-0.196975
-0.196974
-0.196989
-0.197011
-0.197027
-0.197042
-0.197052
-0.197056
-0.197055
-0.197049
-0.19704
-0.19703
-0.197019
-0.19701
-0.197002
-0.196995
-0.19699
-0.196989
-0.196991
-0.196996
-0.197004
-0.197009
-0.197008
-0.196999
-0.196992
-0.196991
-0.19699
-0.295322
-0.295324
-0.295322
-0.295323
-0.295323
-0.295324
-0.295326
-0.295327
-0.295328
-0.295329
-0.29533
-0.295331
-0.295332
-0.295333
-0.295335
-0.295336
-0.295337
-0.295339
-0.295341
-0.295342
-0.295345
-0.295347
-0.295349
-0.295352
-0.295354
-0.295357
-0.29536
-0.295362
-0.295365
-0.295367
-0.295369
-0.295371
-0.295373
-0.295375
-0.295377
-0.295379
-0.295381
-0.295383
-0.295385
-0.295388
-0.29539
-0.295393
-0.295396
-0.295399
-0.295403
-0.295406
-0.29541
-0.295414
-0.295419
-0.295423
-0.295428
-0.295432
-0.295437
-0.295442
-0.295447
-0.295451
-0.295456
-0.29546
-0.295464
-0.295468
-0.295471
-0.295473
-0.295476
-0.295477
-0.295478
-0.295478
-0.295477
-0.295475
-0.295472
-0.295467
-0.29546
-0.295451
-0.29544
-0.29543
-0.295427
-0.295439
-0.295459
-0.29548
-0.295497
-0.29551
-0.295515
-0.295513
-0.295506
-0.295496
-0.295484
-0.295473
-0.295463
-0.295454
-0.295447
-0.295442
-0.295439
-0.29544
-0.295443
-0.295449
-0.295452
-0.295448
-0.295438
-0.295426
-0.295423
-0.295421
-0.39377
-0.393771
-0.39377
-0.39377
-0.393771
-0.393772
-0.393773
-0.393774
-0.393775
-0.393776
-0.393776
-0.393777
-0.393778
-0.393779
-0.39378
-0.393781
-0.393782
-0.393784
-0.393786
-0.393788
-0.39379
-0.393792
-0.393794
-0.393797
-0.3938
-0.393802
-0.393805
-0.393807
-0.39381
-0.393812
-0.393814
-0.393816
-0.393818
-0.393819
-0.393821
-0.393823
-0.393824
-0.393826
-0.393828
-0.39383
-0.393833
-0.393835
-0.393838
-0.393842
-0.393845
-0.393849
-0.393853
-0.393857
-0.393861
-0.393866
-0.393871
-0.393875
-0.39388
-0.393885
-0.39389
-0.393895
-0.393899
-0.393904
-0.393908
-0.393912
-0.393915
-0.393918
-0.39392
-0.393922
-0.393924
-0.393924
-0.393924
-0.393924
-0.393921
-0.393918
-0.393913
-0.393906
-0.393898
-0.393889
-0.393887
-0.393897
-0.393916
-0.393938
-0.393958
-0.393972
-0.393977
-0.393974
-0.393966
-0.393954
-0.393941
-0.393928
-0.393917
-0.393907
-0.393899
-0.393893
-0.393889
-0.393888
-0.39389
-0.393893
-0.393894
-0.39389
-0.393878
-0.393866
-0.39386
-0.393858
-0.492216
-0.492217
-0.492216
-0.492217
-0.492218
-0.492219
-0.492219
-0.49222
-0.492221
-0.492221
-0.492222
-0.492222
-0.492223
-0.492224
-0.492224
-0.492226
-0.492227
-0.492229
-0.492231
-0.492233
-0.492235
-0.492238
-0.49224
-0.492243
-0.492246
-0.492248
-0.492251
-0.492253
-0.492255
-0.492257
-0.492259
-0.49226
-0.492262
-0.492263
-0.492264
-0.492266
-0.492267
-0.492269
-0.49227
-0.492272
-0.492275
-0.492277
-0.49228
-0.492284
-0.492287
-0.492291
-0.492295
-0.492299
-0.492304
-0.492308
-0.492313
-0.492318
-0.492323
-0.492328
-0.492333
-0.492338
-0.492342
-0.492347
-0.492351
-0.492355
-0.492359
-0.492362
-0.492365
-0.492368
-0.49237
-0.492371
-0.492372
-0.492372
-0.492372
-0.49237
-0.492367
-0.492362
-0.492357
-0.492351
-0.492349
-0.492358
-0.492376
-0.492398
-0.492421
-0.492437
-0.492442
-0.492438
-0.492427
-0.492413
-0.492398
-0.492383
-0.492371
-0.49236
-0.49235
-0.492343
-0.492338
-0.492336
-0.492335
-0.492336
-0.492335
-0.492331
-0.49232
-0.492308
-0.492302
-0.492298
-0.590662
-0.590663
-0.590662
-0.590663
-0.590664
-0.590664
-0.590665
-0.590665
-0.590666
-0.590666
-0.590666
-0.590667
-0.590668
-0.590668
-0.590669
-0.59067
-0.590672
-0.590674
-0.590676
-0.590679
-0.590681
-0.590684
-0.590687
-0.59069
-0.590692
-0.590695
-0.590697
-0.590699
-0.590701
-0.590703
-0.590704
-0.590705
-0.590706
-0.590707
-0.590707
-0.590708
-0.590709
-0.59071
-0.590712
-0.590714
-0.590716
-0.590719
-0.590722
-0.590725
-0.590729
-0.590732
-0.590737
-0.590741
-0.590745
-0.59075
-0.590755
-0.59076
-0.590765
-0.59077
-0.590775
-0.59078
-0.590785
-0.59079
-0.590795
-0.590799
-0.590803
-0.590807
-0.59081
-0.590813
-0.590815
-0.590818
-0.59082
-0.590821
-0.590822
-0.590822
-0.590822
-0.59082
-0.590817
-0.590814
-0.590813
-0.590821
-0.590836
-0.590857
-0.590879
-0.590898
-0.590904
-0.5909
-0.590887
-0.59087
-0.590853
-0.590838
-0.590824
-0.590811
-0.590801
-0.590792
-0.590786
-0.590782
-0.590779
-0.590778
-0.590776
-0.590771
-0.590761
-0.59075
-0.590743
-0.590738
-0.689107
-0.689108
-0.689108
-0.689109
-0.689109
-0.689109
-0.68911
-0.68911
-0.689111
-0.689111
-0.689111
-0.689112
-0.689112
-0.689113
-0.689114
-0.689116
-0.689118
-0.68912
-0.689123
-0.689126
-0.689129
-0.689132
-0.689134
-0.689137
-0.68914
-0.689142
-0.689144
-0.689146
-0.689147
-0.689148
-0.689149
-0.689149
-0.68915
-0.68915
-0.68915
-0.68915
-0.689151
-0.689152
-0.689153
-0.689154
-0.689156
-0.689159
-0.689162
-0.689165
-0.689169
-0.689173
-0.689178
-0.689182
-0.689187
-0.689192
-0.689197
-0.689202
-0.689207
-0.689212
-0.689217
-0.689223
-0.689228
-0.689233
-0.689238
-0.689242
-0.689247
-0.689251
-0.689254
-0.689258
-0.689261
-0.689264
-0.689267
-0.68927
-0.689273
-0.689276
-0.689278
-0.689279
-0.689279
-0.689278
-0.689279
-0.689285
-0.689295
-0.689311
-0.68933
-0.689347
-0.689356
-0.689354
-0.689341
-0.689324
-0.689306
-0.68929
-0.689274
-0.689261
-0.68925
-0.68924
-0.689232
-0.689226
-0.689222
-0.689219
-0.689216
-0.689211
-0.689202
-0.689191
-0.689183
-0.689177
-0.787552
-0.787553
-0.787553
-0.787553
-0.787554
-0.787554
-0.787555
-0.787555
-0.787555
-0.787555
-0.787556
-0.787557
-0.787557
-0.787559
-0.78756
-0.787562
-0.787565
-0.787568
-0.787571
-0.787574
-0.787577
-0.78758
-0.787583
-0.787585
-0.787587
-0.787589
-0.787591
-0.787592
-0.787593
-0.787593
-0.787593
-0.787593
-0.787593
-0.787592
-0.787592
-0.787591
-0.787591
-0.787592
-0.787593
-0.787594
-0.787596
-0.787598
-0.787602
-0.787605
-0.787609
-0.787614
-0.787618
-0.787623
-0.787629
-0.787634
-0.787639
-0.787644
-0.78765
-0.787655
-0.78766
-0.787666
-0.787671
-0.787676
-0.787681
-0.787686
-0.787691
-0.787695
-0.787699
-0.787703
-0.787707
-0.787711
-0.787715
-0.78772
-0.787724
-0.787729
-0.787734
-0.787739
-0.787742
-0.787744
-0.787746
-0.787748
-0.787753
-0.787762
-0.787775
-0.787788
-0.787797
-0.787797
-0.787788
-0.787773
-0.787755
-0.787739
-0.787723
-0.787709
-0.787697
-0.787686
-0.787677
-0.78767
-0.787664
-0.78766
-0.787656
-0.78765
-0.787642
-0.787632
-0.787623
-0.787616
-0.885997
-0.885998
-0.885997
-0.885998
-0.885998
-0.885999
-0.885999
-0.886
-0.886
-0.886
-0.886001
-0.886002
-0.886003
-0.886005
-0.886007
-0.88601
-0.886013
-0.886016
-0.886019
-0.886022
-0.886025
-0.886028
-0.886031
-0.886033
-0.886035
-0.886037
-0.886038
-0.886038
-0.886038
-0.886038
-0.886037
-0.886036
-0.886035
-0.886033
-0.886032
-0.886031
-0.886031
-0.886031
-0.886031
-0.886032
-0.886034
-0.886037
-0.88604
-0.886044
-0.886049
-0.886054
-0.886059
-0.886065
-0.886071
-0.886077
-0.886083
-0.886088
-0.886094
-0.886099
-0.886105
-0.88611
-0.886115
-0.88612
-0.886125
-0.88613
-0.886135
-0.886139
-0.886144
-0.886148
-0.886153
-0.886158
-0.886163
-0.886169
-0.886175
-0.886183
-0.886191
-0.8862
-0.886206
-0.886211
-0.886213
-0.886212
-0.886209
-0.88621
-0.886217
-0.886226
-0.886233
-0.886234
-0.886228
-0.886216
-0.8862
-0.886184
-0.886169
-0.886155
-0.886142
-0.88613
-0.88612
-0.886112
-0.886105
-0.886099
-0.886094
-0.886089
-0.886081
-0.886072
-0.886064
-0.886057
-0.984441
-0.984442
-0.984442
-0.984443
-0.984443
-0.984443
-0.984444
-0.984444
-0.984445
-0.984446
-0.984447
-0.984448
-0.98445
-0.984452
-0.984455
-0.984458
-0.984461
-0.984465
-0.984468
-0.984471
-0.984474
-0.984477
-0.984479
-0.984481
-0.984483
-0.984483
-0.984484
-0.984483
-0.984482
-0.984481
-0.984479
-0.984477
-0.984475
-0.984473
-0.984471
-0.98447
-0.984469
-0.984468
-0.984468
-0.984469
-0.984471
-0.984474
-0.984478
-0.984483
-0.984488
-0.984494
-0.984501
-0.984508
-0.984514
-0.984521
-0.984527
-0.984534
-0.98454
-0.984545
-0.984551
-0.984556
-0.984561
-0.984566
-0.984571
-0.984575
-0.98458
-0.984584
-0.984589
-0.984593
-0.984598
-0.984603
-0.98461
-0.984617
-0.984626
-0.984636
-0.984649
-0.984661
-0.984671
-0.984677
-0.984678
-0.984673
-0.984663
-0.984657
-0.984658
-0.984663
-0.984668
-0.984669
-0.984665
-0.984655
-0.984642
-0.984627
-0.984612
-0.984598
-0.984585
-0.984573
-0.984562
-0.984553
-0.984545
-0.984538
-0.984532
-0.984527
-0.98452
-0.984512
-0.984505
-0.984498
-1.08289
-1.08289
-1.08289
-1.08289
-1.08289
-1.08289
-1.08289
-1.08289
-1.08289
-1.08289
-1.08289
-1.08289
-1.0829
-1.0829
-1.0829
-1.08291
-1.08291
-1.08291
-1.08292
-1.08292
-1.08292
-1.08293
-1.08293
-1.08293
-1.08293
-1.08293
-1.08293
-1.08293
-1.08293
-1.08292
-1.08292
-1.08292
-1.08291
-1.08291
-1.08291
-1.08291
-1.08291
-1.0829
-1.0829
-1.0829
-1.08291
-1.08291
-1.08292
-1.08292
-1.08293
-1.08294
-1.08294
-1.08295
-1.08296
-1.08297
-1.08297
-1.08298
-1.08299
-1.08299
-1.083
-1.083
-1.08301
-1.08301
-1.08302
-1.08302
-1.08303
-1.08303
-1.08303
-1.08304
-1.08304
-1.08305
-1.08306
-1.08306
-1.08307
-1.08309
-1.08311
-1.08312
-1.08313
-1.08314
-1.08314
-1.08313
-1.08311
-1.0831
-1.0831
-1.0831
-1.0831
-1.0831
-1.0831
-1.08309
-1.08308
-1.08307
-1.08305
-1.08304
-1.08303
-1.08301
-1.083
-1.08299
-1.08298
-1.08298
-1.08297
-1.08296
-1.08296
-1.08295
-1.08295
-1.08294
-1.18133
-1.18133
-1.18133
-1.18133
-1.18133
-1.18133
-1.18133
-1.18133
-1.18134
-1.18134
-1.18134
-1.18134
-1.18134
-1.18135
-1.18135
-1.18136
-1.18136
-1.18136
-1.18137
-1.18137
-1.18137
-1.18137
-1.18137
-1.18137
-1.18137
-1.18137
-1.18137
-1.18137
-1.18137
-1.18136
-1.18136
-1.18136
-1.18135
-1.18135
-1.18135
-1.18134
-1.18134
-1.18134
-1.18134
-1.18134
-1.18134
-1.18135
-1.18135
-1.18136
-1.18137
-1.18138
-1.18139
-1.1814
-1.18141
-1.18141
-1.18142
-1.18143
-1.18144
-1.18144
-1.18145
-1.18145
-1.18146
-1.18146
-1.18146
-1.18147
-1.18147
-1.18148
-1.18148
-1.18148
-1.18149
-1.18149
-1.1815
-1.18151
-1.18152
-1.18154
-1.18156
-1.18158
-1.18159
-1.1816
-1.18159
-1.18158
-1.18156
-1.18154
-1.18154
-1.18153
-1.18154
-1.18154
-1.18153
-1.18153
-1.18152
-1.18151
-1.18149
-1.18148
-1.18147
-1.18145
-1.18144
-1.18143
-1.18142
-1.18141
-1.18141
-1.1814
-1.1814
-1.18139
-1.18138
-1.18138
-1.27977
-1.27978
-1.27978
-1.27978
-1.27978
-1.27978
-1.27978
-1.27978
-1.27978
-1.27978
-1.27979
-1.27979
-1.27979
-1.2798
-1.2798
-1.2798
-1.27981
-1.27981
-1.27982
-1.27982
-1.27982
-1.27982
-1.27982
-1.27982
-1.27982
-1.27982
-1.27981
-1.27981
-1.27981
-1.2798
-1.2798
-1.27979
-1.27979
-1.27979
-1.27978
-1.27978
-1.27978
-1.27978
-1.27978
-1.27978
-1.27978
-1.27979
-1.2798
-1.2798
-1.27981
-1.27982
-1.27983
-1.27984
-1.27985
-1.27986
-1.27987
-1.27988
-1.27989
-1.27989
-1.2799
-1.2799
-1.27991
-1.27991
-1.27991
-1.27992
-1.27992
-1.27992
-1.27992
-1.27993
-1.27993
-1.27994
-1.27994
-1.27995
-1.27997
-1.27998
-1.28001
-1.28003
-1.28004
-1.28005
-1.28004
-1.28002
-1.27999
-1.27998
-1.27997
-1.27997
-1.27997
-1.27997
-1.27997
-1.27996
-1.27995
-1.27994
-1.27993
-1.27992
-1.2799
-1.27989
-1.27988
-1.27987
-1.27986
-1.27985
-1.27984
-1.27984
-1.27983
-1.27983
-1.27982
-1.27982
-1.37822
-1.37822
-1.37822
-1.37822
-1.37822
-1.37822
-1.37822
-1.37822
-1.37823
-1.37823
-1.37823
-1.37824
-1.37824
-1.37824
-1.37825
-1.37825
-1.37826
-1.37826
-1.37826
-1.37826
-1.37827
-1.37826
-1.37826
-1.37826
-1.37826
-1.37826
-1.37825
-1.37825
-1.37824
-1.37824
-1.37824
-1.37823
-1.37823
-1.37822
-1.37822
-1.37822
-1.37822
-1.37821
-1.37822
-1.37822
-1.37822
-1.37823
-1.37824
-1.37825
-1.37826
-1.37827
-1.37828
-1.37829
-1.37831
-1.37832
-1.37832
-1.37833
-1.37834
-1.37835
-1.37835
-1.37836
-1.37836
-1.37836
-1.37836
-1.37837
-1.37837
-1.37837
-1.37837
-1.37837
-1.37837
-1.37838
-1.37838
-1.37839
-1.37841
-1.37842
-1.37845
-1.37847
-1.37848
-1.37848
-1.37847
-1.37845
-1.37843
-1.37841
-1.3784
-1.3784
-1.3784
-1.3784
-1.3784
-1.3784
-1.37839
-1.37838
-1.37837
-1.37836
-1.37834
-1.37833
-1.37832
-1.37831
-1.3783
-1.37829
-1.37828
-1.37828
-1.37827
-1.37827
-1.37826
-1.37826
-1.47666
-1.47666
-1.47666
-1.47666
-1.47667
-1.47667
-1.47667
-1.47667
-1.47667
-1.47668
-1.47668
-1.47668
-1.47669
-1.47669
-1.4767
-1.4767
-1.4767
-1.47671
-1.47671
-1.47671
-1.47671
-1.47671
-1.47671
-1.4767
-1.4767
-1.4767
-1.47669
-1.47669
-1.47668
-1.47668
-1.47667
-1.47667
-1.47667
-1.47666
-1.47666
-1.47666
-1.47666
-1.47666
-1.47666
-1.47666
-1.47667
-1.47668
-1.47669
-1.4767
-1.47671
-1.47672
-1.47674
-1.47675
-1.47676
-1.47677
-1.47678
-1.47679
-1.4768
-1.4768
-1.47681
-1.47681
-1.47681
-1.47682
-1.47682
-1.47682
-1.47682
-1.47682
-1.47682
-1.47682
-1.47682
-1.47682
-1.47682
-1.47683
-1.47684
-1.47686
-1.47688
-1.4769
-1.47691
-1.47691
-1.47689
-1.47687
-1.47685
-1.47684
-1.47684
-1.47684
-1.47684
-1.47684
-1.47684
-1.47683
-1.47682
-1.47682
-1.4768
-1.47679
-1.47678
-1.47677
-1.47676
-1.47674
-1.47673
-1.47672
-1.47672
-1.47671
-1.47671
-1.4767
-1.4767
-1.4767
-1.57511
-1.57511
-1.57511
-1.57511
-1.57511
-1.57511
-1.57511
-1.57512
-1.57512
-1.57512
-1.57513
-1.57513
-1.57514
-1.57514
-1.57515
-1.57515
-1.57515
-1.57515
-1.57515
-1.57515
-1.57515
-1.57515
-1.57515
-1.57514
-1.57514
-1.57514
-1.57513
-1.57513
-1.57512
-1.57512
-1.57511
-1.57511
-1.57511
-1.5751
-1.5751
-1.5751
-1.5751
-1.5751
-1.5751
-1.57511
-1.57512
-1.57513
-1.57514
-1.57515
-1.57516
-1.57518
-1.57519
-1.5752
-1.57522
-1.57523
-1.57524
-1.57525
-1.57526
-1.57526
-1.57527
-1.57527
-1.57527
-1.57527
-1.57527
-1.57527
-1.57527
-1.57527
-1.57526
-1.57526
-1.57526
-1.57526
-1.57526
-1.57527
-1.57528
-1.57529
-1.57531
-1.57533
-1.57533
-1.57532
-1.57531
-1.57529
-1.57528
-1.57527
-1.57527
-1.57527
-1.57527
-1.57527
-1.57527
-1.57526
-1.57526
-1.57525
-1.57524
-1.57523
-1.57522
-1.57521
-1.57519
-1.57518
-1.57517
-1.57516
-1.57515
-1.57515
-1.57515
-1.57514
-1.57514
-1.57514
-1.67355
-1.67355
-1.67355
-1.67355
-1.67355
-1.67356
-1.67356
-1.67356
-1.67356
-1.67357
-1.67357
-1.67358
-1.67358
-1.67359
-1.67359
-1.67359
-1.6736
-1.6736
-1.6736
-1.67359
-1.67359
-1.67359
-1.67359
-1.67358
-1.67358
-1.67358
-1.67357
-1.67357
-1.67356
-1.67356
-1.67355
-1.67355
-1.67355
-1.67354
-1.67354
-1.67354
-1.67354
-1.67355
-1.67355
-1.67356
-1.67357
-1.67358
-1.67359
-1.6736
-1.67362
-1.67363
-1.67365
-1.67366
-1.67368
-1.67369
-1.6737
-1.67371
-1.67372
-1.67372
-1.67373
-1.67373
-1.67373
-1.67373
-1.67372
-1.67372
-1.67372
-1.67372
-1.67371
-1.67371
-1.67371
-1.6737
-1.6737
-1.6737
-1.67371
-1.67372
-1.67373
-1.67374
-1.67374
-1.67373
-1.67372
-1.67371
-1.6737
-1.67369
-1.6737
-1.6737
-1.6737
-1.6737
-1.6737
-1.6737
-1.67369
-1.67369
-1.67368
-1.67367
-1.67365
-1.67364
-1.67363
-1.67362
-1.67361
-1.6736
-1.67359
-1.67359
-1.67358
-1.67358
-1.67358
-1.67358
-1.772
-1.772
-1.772
-1.772
-1.772
-1.772
-1.772
-1.77201
-1.77201
-1.77201
-1.77202
-1.77202
-1.77203
-1.77203
-1.77204
-1.77204
-1.77204
-1.77204
-1.77204
-1.77204
-1.77203
-1.77203
-1.77203
-1.77202
-1.77202
-1.77202
-1.77201
-1.77201
-1.772
-1.772
-1.77199
-1.77199
-1.77199
-1.77199
-1.77199
-1.77199
-1.77199
-1.772
-1.772
-1.77201
-1.77202
-1.77203
-1.77205
-1.77206
-1.77208
-1.77209
-1.77211
-1.77212
-1.77214
-1.77215
-1.77216
-1.77217
-1.77218
-1.77218
-1.77218
-1.77219
-1.77219
-1.77218
-1.77218
-1.77218
-1.77217
-1.77217
-1.77216
-1.77216
-1.77215
-1.77215
-1.77214
-1.77214
-1.77214
-1.77214
-1.77215
-1.77215
-1.77215
-1.77214
-1.77213
-1.77212
-1.77212
-1.77212
-1.77212
-1.77213
-1.77213
-1.77213
-1.77214
-1.77213
-1.77213
-1.77212
-1.77211
-1.7721
-1.77209
-1.77208
-1.77207
-1.77206
-1.77205
-1.77204
-1.77203
-1.77203
-1.77202
-1.77202
-1.77202
-1.77202
-1.87044
-1.87044
-1.87044
-1.87044
-1.87044
-1.87044
-1.87045
-1.87045
-1.87045
-1.87046
-1.87046
-1.87047
-1.87047
-1.87048
-1.87048
-1.87048
-1.87048
-1.87048
-1.87048
-1.87048
-1.87047
-1.87047
-1.87047
-1.87046
-1.87046
-1.87046
-1.87045
-1.87045
-1.87044
-1.87044
-1.87044
-1.87043
-1.87043
-1.87043
-1.87043
-1.87044
-1.87044
-1.87045
-1.87045
-1.87046
-1.87048
-1.87049
-1.8705
-1.87052
-1.87053
-1.87055
-1.87057
-1.87058
-1.8706
-1.87061
-1.87062
-1.87063
-1.87064
-1.87064
-1.87064
-1.87064
-1.87064
-1.87064
-1.87064
-1.87063
-1.87062
-1.87062
-1.87061
-1.8706
-1.8706
-1.87059
-1.87058
-1.87058
-1.87057
-1.87057
-1.87057
-1.87057
-1.87056
-1.87056
-1.87055
-1.87055
-1.87055
-1.87055
-1.87055
-1.87056
-1.87056
-1.87057
-1.87057
-1.87057
-1.87056
-1.87056
-1.87055
-1.87054
-1.87053
-1.87052
-1.87051
-1.8705
-1.87049
-1.87048
-1.87047
-1.87047
-1.87046
-1.87046
-1.87046
-1.87046
-1.96888
-1.96888
-1.96888
-1.96888
-1.96889
-1.96889
-1.96889
-1.96889
-1.9689
-1.9689
-1.96891
-1.96891
-1.96892
-1.96892
-1.96892
-1.96892
-1.96892
-1.96892
-1.96892
-1.96892
-1.96891
-1.96891
-1.96891
-1.9689
-1.9689
-1.9689
-1.96889
-1.96889
-1.96889
-1.96888
-1.96888
-1.96888
-1.96888
-1.96888
-1.96888
-1.96889
-1.96889
-1.9689
-1.96891
-1.96892
-1.96893
-1.96894
-1.96896
-1.96898
-1.96899
-1.96901
-1.96903
-1.96904
-1.96906
-1.96907
-1.96908
-1.96909
-1.9691
-1.9691
-1.9691
-1.9691
-1.9691
-1.9691
-1.96909
-1.96908
-1.96908
-1.96907
-1.96906
-1.96905
-1.96904
-1.96903
-1.96903
-1.96902
-1.96901
-1.969
-1.969
-1.96899
-1.96898
-1.96898
-1.96897
-1.96897
-1.96897
-1.96898
-1.96899
-1.96899
-1.969
-1.969
-1.969
-1.969
-1.969
-1.969
-1.96899
-1.96898
-1.96897
-1.96896
-1.96895
-1.96894
-1.96893
-1.96892
-1.96891
-1.96891
-1.9689
-1.9689
-1.9689
-1.9689
-2.06733
-2.06733
-2.06733
-2.06733
-2.06733
-2.06733
-2.06733
-2.06734
-2.06734
-2.06735
-2.06735
-2.06736
-2.06736
-2.06736
-2.06736
-2.06736
-2.06736
-2.06736
-2.06736
-2.06736
-2.06735
-2.06735
-2.06735
-2.06735
-2.06734
-2.06734
-2.06734
-2.06733
-2.06733
-2.06733
-2.06733
-2.06733
-2.06733
-2.06733
-2.06733
-2.06734
-2.06734
-2.06735
-2.06736
-2.06737
-2.06739
-2.0674
-2.06742
-2.06743
-2.06745
-2.06747
-2.06749
-2.0675
-2.06752
-2.06753
-2.06754
-2.06755
-2.06755
-2.06756
-2.06756
-2.06756
-2.06755
-2.06755
-2.06754
-2.06754
-2.06753
-2.06752
-2.06751
-2.0675
-2.06749
-2.06748
-2.06747
-2.06746
-2.06745
-2.06744
-2.06743
-2.06742
-2.06741
-2.06741
-2.0674
-2.0674
-2.06741
-2.06741
-2.06742
-2.06743
-2.06743
-2.06744
-2.06744
-2.06744
-2.06744
-2.06743
-2.06743
-2.06742
-2.06741
-2.0674
-2.06739
-2.06738
-2.06737
-2.06736
-2.06736
-2.06735
-2.06735
-2.06735
-2.06735
-2.06735
-2.16577
-2.16577
-2.16577
-2.16577
-2.16577
-2.16577
-2.16578
-2.16578
-2.16579
-2.16579
-2.1658
-2.1658
-2.1658
-2.1658
-2.1658
-2.1658
-2.1658
-2.1658
-2.1658
-2.1658
-2.1658
-2.16579
-2.16579
-2.16579
-2.16579
-2.16578
-2.16578
-2.16578
-2.16578
-2.16578
-2.16577
-2.16577
-2.16577
-2.16578
-2.16578
-2.16579
-2.1658
-2.16581
-2.16582
-2.16583
-2.16584
-2.16586
-2.16587
-2.16589
-2.16591
-2.16592
-2.16594
-2.16596
-2.16597
-2.16598
-2.16599
-2.166
-2.166
-2.16601
-2.16601
-2.16601
-2.16601
-2.166
-2.16599
-2.16599
-2.16598
-2.16597
-2.16596
-2.16595
-2.16593
-2.16592
-2.16591
-2.1659
-2.16589
-2.16588
-2.16587
-2.16586
-2.16585
-2.16584
-2.16584
-2.16584
-2.16585
-2.16585
-2.16586
-2.16587
-2.16587
-2.16588
-2.16588
-2.16588
-2.16588
-2.16587
-2.16587
-2.16586
-2.16585
-2.16584
-2.16583
-2.16582
-2.16581
-2.16581
-2.1658
-2.1658
-2.16579
-2.16579
-2.16579
-2.16579
-2.26421
-2.26421
-2.26421
-2.26421
-2.26421
-2.26422
-2.26422
-2.26423
-2.26423
-2.26423
-2.26424
-2.26424
-2.26424
-2.26424
-2.26424
-2.26424
-2.26424
-2.26424
-2.26424
-2.26424
-2.26424
-2.26424
-2.26423
-2.26423
-2.26423
-2.26423
-2.26423
-2.26422
-2.26422
-2.26422
-2.26422
-2.26422
-2.26422
-2.26423
-2.26423
-2.26424
-2.26425
-2.26426
-2.26427
-2.26428
-2.2643
-2.26431
-2.26433
-2.26434
-2.26436
-2.26438
-2.2644
-2.26441
-2.26442
-2.26443
-2.26444
-2.26445
-2.26445
-2.26446
-2.26446
-2.26446
-2.26445
-2.26445
-2.26444
-2.26444
-2.26443
-2.26442
-2.2644
-2.26439
-2.26438
-2.26437
-2.26436
-2.26435
-2.26434
-2.26433
-2.26432
-2.2643
-2.26429
-2.26429
-2.26428
-2.26429
-2.26429
-2.26429
-2.2643
-2.26431
-2.26431
-2.26432
-2.26432
-2.26432
-2.26432
-2.26431
-2.26431
-2.2643
-2.26429
-2.26428
-2.26428
-2.26427
-2.26426
-2.26425
-2.26425
-2.26424
-2.26424
-2.26424
-2.26424
-2.26424
-2.36265
-2.36265
-2.36265
-2.36266
-2.36266
-2.36266
-2.36266
-2.36267
-2.36267
-2.36268
-2.36268
-2.36268
-2.36268
-2.36268
-2.36268
-2.36268
-2.36268
-2.36268
-2.36268
-2.36268
-2.36268
-2.36268
-2.36268
-2.36268
-2.36267
-2.36267
-2.36267
-2.36267
-2.36267
-2.36267
-2.36267
-2.36267
-2.36267
-2.36268
-2.36268
-2.36269
-2.3627
-2.36271
-2.36272
-2.36274
-2.36275
-2.36277
-2.36278
-2.3628
-2.36281
-2.36283
-2.36285
-2.36286
-2.36287
-2.36288
-2.36289
-2.36289
-2.3629
-2.3629
-2.3629
-2.3629
-2.3629
-2.3629
-2.36289
-2.36288
-2.36287
-2.36286
-2.36285
-2.36284
-2.36282
-2.36281
-2.3628
-2.36279
-2.36278
-2.36277
-2.36276
-2.36275
-2.36274
-2.36273
-2.36273
-2.36273
-2.36273
-2.36274
-2.36274
-2.36275
-2.36276
-2.36276
-2.36276
-2.36276
-2.36276
-2.36276
-2.36275
-2.36274
-2.36274
-2.36273
-2.36272
-2.36271
-2.36271
-2.3627
-2.3627
-2.3627
-2.36269
-2.36269
-2.36269
-2.36269
-2.46109
-2.4611
-2.4611
-2.4611
-2.4611
-2.4611
-2.46111
-2.46111
-2.46111
-2.46112
-2.46112
-2.46112
-2.46112
-2.46112
-2.46112
-2.46112
-2.46113
-2.46113
-2.46113
-2.46112
-2.46112
-2.46112
-2.46112
-2.46112
-2.46112
-2.46112
-2.46112
-2.46112
-2.46112
-2.46112
-2.46112
-2.46112
-2.46112
-2.46113
-2.46113
-2.46114
-2.46115
-2.46116
-2.46118
-2.46119
-2.4612
-2.46122
-2.46123
-2.46125
-2.46126
-2.46128
-2.46129
-2.46131
-2.46131
-2.46132
-2.46133
-2.46134
-2.46134
-2.46134
-2.46135
-2.46135
-2.46135
-2.46134
-2.46134
-2.46133
-2.46132
-2.46131
-2.46129
-2.46128
-2.46127
-2.46126
-2.46124
-2.46123
-2.46122
-2.46121
-2.4612
-2.46119
-2.46119
-2.46118
-2.46118
-2.46118
-2.46118
-2.46118
-2.46119
-2.46119
-2.4612
-2.4612
-2.4612
-2.4612
-2.4612
-2.4612
-2.46119
-2.46119
-2.46118
-2.46118
-2.46117
-2.46116
-2.46116
-2.46116
-2.46115
-2.46115
-2.46115
-2.46115
-2.46115
-2.46115
-2.55954
-2.55954
-2.55954
-2.55954
-2.55954
-2.55954
-2.55955
-2.55955
-2.55955
-2.55956
-2.55956
-2.55956
-2.55956
-2.55956
-2.55957
-2.55957
-2.55957
-2.55957
-2.55957
-2.55957
-2.55957
-2.55957
-2.55957
-2.55957
-2.55956
-2.55956
-2.55956
-2.55956
-2.55956
-2.55956
-2.55956
-2.55957
-2.55957
-2.55958
-2.55958
-2.55959
-2.5596
-2.55962
-2.55963
-2.55964
-2.55966
-2.55967
-2.55968
-2.5597
-2.55971
-2.55973
-2.55974
-2.55975
-2.55976
-2.55976
-2.55977
-2.55978
-2.55978
-2.55979
-2.55979
-2.55979
-2.55979
-2.55978
-2.55978
-2.55977
-2.55976
-2.55975
-2.55974
-2.55972
-2.55971
-2.5597
-2.55969
-2.55967
-2.55966
-2.55966
-2.55965
-2.55964
-2.55963
-2.55963
-2.55963
-2.55963
-2.55963
-2.55963
-2.55963
-2.55964
-2.55964
-2.55965
-2.55965
-2.55965
-2.55965
-2.55964
-2.55964
-2.55964
-2.55963
-2.55963
-2.55962
-2.55962
-2.55961
-2.55961
-2.55961
-2.55961
-2.5596
-2.5596
-2.5596
-2.5596
-2.65798
-2.65798
-2.65798
-2.65798
-2.65798
-2.65799
-2.65799
-2.65799
-2.658
-2.658
-2.658
-2.658
-2.658
-2.65801
-2.65801
-2.65801
-2.65801
-2.65801
-2.65801
-2.65801
-2.65801
-2.65801
-2.65801
-2.65801
-2.65801
-2.65801
-2.65801
-2.65801
-2.65801
-2.65801
-2.65801
-2.65801
-2.65802
-2.65803
-2.65803
-2.65804
-2.65806
-2.65807
-2.65808
-2.65809
-2.65811
-2.65812
-2.65813
-2.65815
-2.65816
-2.65817
-2.65818
-2.65819
-2.6582
-2.6582
-2.65821
-2.65822
-2.65822
-2.65823
-2.65823
-2.65823
-2.65823
-2.65823
-2.65822
-2.65821
-2.6582
-2.65819
-2.65818
-2.65816
-2.65815
-2.65814
-2.65813
-2.65812
-2.65811
-2.6581
-2.65809
-2.65808
-2.65808
-2.65807
-2.65807
-2.65807
-2.65807
-2.65808
-2.65808
-2.65809
-2.65809
-2.65809
-2.65809
-2.65809
-2.65809
-2.65809
-2.65809
-2.65809
-2.65808
-2.65808
-2.65808
-2.65807
-2.65807
-2.65807
-2.65806
-2.65806
-2.65806
-2.65806
-2.65806
-2.65806
-2.75642
-2.75642
-2.75642
-2.75642
-2.75642
-2.75643
-2.75643
-2.75643
-2.75644
-2.75644
-2.75644
-2.75644
-2.75645
-2.75645
-2.75645
-2.75645
-2.75645
-2.75646
-2.75646
-2.75646
-2.75646
-2.75646
-2.75646
-2.75645
-2.75645
-2.75645
-2.75645
-2.75645
-2.75646
-2.75646
-2.75646
-2.75646
-2.75647
-2.75647
-2.75648
-2.75649
-2.75651
-2.75652
-2.75653
-2.75654
-2.75656
-2.75657
-2.75658
-2.75659
-2.7566
-2.75661
-2.75662
-2.75663
-2.75664
-2.75664
-2.75665
-2.75665
-2.75666
-2.75666
-2.75667
-2.75667
-2.75667
-2.75666
-2.75666
-2.75665
-2.75664
-2.75663
-2.75662
-2.7566
-2.75659
-2.75658
-2.75657
-2.75656
-2.75655
-2.75654
-2.75653
-2.75653
-2.75652
-2.75652
-2.75652
-2.75652
-2.75652
-2.75653
-2.75653
-2.75653
-2.75654
-2.75654
-2.75654
-2.75654
-2.75654
-2.75654
-2.75654
-2.75654
-2.75654
-2.75653
-2.75653
-2.75653
-2.75653
-2.75652
-2.75652
-2.75652
-2.75652
-2.75652
-2.75652
-2.75651
-2.85486
-2.85486
-2.85486
-2.85486
-2.85487
-2.85487
-2.85487
-2.85488
-2.85488
-2.85488
-2.85488
-2.85489
-2.85489
-2.85489
-2.85489
-2.8549
-2.8549
-2.8549
-2.8549
-2.8549
-2.8549
-2.8549
-2.8549
-2.8549
-2.8549
-2.8549
-2.8549
-2.8549
-2.8549
-2.8549
-2.85491
-2.85491
-2.85492
-2.85492
-2.85493
-2.85494
-2.85496
-2.85497
-2.85498
-2.85499
-2.855
-2.85502
-2.85503
-2.85504
-2.85505
-2.85506
-2.85506
-2.85507
-2.85508
-2.85508
-2.85509
-2.85509
-2.8551
-2.8551
-2.8551
-2.8551
-2.8551
-2.8551
-2.85509
-2.85509
-2.85508
-2.85506
-2.85505
-2.85504
-2.85503
-2.85502
-2.85501
-2.855
-2.85499
-2.85498
-2.85498
-2.85497
-2.85497
-2.85497
-2.85497
-2.85497
-2.85497
-2.85498
-2.85498
-2.85499
-2.85499
-2.85499
-2.85499
-2.85499
-2.85499
-2.85499
-2.85499
-2.85499
-2.85499
-2.85499
-2.85498
-2.85498
-2.85498
-2.85498
-2.85498
-2.85498
-2.85498
-2.85498
-2.85497
-2.85497
-2.9533
-2.95331
-2.95331
-2.95331
-2.95331
-2.95331
-2.95332
-2.95332
-2.95332
-2.95332
-2.95333
-2.95333
-2.95333
-2.95333
-2.95334
-2.95334
-2.95334
-2.95334
-2.95335
-2.95335
-2.95335
-2.95335
-2.95335
-2.95335
-2.95335
-2.95335
-2.95335
-2.95335
-2.95335
-2.95335
-2.95335
-2.95336
-2.95336
-2.95337
-2.95338
-2.95339
-2.9534
-2.95342
-2.95343
-2.95344
-2.95345
-2.95346
-2.95347
-2.95348
-2.95349
-2.9535
-2.95351
-2.95351
-2.95352
-2.95352
-2.95353
-2.95353
-2.95353
-2.95354
-2.95354
-2.95354
-2.95354
-2.95354
-2.95353
-2.95352
-2.95351
-2.9535
-2.95349
-2.95348
-2.95347
-2.95346
-2.95345
-2.95344
-2.95343
-2.95342
-2.95342
-2.95342
-2.95342
-2.95342
-2.95342
-2.95342
-2.95343
-2.95343
-2.95343
-2.95344
-2.95344
-2.95344
-2.95344
-2.95344
-2.95344
-2.95344
-2.95344
-2.95344
-2.95344
-2.95344
-2.95344
-2.95344
-2.95344
-2.95344
-2.95344
-2.95344
-2.95344
-2.95344
-2.95343
-2.95342
-3.05175
-3.05175
-3.05175
-3.05175
-3.05175
-3.05176
-3.05176
-3.05176
-3.05176
-3.05177
-3.05177
-3.05177
-3.05177
-3.05178
-3.05178
-3.05178