/*--------------------------------*- C++ -*----------------------------------*\
| =========                 |                                                 |
| \\      /  F ield         | OpenFOAM: The Open Source CFD Toolbox           |
|  \\    /   O peration     | Version:  4.1                                   |
|   \\  /    A nd           | Web:      www.OpenFOAM.org                      |
|    \\/     M anipulation  |                                                 |
\*---------------------------------------------------------------------------*/
FoamFile
{
    version     2.0;
    format      ascii;
    class       volScalarField;
    location    "1660";
    object      mag(U);
}
// * * * * * * * * * * * * * * * * * * * * * * * * * * * * * * * * * * * * * //

dimensions      [0 1 -1 0 0 0 0];

internalField   nonuniform List<scalar> 
5000
(
0.00583527
0.00805072
0.0113931
0.0142519
0.0167024
0.0187568
0.0204204
0.0216924
0.022568
0.0230355
0.0230717
0.0226568
0.0217819
0.0204322
0.0186099
0.0163338
0.0136438
0.0106313
0.00751382
0.00474722
0.00299801
0.00486364
0.00778901
0.0108668
0.0138086
0.0165427
0.019054
0.0213324
0.0233716
0.0251711
0.026737
0.0280799
0.0292133
0.0301522
0.0309112
0.031504
0.0319426
0.0322365
0.0323932
0.0324196
0.0323211
0.0321012
0.0317608
0.0312986
0.0307128
0.0300013
0.0291634
0.0281998
0.0271137
0.0259105
0.0245989
0.0231908
0.0217009
0.020147
0.0185493
0.0169299
0.0153115
0.0137118
0.0121207
0.010425
0.00810732
0.00398526
0.00166253
0.00257221
0.00391941
0.00511574
0.00620281
0.00722055
0.00818799
0.00911137
0.00998944
0.0108164
0.0115838
0.0122819
0.0129017
0.0134351
0.0138753
0.0142163
0.0144533
0.0145825
0.0146017
0.0145062
0.0142941
0.0139663
0.0135236
0.0129661
0.012292
0.0114969
0.0105724
0.00950432
0.00827095
0.0068478
0.00523107
0.00350833
0.00200834
0.00223338
0.00361117
0.00469731
0.00488586
0.00487007
0.00849632
0.00891977
0.0113737
0.0138066
0.0159888
0.0178268
0.0192935
0.020378
0.0210748
0.0213766
0.0212639
0.0207511
0.0198379
0.0185148
0.0167895
0.0146934
0.0122995
0.00977229
0.00748783
0.00609899
0.00594853
0.0071644
0.00939441
0.0119845
0.0145936
0.0170931
0.0194308
0.0215796
0.0235249
0.0252623
0.0267947
0.028131
0.0292832
0.030265
0.0310905
0.0317729
0.0323238
0.0327528
0.033066
0.0332663
0.0333459
0.0333043
0.033141
0.0328525
0.0324349
0.0318844
0.0311984
0.0303756
0.0294171
0.0283262
0.0271092
0.0257747
0.0243337
0.0227981
0.0211793
0.0194854
0.0177158
0.015855
0.0138668
0.0117768
0.00984701
0.00755458
0.00414176
0.00367978
0.00479144
0.00605684
0.00725212
0.00836677
0.00941004
0.0103872
0.0112976
0.0121364
0.0128967
0.0135706
0.0141505
0.0146295
0.0150019
0.0152631
0.0154105
0.0154422
0.0153562
0.0151597
0.0148544
0.0144429
0.0139274
0.0133101
0.0125917
0.0117718
0.0108481
0.00981656
0.00867387
0.00742763
0.00612655
0.0049213
0.00407619
0.00350252
0.00307177
0.00325456
0.00321485
0.00633495
0.0121945
0.0109778
0.0117673
0.0131093
0.0145651
0.0158879
0.016981
0.017802
0.0183313
0.0185547
0.0184506
0.0180342
0.0172994
0.0162507
0.014919
0.0133714
0.0117375
0.010257
0.00928329
0.00898539
0.00920134
0.0100456
0.0115707
0.0134745
0.0155114
0.0175408
0.0194851
0.0212999
0.0229599
0.0244531
0.0257772
0.0269367
0.0279404
0.0287996
0.0295262
0.0301317
0.0306266
0.0310192
0.0313157
0.0315206
0.0316358
0.0316536
0.031572
0.0313878
0.0310948
0.0306878
0.0301616
0.0295119
0.0287358
0.0278325
0.0268032
0.0256515
0.0243825
0.0230023
0.0215161
0.0199264
0.0182315
0.0164305
0.014559
0.0128759
0.0120609
0.0113251
0.00756662
0.00504612
0.00509002
0.00592034
0.00694974
0.00800124
0.00902054
0.00998734
0.0108907
0.0117216
0.0124718
0.0131332
0.0136989
0.0141629
0.0145208
0.0147693
0.0149065
0.0149309
0.0148439
0.0146508
0.014355
0.0139616
0.0134753
0.0129012
0.0122442
0.0115092
0.0107019
0.00983
0.00890791
0.00796708
0.00707373
0.00633891
0.00586017
0.00551358
0.00418626
0.00265866
0.00231794
0.0083818
0.0156469
0.0134014
0.0127876
0.0129304
0.0134723
0.014125
0.0147402
0.0152355
0.0155658
0.0157021
0.0156191
0.0153366
0.0148611
0.0142206
0.0134748
0.0127134
0.0120576
0.0116613
0.0116346
0.0118132
0.0120883
0.0127308
0.0137697
0.0150875
0.0165519
0.0180602
0.0195418
0.02095
0.0222553
0.0234411
0.0245005
0.025434
0.0262466
0.0269464
0.0275427
0.0280447
0.028461
0.0287987
0.029063
0.0292563
0.029384
0.0294338
0.0294052
0.0292944
0.0290945
0.0287991
0.0284016
0.0278962
0.0272779
0.0265433
0.0256906
0.0247199
0.0236335
0.0224347
0.0211282
0.0197201
0.0182219
0.0166666
0.0151712
0.014159
0.0144108
0.0146607
0.0111756
0.00697972
0.00595581
0.00609771
0.00675443
0.00761558
0.00853573
0.00944744
0.0103163
0.0111219
0.0118503
0.0124913
0.0130368
0.0134814
0.013821
0.0140532
0.0141773
0.0141928
0.0141034
0.0139154
0.0136339
0.0132656
0.012818
0.0122994
0.0117194
0.0110891
0.0104226
0.00973863
0.00906437
0.00844075
0.00792407
0.0075677
0.00735634
0.00707842
0.00597328
0.00272967
0.00206954
0.00999713
0.018499
0.0156059
0.0140354
0.0131944
0.0128362
0.0127359
0.0127643
0.0128359
0.0128984
0.0129166
0.0128679
0.0127766
0.0126655
0.0125908
0.0126201
0.0127956
0.0131141
0.0135626
0.0140512
0.0143849
0.0146932
0.0151731
0.0158503
0.0166894
0.0176328
0.0186242
0.0196179
0.0205799
0.021486
0.0223206
0.0230754
0.0237478
0.0243393
0.0248545
0.0252995
0.0256805
0.0260036
0.0262741
0.0264959
0.0266701
0.0268043
0.0268851
0.0269098
0.0268738
0.0267702
0.0265904
0.026326
0.0259692
0.0255128
0.0249514
0.024281
0.0235002
0.0226099
0.021614
0.0205203
0.0193429
0.0181098
0.0168855
0.0158448
0.015494
0.0165703
0.0174923
0.0144062
0.00931028
0.00725448
0.00679721
0.00700411
0.0075642
0.00828676
0.00906316
0.00983263
0.0105599
0.011223
0.0118076
0.012304
0.012706
0.0130096
0.013213
0.0133158
0.0133179
0.0132252
0.0130442
0.0127809
0.0124436
0.0120418
0.0115869
0.0110929
0.0105769
0.0100604
0.00957063
0.00914166
0.00881395
0.00862537
0.00858329
0.00860592
0.00844513
0.00760335
0.00347492
0.00198415
0.0112212
0.0207906
0.0174514
0.0152414
0.0136896
0.0125806
0.0117579
0.0111538
0.0107272
0.0104524
0.0103091
0.0102953
0.0104526
0.0108222
0.0114623
0.0123786
0.0134786
0.0145912
0.0155934
0.0163083
0.0167041
0.0170133
0.0173387
0.0177215
0.0181645
0.0186514
0.0191617
0.0196779
0.0201862
0.0206763
0.0211397
0.0215704
0.0219647
0.0223215
0.0226416
0.0229271
0.0231808
0.0234056
0.0236041
0.0237784
0.0239289
0.0240578
0.0241665
0.0242429
0.0242809
0.0242751
0.0242148
0.0240901
0.0238907
0.0236072
0.0232316
0.022758
0.0221833
0.0215081
0.0207375
0.019883
0.0189666
0.0180297
0.0171581
0.01656
0.0167753
0.0184657
0.0198846
0.0172211
0.0118392
0.00872631
0.00784443
0.0076609
0.00788503
0.00833894
0.00890387
0.0095046
0.0100943
0.0106435
0.0111328
0.0115495
0.0118856
0.0121364
0.0122996
0.0123747
0.0123616
0.0122678
0.0120994
0.0118625
0.0115659
0.01122
0.0108381
0.0104373
0.0100388
0.00966962
0.00936189
0.00915229
0.00907695
0.00915837
0.00937645
0.00961992
0.00962667
0.00884245
0.00503951
0.00190224
0.0122127
0.0226204
0.018944
0.0162883
0.0142441
0.0125706
0.0111402
0.00993444
0.00897337
0.00829594
0.00794219
0.00797584
0.00847379
0.00946207
0.0109155
0.0126991
0.0145729
0.0162446
0.0175515
0.0183287
0.0187816
0.0190481
0.0192191
0.0193489
0.0194588
0.0195527
0.0196325
0.0197042
0.0197768
0.0198582
0.0199523
0.0200593
0.0201772
0.0203028
0.0204334
0.0205665
0.0207005
0.020834
0.0209659
0.0210954
0.0212213
0.0213414
0.0214676
0.0215836
0.0216861
0.0217688
0.0218208
0.0218313
0.0217881
0.0216798
0.0214957
0.0212277
0.0208709
0.0204246
0.0198944
0.0192941
0.0186506
0.0180137
0.0174806
0.0172765
0.0179525
0.0201013
0.0219086
0.0196888
0.0143174
0.0103707
0.00904633
0.00857431
0.00849755
0.0086652
0.00897396
0.0093524
0.00975204
0.01014
0.0104939
0.0107985
0.0110436
0.0112235
0.0113353
0.011378
0.011351
0.0112632
0.0111193
0.0109244
0.0106857
0.010413
0.010119
0.00982139
0.00954286
0.00931205
0.00916273
0.00913139
0.00925104
0.00953785
0.00996488
0.0104192
0.0106316
0.00997953
0.00675769
0.00171815
0.0130208
0.0240677
0.0201171
0.0171339
0.014751
0.0126785
0.010788
0.00907693
0.00760251
0.00647521
0.00585615
0.00597451
0.00695944
0.00869082
0.0109445
0.0134557
0.0158984
0.0179167
0.0192956
0.0201551
0.0206167
0.0208036
0.0208172
0.020722
0.0205475
0.0203053
0.0200086
0.019681
0.0193524
0.0190511
0.0187971
0.0186001
0.0184617
0.018378
0.0183424
0.0183475
0.018386
0.018451
0.0185363
0.0186368
0.0187483
0.0188644
0.0189996
0.0191397
0.019285
0.0194312
0.0195708
0.0196933
0.019787
0.0198392
0.0198374
0.0197708
0.0196316
0.0194167
0.0191299
0.0187847
0.0184095
0.018057
0.0178293
0.0179596
0.0190017
0.0214932
0.0236187
0.0218538
0.0166724
0.0121614
0.0102872
0.00960934
0.00929414
0.0092
0.00924519
0.0093731
0.00954366
0.00972812
0.00990573
0.0100617
0.010186
0.0102728
0.0103192
0.010324
0.0102859
0.010215
0.0101135
0.00998309
0.00982779
0.00965359
0.00947006
0.0092916
0.00913841
0.00903682
0.00901868
0.00911902
0.00937102
0.00979471
0.010374
0.0110125
0.0114387
0.0109905
0.00823957
0.0014058
0.0136573
0.0251949
0.021008
0.017771
0.0151539
0.0128105
0.0105992
0.00850949
0.0065981
0.00500404
0.00405004
0.00435144
0.00602745
0.00853369
0.0114607
0.0145092
0.0173227
0.0194146
0.0208913
0.0217843
0.0222052
0.0222861
0.0221409
0.0218428
0.0214238
0.0208952
0.0202743
0.0195965
0.0189109
0.0182664
0.0177006
0.0172351
0.0168766
0.0166211
0.016458
0.0163737
0.016354
0.0163851
0.0164543
0.0165507
0.0166655
0.0167891
0.016929
0.0170806
0.0172437
0.0174196
0.0176081
0.0178036
0.0179976
0.0181789
0.0183342
0.01845
0.0185145
0.0185203
0.0184668
0.0183644
0.0182393
0.0181432
0.018179
0.018584
0.0199124
0.0226601
0.0250553
0.0237488
0.0188795
0.0140046
0.011578
0.0106774
0.0101829
0.00987049
0.00967247
0.00954743
0.00946807
0.00941568
0.00937728
0.00934406
0.00931067
0.00927471
0.00923608
0.00919455
0.00914839
0.00910851
0.00907192
0.00903463
0.00899429
0.00895017
0.0089049
0.00886593
0.00884677
0.00886782
0.0089563
0.00914519
0.00947035
0.00996267
0.0106287
0.0114024
0.0120269
0.0118165
0.00923349
0.000749255
0.0141319
0.0260569
0.0216557
0.01821
0.0154287
0.0129069
0.0104868
0.0081422
0.0059074
0.00388292
0.00249669
0.00320494
0.00574094
0.0089243
0.012347
0.015748
0.018594
0.0208158
0.022338
0.0232089
0.0235496
0.023505
0.0232018
0.0227202
0.0220907
0.0213192
0.0204217
0.0194424
0.0184476
0.0175069
0.0166759
0.0159889
0.015458
0.0150786
0.0148352
0.0147068
0.0146706
0.0147045
0.0147884
0.0149049
0.01504
0.0151824
0.0153249
0.0154817
0.0156442
0.0158205
0.0160191
0.0162436
0.0164936
0.0167626
0.0170391
0.0173073
0.0175508
0.0177555
0.0179143
0.0180316
0.0181287
0.0182542
0.0185094
0.0191345
0.020683
0.0236203
0.026248
0.025396
0.0209211
0.015857
0.0129244
0.0117269
0.0110967
0.0106125
0.0102063
0.00984646
0.00951618
0.00920797
0.00892034
0.00865614
0.00842138
0.00822402
0.00807243
0.00797123
0.00791979
0.00792759
0.00798242
0.00807058
0.00817975
0.00829885
0.00841991
0.00854012
0.00866347
0.00880238
0.0089783
0.00922172
0.00957147
0.0100707
0.0107526
0.0115926
0.0123729
0.0123996
0.00991825
0.000628518
0.0144901
0.0267032
0.0220986
0.0184704
0.0155704
0.0129344
0.0103883
0.00789036
0.00545565
0.00311232
0.00116418
0.0027773
0.00607165
0.0097604
0.0133989
0.016867
0.0198474
0.0221185
0.0236243
0.0244251
0.0246543
0.0244706
0.0240132
0.023367
0.0225573
0.0215805
0.0204483
0.0192125
0.0179564
0.0167698
0.0157262
0.0148713
0.0142213
0.0137693
0.0134928
0.0133614
0.0133428
0.0134058
0.0135233
0.0136725
0.0138356
0.0139997
0.0141538
0.0143081
0.0144593
0.0146197
0.0148038
0.0150255
0.0152944
0.015613
0.0159739
0.0163611
0.0167532
0.0171286
0.0174715
0.0177786
0.0180649
0.0183744
0.0188063
0.0196033
0.0213175
0.0243917
0.0272212
0.0268142
0.0227903
0.01769
0.0142838
0.0127764
0.0119884
0.0113744
0.0108003
0.0102371
0.0096735
0.00910949
0.00855376
0.00802288
0.00754004
0.00713284
0.00682924
0.00664796
0.00659364
0.00666928
0.00684589
0.00709395
0.00738643
0.00769811
0.00800771
0.00830041
0.00856997
0.008821
0.00906962
0.00934391
0.00968431
0.0101429
0.0107756
0.0116042
0.012475
0.0127236
0.0105264
0.00216665
0.0147634
0.0271771
0.0223729
0.018575
0.0155848
0.012878
0.01027
0.00769887
0.00518471
0.00274853
0.00027717
0.00336828
0.00690015
0.0106067
0.0144217
0.0180172
0.021046
0.0233037
0.0247413
0.0254321
0.025525
0.0251941
0.0245896
0.0237981
0.0228357
0.0216857
0.0203546
0.0189026
0.0174309
0.0160497
0.0148488
0.0138823
0.0131672
0.0126906
0.0124203
0.0123151
0.0123328
0.0124346
0.0125882
0.0127676
0.0129536
0.0131331
0.013296
0.0134474
0.0135875
0.0137297
0.0138933
0.0140997
0.0143685
0.0147118
0.0151294
0.0156066
0.016118
0.0166342
0.0171304
0.0175946
0.0180353
0.0184916
0.0190611
0.0199881
0.0218223
0.0249901
0.027994
0.0280173
0.0244815
0.0194742
0.0156648
0.0138012
0.0128494
0.0121153
0.0114132
0.0106852
0.00992058
0.00912136
0.00830065
0.00748453
0.00671302
0.00604054
0.00553102
0.00523854
0.00518373
0.00535347
0.00568759
0.00613025
0.00663432
0.0071582
0.0076669
0.00813452
0.00854601
0.00889996
0.00920864
0.00949814
0.00980917
0.0101979
0.0107344
0.0114818
0.0123694
0.0128251
0.0110893
0.00363734
0.0149867
0.0275163
0.0225119
0.0185477
0.0154889
0.0127439
0.0100888
0.00748356
0.00496708
0.00261427
0.00138329
0.00415811
0.00768613
0.011545
0.0154865
0.0191441
0.0221686
0.0243599
0.0256833
0.0262305
0.0261684
0.0256872
0.0249461
0.0240293
0.0229391
0.021643
0.0201432
0.0185106
0.0168669
0.0153427
0.014041
0.0130195
0.0122903
0.0118298
0.0115934
0.0115289
0.0115859
0.0117211
0.0118997
0.0120958
0.0122909
0.0124733
0.0126352
0.0127807
0.0129114
0.0130408
0.0131901
0.0133852
0.0136527
0.0140133
0.0144734
0.0150211
0.0156282
0.0162581
0.0168776
0.0174668
0.018028
0.0185965
0.0192682
0.0202892
0.0222047
0.0254297
0.0285823
0.0290167
0.0259913
0.0211852
0.0170686
0.0147978
0.0136624
0.0128266
0.0120079
0.0111558
0.0102325
0.00923711
0.00818122
0.00709212
0.00601569
0.0050269
0.00423846
0.00378022
0.00372596
0.00402997
0.004566
0.00523398
0.00596467
0.00670349
0.00740558
0.00803727
0.00857722
0.00902005
0.00937562
0.00966906
0.00994048
0.0102467
0.0106634
0.0112803
0.0121131
0.0127446
0.0115503
0.00499613
0.0151713
0.0277534
0.0225462
0.018416
0.0152734
0.0124964
0.00984774
0.00725774
0.00481079
0.00264796
0.00233236
0.00498247
0.00854582
0.0125095
0.0165457
0.0202293
0.0232018
0.0252782
0.0264462
0.0268213
0.0265914
0.025962
0.0250985
0.0240772
0.0228814
0.0214615
0.019818
0.0180372
0.0162644
0.0146499
0.0133052
0.0122845
0.0115872
0.0111741
0.010987
0.0109642
0.0110513
0.0112039
0.0113888
0.0115822
0.0117685
0.0119382
0.0120869
0.0122182
0.0123392
0.0124609
0.0126053
0.0128007
0.0130771
0.0134604
0.0139618
0.0145714
0.0152582
0.01598
0.0166964
0.0173811
0.0180318
0.0186811
0.0194242
0.0205081
0.022472
0.0257231
0.0289993
0.0298221
0.0273168
0.0227994
0.0184879
0.0157946
0.0144075
0.0134754
0.0125884
0.0116238
0.0105774
0.00943414
0.00819698
0.00688681
0.00554313
0.00423574
0.00308911
0.00234455
0.00227734
0.00279227
0.00358456
0.00449031
0.0054359
0.00636787
0.00723856
0.00800985
0.00865633
0.00916967
0.0095576
0.00984449
0.0100703
0.0102911
0.0105833
0.0110462
0.0117657
0.0125129
0.0118649
0.00616948
0.015319
0.0279156
0.0225013
0.0181812
0.0149696
0.0121799
0.00954914
0.00699331
0.00464478
0.00277401
0.00307542
0.00577385
0.00939913
0.0134777
0.0175907
0.0212622
0.0241352
0.0260502
0.0270261
0.0272064
0.0268016
0.0260316
0.0250633
0.0239587
0.0226768
0.0211509
0.0193851
0.0174876
0.0156304
0.0139813
0.0126531
0.0116862
0.0110592
0.0107135
0.0105782
0.010587
0.0106857
0.0108336
0.0110019
0.0111712
0.0113294
0.0114705
0.0115934
0.0117031
0.0118098
0.0119252
0.0120725
0.0122804
0.0125801
0.012999
0.0135494
0.0142207
0.014979
0.0157766
0.016568
0.0173225
0.0180355
0.0187381
0.0195259
0.0206465
0.0226309
0.0258814
0.0292569
0.0304419
0.0284566
0.024297
0.0199078
0.0168165
0.015111
0.0140413
0.013089
0.0120713
0.0109487
0.00970654
0.00833852
0.00687488
0.00534681
0.00381114
0.00235335
0.00112866
0.000930778
0.00184165
0.00290689
0.00400407
0.00510983
0.00618567
0.0071831
0.00805855
0.00878272
0.00934416
0.00974774
0.0100163
0.0101913
0.0103279
0.0105007
0.0108062
0.0113731
0.012155
0.0120034
0.0071148
0.0154185
0.0280255
0.0223954
0.0178683
0.0146046
0.0118043
0.00919303
0.00668303
0.00444052
0.00291887
0.00369668
0.00649979
0.0102403
0.0144495
0.018618
0.0222344
0.0249585
0.0266679
0.0274194
0.0273882
0.0268083
0.025911
0.0248588
0.0236916
0.0223398
0.0207222
0.0188541
0.0168734
0.0149811
0.0133573
0.0121047
0.011238
0.0107076
0.0104352
0.0103421
0.0103628
0.0104489
0.0105668
0.0106942
0.0108173
0.0109285
0.0110255
0.0111103
0.0111912
0.0112792
0.0113885
0.0115445
0.0117761
0.0121142
0.0125842
0.013196
0.0139347
0.0147615
0.015624
0.0164728
0.0172757
0.0180275
0.0187602
0.0195703
0.0207056
0.0226874
0.0259143
0.0293656
0.0308844
0.0294104
0.0256601
0.0213058
0.0178794
0.0158075
0.0145428
0.0135082
0.0124462
0.011275
0.00997816
0.00854989
0.00701063
0.00540357
0.00380338
0.00230554
0.001009
0.000617806
0.00160688
0.00271221
0.00385849
0.00503039
0.00618187
0.007253
0.00818942
0.00895578
0.00953721
0.00993804
0.0101795
0.010299
0.0103508
0.0104095
0.0105744
0.0109683
0.011693
0.0119424
0.00777518
0.0154683
0.0281025
0.0222402
0.0175109
0.0141886
0.0113813
0.00879045
0.00633106
0.00419552
0.0030264
0.00419104
0.00716417
0.0110809
0.0154305
0.0196237
0.0231359
0.0256607
0.027123
0.0276233
0.0273712
0.026623
0.0256176
0.024505
0.0232947
0.0218857
0.0201882
0.0182394
0.0162144
0.0143429
0.012807
0.0116839
0.0109504
0.0105259
0.0103175
0.0102459
0.0102529
0.0102995
0.0103614
0.010424
0.0104794
0.0105251
0.010563
0.0105987
0.0106438
0.0107104
0.0108151
0.010986
0.0112527
0.0116444
0.0121824
0.0128698
0.0136842
0.0145798
0.0154994
0.0163918
0.0172251
0.0179963
0.0187397
0.0195537
0.020686
0.0226461
0.0258304
0.0293349
0.0311573
0.0301793
0.0268745
0.0226561
0.0189845
0.0165318
0.0150101
0.0138585
0.0127467
0.0115461
0.0102237
0.00877648
0.00723
0.00564685
0.00413071
0.00281857
0.00189457
0.00163659
0.00212494
0.00299665
0.004049
0.00519441
0.00635317
0.00744484
0.00840202
0.00918016
0.00975872
0.0101384
0.0103381
0.0103931
0.0103561
0.0103003
0.0103264
0.0105666
0.011157
0.0116559
0.00808789
0.0153956
0.0281627
0.0220601
0.0171227
0.0137386
0.0109251
0.00835264
0.0059434
0.00391546
0.00307998
0.00459163
0.00780125
0.0119415
0.016425
0.0206005
0.0239541
0.0262295
0.0274075
0.0276368
0.0271626
0.0262613
0.0251726
0.0240246
0.0227881
0.0213311
0.0195651
0.0175619
0.0155396
0.0137507
0.0123625
0.0114088
0.010821
0.0104928
0.0103263
0.0102492
0.0102149
0.0101958
0.0101772
0.0101522
0.0101192
0.010081
0.0100445
0.0100201
0.0100239
0.0100684
0.0101725
0.0103675
0.0106834
0.0111461
0.01177
0.0125481
0.0134469
0.0144123
0.0153828
0.0163069
0.0171557
0.0179302
0.0186684
0.0194717
0.020587
0.022511
0.0256374
0.0291737
0.0312687
0.0307652
0.0279282
0.0239317
0.0201193
0.0173099
0.0154797
0.0141614
0.0129785
0.0117518
0.0104233
0.0089891
0.00748419
0.00598693
0.00461571
0.00350945
0.00280459
0.00258679
0.00286835
0.00353775
0.00446954
0.00555384
0.00668357
0.00775961
0.008703
0.00946189
0.0100113
0.0103491
0.0104918
0.0104724
0.0103408
0.010168
0.0100535
0.0101347
0.0105702
0.0111521
0.00820399
0.0152515
0.028218
0.021872
0.0167218
0.0132712
0.01045
0.00789161
0.00552774
0.00360605
0.00307443
0.00494106
0.0084507
0.0128396
0.0174309
0.0215354
0.0246733
0.0266516
0.0275145
0.0274621
0.0267746
0.0257437
0.0246014
0.0234425
0.0221928
0.0206941
0.0188735
0.01685
0.0148862
0.0132429
0.0120496
0.0112821
0.01083
0.0105734
0.0104198
0.0103094
0.0102085
0.0101006
0.00997971
0.00984596
0.0097037
0.0095618
0.00943392
0.00933723
0.00929445
0.00931846
0.00943019
0.00966378
0.0100481
0.0106034
0.0113333
0.0122168
0.0132077
0.0142427
0.0152574
0.0162022
0.0170533
0.0178175
0.0185381
0.0193195
0.0204079
0.0222852
0.0253418
0.0288907
0.0312264
0.0311715
0.0288123
0.0251069
0.0212601
0.0181536
0.0159892
0.0144498
0.0131586
0.0118921
0.0105625
0.00915859
0.00772048
0.00633336
0.0051126
0.00417417
0.00360072
0.00341574
0.00362279
0.00418774
0.00503611
0.00606207
0.0071477
0.00818435
0.00908704
0.00980024
0.0102967
0.0105725
0.0106425
0.0105373
0.0103039
0.0100096
0.00975083
0.00966486
0.00992122
0.0104696
0.00813998
0.0150833
0.0282781
0.02169
0.0163251
0.0128009
0.00996862
0.00741911
0.00509485
0.00327468
0.00301063
0.00528943
0.00914795
0.0137825
0.0184374
0.0224108
0.025276
0.0269147
0.0274405
0.0271066
0.0262254
0.025097
0.0239335
0.0227853
0.0215302
0.019995
0.0181392
0.0161394
0.0142953
0.0128517
0.0118771
0.0112868
0.0109426
0.0107258
0.0105567
0.0103893
0.0102015
0.00998609
0.00974441
0.00948225
0.00920929
0.00894122
0.00870094
0.00851626
0.00842013
0.00842655
0.00855929
0.00885405
0.00933464
0.0100101
0.0108682
0.011871
0.0129583
0.0140596
0.0151098
0.0160639
0.0169052
0.0176478
0.0183409
0.0190926
0.0201472
0.0219712
0.0249498
0.0284939
0.0310387
0.0314023
0.0295204
0.0261581
0.0223762
0.0190572
0.0165679
0.0147641
0.0133193
0.0119857
0.0106457
0.00927495
0.00791152
0.0066379
0.00555669
0.00475744
0.0042867
0.00415158
0.00435805
0.00489576
0.00570734
0.00669123
0.00772847
0.00870961
0.0095498
0.010194
0.0106154
0.0108099
0.0107915
0.0105888
0.0102458
0.00982526
0.0094185
0.00915972
0.00922587
0.00964956
0.00788421
0.0149281
0.0283508
0.0215255
0.0159488
0.0123393
0.0094918
0.00694727
0.00465897
0.00292119
0.00292357
0.0056865
0.00990982
0.0147631
0.019426
0.0232058
0.025745
0.0270095
0.0271872
0.0265848
0.0255414
0.0243541
0.0232015
0.0220795
0.0208217
0.0192566
0.0173935
0.0154704
0.0138042
0.0125937
0.0118331
0.0113898
0.0111183
0.0109114
0.0107042
0.0104626
0.0101737
0.00983738
0.00946026
0.00905207
0.00862659
0.00820644
0.00782646
0.00753102
0.00737055
0.00736343
0.00753791
0.00792789
0.00854376
0.00937377
0.0103832
0.011515
0.0126975
0.0138566
0.0149301
0.0158806
0.0167004
0.0174118
0.0180701
0.0187867
0.0198041
0.0215715
0.0244675
0.0279916
0.0307143
0.031463
0.0300481
0.0270645
0.0234334
0.0199984
0.0172288
0.0151422
0.0135019
0.0120664
0.0106963
0.00935049
0.00805847
0.0068932
0.00594113
0.00526877
0.00489954
0.00484164
0.00509998
0.0056635
0.00647302
0.0074281
0.00841381
0.00932597
0.0100847
0.0106392
0.0109654
0.0110607
0.0109392
0.0106282
0.0101681
0.009617
0.00905943
0.00862367
0.00849118
0.00876242
0.0073859
0.0148123
0.0284421
0.0213847
0.0156097
0.0118957
0.00902886
0.00648945
0.00423801
0.00254192
0.00287296
0.0061683
0.0107334
0.0157629
0.0203737
0.0238994
0.0260656
0.0269317
0.0267645
0.0259209
0.0247573
0.023553
0.0224386
0.0213501
0.0200882
0.0185045
0.0166716
0.0148814
0.0134368
0.0124642
0.0118882
0.011553
0.0113213
0.0111018
0.0108419
0.0105165
0.010119
0.00965433
0.00913249
0.00856508
0.0079676
0.00736765
0.00681285
0.00637181
0.00612561
0.00610852
0.00635765
0.00689542
0.00769952
0.00872215
0.00990082
0.0111626
0.01243
0.0136312
0.0147115
0.0156437
0.0164305
0.0171024
0.0177204
0.0183994
0.0193785
0.0210894
0.0239009
0.0273923
0.0302625
0.0313603
0.0303933
0.0278084
0.0243967
0.0209419
0.0179635
0.015608
0.0137468
0.0121761
0.0107507
0.00941496
0.00818566
0.00712259
0.00629539
0.00575067
0.00549628
0.00554544
0.00589181
0.00651129
0.00733582
0.00826574
0.00919316
0.0100226
0.0106826
0.0111286
0.0113416
0.0113219
0.0110846
0.0106558
0.010073
0.00938847
0.00867887
0.00806347
0.00772422
0.00781619
0.00667825
0.0147504
0.028557
0.0212653
0.0153269
0.0114784
0.00858829
0.00606153
0.00385395
0.00213625
0.0029284
0.0067346
0.0115977
0.0167568
0.0212565
0.0244726
0.026228
0.0266854
0.0261921
0.0251491
0.023915
0.022734
0.0216756
0.0206188
0.0193503
0.0177667
0.0160094
0.014402
0.0131965
0.0124387
0.0120059
0.0117425
0.0115269
0.0112815
0.0109628
0.0105515
0.0100451
0.00945223
0.00878497
0.0080549
0.00727551
0.00647339
0.00570285
0.00506081
0.00468255
0.00465543
0.00503949
0.00580875
0.00686508
0.00811
0.00945926
0.0108352
0.0121645
0.0133837
0.0144497
0.0153473
0.0160896
0.0167149
0.0172891
0.0179295
0.0188719
0.0205287
0.0232568
0.0267052
0.0296936
0.031102
0.030556
0.0283748
0.0252323
0.0218441
0.0187424
0.0161634
0.0140822
0.0123556
0.0108526
0.00951109
0.00833579
0.0073721
0.00667242
0.00626359
0.00614132
0.00632145
0.0067741
0.00745815
0.00829783
0.00919609
0.0100537
0.0107857
0.0113301
0.011651
0.0117353
0.0115875
0.0112241
0.0106709
0.00996217
0.00914422
0.00828414
0.00748873
0.00693491
0.00682312
0.00576879
0.0147327
0.0286986
0.02117
0.0151037
0.0110976
0.00817901
0.00568333
0.0035328
0.00170274
0.00313986
0.00736435
0.0124735
0.0177179
0.0220526
0.0249112
0.0262304
0.0262847
0.0255016
0.0243132
0.0230609
0.0219347
0.0209374
0.019903
0.0186284
0.0170736
0.0154374
0.0140432
0.0130655
0.0124829
0.0121536
0.0119359
0.0117232
0.0114478
0.0110718
0.0105797
0.00997231
0.00926106
0.00846061
0.00758216
0.00663387
0.00563136
0.00461577
0.0036905
0.00306935
0.00302481
0.00368063
0.00480398
0.00615856
0.00761844
0.00910622
0.0105568
0.0119099
0.0131154
0.0141424
0.0149882
0.0156751
0.0162478
0.0167761
0.0173789
0.0182877
0.0198951
0.022543
0.0259405
0.0290191
0.0306976
0.0305382
0.0287521
0.0259096
0.0226577
0.0195192
0.0167843
0.0145138
0.0126328
0.0110427
0.00968679
0.00856229
0.00770092
0.0071364
0.00687312
0.00689905
0.00721698
0.00777283
0.00851106
0.00935296
0.0102052
0.0109778
0.0115963
0.0120096
0.0121907
0.0121337
0.0118477
0.0113516
0.0106709
0.00983667
0.00888914
0.00788445
0.00691295
0.00613792
0.00579372
0.00469719
0.0147516
0.028868
0.021103
0.0149331
0.010767
0.00781146
0.00537844
0.00330304
0.00124106
0.0034979
0.00802266
0.013327
0.0186205
0.0227437
0.0252072
0.0260799
0.0257556
0.0247355
0.0234634
0.0222395
0.0211851
0.0202403
0.0192168
0.0179439
0.0164491
0.0149733
0.0137963
0.0130134
0.0125644
0.012309
0.0121224
0.0119089
0.0116071
0.0111827
0.0106226
0.00993043
0.00912172
0.00821598
0.00722747
0.00616074
0.00501537
0.00379684
0.00253969
0.00140412
0.00135598
0.00261865
0.00415506
0.00574914
0.00734253
0.00889221
0.0103522
0.0116767
0.0128279
0.0137885
0.014566
0.0151879
0.0157033
0.0161847
0.016752
0.0176318
0.019196
0.0217691
0.0251098
0.0282518
0.0301581
0.0303443
0.0289317
0.0264012
0.0233361
0.0202377
0.0174244
0.0150196
0.0130127
0.0113471
0.00998285
0.00891626
0.00816628
0.00774498
0.00763036
0.00781267
0.00825177
0.00888968
0.00966028
0.0104839
0.0112713
0.0119413
0.0124301
0.0126976
0.0127267
0.012519
0.0120888
0.0114574
0.0106502
0.00969563
0.00862751
0.00749032
0.00635422
0.00535742
0.00475015
0.00352448
0.0148213
0.0290659
0.0210676
0.014791
0.0105107
0.00749976
0.00516917
0.00317878
0.000762168
0.0039466
0.00867312
0.0141229
0.0194411
0.0233162
0.02536
0.0257944
0.0251356
0.0239446
0.0226497
0.0214864
0.0205033
0.0195943
0.0185708
0.0173124
0.0159105
0.0146135
0.0136396
0.0130122
0.012661
0.0124623
0.0123007
0.0120891
0.0117706
0.0113129
0.0107044
0.00995165
0.00907616
0.00810657
0.00706745
0.00596967
0.00481013
0.00358124
0.00228587
0.00102739
0.0011349
0.00257705
0.00416298
0.00576076
0.00732737
0.00882423
0.0102108
0.0114507
0.0125224
0.0133926
0.0140848
0.0146327
0.0150872
0.0155215
0.0160564
0.0169126
0.0184411
0.0209462
0.0242262
0.0274063
0.0294965
0.029981
0.0289084
0.0266848
0.0238368
0.0208397
0.0180232
0.0155529
0.0134716
0.0117655
0.010418
0.00942857
0.00880283
0.00852745
0.00855634
0.00887719
0.0094112
0.0101028
0.0108802
0.0116622
0.0123639
0.0129126
0.0132557
0.0133646
0.0132324
0.0128685
0.0122923
0.0115277
0.0106002
0.00953549
0.00836163
0.00711158
0.00583394
0.00463098
0.00373745
0.00230052
0.0149569
0.0292927
0.0210657
0.0146732
0.0103196
0.00725989
0.00506451
0.00312107
0.000496668
0.00440723
0.00928108
0.0148269
0.0201591
0.0237608
0.0253763
0.0254019
0.0244713
0.0231812
0.021913
0.0208241
0.0198964
0.0189999
0.0179734
0.0167456
0.0154778
0.0143599
0.0135362
0.0130291
0.0127604
0.012612
0.0124768
0.0122743
0.0119514
0.0114779
0.0108448
0.0100631
0.00916222
0.00818346
0.00716739
0.00614129
0.00511814
0.00411738
0.00321371
0.00262462
0.00272857
0.00357231
0.00480077
0.00616716
0.00755533
0.00889542
0.0101358
0.0112378
0.0121763
0.0129364
0.0135465
0.0140181
0.0144089
0.0147965
0.0153026
0.0161418
0.0176428
0.0200879
0.0233053
0.0264992
0.0287278
0.0294572
0.0286804
0.026743
0.0241235
0.0212707
0.0185157
0.0160513
0.0139606
0.0122674
0.0109777
0.0100937
0.00960492
0.00947041
0.00962971
0.0100563
0.0106583
0.0113752
0.0121338
0.0128501
0.0134443
0.0138526
0.0140347
0.0139744
0.0136752
0.0131541
0.0124352
0.0115449
0.0105082
0.00934887
0.00808947
0.00675328
0.00537092
0.00400902
0.00283743
0.00113519
0.0151491
0.0295486
0.0210981
0.0145811
0.0101612
0.00713217
0.00504543
0.00304343
0.000697251
0.00484336
0.00981904
0.0154082
0.0207557
0.0240715
0.0252704
0.0249395
0.0238124
0.022491
0.0212797
0.0202563
0.0193594
0.0184576
0.0174311
0.0162854
0.0151352
0.0141547
0.0134612
0.0130574
0.0128613
0.0127622
0.0126604
0.0124809
0.0121733
0.011709
0.0110809
0.0103037
0.00941463
0.00846832
0.00752339
0.00662613
0.00580461
0.00508635
0.00453114
0.0042455
0.00434915
0.00488848
0.00576053
0.00681756
0.00794536
0.00906075
0.0101031
0.0110296
0.0118127
0.0124455
0.0129488
0.0133471
0.01368
0.0140231
0.0145047
0.0153336
0.0168162
0.0192106
0.0223645
0.0255487
0.0278686
0.0287841
0.0282494
0.0265641
0.0241676
0.0214845
0.0188419
0.0164486
0.0144163
0.0127976
0.0116144
0.0108666
0.0105241
0.0105203
0.0107999
0.0112987
0.0119414
0.0126595
0.013375
0.0140013
0.0144648
0.0147135
0.0147211
0.0144842
0.0140168
0.0133427
0.0124902
0.011487
0.0103578
0.00912349
0.00780174
0.00640796
0.00496743
0.00355182
0.00225437
0.000957165
0.0153913
0.0298341
0.0211662
0.0145165
0.010044
0.00707323
0.0050889
0.00292109
0.00107278
0.00523191
0.0102617
0.0158433
0.0212123
0.0242453
0.0250629
0.0244486
0.0232053
0.0219016
0.0207534
0.0197759
0.0188836
0.0179792
0.0169768
0.0158929
0.014848
0.0139899
0.0134077
0.0130923
0.0129628
0.0129153
0.0128567
0.0127164
0.0124458
0.0120169
0.0114229
0.0106803
0.00983105
0.00893943
0.00807877
0.0073108
0.00667056
0.00617379
0.00584029
0.00570391
0.00580179
0.00617166
0.0067791
0.00754936
0.00840291
0.00926791
0.0100865
0.0108162
0.0114314
0.0119273
0.0123182
0.0126309
0.0129098
0.0132169
0.01368
0.0145063
0.01598
0.0183334