/*--------------------------------*- C++ -*----------------------------------*\
| =========                 |                                                 |
| \\      /  F ield         | OpenFOAM: The Open Source CFD Toolbox           |
|  \\    /   O peration     | Version:  4.1                                   |
|   \\  /    A nd           | Web:      www.OpenFOAM.org                      |
|    \\/     M anipulation  |                                                 |
\*---------------------------------------------------------------------------*/
FoamFile
{
    version     2.0;
    format      ascii;
    class       volScalarField;
    location    "1660";
    object      p;
}
// * * * * * * * * * * * * * * * * * * * * * * * * * * * * * * * * * * * * * //

dimensions      [0 2 -2 0 0 0 0];

internalField   nonuniform List<scalar> 
5000
(
0
-3.02025e-05
-6.38113e-05
-9.93775e-05
-0.000134187
-0.000165941
-0.00019264
-0.000212616
-0.000224522
-0.000227205
-0.000219661
-0.000201297
-0.000172287
-0.000134041
-8.89899e-05
-4.0473e-05
7.45645e-06
5.00464e-05
8.21728e-05
0.000101171
0.000111928
0.000115314
0.000106525
8.57449e-05
5.61517e-05
2.03921e-05
-1.95751e-05
-6.1944e-05
-0.000104992
-0.000147225
-0.000187476
-0.000224905
-0.000258968
-0.000289362
-0.000315965
-0.00033878
-0.000357885
-0.000373392
-0.000385427
-0.000394115
-0.000399561
-0.000401886
-0.000401217
-0.000397644
-0.000391255
-0.000382169
-0.00037056
-0.000356669
-0.00034081
-0.000323369
-0.0003048
-0.000285605
-0.000266311
-0.000247439
-0.000229474
-0.000212844
-0.000197903
-0.000184937
-0.000174181
-0.000165795
-0.000160048
-0.000160159
-0.000166933
-0.000179765
-0.000192112
-0.000204079
-0.000215994
-0.000228027
-0.000240211
-0.000252466
-0.000264628
-0.000276473
-0.000287734
-0.000298111
-0.000307299
-0.000315019
-0.000321036
-0.000325156
-0.000327224
-0.000327122
-0.000324792
-0.000320251
-0.000313576
-0.000304907
-0.000294432
-0.000282371
-0.000268963
-0.000254474
-0.000239204
-0.000223494
-0.000207781
-0.000192765
-0.000179703
-0.000170562
-0.000167259
-0.000169273
-0.000176223
-0.000185804
-0.000192899
-0.000192255
-0.0984152
-0.098449
-0.0984847
-0.0985226
-0.0985596
-0.0985933
-0.0986217
-0.0986432
-0.0986565
-0.0986606
-0.0986546
-0.0986378
-0.0986105
-0.0985741
-0.0985311
-0.0984846
-0.0984388
-0.0983983
-0.0983678
-0.0983488
-0.0983369
-0.0983329
-0.0983416
-0.0983613
-0.0983894
-0.0984237
-0.0984621
-0.098503
-0.0985445
-0.0985851
-0.0986239
-0.0986599
-0.0986926
-0.0987217
-0.0987471
-0.0987688
-0.098787
-0.0988016
-0.0988129
-0.0988207
-0.0988253
-0.0988268
-0.0988254
-0.0988211
-0.0988138
-0.0988038
-0.0987912
-0.0987761
-0.0987588
-0.0987398
-0.0987195
-0.0986983
-0.0986768
-0.0986555
-0.0986347
-0.0986149
-0.0985964
-0.0985791
-0.0985631
-0.0985487
-0.0985367
-0.0985334
-0.0985439
-0.0985591
-0.0985748
-0.0985897
-0.0986045
-0.0986192
-0.0986339
-0.0986486
-0.0986632
-0.0986773
-0.0986907
-0.098703
-0.0987141
-0.0987235
-0.0987311
-0.0987367
-0.09874
-0.0987412
-0.09874
-0.0987364
-0.0987307
-0.0987229
-0.0987134
-0.0987023
-0.0986898
-0.0986764
-0.0986623
-0.0986478
-0.0986334
-0.0986198
-0.0986081
-0.0985996
-0.0985959
-0.0985964
-0.0986005
-0.0986063
-0.0986091
-0.0986039
-0.196865
-0.196897
-0.196931
-0.196968
-0.197005
-0.197038
-0.197066
-0.197088
-0.197101
-0.197105
-0.1971
-0.197084
-0.197058
-0.197023
-0.196982
-0.196937
-0.196894
-0.196856
-0.196828
-0.196808
-0.196796
-0.196792
-0.1968
-0.196818
-0.196845
-0.196878
-0.196914
-0.196954
-0.196993
-0.197033
-0.19707
-0.197104
-0.197136
-0.197163
-0.197188
-0.197209
-0.197226
-0.19724
-0.197251
-0.197259
-0.197263
-0.197265
-0.197263
-0.197259
-0.197252
-0.197242
-0.197229
-0.197213
-0.197195
-0.197175
-0.197154
-0.197131
-0.197108
-0.197085
-0.197061
-0.197039
-0.197017
-0.196997
-0.196978
-0.19696
-0.196946
-0.196942
-0.196955
-0.196971
-0.196989
-0.197006
-0.197023
-0.19704
-0.197057
-0.197074
-0.19709
-0.197106
-0.197121
-0.197135
-0.197147
-0.197158
-0.197166
-0.197172
-0.197176
-0.197177
-0.197176
-0.197172
-0.197167
-0.197159
-0.19715
-0.197139
-0.197127
-0.197114
-0.1971
-0.197086
-0.197072
-0.19706
-0.197048
-0.19704
-0.197036
-0.197036
-0.197038
-0.197043
-0.197044
-0.197039
-0.295334
-0.295361
-0.29539
-0.295424
-0.295459
-0.29549
-0.295517
-0.295537
-0.29555
-0.295554
-0.295549
-0.295534
-0.29551
-0.295477
-0.295438
-0.295396
-0.295355
-0.295319
-0.295292
-0.295272
-0.29526
-0.295257
-0.295265
-0.295282
-0.295307
-0.295338
-0.295373
-0.295411
-0.295448
-0.295486
-0.295521
-0.295553
-0.295583
-0.295609
-0.295632
-0.295651
-0.295667
-0.295681
-0.295691
-0.295698
-0.295703
-0.295704
-0.295703
-0.295699
-0.295692
-0.295682
-0.29567
-0.295655
-0.295637
-0.295617
-0.295595
-0.295572
-0.295547
-0.295523
-0.295498
-0.295474
-0.295451
-0.295429
-0.295409
-0.295391
-0.295377
-0.295373
-0.295384
-0.2954
-0.295418
-0.295435
-0.295453
-0.295471
-0.295489
-0.295507
-0.295524
-0.295541
-0.295557
-0.295571
-0.295584
-0.295594
-0.295603
-0.295609
-0.295613
-0.295614
-0.295613
-0.295609
-0.295603
-0.295596
-0.295587
-0.295576
-0.295564
-0.295552
-0.295539
-0.295525
-0.295512
-0.2955
-0.29549
-0.295481
-0.295476
-0.295475
-0.295476
-0.29548
-0.295481
-0.295477
-0.393807
-0.39383
-0.393854
-0.393884
-0.393915
-0.393943
-0.393967
-0.393986
-0.393998
-0.394002
-0.393997
-0.393984
-0.393962
-0.393932
-0.393895
-0.393855
-0.393817
-0.393784
-0.393758
-0.393739
-0.393727
-0.393725
-0.393733
-0.393749
-0.393773
-0.393802
-0.393835
-0.39387
-0.393906
-0.393941
-0.393973
-0.394003
-0.394031
-0.394055
-0.394076
-0.394093
-0.394108
-0.394121
-0.39413
-0.394137
-0.394142
-0.394143
-0.394142
-0.394139
-0.394133
-0.394124
-0.394112
-0.394097
-0.39408
-0.39406
-0.394039
-0.394015
-0.393991
-0.393966
-0.393941
-0.393916
-0.393892
-0.39387
-0.39385
-0.393832
-0.393819
-0.393816
-0.393825
-0.39384
-0.393855
-0.393872
-0.393889
-0.393907
-0.393925
-0.393944
-0.393961
-0.393978
-0.393994
-0.394008
-0.394021
-0.394031
-0.39404
-0.394046
-0.394049
-0.39405
-0.394049
-0.394046
-0.39404
-0.394032
-0.394023
-0.394013
-0.394001
-0.393989
-0.393977
-0.393964
-0.393952
-0.393941
-0.39393
-0.393922
-0.393916
-0.393913
-0.393915
-0.393915
-0.393918
-0.393915
-0.492278
-0.492297
-0.492317
-0.492343
-0.49237
-0.492395
-0.492416
-0.492433
-0.492444
-0.492448
-0.492444
-0.492432
-0.492412
-0.492385
-0.492351
-0.492315
-0.492279
-0.492249
-0.492224
-0.492205
-0.492195
-0.492194
-0.492202
-0.492218
-0.49224
-0.492268
-0.492299
-0.492331
-0.492364
-0.492396
-0.492426
-0.492454
-0.492479
-0.4925
-0.492519
-0.492535
-0.492549
-0.49256
-0.492569
-0.492575
-0.49258
-0.492582
-0.492581
-0.492578
-0.492572
-0.492564
-0.492553
-0.492539
-0.492523
-0.492504
-0.492483
-0.49246
-0.492436
-0.492412
-0.492387
-0.492362
-0.492339
-0.492317
-0.492297
-0.49228
-0.492268
-0.492264
-0.492271
-0.492285
-0.492297
-0.492313
-0.492329
-0.492346
-0.492364
-0.492382
-0.492399
-0.492416
-0.492431
-0.492446
-0.492458
-0.492468
-0.492477
-0.492482
-0.492486
-0.492487
-0.492485
-0.492481
-0.492475
-0.492468
-0.492459
-0.492448
-0.492437
-0.492426
-0.492414
-0.492402
-0.492391
-0.49238
-0.49237
-0.492361
-0.492355
-0.492351
-0.492351
-0.49235
-0.492355
-0.492352
-0.590744
-0.590759
-0.590776
-0.590799
-0.590821
-0.590843
-0.590862
-0.590877
-0.590887
-0.590891
-0.590888
-0.590878
-0.59086
-0.590835
-0.590805
-0.590772
-0.59074
-0.590711
-0.590688
-0.590672
-0.590663
-0.590663
-0.590671
-0.590686
-0.590707
-0.590733
-0.590761
-0.590792
-0.590822
-0.590851
-0.590878
-0.590903
-0.590925
-0.590944
-0.590961
-0.590975
-0.590987
-0.590997
-0.591005
-0.591011
-0.591015
-0.591017
-0.591017
-0.591015
-0.59101
-0.591003
-0.590993
-0.59098
-0.590965
-0.590947
-0.590928
-0.590906
-0.590882
-0.590858
-0.590834
-0.590811
-0.590788
-0.590767
-0.590748
-0.590732
-0.59072
-0.590715
-0.59072
-0.590732
-0.590743
-0.590756
-0.590771
-0.590787
-0.590804
-0.590821
-0.590838
-0.590854
-0.590869
-0.590883
-0.590895
-0.590905
-0.590913
-0.590918
-0.590921
-0.590922
-0.59092
-0.590916
-0.59091
-0.590902
-0.590893
-0.590883
-0.590872
-0.590861
-0.59085
-0.590838
-0.590827
-0.590817
-0.590808
-0.590799
-0.590793
-0.590788
-0.590787
-0.590786
-0.590792
-0.590787
-0.689203
-0.689216
-0.68923
-0.689249
-0.689268
-0.689287
-0.689303
-0.689316
-0.689325
-0.689329
-0.689327
-0.689319
-0.689304
-0.689282
-0.689254
-0.689225
-0.689196
-0.689171
-0.68915
-0.689135
-0.689129
-0.689129
-0.689137
-0.689152
-0.689172
-0.689196
-0.689222
-0.68925
-0.689278
-0.689304
-0.689328
-0.68935
-0.689369
-0.689386
-0.6894
-0.689413
-0.689423
-0.689432
-0.689439
-0.689445
-0.689449
-0.689451
-0.689451
-0.68945
-0.689446
-0.689439
-0.689431
-0.68942
-0.689406
-0.689389
-0.689371
-0.68935
-0.689328
-0.689305
-0.689282
-0.689259
-0.689238
-0.689218
-0.6892
-0.689184
-0.689173
-0.689167
-0.689171
-0.68918
-0.68919
-0.689201
-0.689215
-0.689229
-0.689245
-0.689261
-0.689277
-0.689292
-0.689307
-0.68932
-0.689332
-0.689341
-0.689349
-0.689354
-0.689356
-0.689356
-0.689354
-0.68935
-0.689343
-0.689336
-0.689326
-0.689316
-0.689306
-0.689294
-0.689283
-0.689273
-0.689262
-0.689252
-0.689243
-0.689235
-0.689228
-0.689223
-0.689221
-0.689222
-0.689225
-0.68922
-0.787656
-0.787666
-0.787678
-0.787693
-0.78771
-0.787726
-0.78774
-0.787751
-0.78776
-0.787764
-0.787762
-0.787756
-0.787742
-0.787723
-0.7877
-0.787674
-0.787649
-0.787626
-0.787608
-0.787596
-0.787591
-0.787593
-0.787601
-0.787615
-0.787634
-0.787656
-0.787681
-0.787706
-0.78773
-0.787754
-0.787775
-0.787794
-0.78781
-0.787825
-0.787837
-0.787848
-0.787857
-0.787865
-0.787871
-0.787876
-0.78788
-0.787882
-0.787883
-0.787882
-0.787879
-0.787874
-0.787866
-0.787856
-0.787844
-0.787829
-0.787812
-0.787793
-0.787773
-0.787751
-0.787729
-0.787708
-0.787687
-0.787668
-0.787651
-0.787637
-0.787626
-0.787619
-0.787621
-0.787629
-0.787637
-0.787647
-0.787658
-0.787672
-0.787686
-0.787701
-0.787716
-0.787731
-0.787745
-0.787757
-0.787768
-0.787777
-0.787784
-0.787788
-0.78779
-0.78779
-0.787787
-0.787782
-0.787776
-0.787768
-0.787758
-0.787748
-0.787737
-0.787726
-0.787715
-0.787705
-0.787695
-0.787685
-0.787676
-0.787668
-0.787661
-0.787656
-0.787653
-0.787654
-0.787652
-0.78765
-0.886102
-0.88611
-0.886119
-0.886133
-0.886146
-0.88616
-0.886172
-0.886182
-0.88619
-0.886194
-0.886193
-0.886188
-0.886177
-0.886161
-0.886141
-0.886119
-0.886098
-0.886078
-0.886063
-0.886053
-0.88605
-0.886053
-0.886061
-0.886075
-0.886093
-0.886113
-0.886136
-0.886158
-0.88618
-0.886201
-0.886219
-0.886235
-0.886249
-0.886261
-0.886272
-0.886281
-0.886289
-0.886296
-0.886302
-0.886306
-0.88631
-0.886312
-0.886313
-0.886312
-0.88631
-0.886306
-0.886299
-0.886291
-0.88628
-0.886267
-0.886252
-0.886234
-0.886215
-0.886195
-0.886175
-0.886155
-0.886136
-0.886118
-0.886102
-0.886088
-0.886077
-0.886071
-0.886071
-0.886077
-0.886085
-0.886093
-0.886102
-0.886114
-0.886127
-0.886141
-0.886155
-0.886169
-0.886182
-0.886193
-0.886204
-0.886212
-0.886218
-0.886222
-0.886223
-0.886222
-0.886219
-0.886214
-0.886207
-0.886199
-0.886189
-0.886179
-0.886168
-0.886157
-0.886146
-0.886135
-0.886125
-0.886116
-0.886107
-0.886099
-0.886092
-0.886086
-0.886081
-0.88608
-0.886076
-0.886077
-0.984541
-0.984548
-0.984556
-0.984567
-0.984578
-0.984589
-0.9846
-0.984609
-0.984616
-0.98462
-0.98462
-0.984616
-0.984607
-0.984594
-0.984578
-0.98456
-0.984542
-0.984526
-0.984514
-0.984507
-0.984505
-0.984509
-0.984518
-0.984531
-0.984548
-0.984567
-0.984587
-0.984607
-0.984627
-0.984644
-0.98466
-0.984674
-0.984686
-0.984696
-0.984705
-0.984713
-0.98472
-0.984726
-0.984731
-0.984735
-0.984739
-0.984741
-0.984742
-0.984742
-0.98474
-0.984737
-0.984731
-0.984724
-0.984715
-0.984703
-0.984689
-0.984674
-0.984656
-0.984638
-0.984619
-0.9846
-0.984582
-0.984566
-0.984551
-0.984538
-0.984528
-0.984521
-0.98452
-0.984525
-0.984531
-0.984538
-0.984546
-0.984556
-0.984568
-0.98458
-0.984593
-0.984606
-0.984618
-0.984629
-0.984638
-0.984646
-0.984651
-0.984654
-0.984654
-0.984653
-0.984649
-0.984644
-0.984637
-0.984628
-0.984619
-0.984608
-0.984597
-0.984586
-0.984574
-0.984564
-0.984553
-0.984544
-0.984535
-0.984527
-0.98452
-0.984513
-0.984508
-0.984503
-0.9845
-0.984501
-1.08298
-1.08298
-1.08299
-1.083
-1.08301
-1.08302
-1.08302
-1.08303
-1.08304
-1.08304
-1.08304
-1.08304
-1.08303
-1.08302
-1.08301
-1.083
-1.08298
-1.08297
-1.08296
-1.08296
-1.08296
-1.08296
-1.08297
-1.08298
-1.083
-1.08302
-1.08304
-1.08305
-1.08307
-1.08309
-1.0831
-1.08311
-1.08312
-1.08313
-1.08314
-1.08314
-1.08315
-1.08316
-1.08316
-1.08316
-1.08317
-1.08317
-1.08317
-1.08317
-1.08317
-1.08317
-1.08316
-1.08316
-1.08315
-1.08314
-1.08313
-1.08311
-1.0831
-1.08308
-1.08306
-1.08304
-1.08303
-1.08301
-1.083
-1.08299
-1.08298
-1.08297
-1.08297
-1.08297
-1.08298
-1.08298
-1.08299
-1.083
-1.08301
-1.08302
-1.08303
-1.08304
-1.08305
-1.08306
-1.08307
-1.08308
-1.08308
-1.08308
-1.08308
-1.08308
-1.08308
-1.08307
-1.08307
-1.08306
-1.08305
-1.08304
-1.08302
-1.08301
-1.083
-1.08299
-1.08298
-1.08297
-1.08296
-1.08295
-1.08295
-1.08294
-1.08293
-1.08293
-1.08292
-1.08292
-1.18141
-1.18141
-1.18141
-1.18142
-1.18143
-1.18144
-1.18144
-1.18145
-1.18146
-1.18146
-1.18146
-1.18146
-1.18146
-1.18145
-1.18144
-1.18143
-1.18142
-1.18141
-1.1814
-1.1814
-1.1814
-1.18141
-1.18142
-1.18143
-1.18145
-1.18146
-1.18148
-1.1815
-1.18151
-1.18152
-1.18154
-1.18154
-1.18155
-1.18156
-1.18157
-1.18157
-1.18158
-1.18158
-1.18159
-1.18159
-1.1816
-1.1816
-1.1816
-1.1816
-1.1816
-1.1816
-1.18159
-1.18159
-1.18158
-1.18157
-1.18156
-1.18155
-1.18153
-1.18152
-1.1815
-1.18149
-1.18147
-1.18146
-1.18144
-1.18143
-1.18142
-1.18141
-1.18141
-1.18141
-1.18142
-1.18142
-1.18143
-1.18144
-1.18145
-1.18146
-1.18147
-1.18148
-1.18149
-1.1815
-1.1815
-1.18151
-1.18151
-1.18151
-1.18151
-1.18151
-1.18151
-1.1815
-1.18149
-1.18148
-1.18147
-1.18146
-1.18145
-1.18144
-1.18143
-1.18142
-1.1814
-1.18139
-1.18139
-1.18138
-1.18137
-1.18136
-1.18136
-1.18135
-1.18135
-1.18135
-1.27983
-1.27983
-1.27984
-1.27984
-1.27985
-1.27986
-1.27986
-1.27987
-1.27987
-1.27988
-1.27988
-1.27988
-1.27988
-1.27987
-1.27987
-1.27986
-1.27985
-1.27984
-1.27984
-1.27984
-1.27985
-1.27985
-1.27986
-1.27988
-1.27989
-1.27991
-1.27992
-1.27994
-1.27995
-1.27996
-1.27997
-1.27998
-1.27998
-1.27999
-1.28
-1.28
-1.28001
-1.28001
-1.28002
-1.28002
-1.28003
-1.28003
-1.28003
-1.28003
-1.28003
-1.28003
-1.28003
-1.28002
-1.28001
-1.28001
-1.28
-1.27998
-1.27997
-1.27996
-1.27994
-1.27993
-1.27991
-1.2799
-1.27989
-1.27987
-1.27986
-1.27986
-1.27985
-1.27986
-1.27986
-1.27987
-1.27987
-1.27988
-1.27988
-1.27989
-1.2799
-1.27991
-1.27992
-1.27993
-1.27993
-1.27994
-1.27994
-1.27994
-1.27994
-1.27994
-1.27993
-1.27993
-1.27992
-1.27991
-1.2799
-1.27989
-1.27988
-1.27986
-1.27985
-1.27984
-1.27983
-1.27982
-1.27981
-1.2798
-1.27979
-1.27978
-1.27978
-1.27977
-1.27977
-1.27977
-1.37825
-1.37826
-1.37826
-1.37826
-1.37827
-1.37827
-1.37828
-1.37828
-1.37829
-1.37829
-1.37829
-1.37829
-1.37829
-1.37829
-1.37829
-1.37828
-1.37828
-1.37828
-1.37828
-1.37828
-1.37829
-1.37829
-1.37831
-1.37832
-1.37833
-1.37835
-1.37836
-1.37837
-1.37838
-1.37839
-1.3784
-1.37841
-1.37842
-1.37842
-1.37843
-1.37843
-1.37844
-1.37844
-1.37845
-1.37845
-1.37846
-1.37846
-1.37846
-1.37846
-1.37846
-1.37846
-1.37846
-1.37845
-1.37845
-1.37844
-1.37843
-1.37842
-1.37841
-1.37839
-1.37838
-1.37836
-1.37835
-1.37834
-1.37833
-1.37832
-1.37831
-1.3783
-1.3783
-1.3783
-1.3783
-1.3783
-1.37831
-1.37831
-1.37832
-1.37832
-1.37833
-1.37834
-1.37835
-1.37836
-1.37836
-1.37836
-1.37837
-1.37837
-1.37836
-1.37836
-1.37836
-1.37835
-1.37834
-1.37833
-1.37832
-1.37831
-1.3783
-1.37829
-1.37827
-1.37826
-1.37825
-1.37824
-1.37823
-1.37822
-1.37821
-1.3782
-1.3782
-1.37819
-1.37819
-1.37819
-1.47667
-1.47668
-1.47668
-1.47668
-1.47669
-1.47669
-1.47669
-1.4767
-1.4767
-1.4767
-1.47671
-1.47671
-1.47671
-1.47671
-1.47671
-1.47671
-1.47671
-1.47671
-1.47671
-1.47672
-1.47672
-1.47673
-1.47674
-1.47676
-1.47677
-1.47678
-1.4768
-1.47681
-1.47682
-1.47683
-1.47683
-1.47684
-1.47685
-1.47685
-1.47686
-1.47686
-1.47687
-1.47688
-1.47688
-1.47689
-1.47689
-1.47689
-1.4769
-1.4769
-1.4769
-1.47689
-1.47689
-1.47689
-1.47688
-1.47687
-1.47686
-1.47685
-1.47684
-1.47683
-1.47681
-1.4768
-1.47679
-1.47677
-1.47676
-1.47675
-1.47674
-1.47674
-1.47673
-1.47673
-1.47674
-1.47674
-1.47674
-1.47675
-1.47675
-1.47676
-1.47676
-1.47677
-1.47678
-1.47678
-1.47679
-1.47679
-1.47679
-1.47679
-1.47679
-1.47678
-1.47678
-1.47677
-1.47676
-1.47676
-1.47674
-1.47673
-1.47672
-1.47671
-1.47669
-1.47668
-1.47667
-1.47666
-1.47665
-1.47664
-1.47663
-1.47662
-1.47662
-1.47661
-1.47661
-1.47661
-1.57509
-1.5751
-1.5751
-1.5751
-1.5751
-1.5751
-1.57511
-1.57511
-1.57511
-1.57512
-1.57512
-1.57512
-1.57512
-1.57513
-1.57513
-1.57513
-1.57513
-1.57514
-1.57514
-1.57515
-1.57516
-1.57517
-1.57518
-1.57519
-1.57521
-1.57522
-1.57523
-1.57524
-1.57525
-1.57526
-1.57526
-1.57527
-1.57527
-1.57528
-1.57529
-1.57529
-1.5753
-1.57531
-1.57531
-1.57532
-1.57532
-1.57533
-1.57533
-1.57533
-1.57533
-1.57533
-1.57533
-1.57532
-1.57531
-1.57531
-1.5753
-1.57529
-1.57527
-1.57526
-1.57525
-1.57524
-1.57522
-1.57521
-1.5752
-1.57519
-1.57518
-1.57517
-1.57517
-1.57517
-1.57517
-1.57517
-1.57518
-1.57518
-1.57518
-1.57519
-1.57519
-1.5752
-1.5752
-1.57521
-1.57521
-1.57521
-1.57521
-1.57521
-1.57521
-1.5752
-1.5752
-1.57519
-1.57519
-1.57518
-1.57517
-1.57515
-1.57514
-1.57513
-1.57511
-1.5751
-1.57509
-1.57507
-1.57506
-1.57505
-1.57505
-1.57504
-1.57503
-1.57503
-1.57503
-1.57503
-1.67351
-1.67351
-1.67351
-1.67351
-1.67352
-1.67352
-1.67352
-1.67352
-1.67353
-1.67353
-1.67353
-1.67353
-1.67354
-1.67354
-1.67355
-1.67355
-1.67356
-1.67356
-1.67357
-1.67358
-1.67359
-1.6736
-1.67361
-1.67363
-1.67364
-1.67365
-1.67366
-1.67367
-1.67368
-1.67368
-1.67369
-1.6737
-1.6737
-1.67371
-1.67372
-1.67372
-1.67373
-1.67374
-1.67375
-1.67375
-1.67376
-1.67376
-1.67376
-1.67377
-1.67376
-1.67376
-1.67376
-1.67375
-1.67375
-1.67374
-1.67373
-1.67372
-1.67371
-1.67369
-1.67368
-1.67367
-1.67366
-1.67364
-1.67363
-1.67362
-1.67361
-1.67361
-1.6736
-1.6736
-1.6736
-1.67361
-1.67361
-1.67361
-1.67361
-1.67362
-1.67362
-1.67362
-1.67363
-1.67363
-1.67363
-1.67363
-1.67363
-1.67363
-1.67363
-1.67362
-1.67362
-1.67361
-1.67361
-1.6736
-1.67359
-1.67357
-1.67356
-1.67355
-1.67353
-1.67352
-1.6735
-1.67349
-1.67348
-1.67347
-1.67346
-1.67345
-1.67345
-1.67344
-1.67344
-1.67344
-1.77193
-1.77193
-1.77193
-1.77193
-1.77193
-1.77193
-1.77193
-1.77194
-1.77194
-1.77194
-1.77194
-1.77195
-1.77195
-1.77196
-1.77196
-1.77197
-1.77198
-1.77199
-1.772
-1.77201
-1.77202
-1.77203
-1.77204
-1.77206
-1.77207
-1.77208
-1.77209
-1.7721
-1.77211
-1.77211
-1.77212
-1.77213
-1.77213
-1.77214
-1.77215
-1.77216
-1.77216
-1.77217
-1.77218
-1.77219
-1.77219
-1.7722
-1.7722
-1.7722
-1.7722
-1.7722
-1.77219
-1.77219
-1.77218
-1.77217
-1.77216
-1.77215
-1.77214
-1.77213
-1.77211
-1.7721
-1.77209
-1.77208
-1.77206
-1.77206
-1.77205
-1.77204
-1.77203
-1.77203
-1.77203
-1.77204
-1.77204
-1.77204
-1.77204
-1.77204
-1.77205
-1.77205
-1.77205
-1.77205
-1.77205
-1.77205
-1.77205
-1.77205
-1.77205
-1.77204
-1.77204
-1.77203
-1.77202
-1.77202
-1.772
-1.77199
-1.77198
-1.77196
-1.77195
-1.77193
-1.77192
-1.77191
-1.7719
-1.77188
-1.77188
-1.77187
-1.77186
-1.77186
-1.77186
-1.77185
-1.87035
-1.87035
-1.87035
-1.87035
-1.87035
-1.87035
-1.87035
-1.87035
-1.87035
-1.87035
-1.87035
-1.87036
-1.87036
-1.87037
-1.87038
-1.87039
-1.8704
-1.87041
-1.87042
-1.87044
-1.87045
-1.87046
-1.87047
-1.87048
-1.8705
-1.87051
-1.87052
-1.87053
-1.87053
-1.87054
-1.87055
-1.87055
-1.87056
-1.87057
-1.87058
-1.87059
-1.8706
-1.8706
-1.87061
-1.87062
-1.87063
-1.87063
-1.87063
-1.87064
-1.87064
-1.87063
-1.87063
-1.87062
-1.87062
-1.87061
-1.8706
-1.87058
-1.87057
-1.87056
-1.87054
-1.87053
-1.87052
-1.87051
-1.87049
-1.87048
-1.87048
-1.87047
-1.87046
-1.87046
-1.87046
-1.87046
-1.87047
-1.87047
-1.87047
-1.87047
-1.87047
-1.87047
-1.87047
-1.87047
-1.87047
-1.87047
-1.87047
-1.87047
-1.87047
-1.87046
-1.87046
-1.87045
-1.87044
-1.87043
-1.87042
-1.87041
-1.87039
-1.87038
-1.87036
-1.87035
-1.87033
-1.87032
-1.87031
-1.8703
-1.87029
-1.87028
-1.87028
-1.87027
-1.87027
-1.87026
-1.96876
-1.96876
-1.96876
-1.96876
-1.96876
-1.96876
-1.96876
-1.96876
-1.96876
-1.96876
-1.96877
-1.96877
-1.96878
-1.96879
-1.9688
-1.96881
-1.96882
-1.96884
-1.96885
-1.96886
-1.96887
-1.96889
-1.9689
-1.96891
-1.96892
-1.96893
-1.96894
-1.96895
-1.96896
-1.96896
-1.96897
-1.96898
-1.96899
-1.969
-1.96901
-1.96902
-1.96903
-1.96904
-1.96905
-1.96905
-1.96906
-1.96907
-1.96907
-1.96907
-1.96907
-1.96907
-1.96906
-1.96906
-1.96905
-1.96904
-1.96903
-1.96901
-1.969
-1.96898
-1.96897
-1.96896
-1.96894
-1.96893
-1.96892
-1.96891
-1.9689
-1.9689
-1.96889
-1.96889
-1.96889
-1.96889
-1.96889
-1.96889
-1.96889
-1.96889
-1.96889
-1.96889
-1.96889
-1.96889
-1.96889
-1.96889
-1.96889
-1.96889
-1.96889
-1.96888
-1.96888
-1.96887
-1.96886
-1.96885
-1.96884
-1.96882
-1.96881
-1.96879
-1.96878
-1.96876
-1.96875
-1.96873
-1.96872
-1.96871
-1.9687
-1.96869
-1.96869
-1.96868
-1.96868
-1.96868
-2.06718
-2.06718
-2.06718
-2.06718
-2.06718
-2.06718
-2.06718
-2.06718
-2.06718
-2.06718
-2.06718
-2.06719
-2.06719
-2.06721
-2.06722
-2.06723
-2.06725
-2.06726
-2.06727
-2.06729
-2.0673
-2.06731
-2.06732
-2.06734
-2.06735
-2.06736
-2.06737
-2.06737
-2.06738
-2.06739
-2.0674
-2.06741
-2.06742
-2.06743
-2.06744
-2.06745
-2.06746
-2.06747
-2.06748
-2.06749
-2.0675
-2.0675
-2.0675
-2.06751
-2.0675
-2.0675
-2.0675
-2.06749
-2.06748
-2.06747
-2.06746
-2.06744
-2.06743
-2.06741
-2.0674
-2.06738
-2.06737
-2.06736
-2.06735
-2.06734
-2.06733
-2.06732
-2.06731
-2.06731
-2.06731
-2.06731
-2.06731
-2.06732
-2.06732
-2.06732
-2.06732
-2.06732
-2.06732
-2.06731
-2.06731
-2.06731
-2.06731
-2.06731
-2.0673
-2.0673
-2.06729
-2.06729
-2.06728
-2.06727
-2.06725
-2.06724
-2.06722
-2.06721
-2.06719
-2.06718
-2.06716
-2.06715
-2.06713
-2.06712
-2.06711
-2.06711
-2.0671
-2.06709
-2.06709
-2.06709
-2.1656
-2.1656
-2.1656
-2.1656
-2.16559
-2.16559
-2.16559
-2.16559
-2.16559
-2.16559
-2.1656
-2.1656
-2.16561
-2.16562
-2.16564
-2.16565
-2.16567
-2.16568
-2.1657
-2.16571
-2.16572
-2.16573
-2.16575
-2.16576
-2.16577
-2.16578
-2.16579
-2.1658
-2.1658
-2.16581
-2.16582
-2.16583
-2.16584
-2.16585
-2.16587
-2.16588
-2.16589
-2.1659
-2.16591
-2.16592
-2.16593
-2.16593
-2.16594
-2.16594
-2.16594
-2.16593
-2.16593
-2.16592
-2.16591
-2.1659
-2.16588
-2.16587
-2.16585
-2.16584
-2.16582
-2.16581
-2.16579
-2.16578
-2.16577
-2.16576
-2.16575
-2.16574
-2.16574
-2.16573
-2.16573
-2.16573
-2.16573
-2.16574
-2.16574
-2.16574
-2.16574
-2.16574
-2.16574
-2.16573
-2.16573
-2.16573
-2.16573
-2.16573
-2.16572
-2.16572
-2.16571
-2.1657
-2.16569
-2.16568
-2.16567
-2.16565
-2.16564
-2.16562
-2.1656
-2.16559
-2.16557
-2.16556
-2.16555
-2.16554
-2.16553
-2.16552
-2.16551
-2.16551
-2.1655
-2.1655
-2.26402
-2.26402
-2.26401
-2.26401
-2.26401
-2.26401
-2.26401
-2.26401
-2.26401
-2.26401
-2.26401
-2.26402
-2.26403
-2.26404
-2.26406
-2.26407
-2.26409
-2.26411
-2.26412
-2.26413
-2.26414
-2.26416
-2.26417
-2.26418
-2.26419
-2.2642
-2.26421
-2.26422
-2.26423
-2.26424
-2.26425
-2.26426
-2.26427
-2.26428
-2.26429
-2.26431
-2.26432
-2.26433
-2.26434
-2.26435
-2.26436
-2.26436
-2.26437
-2.26437
-2.26437
-2.26436
-2.26436
-2.26435
-2.26434
-2.26432
-2.26431
-2.26429
-2.26428
-2.26426
-2.26424
-2.26423
-2.26422
-2.2642
-2.26419
-2.26418
-2.26417
-2.26417
-2.26416
-2.26415
-2.26415
-2.26415
-2.26415
-2.26415
-2.26415
-2.26416
-2.26416
-2.26416
-2.26415
-2.26415
-2.26415
-2.26415
-2.26415
-2.26414
-2.26414
-2.26413
-2.26413
-2.26412
-2.26411
-2.2641
-2.26408
-2.26407
-2.26405
-2.26403
-2.26402
-2.264
-2.26399
-2.26397
-2.26396
-2.26395
-2.26394
-2.26393
-2.26393
-2.26392
-2.26392
-2.26391
-2.36243
-2.36243
-2.36243
-2.36243
-2.36243
-2.36243
-2.36243
-2.36243
-2.36243
-2.36243
-2.36243
-2.36243
-2.36245
-2.36246
-2.36248
-2.3625
-2.36251
-2.36253
-2.36254
-2.36255
-2.36257
-2.36258
-2.36259
-2.3626
-2.36261
-2.36262
-2.36263
-2.36264
-2.36265
-2.36266
-2.36267
-2.36268
-2.36269
-2.36271
-2.36272
-2.36273
-2.36275
-2.36276
-2.36277
-2.36278
-2.36279
-2.36279
-2.36279
-2.3628
-2.36279
-2.36279
-2.36278
-2.36277
-2.36276
-2.36274
-2.36273
-2.36271
-2.3627
-2.36268
-2.36266
-2.36265
-2.36264
-2.36263
-2.36261
-2.3626
-2.3626
-2.36259
-2.36258
-2.36257
-2.36257
-2.36257
-2.36257
-2.36257
-2.36257
-2.36257
-2.36257
-2.36257
-2.36257
-2.36257
-2.36257
-2.36257
-2.36256
-2.36256
-2.36256
-2.36255
-2.36254
-2.36253
-2.36252
-2.36251
-2.36249
-2.36248
-2.36246
-2.36245
-2.36243
-2.36241
-2.3624
-2.36239
-2.36237
-2.36236
-2.36235
-2.36235
-2.36234
-2.36234
-2.36233
-2.36233
-2.46085
-2.46085
-2.46085
-2.46085
-2.46085
-2.46085
-2.46085
-2.46085
-2.46085
-2.46085
-2.46085
-2.46085
-2.46087
-2.46088
-2.4609
-2.46092
-2.46093
-2.46095
-2.46096
-2.46097
-2.46099
-2.461
-2.46101
-2.46102
-2.46103
-2.46104
-2.46105
-2.46106
-2.46107
-2.46108
-2.46109
-2.4611
-2.46112
-2.46113
-2.46115
-2.46116
-2.46117
-2.46118
-2.46119
-2.4612
-2.46121
-2.46122
-2.46122
-2.46122
-2.46122
-2.46121
-2.4612
-2.46119
-2.46118
-2.46116
-2.46115
-2.46113
-2.46112
-2.4611
-2.46108
-2.46107
-2.46106
-2.46104
-2.46103
-2.46102
-2.46101
-2.461
-2.461
-2.46099
-2.46098
-2.46098
-2.46098
-2.46098
-2.46098
-2.46098
-2.46099
-2.46099
-2.46099
-2.46099
-2.46098
-2.46098
-2.46098
-2.46098
-2.46097
-2.46096
-2.46096
-2.46095
-2.46093
-2.46092
-2.46091
-2.46089
-2.46087
-2.46086
-2.46084
-2.46083
-2.46081
-2.4608
-2.46079
-2.46078
-2.46077
-2.46076
-2.46076
-2.46075
-2.46075
-2.46075
-2.55927
-2.55927
-2.55927
-2.55927
-2.55927
-2.55927
-2.55927
-2.55927
-2.55927
-2.55927
-2.55927
-2.55927
-2.55929
-2.5593
-2.55932
-2.55934
-2.55935
-2.55937
-2.55938
-2.55939
-2.5594
-2.55942
-2.55943
-2.55944
-2.55945
-2.55946
-2.55947
-2.55948
-2.55949
-2.5595
-2.55951
-2.55953
-2.55954
-2.55955
-2.55957
-2.55958
-2.55959
-2.55961
-2.55962
-2.55962
-2.55963
-2.55964
-2.55964
-2.55964
-2.55964
-2.55963
-2.55962
-2.55961
-2.5596
-2.55958
-2.55957
-2.55955
-2.55953
-2.55952
-2.5595
-2.55949
-2.55947
-2.55946
-2.55945
-2.55944
-2.55943
-2.55942
-2.55941
-2.5594
-2.55939
-2.55939
-2.55939
-2.55939
-2.55939
-2.55939
-2.5594
-2.5594
-2.5594
-2.5594
-2.5594
-2.5594
-2.55939
-2.55939
-2.55938
-2.55938
-2.55937
-2.55936
-2.55934
-2.55933
-2.55932
-2.5593
-2.55928
-2.55927
-2.55925
-2.55924
-2.55923
-2.55921
-2.5592
-2.55919
-2.55919
-2.55918
-2.55917
-2.55917
-2.55917
-2.55916
-2.6577
-2.6577
-2.6577
-2.6577
-2.65769
-2.65769
-2.65769
-2.65769
-2.65769
-2.65769
-2.65769
-2.65769
-2.65771
-2.65772
-2.65774
-2.65776
-2.65777
-2.65779
-2.6578
-2.65781
-2.65782
-2.65783
-2.65784
-2.65786
-2.65786
-2.65787
-2.65788
-2.65789
-2.65791
-2.65792
-2.65793
-2.65795
-2.65796
-2.65798
-2.65799
-2.658
-2.65802
-2.65803
-2.65804
-2.65804
-2.65805
-2.65805
-2.65806
-2.65806
-2.65805
-2.65805
-2.65804
-2.65803
-2.65801
-2.658
-2.65798
-2.65797
-2.65795
-2.65793
-2.65792
-2.65791
-2.65789
-2.65788
-2.65787
-2.65786
-2.65785
-2.65784
-2.65783
-2.65782
-2.65781
-2.6578
-2.65779
-2.65779
-2.6578
-2.6578
-2.6578
-2.6578
-2.65781
-2.65781
-2.65781
-2.65781
-2.6578
-2.6578
-2.65779
-2.65779
-2.65778
-2.65777
-2.65775
-2.65774
-2.65773
-2.65771
-2.6577
-2.65768
-2.65767
-2.65765
-2.65764
-2.65763
-2.65762
-2.65761
-2.6576
-2.6576
-2.65759
-2.65759
-2.65759
-2.65758
-2.75612
-2.75612
-2.75612
-2.75612
-2.75612
-2.75612
-2.75611
-2.75611
-2.75611
-2.75611
-2.75611
-2.75612
-2.75613
-2.75614
-2.75616
-2.75618
-2.75619
-2.7562
-2.75621
-2.75623
-2.75624
-2.75625
-2.75626
-2.75627
-2.75628
-2.75629
-2.7563
-2.75631
-2.75632
-2.75634
-2.75635
-2.75636
-2.75638
-2.75639
-2.75641
-2.75642
-2.75643
-2.75644
-2.75645
-2.75646
-2.75647
-2.75647
-2.75647
-2.75647
-2.75647
-2.75646
-2.75645
-2.75644
-2.75643
-2.75641
-2.7564
-2.75638
-2.75636
-2.75635
-2.75633
-2.75632
-2.75631
-2.7563
-2.75629
-2.75628
-2.75627
-2.75625
-2.75624
-2.75623
-2.75621
-2.7562
-2.7562
-2.7562
-2.7562
-2.7562
-2.7562
-2.75621
-2.75621
-2.75621
-2.75621
-2.75621
-2.75621
-2.75621
-2.7562
-2.75619
-2.75619
-2.75618
-2.75616
-2.75615
-2.75614
-2.75612
-2.75611
-2.7561
-2.75608
-2.75607
-2.75606
-2.75605
-2.75604
-2.75603
-2.75602
-2.75602
-2.75601
-2.75601
-2.75601
-2.75601
-2.85454
-2.85454
-2.85454
-2.85454
-2.85454
-2.85454
-2.85454
-2.85454
-2.85453
-2.85453
-2.85453
-2.85454
-2.85455
-2.85456
-2.85458
-2.85459
-2.85461
-2.85462
-2.85463
-2.85464
-2.85465
-2.85466
-2.85467
-2.85468
-2.85469
-2.8547
-2.85471
-2.85473
-2.85474
-2.85475
-2.85476
-2.85478
-2.8548
-2.85481
-2.85483
-2.85484
-2.85485
-2.85486
-2.85487
-2.85488
-2.85488
-2.85488
-2.85489
-2.85488
-2.85488
-2.85487
-2.85486
-2.85485
-2.85484
-2.85483
-2.85481
-2.85479
-2.85478
-2.85476
-2.85475
-2.85474
-2.85473
-2.85472
-2.8547
-2.85469
-2.85468
-2.85467
-2.85465
-2.85464
-2.85462
-2.85461
-2.8546
-2.8546
-2.8546
-2.8546
-2.8546
-2.85461
-2.85461
-2.85462
-2.85462
-2.85462
-2.85462
-2.85461
-2.85461
-2.8546
-2.85459
-2.85458
-2.85457
-2.85456
-2.85455
-2.85453
-2.85452
-2.85451
-2.8545
-2.85449
-2.85448
-2.85447
-2.85446
-2.85445
-2.85445
-2.85444
-2.85444
-2.85443
-2.85443
-2.85443
-2.95296
-2.95296
-2.95296
-2.95296
-2.95296
-2.95296
-2.95296
-2.95296
-2.95296
-2.95296
-2.95296
-2.95296
-2.95297
-2.95298
-2.953
-2.95301
-2.95302
-2.95303
-2.95305
-2.95306
-2.95307
-2.95308
-2.95309
-2.9531
-2.95311
-2.95312
-2.95313
-2.95314
-2.95315
-2.95316
-2.95318
-2.95319
-2.95321
-2.95323
-2.95324
-2.95326
-2.95327
-2.95328
-2.95329
-2.95329
-2.9533
-2.9533
-2.9533
-2.9533
-2.95329
-2.95328
-2.95328
-2.95326
-2.95325
-2.95324
-2.95322
-2.95321
-2.95319
-2.95318
-2.95317
-2.95315
-2.95314
-2.95313
-2.95312
-2.95311
-2.9531
-2.95308
-2.95307
-2.95305
-2.95303
-2.95301
-2.953
-2.95299
-2.95299
-2.953
-2.953
-2.95301
-2.95301
-2.95302
-2.95302
-2.95302
-2.95302
-2.95302
-2.95301
-2.95301
-2.953
-2.95299
-2.95298
-2.95297
-2.95296
-2.95295
-2.95294
-2.95293
-2.95292
-2.95291
-2.9529
-2.95289
-2.95288
-2.95288
-2.95287
-2.95287
-2.95286
-2.95286
-2.95286
-2.95285
-3.05139
-3.05139
-3.05139
-3.05139
-3.05139
-3.05139
-3.05138
-3.05138
-3.05138
-3.05138
-3.05138
-3.05138
-3.05139