/*--------------------------------*- C++ -*----------------------------------*\
| =========                 |                                                 |
| \\      /  F ield         | OpenFOAM: The Open Source CFD Toolbox           |
|  \\    /   O peration     | Version:  4.1                                   |
|   \\  /    A nd           | Web:      www.OpenFOAM.org                      |
|    \\/     M anipulation  |                                                 |
\*---------------------------------------------------------------------------*/
FoamFile
{
    version     2.0;
    format      ascii;
    class       volScalarField;
    location    "1660";
    object      T;
}
// * * * * * * * * * * * * * * * * * * * * * * * * * * * * * * * * * * * * * //

dimensions      [0 0 0 1 0 0 0];

internalField   nonuniform List<scalar> 
5000
(
285.943
285.656
285.497
285.381
285.287
285.206
285.133
285.066
285.003
284.942
284.883
284.827
284.78
284.739
284.704
284.674
284.647
284.624
284.602
284.582
284.575
284.583
284.593
284.603
284.614
284.627
284.642
284.659
284.679
284.701
284.725
284.752
284.781
284.812
284.846
284.883
284.923
284.966
285.012
285.06
285.109
285.158
285.209
285.26
285.313
285.368
285.425
285.485
285.549
285.617
285.691
285.771
285.861
285.961
286.076
286.21
286.368
286.561
286.804
287.134
287.599
287.996
287.887
287.694
287.538
287.403
287.283
287.172
287.07
286.973
286.88
286.792
286.705
286.62
286.536
286.452
286.368
286.283
286.196
286.107
286.015
285.926
285.845
285.768
285.696
285.626
285.558
285.491
285.425
285.359
285.293
285.228
285.164
285.108
285.077
285.183
285.375
285.631
286.062
286.552
285.586
285.147
284.9
284.732
284.608
284.514
284.442
284.39
284.355
284.335
284.329
284.33
284.328
284.323
284.316
284.307
284.297
284.285
284.271
284.257
284.241
284.232
284.224
284.217
284.211
284.206
284.201
284.198
284.195
284.193
284.191
284.19
284.188
284.187
284.186
284.186
284.185
284.184
284.183
284.184
284.19
284.2
284.215
284.235
284.261
284.294
284.333
284.379
284.434
284.496
284.567
284.648
284.738
284.84
284.954
285.083
285.234
285.418
285.679
286.126
286.819
287.219
286.538
286.051
285.755
285.53
285.344
285.182
285.037
284.905
284.784
284.674
284.575
284.487
284.41
284.344
284.291
284.25
284.221
284.204
284.198
284.196
284.193
284.191
284.188
284.185
284.181
284.177
284.173
284.169
284.165
284.161
284.156
284.152
284.148
284.148
284.162
284.185
284.511
285.793
285.413
284.929
284.685
284.545
284.463
284.418
284.396
284.389
284.39
284.394
284.397
284.396
284.392
284.383
284.371
284.355
284.338
284.319
284.301
284.28
284.265
284.253
284.242
284.233
284.226
284.22
284.215
284.212
284.21
284.209
284.209
284.209
284.209
284.209
284.21
284.21
284.21
284.21
284.209
284.208
284.207
284.206
284.205
284.206
284.208
284.212
284.22
284.232
284.249
284.274
284.307
284.35
284.404
284.471
284.554
284.655
284.78
284.945
285.193
285.64
286.366
286.803
286.056
285.387
285.08
284.872
284.718
284.598
284.503
284.427
284.367
284.321
284.287
284.263
284.248
284.238
284.234
284.233
284.234
284.235
284.236
284.236
284.235
284.233
284.229
284.225
284.22
284.214
284.207
284.2
284.192
284.183
284.174
284.165
284.155
284.148
284.153
284.172
284.301
285.509
285.307
284.814
284.591
284.485
284.439
284.427
284.431
284.441
284.451
284.459
284.462
284.459
284.451
284.438
284.419
284.396
284.371
284.347
284.323
284.3
284.284
284.27
284.258
284.248
284.24
284.234
284.23
284.229
284.229
284.231
284.233
284.237
284.24
284.244
284.247
284.25
284.252
284.254
284.255
284.255
284.255
284.253
284.251
284.249
284.246
284.243
284.241
284.239
284.241
284.246
284.256
284.273
284.299
284.338
284.391
284.463
284.561
284.7
284.923
285.341
286.047
286.515
285.873
285.061
284.77
284.597
284.484
284.408
284.357
284.323
284.303
284.292
284.289
284.29
284.294
284.299
284.305
284.311
284.315
284.319
284.321
284.321
284.318
284.314
284.308
284.3
284.291
284.28
284.268
284.255
284.241
284.226
284.21
284.193
284.177
284.163
284.159
284.185
284.258
285.356
285.239
284.747
284.546
284.468
284.449
284.457
284.475
284.494
284.509
284.519
284.521
284.517
284.505
284.486
284.461
284.43
284.398
284.368
284.34
284.319
284.301
284.286
284.272
284.261
284.253
284.248
284.246
284.247
284.251
284.257
284.264
284.272
284.28
284.288
284.295
284.302
284.308
284.313
284.317
284.319
284.319
284.318
284.316
284.312
284.307
284.301
284.294
284.286
284.279
284.273
284.27
284.271
284.279
284.296
284.327
284.375
284.448
284.562
284.757
285.139
285.805
286.293
285.786
284.933
284.611
284.473
284.396
284.353
284.332
284.325
284.327
284.335
284.346
284.359
284.372
284.384
284.395
284.404
284.411
284.415
284.417
284.416
284.413
284.406
284.397
284.386
284.373
284.357
284.34
284.32
284.299
284.277
284.252
284.227
284.202
284.181
284.171
284.2
284.255
285.262
285.192
284.705
284.524
284.468
284.466
284.488
284.515
284.54
284.559
284.571
284.574
284.568
284.554
284.529
284.496
284.458
284.419
284.384
284.355
284.334
284.316
284.3
284.286
284.274
284.266
284.262
284.263
284.268
284.276
284.288
284.3
284.314
284.328
284.341
284.353
284.365
284.375
284.383
284.39
284.395
284.397
284.397
284.395
284.391
284.384
284.374
284.363
284.35
284.337
284.323
284.31
284.299
284.294
284.296
284.308
284.337
284.39
284.48
284.648
284.993
285.614
286.11
285.735
284.916
284.524
284.416
284.366
284.348
284.348
284.358
284.375
284.394
284.415
284.435
284.454
284.471
284.485
284.497
284.506
284.511
284.513
284.512
284.507
284.499
284.488
284.474
284.457
284.437
284.415
284.39
284.362
284.332
284.3
284.266
284.231
284.202
284.186
284.208
284.262
285.203
285.16
284.679
284.513
284.472
284.484
284.514
284.548
284.578
284.6
284.613
284.617
284.611
284.595
284.565
284.525
284.479
284.434
284.396
284.369
284.347
284.329
284.313
284.298
284.286
284.279
284.277
284.281
284.29
284.305
284.322
284.341
284.361
284.381
284.4
284.417
284.433
284.447
284.459
284.469
284.476
284.481
284.483
284.481
284.476
284.467
284.455
284.44
284.423
284.403
284.382
284.361
284.341
284.325
284.315
284.313
284.326
284.361
284.432
284.575
284.885
285.458
285.954
285.698
284.946
284.493
284.389
284.361
284.361
284.376
284.399
284.426
284.454
284.482
284.508
284.531
284.551
284.568
284.582
284.592
284.598
284.6
284.598
284.593
284.584
284.572
284.557
284.537
284.515
284.489
284.459
284.426
284.39
284.35
284.308
284.264
284.224
284.2
284.213
284.276
285.165
285.138
284.661
284.508
284.478
284.498
284.535
284.573
284.605
284.63
284.645
284.651
284.647
284.628
284.594
284.547
284.494
284.445
284.408
284.38
284.359
284.341
284.325
284.31
284.298
284.292
284.292
284.3
284.315
284.335
284.359
284.385
284.411
284.436
284.459
284.481
284.5
284.517
284.531
284.543
284.553
284.559
284.562
284.562
284.557
284.548
284.534
284.517
284.496
284.471
284.444
284.417
284.389
284.364
284.343
284.331
284.33
284.35
284.404
284.525
284.802
285.328
285.819
285.665
284.996
284.503
284.377
284.366
284.38
284.407
284.44
284.475
284.509
284.541
284.571
284.598
284.62
284.639
284.653
284.663
284.669
284.671
284.67
284.665
284.657
284.645
284.629
284.609
284.585
284.557
284.525
284.489
284.448
284.402
284.352
284.299
284.249
284.215
284.222
284.296
285.142
285.123
284.65
284.505
284.483
284.509
284.549
284.589
284.623
284.65
284.668
284.677
284.674
284.654
284.615
284.561
284.503
284.455
284.417
284.39
284.369
284.352
284.337
284.322
284.311
284.305
284.308
284.321
284.341
284.368
284.398
284.43
284.461
284.49
284.516
284.54
284.56
284.577
284.592
284.603
284.613
284.62
284.624
284.624
284.621
284.613
284.601
284.583
284.561
284.534
284.504
284.471
284.437
284.405
284.376
284.354
284.343
284.35
284.389
284.491
284.737
285.219
285.698
285.631
285.052
284.539
284.378
284.375
284.4
284.436
284.476
284.517
284.556
284.592
284.624
284.653
284.676
284.695
284.709
284.719
284.725
284.727
284.726
284.722
284.715
284.704
284.689
284.67
284.646
284.618
284.585
284.547
284.503
284.453
284.397
284.336
284.276
284.231
284.236
284.323
285.13
285.114
284.643
284.504
284.487
284.516
284.558
284.599
284.633
284.661
284.682
284.697
284.694
284.671
284.627
284.569
284.511
284.462
284.424
284.397
284.379
284.363
284.348
284.334
284.323
284.319
284.326
284.343
284.369
284.402
284.438
284.474
284.508
284.539
284.566
284.589
284.607
284.622
284.634
284.643
284.65
284.655
284.659
284.661
284.66
284.655
284.646
284.631
284.611
284.586
284.555
284.52
284.482
284.445
284.409
284.379
284.359
284.356
284.382
284.467
284.686
285.125
285.59
285.595
285.106
284.594
284.39
284.383
284.417
284.46
284.506
284.552
284.594
284.633
284.667
284.695
284.718
284.737
284.75
284.759
284.764
284.767
284.767
284.765
284.759
284.75
284.737
284.719
284.697
284.669
284.636
284.598
284.553
284.502
284.442
284.375
284.304
284.248
284.249
284.351
285.123
285.108
284.638
284.503
284.49
284.521
284.563
284.603
284.637
284.665
284.691
284.711
284.707
284.68
284.633
284.574
284.515
284.465
284.429
284.404
284.388
284.374
284.36
284.346
284.335
284.333
284.344
284.366
284.399
284.438
284.478
284.517
284.552
284.582
284.607
284.626
284.64
284.65
284.657
284.662
284.665
284.667
284.669
284.671
284.672
284.67
284.666
284.658
284.643
284.622
284.594
284.56
284.522
284.481
284.441
284.405
284.378
284.366
284.381
284.45
284.644
285.045
285.491
285.556
285.155
284.659
284.414
284.391
284.431
284.48
284.531
284.579
284.624
284.664
284.698
284.726
284.748
284.765
284.776
284.784
284.789
284.792
284.794
284.794
284.791
284.785
284.774
284.759
284.737
284.711
284.679
284.641
284.597
284.546
284.485
284.414
284.335
284.267
284.258
284.374
285.121
285.105
284.636
284.504
284.492
284.523
284.564
284.603
284.636
284.664
284.7
284.718
284.711
284.685
284.636
284.575
284.515
284.466
284.432
284.411
284.397
284.386
284.372
284.358
284.348
284.348
284.363
284.392
284.431
284.474
284.518
284.558
284.591
284.618
284.637
284.651
284.659
284.663
284.664
284.664
284.662
284.661
284.661
284.662
284.663
284.665
284.666
284.664
284.656
284.642
284.62
284.59
284.554
284.512
284.47
284.43
284.397
284.378
284.383
284.439
284.61
284.974
285.4
285.513
285.195
284.729
284.45
284.4
284.44
284.495
284.548
284.6
284.647
284.687
284.721
284.747
284.767
284.781
284.79
284.796
284.8
284.803
284.808
284.811
284.812
284.81
284.802
284.789
284.77
284.745
284.714
284.677
284.635
284.585
284.525
284.453
284.368
284.287
284.261
284.379
285.12
285.105
284.635
284.504
284.493
284.523
284.564
284.601
284.631
284.66
284.705
284.717
284.712
284.685
284.635
284.571
284.511
284.464
284.435
284.418
284.408
284.398
284.384
284.37
284.361
284.364
284.384
284.419
284.464
284.511
284.556
284.595
284.625
284.646
284.659
284.665
284.666
284.664
284.659
284.653
284.647
284.643
284.64
284.64
284.642
284.645
284.65
284.654
284.654
284.649
284.634
284.611
284.578
284.538
284.495
284.452
284.415
284.39
284.388
284.432
284.582
284.912
285.317
285.468
285.225
284.8
284.497
284.414
284.445
284.502
284.561
284.614
284.662
284.702
284.735
284.76
284.777
284.788
284.793
284.796
284.799
284.804
284.811
284.819
284.825
284.827
284.823
284.812
284.795
284.771
284.742
284.707
284.666
284.618
284.56
284.489
284.402
284.31
284.263
284.372
285.122
285.106
284.636
284.505
284.493
284.523
284.561
284.596
284.625
284.655
284.694
284.712
284.71
284.682
284.628
284.563
284.504
284.462
284.438
284.426
284.419
284.41
284.397
284.382
284.374
284.381
284.407
284.448
284.498
284.548
284.593
284.628
284.652
284.666
284.671
284.67
284.664
284.655
284.644
284.634
284.624
284.616
284.611
284.61
284.612
284.617
284.625
284.634
284.641
284.643
284.638
284.621
284.595
284.558
284.516
284.473
284.433
284.403
284.394
284.428
284.559
284.857
285.239
285.42
285.246
284.868
284.553
284.435
284.449
284.504
284.565
284.621
284.67
284.711
284.743
284.767
284.781
284.787
284.788
284.788
284.79
284.797
284.807
284.82
284.83
284.837
284.837
284.83
284.814
284.792
284.764
284.73
284.691
284.644
284.59
284.522
284.436
284.336
284.267
284.359
285.125
285.108
284.637
284.506
284.494
284.522
284.559
284.591
284.618
284.651
284.686
284.708
284.708
284.677
284.619
284.552
284.497
284.46
284.442
284.435
284.431
284.423
284.409
284.394
284.388
284.399
284.432
284.48
284.534
284.585
284.626
284.656
284.672
284.678
284.675
284.666
284.653
284.638
284.622
284.608
284.595
284.584
284.577
284.575
284.577
284.583
284.593
284.606
284.62
284.63
284.633
284.625
284.605
284.573
284.534
284.49
284.449
284.416
284.401
284.426
284.54
284.808
285.167
285.37
285.257
284.93
284.616
284.464
284.455
284.504
284.564
284.621
284.671
284.713
284.745
284.767
284.779
284.781
284.779
284.775
284.776
284.784
284.798
284.815
284.831
284.843
284.847
284.842
284.83
284.809
284.781
284.748
284.71
284.666
284.614
284.551
284.468
284.364
284.275
284.344
285.131
285.111
284.639
284.507
284.496
284.522
284.555
284.585
284.612
284.647
284.682
284.706
284.705
284.668
284.605
284.539
284.488
284.458
284.447
284.446
284.445
284.436
284.421
284.406
284.402
284.419
284.459
284.513
284.57
284.62
284.656
284.677
284.685
284.682
284.671
284.654
284.635
284.615
284.595
284.577
284.561
284.549
284.541
284.537
284.539
284.546
284.559
284.576
284.594
284.611
284.622
284.622
284.609
284.583
284.547
284.505
284.463
284.428
284.409
284.426
284.525
284.765
285.101
285.318
285.26
284.984
284.681
284.503
284.466
284.503
284.56
284.616
284.667
284.708
284.739
284.76
284.77
284.77
284.765
284.761
284.762
284.771
284.788
284.809
284.83
284.846
284.853
284.852
284.841
284.822
284.795
284.763
284.726
284.683
284.633
284.573
284.496
284.394
284.288
284.334
285.139
285.115
284.641
284.509
284.497
284.522
284.553
284.581
284.607
284.643
284.681
284.707
284.701
284.656
284.589
284.525
284.48
284.459
284.455
284.459
284.459
284.45
284.433
284.417
284.417
284.441
284.488
284.547
284.605
284.651
284.68
284.692
284.691
284.679
284.66
284.637
284.613
284.588
284.565
284.544
284.527
284.513
284.504
284.499
284.501
284.51
284.524
284.544
284.567
284.59
284.607
284.615
284.609
284.589
284.557
284.517
284.475
284.439
284.417
284.427
284.512
284.727
285.039
285.266
285.253
285.029
284.746
284.549
284.483
284.503
284.554
284.608
284.657
284.698
284.728
284.747
284.755
284.754
284.749
284.745
284.748
284.759
284.779
284.804
284.828
284.848
284.859
284.859
284.85
284.832
284.806
284.774
284.737
284.696
284.648
284.591
284.518
284.422
284.305
284.329
285.147
285.119
284.643
284.511
284.499
284.522
284.55
284.577
284.605
284.643
284.685
284.71
284.696
284.641
284.57
284.51
284.474
284.462
284.466
284.474
284.474
284.463
284.444
284.429
284.433
284.464
284.519
284.582
284.638
284.678
284.698
284.7
284.689
284.67
284.645
284.616
284.588
284.56
284.534
284.511
284.492
284.478
284.468
284.464
284.465
284.474
284.49
284.513
284.54
284.568
284.592
284.606
284.606
284.592
284.564
284.527
284.486
284.449
284.424
284.429
284.501
284.693
284.982
285.213
285.24
285.065
284.807
284.601
284.508
284.507
284.547
284.597
284.645
284.683
284.712
284.729
284.736
284.735
284.731
284.729
284.734
284.749
284.773
284.801
284.829
284.851
284.864
284.866
284.857
284.839
284.813
284.781
284.745
284.705
284.659
284.605
284.535
284.443
284.325
284.322
285.153
285.123
284.646
284.514
284.502
284.522
284.549
284.575
284.606
284.649
284.695
284.715
284.688
284.623
284.55
284.496
284.47
284.469
284.48
284.491
284.49
284.476
284.454
284.441
284.451
284.49
284.551
284.616
284.668
284.699
284.709
284.702
284.683
284.657
284.626
284.594
284.561
284.531
284.504
284.48
284.461
284.447
284.437
284.432
284.434
284.443
284.461
284.485
284.516
284.548
284.576
284.596
284.602
284.593
284.568
284.534
284.495
284.458
284.432
284.432
284.493
284.663
284.929
285.16
285.22
285.09
284.863
284.657
284.542
284.517
284.543
284.586
284.63
284.666
284.692
284.708
284.714
284.714
284.712
284.713
284.723
284.742
284.77
284.802
284.832
284.856
284.869
284.872
284.863
284.844
284.818
284.786
284.75
284.71
284.666
284.615
284.549
284.46
284.344
284.314
285.159
285.127
284.648
284.516
284.504
284.524
284.549
284.575
284.61
284.661
284.708
284.718
284.676
284.601
284.529
284.484
284.471
284.48
284.497
284.509
284.506
284.488
284.464
284.453
284.47
284.518
284.584
284.647
284.692
284.714
284.714
284.699
284.673
284.642
284.607
284.571
284.536
284.504
284.476
284.453
284.436
284.422
284.412
284.407
284.409
284.418
284.437
284.463
284.496
284.531
284.563
284.587
284.597
284.592
284.571
284.539
284.502
284.465
284.438
284.435
284.486
284.636
284.88
285.108
285.194
285.107
284.912
284.713
284.582
284.534
284.543
284.576
284.614
284.647
284.671
284.686
284.692
284.693
284.695
284.701
284.715
284.74
284.772
284.807
284.839
284.862
284.876
284.877
284.867
284.848
284.821
284.788
284.752
284.713
284.67
284.621
284.559
284.475
284.36
284.309
285.163
285.13
284.651
284.519
284.507
284.526
284.55
284.578
284.62
284.678
284.722
284.718
284.659
284.577
284.51
284.477
284.476
284.495
284.517
284.528
284.521
284.498
284.474
284.467
284.492
284.547
284.615
284.674
284.711
284.722
284.714
284.692
284.662
284.626
284.588
284.549
284.513
284.48
284.453
284.433
284.418
284.406
284.397
284.392
284.393
284.402
284.42
284.448
284.482
284.519
284.554
284.58
284.593
284.59
284.572
284.543
284.507
284.472
284.444
284.438
284.481
284.613
284.835
285.058
285.164
285.114
284.954
284.768
284.628
284.559
284.549
284.57
284.6
284.629
284.65
284.664
284.671
284.675
284.681
284.692
284.713
284.743
284.779
284.816
284.848
284.871
284.882
284.882
284.87
284.849
284.82
284.787
284.75
284.712
284.671
284.624
284.566
284.485
284.374
284.306
285.165
285.133
284.653
284.521
284.51
284.529
284.553
284.585
284.635
284.701
284.736
284.712
284.637
284.552
284.493
284.474
284.486
284.514
284.538
284.546
284.534
284.508
284.484
284.482
284.515
284.576
284.643
284.696
284.723
284.726
284.712
284.685
284.65
284.611
284.57
284.53
284.493
284.461
284.437
284.42
284.409
284.401
284.394
284.388
284.387
284.395
284.413
284.441
284.475
284.513
284.549
284.576
284.59
284.589
284.573
284.545
284.511
284.477
284.45
284.441
284.477
284.593
284.795
285.009
285.131
285.114
284.986
284.819
284.676
284.592
284.563
284.569
284.59
284.613
284.632
284.645
284.653
284.661
284.673
284.69
284.718
284.753
284.792
284.829
284.859
284.88
284.889
284.886
284.872
284.848
284.818
284.783
284.746
284.708
284.668
284.624
284.569
284.493
284.384
284.306
285.164
285.136
284.655
284.524
284.514
284.532
284.559
284.597
284.658
284.725
284.746
284.701
284.612
284.528
284.481
284.477
284.502
284.536
284.56
284.564
284.546
284.517
284.494
284.499
284.539
284.603
284.668
284.713
284.731
284.727
284.708
284.677
284.64
284.598
284.555
284.514
284.477
284.447
284.427
284.415
284.41
284.406
284.401
284.394
284.393
284.399
284.416
284.443
284.477
284.514
284.548
284.575
284.589
284.587
284.572
284.546
284.513
284.481
284.454
284.444
284.474
284.576
284.758
284.962
285.095
285.106
285.01
284.864
284.725
284.63
284.585
284.577
284.587
284.603
284.619
284.631
284.642
284.655
284.672
284.696
284.729
284.768
284.808
284.844
284.873
284.89
284.895
284.888
284.87
284.844
284.811
284.775
284.738
284.7
284.662
284.621
284.569
284.497
284.392
284.308
285.159
285.138
284.657
284.528
284.518
284.538
284.568
284.616
284.688
284.749
284.751
284.684
284.585
284.507
284.474
284.485
284.522
284.56
284.582
284.579
284.556
284.525
284.506
284.518
284.564
284.628
284.687
284.724
284.735
284.727
284.703
284.67
284.631
284.588
284.544
284.502
284.467
284.44
284.424
284.419
284.42
284.421
284.418
284.411
284.408
284.413
284.429
284.454
284.486
284.52
284.552
284.576
284.588
284.586
284.57
284.545
284.515
284.484
284.458
284.447
284.472
284.561
284.726
284.919
285.058
285.093
285.026
284.902
284.773
284.673
284.616
284.593
284.592
284.602
284.613
284.626
284.64
284.657
284.679
284.709
284.747
284.788
284.828
284.862
284.887
284.899
284.9
284.888
284.866
284.837
284.802
284.765
284.727
284.69
284.654
284.615
284.567
284.498
284.396
284.31
285.147
285.14
284.659
284.532
284.523
284.545
284.581
284.641
284.723
284.768
284.75
284.663
284.56
284.491
284.473
284.499
284.545
284.585
284.602
284.593
284.565
284.534
284.52
284.538
284.587
284.65
284.702
284.731
284.737
284.726
284.7
284.666
284.625
284.581
284.537
284.496
284.462
284.438
284.428
284.429
284.435
284.441
284.44
284.433
284.429
284.434
284.448
284.471
284.501
284.532
284.56
284.58
284.588
284.584
284.568
284.544
284.515
284.485
284.461
284.45
284.47
284.548
284.696
284.878
285.021
285.074
285.034
284.933
284.816
284.718
284.652
284.619
284.608
284.61
284.619
284.631
284.647
284.669
284.696
284.731
284.772
284.814
284.851
284.881
284.9
284.907
284.901
284.884
284.858
284.825
284.788
284.75
284.712
284.676
284.642
284.606
284.561
284.495
284.397
284.31
285.129
285.141
284.66
284.537
284.529
284.556
284.601
284.674
284.757
284.783
284.744
284.64
284.538
284.481
284.477
284.517
284.57
284.608
284.62
284.605
284.574
284.545
284.535
284.558
284.609
284.667
284.711
284.735
284.738
284.725
284.699
284.663
284.622
284.578
284.534
284.494
284.462
284.442
284.436
284.442
284.452
284.461
284.463
284.46
284.457
284.461
284.474
284.494
284.519
284.545
284.568
284.583
284.588
284.581
284.565
284.541
284.513
284.486
284.463
284.452
284.469
284.537
284.671
284.841
284.984
285.053
285.035
284.957
284.855
284.761
284.693
284.652
284.633
284.629
284.635
284.648
284.666
284.691
284.722
284.761
284.802
284.842
284.876
284.9
284.912
284.911
284.899
284.876
284.845
284.809
284.77
284.731
284.694
284.66
284.628
284.594
284.552
284.489
284.394
284.309
285.105
285.142
284.662
284.542
284.538
284.571
284.626
284.71
284.782
284.792
284.734
284.618
284.521
284.476
284.487
284.538
284.595
284.63
284.635
284.615
284.583
284.556
284.552
284.579
284.627
284.679
284.718
284.739
284.74
284.726
284.699
284.664
284.623
284.579
284.535
284.497
284.467
284.45
284.447
284.454
284.467
284.477
284.484
284.485
284.485
284.49
284.501
284.517
284.537
284.557
284.575
284.585
284.586
284.578
284.56
284.537
284.511
284.486
284.465
284.455
284.469
284.529
284.649
284.807
284.949
285.029
285.031
284.973
284.888
284.803
284.735
284.691
284.667
284.659
284.663
284.675
284.696
284.723
284.757
284.796
284.837
284.872
284.9
284.916
284.919
284.91
284.89
284.862
284.827
284.788
284.747
284.708
284.672
284.64
284.61
284.58
284.54
284.479
284.387
284.306
285.077
285.142
284.663
284.55
284.549
284.589
284.657
284.748
284.8
284.798
284.722
284.6
284.51
284.476
284.499
284.56
284.619
284.649
284.648
284.624
284.593
284.57
284.57
284.596
284.641
284.688
284.725
284.743
284.744
284.729
284.703
284.668
284.627
284.584
284.541
284.503
284.475
284.458
284.455
284.464
284.477
284.491
284.5
284.506
284.51
284.515
284.524
284.537
284.552
284.567
284.579
284.584
284.582
284.572
284.555
284.532
284.508
284.485
284.466
284.456
284.468
284.522
284.631
284.778
284.917
285.004
285.022
284.984
284.914
284.84
284.777
284.732
284.707
284.697
284.7
284.713
284.734
284.763
284.798
284.837
284.873
284.902
284.92
284.926
284.92
284.902
284.875
284.84
284.801
284.76
284.719
284.681
284.647
284.617
284.59
284.563
284.525
284.466
284.377
284.302
285.046
285.142
284.666
284.558
284.564
284.614
284.692
284.779
284.814
284.802
284.711
284.588
284.505
284.48
284.514
284.582
284.639
284.664
284.658
284.634
284.604
284.585
284.586
284.612
284.653
284.696
284.73
284.747
284.748
284.734
284.709
284.675
284.636
284.593
284.551
284.514
284.484
284.467
284.463
284.47
284.483
284.498
284.511
284.52
284.527
284.533
284.542
284.552
284.563
284.572
284.579
284.581
284.576
284.565
284.548
284.527
284.504
284.483
284.466
284.458
284.469
284.517
284.616
284.753
284.888
284.98
285.011
284.988
284.934
284.871
284.816
284.775
284.75
284.74
284.743
284.757
284.779
284.808
284.843
284.878
284.907
284.927
284.934
284.929
284.911
284.885
284.85
284.811
284.769
284.727
284.686
284.649
284.618
284.591
284.568
284.543
284.506
284.451
284.367
284.297
285.012
285.142
284.669
284.57
284.584
284.643
284.728
284.803
284.826
284.805
284.703
284.582
284.505
284.487
284.529
284.601
284.656
284.676
284.668
284.643
284.617
284.6
284.602
284.625
284.663
284.703
284.735
284.752
284.754
284.742
284.718
284.686
284.649
284.607
284.566
284.528
284.497
284.477
284.469
284.473
284.485
284.5
284.515
284.527
284.535
284.543
284.551
284.559
284.567
284.573
284.576
284.574
284.568
284.556
284.54
284.521
284.5
284.481
284.465
284.459
284.469
284.514
284.606
284.734
284.864
284.958
284.998
284.989
284.948
284.898
284.851
284.815
284.794
284.786
284.79
284.804
284.827
284.856
284.888
284.916
284.935
284.942
284.936
284.919
284.891
284.856
284.816
284.773
284.73
284.688
284.649
284.614
284.586
284.564
284.543
284.52
284.488
284.436
284.356
284.292
284.977
285.142
284.674
284.583
284.607
284.675
284.761
284.822
284.838
284.809
284.701
284.583
284.51
284.497
284.544
284.617
284.669
284.686
284.677
284.654
284.631
284.615
284.617
284.637
284.671
284.708
284.739
284.757
284.76
284.751
284.73
284.701
284.665
284.626
284.585
284.546
284.513
284.489
284.476
284.474
284.483
284.496
284.511
284.525
284.535
284.544
284.552
284.558
284.564
284.567
284.567
284.564
284.557
284.545
284.53
284.513
284.495
284.478
284.464
284.459
284.471
284.514
284.6
284.722
284.846
284.94
284.985
284.986
284.958
284.919
284.881
284.852
284.835
284.831
284.837
284.853
284.875
284.902
284.928
284.946
284.951
284.944
284.924
284.895
284.858
284.816
284.773
284.728
284.684
284.644
284.607
284.577
284.553
284.533
284.516
284.498
284.47
284.42
284.343
284.286
284.943
285.143
284.68
284.6
284.634
284.708
284.79
284.838
284.849
284.814
284.705
284.59
284.518
284.507
284.556
284.628
284.677
284.694
284.686
284.666
284.644
284.63
284.63
284.648
284.678
284.712
284.742
284.761
284.768
284.761
284.744
284.718
284.686
284.648
284.609
284.57
284.535
284.506
284.486
284.478
284.479
284.489
284.502
284.515
284.527
284.536
284.544
284.55
284.554
284.556
284.555
284.551
284.543
284.532
284.519
284.504
284.488
284.474
284.463
284.46
284.474
284.517
284.6
284.716
284.836
284.927
284.975
284.983
284.964
284.935
284.907
284.885
284.874
284.873
284.882
284.899
284.92
284.943
284.958
284.96
284.95
284.927
284.894
284.855
284.812
284.767
284.721
284.677
284.635
284.597
284.564
284.538
284.517
284.501
284.491
284.478
284.452
284.404
284.331
284.28
284.911
285.146
284.689
284.62
284.663
284.74
284.816
284.854
284.862
284.822
284.716
284.602
284.53
284.517
284.565
284.634
284.683
284.701
284.695
284.677
284.658
284.644
284.643
284.657
284.684
284.715
284.745
284.765
284.775
284.772
284.76
284.738
284.709
284.675
284.638
284.599
284.562
284.53
284.504
284.487
284.48
284.482
284.49
284.501
284.513
284.522
284.53
284.535
284.539
284.54
284.538
284.534
284.527
284.517
284.506
284.493
284.481
284.47
284.462
284.463
284.48
284.525
284.609
284.72
284.833
284.92
284.967
284.979
284.969
284.948
284.928
284.914
284.909
284.912
284.924
284.94
284.959
284.97
284.969
284.953
284.926
284.889
284.847
284.802
284.755
284.71
284.666
284.623
284.585
284.55
284.521
284.498
284.481
284.474
284.469
284.459
284.435
284.387
284.317
284.274
284.882
285.15
284.701
284.643
284.693
284.771
284.838
284.869
284.876
284.834
284.733
284.619
284.543
284.526
284.569
284.637
284.687
284.707
284.704
284.689
284.671
284.658
284.656
284.667
284.689
284.718
284.746
284.768
284.781
284.783
284.775
284.759
284.735
284.705
284.671
284.635
284.597
284.562
284.532
284.507
284.491
284.483
284.483
284.489
284.497
284.505
284.512
284.517
284.52
284.521
284.519
284.515
284.51
284.502
284.493
284.484
284.475
284.468
284.466
284.473
284.496
284.544
284.625
284.731
284.84
284.92
284.964
284.977
284.972
284.959
284.947
284.94
284.941
284.948
284.961
284.974
284.982
284.975
284.953
284.919
284.878
284.832
284.786
284.74
284.695
284.652
284.61
284.571
284.536
284.504
284.477
284.458
284.451
284.45
284.449
284.441
284.416
284.369
284.304
284.267
284.855
285.158
284.716
284.669
284.724
284.8
284.858
284.886
284.892
284.851
284.756
284.642
284.558
284.532
284.57
284.637
284.689
284.712
284.712
284.7
284.684
284.672
284.668
284.676
284.694
284.719
284.746
284.769
284.785
284.792
284.79
284.78
284.762
284.738
284.708
284.675
284.64
284.604
284.571
284.541
284.517
284.499
284.489
284.486
284.488
284.493
284.497
284.5
284.503
284.503
284.502
284.5
284.495
284.49
284.485
284.48
284.476
284.476
284.481
284.496
284.526
284.577
284.655
284.751
284.85
284.925
284.964
284.977
284.976
284.97
284.965
284.965
284.97
284.979
284.988
284.99
284.975
284.945
284.905
284.859
284.811
284.765
284.72
284.677
284.637
284.597
284.559
284.523
284.489
284.459
284.436
284.426
284.425
284.429
284.431
284.423
284.398
284.351
284.29
284.261
284.83
285.169
284.735
284.697
284.755
284.826
284.878
284.905
284.91
284.871
284.783
284.67
284.574
284.538
284.569
284.634
284.689
284.715
284.719
284.71
284.697
284.685
284.68
284.684
284.698
284.72
284.744
284.768
284.786
284.798
284.802
284.798
284.787
284.77
284.747
284.719
284.688
284.654
284.621
284.589
284.56
284.536
284.517
284.504
284.497
284.495
284.495
284.496
284.496
284.496
284.496
284.495
284.493
284.491
284.49
284.49
284.493
284.5
284.513
284.535
284.57
284.623
284.696
284.781
284.866
284.932
284.969
284.981
284.983
284.982
284.983
284.987
284.994
284.998
284.992
284.967
284.927
284.88
284.831
284.784
284.74
284.698
284.66
284.622
284.586
284.549
284.513
284.477
284.443
284.417
284.402
284.399
284.404
284.411
284.413
284.404
284.378
284.333
284.276
284.255
284.808
285.183
284.762
284.729
284.785
284.852
284.899
284.926
284.931
284.895
284.813
284.702
284.594
284.544
284.565
284.628
284.685
284.717
284.725
284.719
284.708
284.698
284.692
284.693
284.703
284.72
284.742
284.764
284.784
284.799
284.809
284.812
284.808
284.799
284.783
284.763
284.738
284.71
284.68
284.649
284.62
284.592
284.568
284.548
284.533
284.523
284.518
284.515
284.513
284.512
284.511
284.511
284.512
284.514
284.517
284.523
284.531
284.544
284.563
284.591
284.629
284.68
284.745
284.818
284.888
284.943
284.976
284.989
284.993
284.997
285
285.002
284.999
284.982
284.944
284.894
284.842
284.795
284.752
284.713
284.678
284.643
284.61
284.575
284.541
284.504
284.466
284.428
284.398
284.379
284.373
284.376
284.384
284.393
284.394
284.384
284.357
284.314
284.262
284.248