/*--------------------------------*- C++ -*----------------------------------*\
| =========                 |                                                 |
| \\      /  F ield         | OpenFOAM: The Open Source CFD Toolbox           |
|  \\    /   O peration     | Version:  4.1                                   |
|   \\  /    A nd           | Web:      www.OpenFOAM.org                      |
|    \\/     M anipulation  |                                                 |
\*---------------------------------------------------------------------------*/
FoamFile
{
    version     2.0;
    format      ascii;
    class       volScalarField;
    location    "740";
    object      mag(U);
}
// * * * * * * * * * * * * * * * * * * * * * * * * * * * * * * * * * * * * * //

dimensions      [0 1 -1 0 0 0 0];

internalField   nonuniform List<scalar> 
5000
(
0.00480033
0.00612929
0.00819306
0.00982915
0.0112131
0.0124028
0.0134175
0.0142573
0.0149131
0.0153734
0.0156253
0.0156565
0.0154567
0.0150234
0.0143655
0.0135021
0.0124606
0.0112745
0.00998082
0.00861799
0.00722352
0.00583208
0.00447494
0.00318148
0.00199089
0.00107397
0.000980097
0.0016588
0.00239781
0.00305705
0.00360551
0.00404687
0.00438959
0.00464155
0.00481115
0.00490828
0.00494419
0.0049353
0.00490291
0.00484429
0.00468695
0.00425535
0.00334507
0.00193089
0.00034659
0.00098859
0.00182615
0.00273563
0.00508705
0.00633234
0.00693981
0.00718448
0.00747324
0.00791542
0.0084126
0.00884819
0.00916046
0.00933308
0.00937257
0.0092949
0.00910496
0.0087981
0.00836743
0.00780387
0.00709742
0.00624125
0.00524808
0.0041898
0.00322231
0.00252689
0.0027168
0.00471437
0.0074068
0.00947232
0.0103706
0.0100046
0.0086183
0.00675212
0.00474851
0.0029029
0.00164604
0.00198287
0.00305132
0.00412013
0.00504822
0.00580052
0.00637388
0.00678276
0.00704813
0.00718943
0.00722659
0.00717594
0.0070524
0.00687112
0.00664651
0.0063974
0.00615221
0.00589949
0.00524712
0.00494457
0.0071171
0.00682885
0.00851461
0.0101239
0.011545
0.0127647
0.0137881
0.0146133
0.0152326
0.0156365
0.0158155
0.0157595
0.0154748
0.0149719
0.0142604
0.0133599
0.0122966
0.0111024
0.00981298
0.00846563
0.00709752
0.00574583
0.00445252
0.00327965
0.00234366
0.00185509
0.00170118
0.00208831
0.00266685
0.00323586
0.00372491
0.00411487
0.00440185
0.00458704
0.00467494
0.00467265
0.00460068
0.00447286
0.00429481
0.00407702
0.00383629
0.00361092
0.00344794
0.00313974
0.00244305
0.00223361
0.00191759
0.00485619
0.00740093
0.00745492
0.00836917
0.00897784
0.00935661
0.00966496
0.0099417
0.0101755
0.0103504
0.0104576
0.0104934
0.0104578
0.0103562
0.0101879
0.00994765
0.00963325
0.0092468
0.00879489
0.00829174
0.00776398
0.00724717
0.00675897
0.00634908
0.00626972
0.00648534
0.00658131
0.00645565
0.0059514
0.0051912
0.0043573
0.00352218
0.00293216
0.00278277
0.00312349
0.00370804
0.00440802
0.00509002
0.00569318
0.00619271
0.00657948
0.00685156
0.00701038
0.00705785
0.00699893
0.00684487
0.00660197
0.00627979
0.00589012
0.00544396
0.00494818
0.00444576
0.00672739
0.0102675
0.00816021
0.00859721
0.00967184
0.010859
0.011961
0.0129167
0.0136984
0.0142889
0.0146762
0.0148508
0.0148039
0.0145418
0.0140729
0.0134104
0.0125746
0.0115922
0.0104946
0.00931764
0.00809948
0.00688043
0.0057059
0.00463571
0.00375364
0.0031477
0.00285672
0.0028202
0.00306889
0.00347808
0.00392087
0.0043276
0.00466574
0.00492039
0.00508476
0.00515576
0.00513135
0.00501366
0.0047936
0.00446958
0.00405172
0.00361107
0.0033521
0.00344152
0.00347177
0.00292805
0.00216183
0.00066954
0.00802619
0.00976846
0.00759336
0.007813
0.00854554
0.00913937
0.00954887
0.00983789
0.0100639
0.0102562
0.0104201
0.0105465
0.0106227
0.0106431
0.010614
0.0105438
0.0104426
0.0103219
0.010192
0.0100579
0.00990771
0.00968387
0.00924043
0.00839156
0.00721171
0.00605075
0.00474579
0.00330291
0.00278058
0.00349441
0.00393453
0.00402332
0.00400673
0.00397417
0.00406875
0.00433829
0.00473938
0.00519141
0.00563309
0.0060266
0.00634867
0.00658472
0.00672431
0.00676485
0.00669485
0.00651394
0.00622972
0.00584739
0.00536657
0.00476615
0.00404832
0.00420992
0.00918561
0.0132732
0.00994685
0.00921906
0.00959464
0.0103973
0.0112773
0.0120956
0.0127869
0.0133173
0.0136675
0.0138258
0.0137837
0.0135507
0.0131369
0.0125552
0.0118259
0.010974
0.0100291
0.00902525
0.00799957
0.00699286
0.00605326
0.00523994
0.00461084
0.00416766
0.00394272
0.00389773
0.0040465
0.00432049
0.00464307
0.00495907
0.00523445
0.0054492
0.00559144
0.00565303
0.00562904
0.00551429
0.0053025
0.00499277
0.00459705
0.00416734
0.00383856
0.00373086
0.00358995
0.00299243
0.0020196
0.00164352
0.0103958
0.0120058
0.00816189
0.00745516
0.00799347
0.00860529
0.00907615
0.00942398
0.00969442
0.00991789
0.0101049
0.0102536
0.0103605
0.0104239
0.0104506
0.0104494
0.0104296
0.0104009
0.0103705
0.0103376
0.010283
0.010147
0.00979884
0.00904955
0.00777338
0.00607578
0.00434077
0.0032639
0.0033692
0.00398456
0.00446144
0.00472255
0.00481452
0.00478467
0.0047432
0.00479508
0.00496075
0.0052064
0.00548642
0.00576212
0.00600446
0.00619247
0.00631081
0.00634705
0.00628483
0.00612188
0.00585602
0.00548827
0.00502157
0.00446006
0.00390138
0.00471732
0.0112753
0.0158518
0.0117269
0.0101941
0.0099443
0.010294
0.0108491
0.0114315
0.0119501
0.0123577
0.0126286
0.0127476
0.0127046
0.0125119
0.0121796
0.0117189
0.0111468
0.0104834
0.00975118
0.00897655
0.00818989
0.00742586
0.00672413
0.00612345
0.00563113
0.00526352
0.00503573
0.0049534
0.00500843
0.00516251
0.00536937
0.00558862
0.00579018
0.00595317
0.00606331
0.00610991
0.00608617
0.00598592
0.00580429
0.00554235
0.00521178
0.00484464
0.00450467
0.00423991
0.00392314
0.00332327
0.00256437
0.00286646
0.0119164
0.0141225
0.00907236
0.00743229
0.00762018
0.00814549
0.00861845
0.0089946
0.00929437
0.00953906
0.00973988
0.00989984
0.0100205
0.010105
0.0101559
0.0101804
0.0101834
0.0101692
0.0101376
0.0100801
0.00997348
0.0097687
0.009383
0.00871815
0.00771874
0.00646069
0.0052432
0.00452403
0.00448458
0.0048154
0.00518617
0.00546294
0.0056014
0.00553945
0.00535681
0.00521741
0.00517582
0.00522581
0.00533842
0.00548082
0.00562404
0.00574479
0.0058246
0.00585016
0.00580293
0.00567594
0.00546576
0.00517515
0.00481661
0.00442162
0.00415605
0.00538837
0.012912
0.0180493
0.0133621
0.011302
0.0105725
0.0104816
0.0106547
0.0109219
0.0111911
0.0114125
0.0115584
0.0116114
0.0115608
0.0114237
0.0112078
0.0109186
0.0105638
0.0101503
0.00968413
0.00917622
0.00864492
0.00811447
0.00761075
0.00714396
0.00671223
0.00636893
0.00612064
0.00598186
0.00594448
0.00598774
0.00608396
0.00620514
0.0063271
0.00643071
0.00650137
0.00652742
0.00650125
0.00641616
0.00626756
0.00605592
0.00578887
0.00548302
0.00516421
0.00484554
0.00446796
0.00394404
0.00345288
0.00400453
0.0127793
0.0162304
0.0102783
0.00773083
0.00745708
0.00781778
0.00824318
0.00861313
0.0089194
0.00917218
0.00938042
0.00954869
0.00968025
0.00977975
0.00984859
0.00989253
0.00991397
0.0099136
0.00988784
0.00982599
0.0097062
0.00949089
0.00912746
0.00856693
0.00780491
0.00693105
0.00614892
0.00568598
0.00561057
0.00579961
0.00607772
0.00632432
0.00644474
0.00630752
0.00595466
0.0056319
0.0054043
0.00527316
0.00522035
0.00522141
0.00525203
0.00529113
0.00532155
0.00533044
0.00530081
0.00522501
0.00510038
0.00493273
0.00474165
0.00456865
0.00459413
0.00608394
0.0142674
0.0199481
0.0148352
0.0124177
0.0113355
0.0108579
0.0106409
0.010547
0.0105055
0.0104802
0.0104526
0.0104115
0.01035
0.0102946
0.0102445
0.010191
0.0101195
0.0100115
0.00984599
0.00961345
0.00932232
0.00898689
0.00861808
0.00820707
0.00781613
0.00746377
0.00718047
0.00697452
0.00684505
0.00678302
0.00677316
0.0067973
0.00683748
0.00687766
0.0069043
0.00690586
0.00687452
0.00680278
0.00668563
0.00652168
0.00631393
0.00606896
0.00579541
0.00549511
0.00514596
0.00473602
0.00445381
0.00508829
0.0131919
0.0182929
0.0117602
0.00833717
0.00751225
0.00763181
0.00796078
0.00829039
0.00857928
0.00882441
0.00903016
0.00920038
0.00933834
0.00944873
0.0095323
0.00959291
0.00963174
0.0096476
0.00963578
0.00958608
0.00948115
0.00929553
0.0089996
0.00857426
0.0080361
0.00746029
0.00697453
0.00669929
0.00667028
0.00682597
0.00705902
0.00726747
0.0073419
0.00710276
0.00655315
0.00605035
0.00565458
0.00535817
0.00514695
0.00500445
0.00491371
0.00485966
0.00483057
0.00481749
0.00480944
0.00479974
0.00478533
0.00477077
0.00477343
0.00482724
0.00509971
0.00676789
0.0154443
0.021601
0.0161471
0.0134738
0.0121314
0.0113316
0.0107504
0.0102832
0.00989059
0.00956491
0.00931392
0.00914863
0.00907905
0.00914755
0.00933165
0.00958951
0.00986288
0.0100963
0.0102364
0.0102583
0.0101688
0.00997175
0.00966363
0.00929652
0.00890688
0.0085347
0.00820185
0.00792149
0.00769984
0.00753627
0.00742433
0.00735369
0.00731218
0.00728746
0.00726796
0.00724295
0.00720479
0.0071453
0.00705861
0.00694129
0.00679258
0.00661318
0.00640447
0.00616611
0.0058947
0.00560966
0.00548596
0.00615181
0.0133614
0.0201448
0.0135042
0.00922954
0.0077906
0.00759496
0.00777718
0.00803217
0.00827956
0.0085003
0.0086922
0.00885668
0.00899568
0.00911293
0.00920956
0.00928615
0.00934405
0.00938112
0.00939284
0.00937085
0.00930259
0.00917225
0.00896531
0.00867886
0.00833581
0.00799347
0.00773224
0.00762022
0.00767562
0.00785735
0.00808445
0.00826127
0.0082794
0.00792575
0.00716334
0.00648167
0.00593086
0.00548239
0.00512073
0.00483599
0.00461939
0.0044642
0.00436784
0.00433054
0.00435037
0.00442085
0.00453431
0.00468604
0.00488171
0.00513968
0.00561076
0.00741566
0.0164852
0.0230398
0.0172989
0.0144312
0.0128935
0.0118324
0.0109306
0.0101053
0.00934431
0.00867498
0.00814979
0.00782944
0.00776655
0.00802669
0.00853431
0.00918076
0.00983782
0.0104164
0.0108346
0.011068
0.0111253
0.0109982
0.0107306
0.0103742
0.00997465
0.00956544
0.00917171
0.00881196
0.00849818
0.00823612
0.00802601
0.00786372
0.00774228
0.00765318
0.00758734
0.00753548
0.00749037
0.00744328
0.00738753
0.00731792
0.00723083
0.00712339
0.00699371
0.00684107
0.00666977
0.00650837
0.00651014
0.00719393
0.0134058
0.0216901
0.0154965
0.0103716
0.00828821
0.00771476
0.00769943
0.00784437
0.00802538
0.00820419
0.00836995
0.00852029
0.00865474
0.0087748
0.00888278
0.00897516
0.00905375
0.00911594
0.00915789
0.00917341
0.00915434
0.0090921
0.00898166
0.00882838
0.0086554
0.0085056
0.00843138
0.0084725
0.00863402
0.00887742
0.00912686
0.009283
0.0092362
0.00877273
0.00779565
0.00693275
0.00623502
0.0056435
0.00513787
0.00471369
0.00436998
0.00410931
0.00394124
0.00387957
0.0039353
0.00409916
0.00435027
0.00466597
0.00503634
0.00546638
0.00609583
0.00801458
0.0174145
0.0242876
0.0182933
0.0152672
0.0135798
0.0123095
0.0111369
0.00998748
0.00886398
0.00782321
0.00697426
0.00646817
0.00645122
0.00700807
0.0079397
0.00903017
0.0100681
0.01096
0.011603
0.0119909
0.0121291
0.0120396
0.0117896
0.0114294
0.0110011
0.0105407
0.0100776
0.00963497
0.00922956
0.0088721
0.00856794
0.00831797
0.00811972
0.00796835
0.00785756
0.00777993
0.00772898
0.00769593
0.00767319
0.00765389
0.00763206
0.00760229
0.00756049
0.00750496
0.0074414
0.00739773
0.00750534
0.00820928
0.0134615
0.0227477
0.0177701
0.0117277
0.00899392
0.00799685
0.0077356
0.0077343
0.00782319
0.00794188
0.0080687
0.00819601
0.00832019
0.00843993
0.00855598
0.00866346
0.00876326
0.00885268
0.00892867
0.00898703
0.00902305
0.00903333
0.00901884
0.00898927
0.00896655
0.00898387
0.00907673
0.00926737
0.00954897
0.00987683
0.0101689
0.0103148
0.0101928
0.00963656
0.00846058
0.00740903
0.00656814
0.00583901
0.00519359
0.00463241
0.00416205
0.0037943
0.00355266
0.00346949
0.00357128
0.00383928
0.00422848
0.00469352
0.00521221
0.00578338
0.00654192
0.00856281
0.0182518
0.0253633
0.0191351
0.0159702
0.0141644
0.0127283
0.0113337
0.00990492
0.00844621
0.00702715
0.00580806
0.00508393
0.00520692
0.00620818
0.00763938
0.00917917
0.0105477
0.0116945
0.0124944
0.0129693
0.0131425
0.013077
0.0128273
0.0124429
0.0119692
0.0114462
0.0109075
0.0103799
0.00988409
0.00943475
0.00904122
0.00870841
0.00843765
0.00822756
0.00807467
0.00797378
0.00791936
0.00790296
0.00791613
0.00795035
0.00799739
0.00804953
0.00810039
0.00814628
0.00819114
0.00825875
0.0084617
0.00919401
0.0136081
0.023359
0.0201085
0.0132973
0.00990298
0.00844469
0.00789312
0.00770968
0.00768011
0.00771973
0.007794
0.00788866
0.00799595
0.00811102
0.00823237
0.00835335
0.00847362
0.00859036
0.00870111
0.0088033
0.00889497
0.00897652
0.00905309
0.0091372
0.00924999
0.00941857
0.00966774
0.0100073
0.0104188
0.0108467
0.0111964
0.0113413
0.0111462
0.0104959
0.00916562
0.00791421
0.00693205
0.00606918
0.00528608
0.00458869
0.00399188
0.00351676
0.00320188
0.00310288
0.00326233
0.00364081
0.00415922
0.00475141
0.00539106
0.00607818
0.00694626
0.00906387
0.0190128
0.0262833
0.0198309
0.0165358
0.0146331
0.0130657
0.0114939
0.00983453
0.0080834
0.00630222
0.00467045
0.0036779
0.00416378
0.00577073
0.00769632
0.00962837
0.011248
0.0125736
0.0134405
0.0139582
0.0141593
0.0140954
0.0138228
0.0133955
0.0128629
0.0122687
0.0116499
0.0110366
0.0104527
0.00991576
0.00943836
0.00902849
0.00869069
0.00842666
0.00823574
0.00811521
0.00806061
0.00806421
0.00811666
0.00820774
0.0083268
0.00846364
0.0086092
0.00875716
0.0089082
0.0090813
0.00937417
0.0101446
0.0138769
0.0236508
0.0223378
0.0150732
0.0109939
0.00905106
0.00817407
0.00777591
0.00760242
0.007544
0.00755164
0.00760334
0.00768635
0.0077917
0.00791477
0.00804646
0.0081846
0.00832641
0.00846973
0.00861327
0.00875733
0.00890539
0.009066
0.00925425
0.00949137
0.00980085
0.0102001
0.0106888
0.0112372
0.0117763
0.0121951
0.012348
0.0120878
0.0113322
0.00991442
0.00845245
0.0073307
0.00633817
0.00541823
0.00458306
0.00385796
0.00327466
0.00288792
0.00278093
0.00300971
0.00349917
0.00413042
0.00482471
0.0055611
0.00634561
0.00731094
0.00952313
0.0197103
0.0270625
0.020389
0.0169646
0.0149793
0.0133082
0.0115981
0.00975658
0.00776616
0.00566674
0.00361615
0.0023228
0.00351449
0.00581096
0.00812765
0.0103479
0.0121238
0.0134793
0.0144151
0.0149607
0.0151602
0.0150715
0.0147552
0.0142694
0.0136672
0.0129956
0.0122942
0.0115961
0.0109274
0.0103082
0.00975329
0.00927319
0.00887493
0.00856291
0.00833916
0.00820357
0.0081528
0.00818018
0.00827541
0.00842638
0.00861988
0.00884296
0.00908357
0.00933242
0.00958649
0.00986053
0.0102416
0.0110616
0.0142774
0.0237428
0.02428
0.0171147
0.0122294
0.00979596
0.00857222
0.00793348
0.00759376
0.00741964
0.0073469
0.00734504
0.00739557
0.00748454
0.00760336
0.00774287
0.00789462
0.0080573
0.0082286
0.00840831
0.0085988
0.00880645
0.00904314
0.00932675
0.00967936
0.0101222
0.0106669
0.0113046
0.0119942
0.0126527
0.0131508
0.0133226
0.0130085
0.0121353
0.0106906
0.00903025
0.00776951
0.00665319
0.00559711
0.00462033
0.00376195
0.00306725
0.00260965
0.00250402
0.0028124
0.003407
0.00413007
0.00490201
0.00571556
0.0065848
0.00764006
0.00994619
0.0203541
0.0277152
0.0208194
0.0172616
0.0152023
0.0134488
0.0116333
0.00965511
0.00748381
0.00513535
0.0027202
0.00113077
0.00350061
0.0063537
0.00890911
0.0111728
0.013038
0.0144548
0.0154137
0.0159507
0.0161196
0.0159828
0.0156052
0.0150483
0.0143686
0.0136154
0.0128311
0.0120505
0.0113017
0.0106065
0.00998159
0.00943905
0.00898795
0.00863493
0.00838451
0.00823923
0.00819685
0.00825194
0.00839319
0.00860656
0.00887612
0.00918597
0.00952092
0.00986869
0.0102226
0.0105945
0.0110651
0.011948
0.0148024
0.0237491
0.0259109
0.0193028
0.0135814
0.0106592
0.00907615
0.00817765
0.00765367
0.0073485
0.00718267
0.00711698
0.00712696
0.00719304
0.00730132
0.00744186
0.00760154
0.00777898
0.00797167
0.00818043
0.00840971
0.00866897
0.00897367
0.0093447
0.00980529
0.0103749
0.0110603
0.0118449
0.0126775
0.0134613
0.0140485
0.0142517
0.0138977
0.0129232
0.0114361
0.0096589
0.00825218
0.00702193
0.00583165
0.00470829
0.00370841
0.00289548
0.00236611
0.00227171
0.00266716
0.00335573
0.00414799
0.00497557
0.00585131
0.00679714
0.00793816
0.0103383
0.0209523
0.0282558
0.0211338
0.0174348
0.0153057
0.0134857
0.0115914
0.00951842
0.00723756
0.00475154
0.0020753
0.00145784
0.00426009
0.00709367
0.00976651
0.0121217
0.0140358
0.0154614
0.016403
0.0169005
0.0170133
0.0168086
0.016355
0.0157175
0.0149548
0.0141185
0.0132526
0.0123935
0.0115707
0.0108071
0.0101205
0.00952427
0.00902883
0.00864265
0.0083725
0.00822342
0.00819434
0.00828098
0.00847114
0.00874874
0.00909515
0.00949144
0.00991931
0.0103636
0.0108145
0.011282
0.0118454
0.0128064
0.0154332
0.0237622
0.0272935
0.0214969
0.0150325
0.0116236
0.00967158
0.00849904
0.00777712
0.0073286
0.00705858
0.00691931
0.00688046
0.0069166
0.00700827
0.00714197
0.00730259
0.00748725
0.00769335
0.00792286
0.00818259
0.00848545
0.00885071
0.0093022
0.00986397
0.0105534
0.0113727
0.0122991
0.0132732
0.0141862
0.0148722
0.0151215
0.0147448
0.0136889
0.0121261
0.0103353
0.00878228
0.00745058
0.00613004
0.0048555
0.00370378
0.00276181
0.0021565
0.00208266
0.00256894
0.00333714
0.00417683
0.00504101
0.00596765
0.00698503
0.00820936
0.010704
0.0215117
0.0286988
0.0213456
0.0174955
0.0152971
0.0134223
0.0114763
0.0093484
0.00696746
0.00435929
0.00159063
0.00231053
0.00511973
0.00803024
0.01077
0.013155
0.0150682
0.0164646
0.0173549
0.0177849
0.0178192
0.0175299
0.0169889
0.0162638
0.0154154
0.0144966
0.0135527
0.0126208
0.0117313
0.010908
0.0101691
0.00952866
0.0089981
0.00858722
0.00830485
0.00815802
0.00814751
0.00826949
0.00851095
0.00885388
0.00927705
0.00975859
0.0102772
0.0108151
0.01136
0.0119218
0.0125824
0.0136378
0.0161482
0.0238555
0.0285051
0.0236175
0.0165592
0.0126688
0.0103408
0.00888395
0.00795463
0.00735407
0.00697123
0.00674993
0.00665439
0.00665329
0.00672132
0.00684086
0.00699457
0.00717813
0.00738902
0.00763073
0.00791296
0.00825248
0.00867238
0.00919871
0.00985507
0.0106559
0.0115993
0.0126582
0.0137682
0.0148117
0.0156059
0.0159176
0.0155391
0.0144231
0.0127838
0.0109894
0.00936785
0.00794217
0.00649701
0.00506872
0.0037546
0.0026697
0.00198007
0.00193453
0.00251152
0.00334449
0.00421232
0.00509673
0.00606547
0.00715109
0.00845694
0.0110465
0.0220378
0.029059
0.0214696
0.0174572
0.015189
0.0132705
0.0112501
0.00906941
0.00665147
0.00407294
0.00201209
0.00336777
0.00614145
0.00907662
0.0118437
0.0142254
0.0161018
0.0174348
0.0182433
0.0185807
0.0185174
0.0181298
0.017493
0.0166764
0.0157421
0.0147439
0.0137273
0.0127299
0.0117825
0.010909
0.0101279
0.00945356
0.00889764
0.00847091
0.00818401
0.00804575
0.00805894
0.0082197
0.00851438
0.00892308
0.00942211
0.00998685
0.0105934
0.0112214
0.0118568
0.0125114
0.0132748
0.0144432
0.0169297
0.0240826
0.0296211
0.0256259
0.0181307
0.0137704
0.011063
0.00931516
0.00817296
0.00741569
0.00691441
0.00660452
0.00644552
0.00640044
0.00643792
0.00653574
0.00667437
0.0068484
0.00705568
0.00730186
0.00760028
0.00797199
0.00844327
0.00904067
0.00978509
0.0106866
0.0117399
0.0129167
0.0141519
0.0153235
0.0162342
0.0166264
0.0162697
0.0151157
0.0134114
0.0115926
0.00999101
0.00849749
0.00693131
0.00535033
0.00386549
0.00262257
0.00183597
0.00182396
0.00248871
0.00337312
0.00425306
0.00514328
0.00614654
0.00729768
0.00868303
0.0113681
0.0225349
0.0293509
0.0215212
0.0173353
0.0149866
0.0130037
0.0109444
0.00872495
0.00630566
0.00387097
0.00266126
0.00437336
0.00718831
0.0101722
0.0129526
0.0153015
0.0171073
0.0183446
0.0190438
0.0192667
0.0190899
0.0185938
0.0178559
0.0169469
0.0159293
0.0148569
0.0137748
0.0127207
0.0117251
0.010812
0.00999954
0.00930186
0.00873058
0.00829695
0.00801316
0.00788962
0.00793109
0.00813356
0.00848276
0.00895702
0.00953034
0.0101755
0.0108662
0.0115799
0.0123019
0.0130478
0.013921
0.0152245
0.0177671
0.0244805
0.0307116
0.0275066
0.0197172
0.0149042
0.0118161
0.00977337
0.00841624
0.00750149
0.00687947
0.00647669
0.00624892
0.00615408
0.00615484
0.00622361
0.00633931
0.00649609
0.00669257
0.0069376
0.00724913
0.00765255
0.00817586
0.008843
0.00966891
0.0106577
0.0118018
0.0130755
0.0144189
0.0157109
0.0167439
0.0172349
0.0169256
0.0157581
0.0140039
0.0121568
0.0105896
0.00911722
0.0074262
0.00569725
0.00403743
0.00262269
0.00172289
0.0017468
0.00249494
0.00342032
0.00429994
0.00518285
0.00621313
0.00742667
0.00888865
0.0116696
0.0230063
0.0295883
0.0215161
0.0171446
0.0146879
0.0126586
0.010561
0.00831071
0.00592255
0.00374685
0.00331199
0.00532248
0.00825085
0.0112979
0.0140723
0.0163563
0.0180577
0.0191689
0.0197339
0.0198238
0.0195212
0.0189099
0.018069
0.0170698
0.0159741
0.0148348
0.0136964
0.0125957
0.0115627
0.0106209
0.00978824
0.00907797
0.00850125
0.00806939
0.00779594
0.00769263
0.00776602
0.00801231
0.00841671
0.00895579
0.00960126
0.0103234
0.0110936
0.0118877
0.0126911
0.0135271
0.0145197
0.0159851
0.0186574
0.0250721
0.0318381
0.0292565
0.0212921
0.0160474
0.0125788
0.0102387
0.00866717
0.00759766
0.00685583
0.00635839
0.0060583
0.00590909
0.00586746
0.00590108
0.00598837
0.00612113
0.00630182
0.00654358
0.00686995
0.00731016
0.00789102
0.00862932
0.00953004
0.01059
0.011801
0.0131442
0.0145713
0.0159696
0.0171258
0.0177324
0.0174974
0.0163432
0.0145553
0.0126821
0.0111495
0.00976448
0.00797046
0.00610057
0.00426678
0.00267
0.00163882
0.00169815
0.00252562
0.00348477
0.00435531
0.00521866
0.00626769
0.00753943
0.00907383
0.0119511
0.0234548
0.0297836
0.0214686
0.016886
0.0143288
0.0122442
0.010107
0.00783348
0.00550762
0.00368207
0.00390517
0.00625028
0.00934033
0.0124441
0.0151821
0.0173646
0.0189273
0.019884
0.0202932
0.0202353
0.0197984
0.0190691
0.018127
0.0170427
0.0158768
0.0146803
0.0134961
0.01236
0.011301
0.010342
0.00950023
0.00878792
0.00821521
0.00779305
0.00753616
0.00745706
0.00756487
0.00785644
0.00831634
0.00891915
0.0096341
0.0104289
0.0112731
0.012141
0.0130195
0.0139446
0.0150701
0.0167311
0.0196049
0.0258709
0.0330465
0.0308775
0.0228311
0.0171793
0.013331
0.0106917
0.00890814
0.00768951
0.00683177
0.00624038
0.00586642
0.00565995
0.00557246
0.00556705
0.00562051
0.00572542
0.00588878
0.00612997
0.00647908
0.00696762
0.00761652
0.00842968
0.00939824
0.0105111
0.0117616
0.0131419
0.0146212
0.0161032
0.0173768
0.0181119
0.0179774
0.0168651
0.0150619
0.0131661
0.0116707
0.0103917
0.00855195
0.00654615
0.00454498
0.00276128
0.00158063
0.00167277
0.00257736
0.00356607
0.00442217
0.0052545
0.00631265
0.00763678
0.00923777
0.0122114
0.0238819
0.0299478
0.0213907
0.0165767
0.0139209
0.0117739
0.00959475
0.00730534
0.00506995
0.00364801
0.00450188
0.00721236
0.0104709
0.0136003
0.0162597
0.0183005
0.0196912
0.0204679
0.0207035
0.0204875
0.0199124
0.0190663
0.0180285
0.0168677
0.0156418
0.0143996
0.0131817
0.012022
0.0109487
0.00998387
0.00914376
0.00843938
0.00787931
0.00747371
0.00723834
0.00718713
0.0073311
0.00766828
0.00818288
0.00884741
0.00962829
0.0104906
0.0114018
0.0123353
0.0132811
0.0142959
0.0155739
0.0174729
0.0206215
0.0268855
0.034359
0.0323681
0.0243106
0.0182808
0.0140546
0.0111145
0.00912234
0.00776268
0.00679544
0.00611317
0.00566592
0.00540147
0.00526664
0.00521979
0.00523649
0.00531315
0.00546198
0.00571104
0.00609743
0.00665176
0.00738265
0.00827508
0.00930396
0.0104512
0.0117135
0.0130963
0.0145908
0.0161257
0.0175016
0.018371
0.0183605
0.0173196
0.0155218
0.013607
0.0121498
0.010975
0.00914647
0.00701606
0.00485911
0.00288982
0.00154383
0.00166507
0.00264747
0.00366409
0.00450334
0.00529419
0.00635014
0.00771905
0.0093791
0.0124493
0.024289
0.0300903
0.021293
0.0162343
0.0134776
0.0112625
0.0090383
0.0067391
0.00461891
0.00364135
0.00515128
0.00824243
0.0116423
0.0147474
0.0172792
0.0191377
0.0203255
0.0209007
0.0209501
0.0205705
0.019858
0.0189009
0.0177766
0.0165509
0.0152781
0.0140034
0.0127645
0.0115935
0.0105174
0.00955758
0.00872929
0.00804185
0.00750174
0.00711787
0.00690718
0.00688552
0.00706618
0.00744879
0.00801698
0.00874076
0.00958328
0.0105067
0.0114766
0.0124657
0.0134695
0.0145778
0.0160374
0.0182276
0.0217271
0.0281212
0.035756
0.0337224
0.0257062
0.019334
0.014734
0.0114914
0.0092948
0.00780417
0.0067359
0.00596777
0.00544969
0.00512833
0.00494659
0.00485889
0.00483979
0.00489093
0.00503258
0.0053036
0.00574748
0.00638854
0.00721552
0.00818994
0.00927092
0.0104357
0.011686
0.0130397
0.0145115
0.0160617
0.0175145
0.0185141
0.0186447
0.0177035
0.0159342
0.0140052
0.0125832
0.0115114
0.00971847
0.00749062
0.00519293
0.0030456
0.00152223
0.0016692
0.00273347
0.00377852
0.00460077
0.00534101
0.0063818
0.00778604
0.00949603
0.0126629
0.0246767
0.0302197
0.0211854
0.0158758
0.013012
0.0107237
0.00845054
0.00614674
0.0041683
0.00370937
0.00593021
0.00936335
0.0128414
0.0158592
0.0182117
0.0198497
0.0208082
0.0211661
0.0210222
0.0204793
0.0196354
0.0185775
0.0173801
0.0161042
0.0147996
0.0135069
0.0122604
0.0110901
0.0100219
0.00907701
0.00826952
0.00760668
0.00709205
0.00673282
0.00654739
0.00655443
0.00677058
0.00719775
0.0078184
0.00859892
0.00949832
0.0104755
0.0114942
0.012527
0.0135789
0.0147913
0.0164748
0.0190223
0.0229507
0.0295806
0.0371586
0.0349288
0.0269942
0.0203237
0.0153572
0.0118101
0.00941344
0.0078034
0.00664398
0.00579644
0.00521161
0.00483645
0.00461078
0.00448538
0.00443481
0.00446711
0.00461329
0.00492482
0.00544926
0.00619735
0.00713061
0.00818593
0.00931028
0.0104798
0.0117017
0.0130029
0.0144189
0.0159445
0.017439
0.0185524
0.0188315
0.0180144
0.0162982
0.0143619
0.0129679
0.0119943
0.0102473
0.00795038
0.00552803
0.0032156
0.00150787
0.00167933
0.0028328
0.00390838
0.00471491
0.00539718
0.00640848
0.00783699
0.0095865
0.0128504
0.0250456
0.0303433
0.0210768
0.0155162
0.0125357
0.0101699
0.00784241
0.00553631
0.00372842
0.00393352
0.00686148
0.0105649
0.0140396
0.016903
0.0190274
0.0204117
0.0211208
0.0212521
0.0209142
0.0202145
0.0192508
0.0181074
0.0168539
0.0155455
0.014226
0.0129305
0.0116895
0.0105309
0.00948027
0.00855857
0.00777932
0.00714696
0.00666105
0.00632644
0.00616362
0.0061957
0.00644446
0.00691483
0.0075869
0.00842172
0.00937291
0.0103957
0.0114519
0.0125149
0.0136055
0.014945
0.016914
0.0198986
0.0243274
0.03124
0.0384467
0.0359486
0.0281562
0.0212394
0.0159182
0.0120634
0.00947021
0.00775314
0.00651314
0.00559334
0.00494684
0.00452274
0.00425858
0.0041008
0.00402801
0.00405165
0.00421733
0.00458986
0.00521678
0.0060871
0.00712992
0.00826043
0.00941963
0.010586
0.0117721
0.0130089
0.0143466
0.0158114
0.0173066
0.0185047
0.0189271
0.0182505
0.0166116
0.0146787
0.0133033
0.0124171
0.0107201
0.00837653
0.00584528
0.00338452
0.00149096
0.00168997
0.00294262
0.00405177
0.00484443
0.00546328
0.00642995
0.00787047
0.00964832
0.0130102
0.0253959
0.0304674
0.020975
0.015168
0.0120587
0.00961164
0.00722399
0.00491319
0.00330051
0.00441011
0.00797234
0.0118228
0.0151996
0.0178439
0.0196976
0.0208024
0.0212498
0.0211526
0.0206275
0.0197839
0.0187179
0.017509
0.0162202
0.0148993
0.0135828
0.0122996
0.011076
0.00993846
0.00891264
0.00802057
0.00727513
0.00667711
0.00622037
0.00590668
0.00575989
0.00581021
0.00608745
0.00659985
0.00732294
0.0082099
0.00920746
0.0102667
0.011348
0.0124262
0.013551
0.0150617
0.0174035
0.0209166
0.0258993
0.0330571
0.0394098
0.0367455
0.0291801
0.0220772
0.016418
0.0122502
0.0094623
0.00765053
0.00634023
0.00535502
0.00465218
0.00418555
0.00389183
0.00371158
0.00362772
0.00365652
0.00385797
0.00431035
0.00505648
0.00605626
0.007204
0.00840014
0.00958667
0.0107466
0.0118975
0.013069
0.0143193
0.0156977
0.0171531
0.0183962
0.0189418
0.0184111
0.0168706
0.0149559
0.0135896
0.012771
0.0111298
0.00875155
0.00612656
0.0035362
0.00146024
0.00169681
0.00305999
0.00420578
0.0049861
0.00553779
0.00644471
0.00788432
0.00967917
0.0131407
0.0257276
0.0305965
0.0208862
0.0148423
0.0115899
0.00905887
0.00660774
0.00428919
0.00293698
0.00519774
0.0092179
0.0130835
0.016277
0.0186475
0.0201976
0.0210062
0.021188
0.0208689
0.020171
0.0192036
0.0180586
0.0168088
0.0155085
0.0141966
0.0129008
0.0116434
0.0104468
0.00933662
0.00834023
0.00748178
0.00677379
0.00621177
0.00578136
0.0054804
0.00533852
0.00539723
0.00569841
0.00625301
0.00702813
0.00796566
0.00900399
0.01009
0.0111829
0.0122609
0.0134275
0.0151868
0.0180206
0.0221583
0.0277138
0.0347303
0.0399744
0.0372949
0.0300516
0.0228369
0.0168641
0.0123764
0.00939326
0.00749803
0.00612629
0.00508097
0.00432591
0.00382349
0.00351198
0.00332522
0.0032466
0.00329678
0.00354888
0.00409446
0.00496849
0.00609589
0.00733677
0.00858695
0.00979537
0.0109494
0.0120701
0.0131827
0.0143492
0.0156293
0.0170112
0.0182559
0.0188914
0.0184981
0.0170694
0.0151897
0.013823
0.0130444
0.0114732
0.00905999
0.00635594
0.00365546
0.00140403
0.00169805
0.00318236
0.00436653
0.00513484
0.0056169
0.0064498
0.0078756
0.00967666
0.0132407
0.0260409
0.0307338
0.0208143
0.0145478
0.0111365
0.00852004
0.00600693
0.00367926
0.00285331
0.006286
0.0105349
0.0142941
0.0172321
0.0192854
0.020509
0.0210146
0.0209367
0.0204114
0.0195632
0.0184988
0.0173037
0.0160412
0.014755
0.0134732
0.012214
0.0109926
0.0098286
0.00874829
0.00778264
0.00695943
0.00629072
0.00576417
0.00535335
0.00505151
0.0048983
0.00495291
0.00527484
0.00587514
0.00670591
0.00769339
0.00876674
0.00986931
0.0109598
0.0120241
0.0132651
0.0154006
0.0188813
0.0237031
0.0296602
0.0359472
0.0401607
0.0375788
0.030753
0.0235183
0.0172686
0.0124546
0.00927373
0.00730432
0.00587742
0.00477419
0.00396786
0.0034352
0.00312091
0.00295038
0.00290112
0.00299166
0.00330478
0.00394797
0.00494909
0.00619324
0.0075107
0.00880441
0.0100324
0.0111838
0.0122824
0.0133462
0.0144395
0.0156218
0.0169093
0.0181131
0.0187945
0.0185155
0.0172013
0.0153723
0.0139989
0.0132436
0.0117289
0.00928794
0.00651978
0.00372965
0.00131193
0.00169613
0.00330796
0.00452926
0.0052838
0.0056947
0.00644103
0.00784042
0.00963837
0.0133096
0.026336
0.0308816
0.0207619
0.0142907
0.0107046
0.0080013
0.00542698
0.00305856
0.00329329
0.00754234
0.0118481
0.0154053
0.0180309
0.019736
0.0206217
0.0208284
0.0205068
0.0198001
0.0188323
0.0177045
0.0164925
0.0152476
0.0140005
0.0127672
0.0115557
0.0103753
0.00924417
0.00819185
0.007255
0.00646666
0.00583771
0.00534377
0.00494114
0.00461834
0.00443219
0.00446885
0.00481314
0.00546902
0.00636274
0.00740048
0.00850289
0.00961156
0.010686
0.0117307
0.0131239
0.0158269
0.0201249
0.0255983
0.0313029
0.0366619
0.0399959
0.0375899
0.0312635
0.0241168
0.0176444
0.012503
0.00912209
0.00708509
0.00560564
0.00444221
0.00357967
0.00301795
0.00271833
0.00259636
0.00261107
0.00276371
0.00313947
0.00387462
0.00499271
0.00633546
0.00771218
0.00904109
0.0102915