/*--------------------------------*- C++ -*----------------------------------*\
| =========                 |                                                 |
| \\      /  F ield         | OpenFOAM: The Open Source CFD Toolbox           |
|  \\    /   O peration     | Version:  4.1                                   |
|   \\  /    A nd           | Web:      www.OpenFOAM.org                      |
|    \\/     M anipulation  |                                                 |
\*---------------------------------------------------------------------------*/
FoamFile
{
    version     2.0;
    format      ascii;
    class       volScalarField;
    location    "740";
    object      p;
}
// * * * * * * * * * * * * * * * * * * * * * * * * * * * * * * * * * * * * * //

dimensions      [0 2 -2 0 0 0 0];

internalField   nonuniform List<scalar> 
5000
(
0
-1.48559e-05
-2.8341e-05
-4.13852e-05
-5.38299e-05
-6.53556e-05
-7.54898e-05
-8.36789e-05
-8.9366e-05
-9.2056e-05
-9.13518e-05
-8.69962e-05
-7.89637e-05
-6.75279e-05
-5.33012e-05
-3.71328e-05
-1.99977e-05
-2.88001e-06
1.33351e-05
2.79434e-05
4.04672e-05
5.06642e-05
5.85025e-05
6.41122e-05
6.77173e-05
6.95128e-05
6.95899e-05
6.92736e-05
6.80583e-05
6.63032e-05
6.43712e-05
6.24782e-05
6.07571e-05
5.92977e-05
5.81491e-05
5.73144e-05
5.67506e-05
5.63686e-05
5.5943e-05
5.5193e-05
5.39061e-05
5.24742e-05
5.22865e-05
5.50618e-05
6.17162e-05
7.3086e-05
7.84396e-05
7.48827e-05
7.32121e-05
6.88167e-05
6.64216e-05
6.37054e-05
6.05046e-05
5.75424e-05
5.5284e-05
5.37794e-05
5.28693e-05
5.23395e-05
5.2019e-05
5.17847e-05
5.15574e-05
5.12737e-05
5.08245e-05
5.00146e-05
4.8513e-05
4.58002e-05
4.11279e-05
3.36979e-05
2.37789e-05
1.45456e-05
9.78443e-06
9.17805e-06
1.00756e-05
1.27121e-05
2.03119e-05
3.45398e-05
5.30343e-05
6.9536e-05
7.98796e-05
8.3661e-05
8.2506e-05
7.89242e-05
7.36588e-05
6.65826e-05
5.88283e-05
5.12119e-05
4.42373e-05
3.81517e-05
3.3041e-05
2.89187e-05
2.5754e-05
2.34204e-05
2.18474e-05
2.09144e-05
2.05158e-05
2.05497e-05
2.08818e-05
2.12837e-05
2.19244e-05
2.72359e-05
-0.0984356
-0.0984549
-0.0984717
-0.0984881
-0.0985037
-0.0985182
-0.0985311
-0.0985417
-0.0985495
-0.0985541
-0.098555
-0.098552
-0.098545
-0.0985343
-0.0985207
-0.0985049
-0.0984881
-0.0984711
-0.0984549
-0.0984402
-0.0984274
-0.0984169
-0.0984088
-0.0984028
-0.0983989
-0.0983964
-0.0983942
-0.098393
-0.0983928
-0.0983931
-0.0983935
-0.0983937
-0.0983937
-0.0983932
-0.0983923
-0.0983909
-0.098389
-0.0983868
-0.0983843
-0.0983817
-0.098379
-0.0983762
-0.098373
-0.0983694
-0.0983658
-0.098362
-0.0983565
-0.098354
-0.0983517
-0.098359
-0.0983645
-0.0983695
-0.0983742
-0.0983785
-0.0983824
-0.098386
-0.0983894
-0.0983926
-0.0983956
-0.0983983
-0.0984008
-0.098403
-0.098405
-0.098407
-0.0984091
-0.0984117
-0.0984152
-0.09842
-0.0984257
-0.0984302
-0.0984303
-0.0984275
-0.0984282
-0.0984317
-0.0984317
-0.0984243
-0.0984129
-0.0984025
-0.098396
-0.0983939
-0.0983949
-0.0983977
-0.0984023
-0.0984079
-0.0984138
-0.0984194
-0.0984244
-0.0984286
-0.0984318
-0.098434
-0.0984352
-0.0984355
-0.098435
-0.0984338
-0.0984319
-0.0984296
-0.098427
-0.0984241
-0.0984209
-0.098412
-0.196904
-0.196924
-0.196942
-0.196961
-0.196978
-0.196995
-0.197009
-0.197022
-0.197031
-0.197036
-0.197037
-0.197035
-0.197028
-0.197017
-0.197003
-0.196987
-0.19697
-0.196953
-0.196936
-0.196922
-0.196909
-0.196898
-0.19689
-0.196884
-0.196879
-0.196876
-0.196874
-0.196872
-0.196872
-0.196872
-0.196872
-0.196872
-0.196872
-0.196871
-0.19687
-0.196869
-0.196867
-0.196864
-0.19686
-0.196856
-0.196851
-0.196845
-0.196839
-0.196834
-0.196832
-0.196829
-0.196825
-0.196818
-0.196816
-0.196826
-0.196835
-0.196841
-0.196847
-0.196852
-0.196857
-0.196862
-0.196867
-0.196871
-0.196875
-0.196878
-0.196881
-0.196883
-0.196885
-0.196886
-0.196888
-0.196889
-0.19689
-0.196891
-0.196891
-0.196889
-0.196884
-0.196879
-0.196877
-0.19688
-0.196884
-0.196885
-0.196883
-0.196881
-0.196879
-0.196879
-0.196881
-0.196884
-0.196888
-0.196893
-0.196898
-0.196903
-0.196908
-0.196911
-0.196914
-0.196916
-0.196917
-0.196917
-0.196916
-0.196914
-0.196911
-0.196908
-0.196904
-0.1969
-0.196895
-0.196885
-0.295392
-0.29541
-0.295426
-0.295444
-0.295462
-0.295479
-0.295494
-0.295506
-0.295516
-0.295521
-0.295523
-0.29552
-0.295513
-0.295502
-0.295488
-0.295472
-0.295454
-0.295437
-0.29542
-0.295405
-0.295392
-0.295381
-0.295372
-0.295366
-0.295361
-0.295357
-0.295355
-0.295353
-0.295352
-0.295352
-0.295352
-0.295352
-0.295352
-0.295351
-0.29535
-0.295348
-0.295345
-0.295342
-0.295338
-0.295334
-0.295328
-0.295322
-0.295316
-0.295311
-0.295308
-0.295304
-0.2953
-0.295292
-0.295295
-0.295306
-0.295314
-0.295321
-0.295327
-0.295333
-0.295338
-0.295343
-0.295348
-0.295353
-0.295357
-0.29536
-0.295363
-0.295366
-0.295368
-0.295369
-0.29537
-0.295371
-0.295371
-0.29537
-0.295368
-0.295364
-0.295357
-0.29535
-0.295346
-0.295347
-0.295351
-0.295356
-0.29536
-0.295361
-0.295363
-0.295364
-0.295366
-0.29537
-0.295374
-0.295379
-0.295383
-0.295388
-0.295392
-0.295395
-0.295397
-0.295399
-0.2954
-0.295399
-0.295398
-0.295395
-0.295393
-0.295389
-0.295385
-0.295381
-0.295377
-0.295368
-0.393887
-0.393902
-0.393917
-0.393933
-0.39395
-0.393966
-0.393981
-0.393993
-0.394003
-0.394008
-0.39401
-0.394007
-0.394
-0.393989
-0.393974
-0.393958
-0.39394
-0.393922
-0.393905
-0.393889
-0.393876
-0.393865
-0.393856
-0.393849
-0.393844
-0.393839
-0.393837
-0.393835
-0.393834
-0.393833
-0.393833
-0.393833
-0.393832
-0.393831
-0.39383
-0.393828
-0.393825
-0.393822
-0.393818
-0.393813
-0.393808
-0.393802
-0.393797
-0.393791
-0.393787
-0.393782
-0.393778
-0.39377
-0.393777
-0.393788
-0.393796
-0.393803
-0.393809
-0.393815
-0.393821
-0.393826
-0.393831
-0.393836
-0.39384
-0.393844
-0.393847
-0.39385
-0.393852
-0.393854
-0.393855
-0.393855
-0.393855
-0.393854
-0.393852
-0.393848
-0.393842
-0.393837
-0.393833
-0.393833
-0.393835
-0.393839
-0.393842
-0.393845
-0.393847
-0.393849
-0.393852
-0.393856
-0.39386
-0.393864
-0.393869
-0.393873
-0.393876
-0.393879
-0.393881
-0.393882
-0.393883
-0.393882
-0.39388
-0.393878
-0.393875
-0.393871
-0.393867
-0.393863
-0.39386
-0.393853
-0.492385
-0.492398
-0.49241
-0.492425
-0.492441
-0.492456
-0.49247
-0.492483
-0.492492
-0.492497
-0.492499
-0.492496
-0.492488
-0.492477
-0.492462
-0.492445
-0.492427
-0.492408
-0.492391
-0.492375
-0.492361
-0.49235
-0.492341
-0.492333
-0.492327
-0.492323
-0.49232
-0.492318
-0.492317
-0.492316
-0.492316
-0.492315
-0.492314
-0.492313
-0.492311
-0.492309
-0.492307
-0.492303
-0.492299
-0.492294
-0.492289
-0.492284
-0.492278
-0.492273
-0.492267
-0.492262
-0.492258
-0.492249
-0.49226
-0.492272
-0.492279
-0.492286
-0.492293
-0.492299
-0.492305
-0.49231
-0.492315
-0.49232
-0.492325
-0.492328
-0.492332
-0.492335
-0.492337
-0.492339
-0.49234
-0.492341
-0.492341
-0.49234
-0.492337
-0.492334
-0.49233
-0.492325
-0.492322
-0.492321
-0.492322
-0.492324
-0.492326
-0.492329
-0.492332
-0.492335
-0.492338
-0.492342
-0.492346
-0.49235
-0.492354
-0.492357
-0.49236
-0.492363
-0.492365
-0.492366
-0.492366
-0.492365
-0.492363
-0.492361
-0.492358
-0.492354
-0.49235
-0.492346
-0.492344
-0.492338
-0.590883
-0.590895
-0.590905
-0.590919
-0.590933
-0.590947
-0.590961
-0.590973
-0.590982
-0.590987
-0.590988
-0.590985
-0.590978
-0.590966
-0.590951
-0.590933
-0.590914
-0.590896
-0.590878
-0.590862
-0.590848
-0.590836
-0.590826
-0.590818
-0.590812
-0.590807
-0.590804
-0.590802
-0.590801
-0.5908
-0.590799
-0.590798
-0.590797
-0.590796
-0.590794
-0.590792
-0.590789
-0.590786
-0.590781
-0.590777
-0.590772
-0.590766
-0.590761
-0.590755
-0.59075
-0.590744
-0.59074
-0.590731
-0.590745
-0.590756
-0.590764
-0.59077
-0.590777
-0.590783
-0.590789
-0.590795
-0.5908
-0.590805
-0.59081
-0.590814
-0.590817
-0.59082
-0.590823
-0.590825
-0.590826
-0.590827
-0.590827
-0.590826
-0.590824
-0.590821
-0.590818
-0.590814
-0.590811
-0.590809
-0.590809
-0.59081
-0.590811
-0.590813
-0.590816
-0.59082
-0.590823
-0.590827
-0.590831
-0.590835
-0.590839
-0.590842
-0.590845
-0.590847
-0.590848
-0.590849
-0.590849
-0.590848
-0.590846
-0.590844
-0.590841
-0.590837
-0.590834
-0.59083
-0.590828
-0.590823
-0.689381
-0.689391
-0.6894
-0.689412
-0.689425
-0.689439
-0.689452
-0.689463
-0.689472
-0.689477
-0.689478
-0.689475
-0.689467
-0.689455
-0.689439
-0.689421
-0.689402
-0.689383
-0.689365
-0.689349
-0.689335
-0.689323
-0.689312
-0.689304
-0.689298
-0.689293
-0.68929
-0.689287
-0.689286
-0.689285
-0.689284
-0.689283
-0.689282
-0.68928
-0.689278
-0.689276
-0.689273
-0.689269
-0.689265
-0.68926
-0.689255
-0.68925
-0.689244
-0.689239
-0.689233
-0.689228
-0.689224
-0.689217
-0.689229
-0.689241
-0.689248
-0.689255
-0.689262
-0.689268
-0.689274
-0.68928
-0.689286
-0.689291
-0.689295
-0.6893
-0.689303
-0.689306
-0.689309
-0.689311
-0.689313
-0.689314
-0.689314
-0.689313
-0.689311
-0.689309
-0.689306
-0.689303
-0.6893
-0.689298
-0.689296
-0.689296
-0.689297
-0.689299
-0.689301
-0.689305
-0.689308
-0.689312
-0.689316
-0.68932
-0.689323
-0.689326
-0.689328
-0.68933
-0.689332
-0.689332
-0.689332
-0.689331
-0.689329
-0.689327
-0.689324
-0.68932
-0.689317
-0.689314
-0.689312
-0.689308
-0.787878
-0.787886
-0.787894
-0.787905
-0.787917
-0.78793
-0.787942
-0.787953
-0.787961
-0.787966
-0.787967
-0.787964
-0.787956
-0.787943
-0.787928
-0.78791
-0.78789
-0.787871
-0.787853
-0.787837
-0.787822
-0.787809
-0.787799
-0.78779
-0.787784
-0.787779
-0.787776
-0.787774
-0.787772
-0.787771
-0.78777
-0.787769
-0.787767
-0.787766
-0.787764
-0.787761
-0.787758
-0.787754
-0.78775
-0.787745
-0.78774
-0.787735
-0.787729
-0.787724
-0.787718
-0.787713
-0.787709
-0.787704
-0.787713
-0.787727
-0.787734
-0.787741
-0.787747
-0.787754
-0.78776
-0.787766
-0.787772
-0.787777
-0.787782
-0.787786
-0.78779
-0.787793
-0.787796
-0.787798
-0.7878
-0.787801
-0.787801
-0.7878
-0.787799
-0.787797
-0.787794
-0.787791
-0.787788
-0.787786
-0.787784
-0.787783
-0.787783
-0.787784
-0.787787
-0.78779
-0.787793
-0.787797
-0.787801
-0.787804
-0.787807
-0.78781
-0.787812
-0.787814
-0.787814
-0.787815
-0.787814
-0.787813
-0.787812
-0.787809
-0.787806
-0.787803
-0.7878
-0.787797
-0.787796
-0.787792
-0.886373
-0.88638
-0.886387
-0.886397
-0.886408
-0.88642
-0.886431
-0.886441
-0.886449
-0.886454
-0.886455
-0.886451
-0.886443
-0.886431
-0.886415
-0.886397
-0.886378
-0.886358
-0.88634
-0.886324
-0.886309
-0.886296
-0.886286
-0.886278
-0.886271
-0.886267
-0.886263
-0.886261
-0.886259
-0.886258
-0.886257
-0.886255
-0.886254
-0.886252
-0.88625
-0.886247
-0.886244
-0.88624
-0.886236
-0.886231
-0.886226
-0.886221
-0.886215
-0.88621
-0.886204
-0.8862
-0.886196
-0.886192
-0.886199
-0.886213
-0.886219
-0.886226
-0.886233
-0.88624
-0.886246
-0.886252
-0.886258
-0.886263
-0.886268
-0.886273
-0.886277
-0.88628
-0.886283
-0.886285
-0.886287
-0.886288
-0.886288
-0.886288
-0.886287
-0.886285
-0.886283
-0.88628
-0.886277
-0.886274
-0.886272
-0.88627
-0.88627
-0.88627
-0.886272
-0.886275
-0.886278
-0.886282
-0.886285
-0.886288
-0.886291
-0.886293
-0.886295
-0.886296
-0.886297
-0.886297
-0.886297
-0.886295
-0.886294
-0.886292
-0.886289
-0.886286
-0.886283
-0.886281
-0.886279
-0.886276
-0.984865
-0.984871
-0.984877
-0.984887
-0.984897
-0.984908
-0.984919
-0.984928
-0.984936
-0.98494
-0.984941
-0.984937
-0.984929
-0.984917
-0.984901
-0.984883
-0.984864
-0.984845
-0.984827
-0.984811
-0.984796
-0.984784
-0.984773
-0.984765
-0.984759
-0.984755
-0.984751
-0.984749
-0.984747
-0.984746
-0.984744
-0.984743
-0.984742
-0.98474
-0.984737
-0.984735
-0.984731
-0.984728
-0.984723
-0.984719
-0.984714
-0.984708
-0.984703
-0.984697
-0.984692
-0.984687
-0.984684
-0.984681
-0.984685
-0.984698
-0.984704
-0.984712
-0.984719
-0.984726
-0.984733
-0.984739
-0.984745
-0.98475
-0.984755
-0.98476
-0.984764
-0.984767
-0.98477
-0.984773
-0.984774
-0.984776
-0.984776
-0.984776
-0.984775
-0.984773
-0.984771
-0.984768
-0.984765
-0.984762
-0.984759
-0.984757
-0.984756
-0.984756
-0.984757
-0.98476
-0.984763
-0.984766
-0.984769
-0.984772
-0.984774
-0.984776
-0.984778
-0.984779
-0.984779
-0.984779
-0.984778
-0.984777
-0.984776
-0.984773
-0.984771
-0.984768
-0.984766
-0.984763
-0.984762
-0.984759
-1.08335
-1.08336
-1.08337
-1.08337
-1.08338
-1.08339
-1.0834
-1.08341
-1.08342
-1.08342
-1.08342
-1.08342
-1.08341
-1.0834
-1.08338
-1.08337
-1.08335
-1.08333
-1.08331
-1.0833
-1.08328
-1.08327
-1.08326
-1.08325
-1.08325
-1.08324
-1.08324
-1.08324
-1.08324
-1.08323
-1.08323
-1.08323
-1.08323
-1.08323
-1.08323
-1.08322
-1.08322
-1.08322
-1.08321
-1.08321
-1.0832
-1.0832
-1.08319
-1.08319
-1.08318
-1.08318
-1.08317
-1.08317
-1.08317
-1.08318
-1.08319
-1.0832
-1.08321
-1.08321
-1.08322
-1.08323
-1.08323
-1.08324
-1.08324
-1.08325
-1.08325
-1.08325
-1.08326
-1.08326
-1.08326
-1.08326
-1.08326
-1.08326
-1.08326
-1.08326
-1.08326
-1.08326
-1.08325
-1.08325
-1.08325
-1.08324
-1.08324
-1.08324
-1.08324
-1.08324
-1.08325
-1.08325
-1.08325
-1.08325
-1.08326
-1.08326
-1.08326
-1.08326
-1.08326
-1.08326
-1.08326
-1.08326
-1.08326
-1.08326
-1.08325
-1.08325
-1.08325
-1.08325
-1.08324
-1.08324
-1.18184
-1.18185
-1.18185
-1.18186
-1.18187
-1.18188
-1.18189
-1.18189
-1.1819
-1.1819
-1.1819
-1.1819
-1.18189
-1.18188
-1.18187
-1.18185
-1.18183
-1.18182
-1.1818
-1.18178
-1.18177
-1.18176
-1.18175
-1.18174
-1.18174
-1.18173
-1.18173
-1.18173
-1.18173
-1.18172
-1.18172
-1.18172
-1.18172
-1.18172
-1.18172
-1.18171
-1.18171
-1.18171
-1.1817
-1.1817
-1.18169
-1.18169
-1.18168
-1.18168
-1.18167
-1.18167
-1.18166
-1.18166
-1.18166
-1.18167
-1.18168
-1.18168
-1.18169
-1.1817
-1.18171
-1.18171
-1.18172
-1.18173
-1.18173
-1.18174
-1.18174
-1.18174
-1.18175
-1.18175
-1.18175
-1.18175
-1.18175
-1.18175
-1.18175
-1.18175
-1.18175
-1.18175
-1.18174
-1.18174
-1.18174
-1.18173
-1.18173
-1.18173
-1.18173
-1.18173
-1.18173
-1.18173
-1.18174
-1.18174
-1.18174
-1.18174
-1.18174
-1.18174
-1.18174
-1.18174
-1.18174
-1.18174
-1.18174
-1.18174
-1.18173
-1.18173
-1.18173
-1.18173
-1.18173
-1.18172
-1.28032
-1.28033
-1.28033
-1.28034
-1.28035
-1.28036
-1.28036
-1.28037
-1.28038
-1.28038
-1.28038
-1.28038
-1.28037
-1.28036
-1.28035
-1.28033
-1.28032
-1.2803
-1.28028
-1.28027
-1.28026
-1.28025
-1.28024
-1.28023
-1.28023
-1.28022
-1.28022
-1.28022
-1.28022
-1.28021
-1.28021
-1.28021
-1.28021
-1.28021
-1.28021
-1.2802
-1.2802
-1.2802
-1.28019
-1.28019
-1.28018
-1.28018
-1.28017
-1.28017
-1.28016
-1.28016
-1.28015
-1.28015
-1.28015
-1.28016
-1.28016
-1.28017
-1.28018
-1.28019
-1.28019
-1.2802
-1.28021
-1.28021
-1.28022
-1.28022
-1.28023
-1.28023
-1.28023
-1.28024
-1.28024
-1.28024
-1.28024
-1.28024
-1.28024
-1.28024
-1.28024
-1.28023
-1.28023
-1.28023
-1.28022
-1.28022
-1.28022
-1.28021
-1.28021
-1.28021
-1.28022
-1.28022
-1.28022
-1.28022
-1.28022
-1.28022
-1.28022
-1.28022
-1.28022
-1.28022
-1.28022
-1.28022
-1.28022
-1.28022
-1.28022
-1.28021
-1.28021
-1.28021
-1.28021
-1.28021
-1.3788
-1.37881
-1.37881
-1.37882
-1.37882
-1.37883
-1.37884
-1.37885
-1.37885
-1.37886
-1.37886
-1.37885
-1.37885
-1.37884
-1.37883
-1.37881
-1.3788
-1.37878
-1.37877
-1.37875
-1.37874
-1.37873
-1.37872
-1.37872
-1.37871
-1.37871
-1.37871
-1.37871
-1.37871
-1.3787
-1.3787
-1.3787
-1.3787
-1.3787
-1.3787
-1.37869
-1.37869
-1.37869
-1.37868
-1.37868
-1.37867
-1.37867
-1.37866
-1.37866
-1.37865
-1.37865
-1.37864
-1.37864
-1.37864
-1.37865
-1.37865
-1.37866
-1.37867
-1.37868
-1.37868
-1.37869
-1.3787
-1.3787
-1.37871
-1.37871
-1.37871
-1.37872
-1.37872
-1.37872
-1.37872
-1.37873
-1.37873
-1.37873
-1.37873
-1.37873
-1.37872
-1.37872
-1.37872
-1.37871
-1.37871
-1.37871
-1.3787
-1.3787
-1.3787
-1.3787
-1.3787
-1.3787
-1.3787
-1.3787
-1.3787
-1.3787
-1.3787
-1.3787
-1.3787
-1.3787
-1.3787
-1.3787
-1.3787
-1.3787
-1.3787
-1.37869
-1.37869
-1.37869
-1.37869
-1.37869
-1.47728
-1.47729
-1.47729
-1.47729
-1.4773
-1.47731
-1.47731
-1.47732
-1.47733
-1.47733
-1.47733
-1.47733
-1.47732
-1.47731
-1.4773
-1.47729
-1.47727
-1.47726
-1.47725
-1.47724
-1.47723
-1.47722
-1.47721
-1.47721
-1.4772
-1.4772
-1.4772
-1.4772
-1.4772
-1.47719
-1.47719
-1.47719
-1.47719
-1.47719
-1.47719
-1.47718
-1.47718
-1.47718
-1.47717
-1.47717
-1.47717
-1.47716
-1.47716
-1.47715
-1.47715
-1.47714
-1.47714
-1.47713
-1.47713
-1.47714
-1.47714
-1.47715
-1.47716
-1.47716
-1.47717
-1.47718
-1.47718
-1.47719
-1.47719
-1.4772
-1.4772
-1.47721
-1.47721
-1.47721
-1.47721
-1.47721
-1.47721
-1.47721
-1.47721
-1.47721
-1.47721
-1.47721
-1.47721
-1.4772
-1.4772
-1.47719
-1.47719
-1.47719
-1.47718
-1.47718
-1.47718
-1.47718
-1.47718
-1.47718
-1.47718
-1.47718
-1.47718
-1.47718
-1.47718
-1.47718
-1.47718
-1.47718
-1.47718
-1.47718
-1.47718
-1.47717
-1.47717
-1.47717
-1.47717
-1.47717
-1.57576
-1.57576
-1.57576
-1.57577
-1.57577
-1.57578
-1.57578
-1.57579
-1.57579
-1.5758
-1.5758
-1.5758
-1.57579
-1.57578
-1.57578
-1.57576
-1.57575
-1.57574
-1.57573
-1.57572
-1.57571
-1.5757
-1.5757
-1.57569
-1.57569
-1.57569
-1.57569
-1.57569
-1.57569
-1.57568
-1.57568
-1.57568
-1.57568
-1.57568
-1.57568
-1.57568
-1.57567
-1.57567
-1.57567
-1.57566
-1.57566
-1.57565
-1.57565
-1.57564
-1.57564
-1.57564
-1.57563
-1.57563
-1.57562
-1.57563
-1.57563
-1.57564
-1.57564
-1.57565
-1.57566
-1.57567
-1.57567
-1.57568
-1.57568
-1.57569
-1.57569
-1.57569
-1.5757
-1.5757
-1.5757
-1.5757
-1.5757
-1.5757
-1.5757
-1.5757
-1.5757
-1.5757
-1.57569
-1.57569
-1.57569
-1.57568
-1.57568
-1.57567
-1.57567
-1.57567
-1.57566
-1.57566
-1.57566
-1.57566
-1.57566
-1.57566
-1.57566
-1.57566
-1.57566
-1.57566
-1.57566
-1.57566
-1.57566
-1.57566
-1.57566
-1.57565
-1.57565
-1.57565
-1.57565
-1.57565
-1.67423
-1.67423
-1.67423
-1.67424
-1.67424
-1.67425
-1.67425
-1.67426
-1.67426
-1.67427
-1.67427
-1.67427
-1.67426
-1.67426
-1.67425
-1.67424
-1.67423
-1.67422
-1.67421
-1.6742
-1.6742
-1.67419
-1.67419
-1.67418
-1.67418
-1.67418
-1.67418
-1.67418
-1.67418
-1.67418
-1.67417
-1.67417
-1.67417
-1.67417
-1.67417
-1.67417
-1.67416
-1.67416
-1.67416
-1.67415
-1.67415
-1.67415
-1.67414
-1.67414
-1.67413
-1.67413
-1.67413
-1.67412
-1.67412
-1.67412
-1.67412
-1.67413
-1.67414
-1.67414
-1.67415
-1.67416
-1.67416
-1.67417
-1.67417
-1.67418
-1.67418
-1.67418
-1.67418
-1.67419
-1.67419
-1.67419
-1.67419
-1.67419
-1.67419
-1.67419
-1.67419
-1.67418
-1.67418
-1.67418
-1.67417
-1.67417
-1.67416
-1.67416
-1.67415
-1.67415
-1.67415
-1.67415
-1.67414
-1.67414
-1.67414
-1.67414
-1.67414
-1.67414
-1.67414
-1.67414
-1.67414
-1.67414
-1.67414
-1.67414
-1.67414
-1.67413
-1.67413
-1.67413
-1.67413
-1.67413
-1.7727
-1.7727
-1.7727
-1.77271
-1.77271
-1.77271
-1.77272
-1.77272
-1.77273
-1.77273
-1.77273
-1.77273
-1.77273
-1.77272
-1.77272
-1.77271
-1.7727
-1.7727
-1.77269
-1.77268
-1.77268
-1.77268
-1.77267
-1.77267
-1.77267
-1.77267
-1.77267
-1.77267
-1.77267
-1.77267
-1.77266
-1.77266
-1.77266
-1.77266
-1.77266
-1.77266
-1.77266
-1.77265
-1.77265
-1.77265
-1.77264
-1.77264
-1.77264
-1.77263
-1.77263
-1.77263
-1.77262
-1.77262
-1.77261
-1.77261
-1.77261
-1.77262
-1.77263
-1.77263
-1.77264
-1.77265
-1.77265
-1.77266
-1.77266
-1.77266
-1.77267
-1.77267
-1.77267
-1.77267
-1.77267
-1.77267
-1.77268
-1.77268
-1.77267
-1.77267
-1.77267
-1.77267
-1.77267
-1.77266
-1.77266
-1.77265
-1.77265
-1.77264
-1.77264
-1.77263
-1.77263
-1.77263
-1.77262
-1.77262
-1.77262
-1.77262
-1.77262
-1.77262
-1.77262
-1.77262
-1.77262
-1.77262
-1.77262
-1.77262
-1.77261
-1.77261
-1.77261
-1.77261
-1.77261
-1.77261
-1.87117
-1.87117
-1.87117
-1.87117
-1.87118
-1.87118
-1.87118
-1.87119
-1.87119
-1.8712
-1.8712
-1.8712
-1.8712
-1.87119
-1.87119
-1.87118
-1.87118
-1.87117
-1.87117
-1.87117
-1.87116
-1.87116
-1.87116
-1.87116
-1.87116
-1.87116
-1.87116
-1.87116
-1.87115
-1.87115
-1.87115
-1.87115
-1.87115
-1.87115
-1.87115
-1.87115
-1.87115
-1.87115
-1.87114
-1.87114
-1.87114
-1.87114
-1.87113
-1.87113
-1.87113
-1.87112
-1.87112
-1.87111
-1.87111
-1.87111
-1.87111
-1.87111
-1.87112
-1.87113
-1.87113
-1.87114
-1.87114
-1.87115
-1.87115
-1.87115
-1.87116
-1.87116
-1.87116
-1.87116
-1.87116
-1.87116
-1.87116
-1.87116
-1.87116
-1.87116
-1.87116
-1.87115
-1.87115
-1.87115
-1.87114
-1.87114
-1.87113
-1.87113
-1.87112
-1.87111
-1.87111
-1.87111
-1.8711
-1.8711
-1.8711
-1.8711
-1.8711
-1.8711
-1.8711
-1.8711
-1.8711
-1.8711
-1.8711
-1.87109
-1.87109
-1.87109
-1.87109
-1.87109
-1.87109
-1.87109
-1.96964
-1.96964
-1.96964
-1.96964
-1.96964
-1.96965
-1.96965
-1.96965
-1.96966
-1.96966
-1.96966
-1.96966
-1.96966
-1.96966
-1.96966
-1.96966
-1.96965
-1.96965
-1.96965
-1.96965
-1.96964
-1.96964
-1.96964
-1.96964
-1.96964
-1.96964
-1.96964
-1.96964
-1.96964
-1.96964
-1.96964
-1.96964
-1.96964
-1.96964
-1.96964
-1.96964
-1.96964
-1.96964
-1.96964
-1.96963
-1.96963
-1.96963
-1.96963
-1.96962
-1.96962
-1.96962
-1.96962
-1.96961
-1.96961
-1.96961
-1.9696
-1.96961
-1.96961
-1.96962
-1.96963
-1.96963
-1.96963
-1.96964
-1.96964
-1.96964
-1.96964
-1.96964
-1.96965
-1.96965
-1.96965
-1.96965
-1.96965
-1.96965
-1.96965
-1.96964
-1.96964
-1.96964
-1.96964
-1.96963
-1.96963
-1.96962
-1.96962
-1.96961
-1.9696
-1.9696
-1.96959
-1.96959
-1.96958
-1.96958
-1.96958
-1.96958
-1.96958
-1.96958
-1.96958
-1.96958
-1.96958
-1.96957
-1.96957
-1.96957
-1.96957
-1.96957
-1.96957
-1.96957
-1.96957
-1.96957
-2.06811
-2.06811
-2.06811
-2.06811
-2.06811
-2.06811
-2.06811
-2.06812
-2.06812
-2.06812
-2.06812
-2.06813
-2.06813
-2.06813
-2.06813
-2.06813
-2.06813
-2.06813
-2.06813
-2.06813
-2.06813
-2.06813
-2.06813
-2.06813
-2.06813
-2.06813
-2.06813
-2.06813
-2.06813
-2.06813
-2.06813
-2.06813
-2.06813
-2.06813
-2.06813
-2.06813
-2.06813
-2.06813
-2.06813
-2.06813
-2.06813
-2.06812
-2.06812
-2.06812
-2.06812
-2.06812
-2.06812
-2.06811
-2.06811
-2.06811
-2.0681
-2.06811
-2.06811
-2.06812
-2.06812
-2.06812
-2.06813
-2.06813
-2.06813
-2.06813
-2.06813
-2.06813
-2.06813
-2.06813
-2.06813
-2.06813
-2.06813
-2.06813
-2.06813
-2.06813
-2.06813
-2.06812
-2.06812
-2.06811
-2.06811
-2.0681
-2.0681
-2.06809
-2.06808
-2.06808
-2.06807
-2.06806
-2.06806
-2.06806
-2.06806
-2.06805
-2.06805
-2.06805
-2.06805
-2.06805
-2.06805
-2.06805
-2.06805
-2.06805
-2.06805
-2.06805
-2.06805
-2.06805
-2.06805
-2.06805
-2.16657
-2.16657
-2.16657
-2.16657
-2.16657
-2.16658
-2.16658
-2.16658
-2.16658
-2.16659
-2.16659
-2.16659
-2.16659
-2.1666
-2.1666
-2.1666
-2.1666
-2.1666
-2.16661
-2.16661
-2.16661
-2.16661
-2.16661
-2.16661
-2.16661
-2.16662
-2.16662
-2.16662
-2.16662
-2.16662
-2.16662
-2.16662
-2.16662
-2.16662
-2.16662
-2.16662
-2.16662
-2.16662
-2.16662
-2.16662
-2.16662
-2.16662
-2.16662
-2.16662
-2.16662
-2.16662
-2.16662
-2.16661
-2.16661
-2.16661
-2.1666
-2.1666
-2.16661
-2.16661
-2.16661
-2.16662
-2.16662
-2.16662
-2.16662
-2.16662
-2.16662
-2.16662
-2.16662
-2.16662
-2.16662
-2.16662
-2.16662
-2.16661
-2.16661
-2.16661
-2.16661
-2.1666
-2.1666
-2.1666
-2.16659
-2.16659
-2.16658
-2.16657
-2.16656
-2.16656
-2.16655
-2.16654
-2.16654
-2.16654
-2.16653
-2.16653
-2.16653
-2.16653
-2.16653
-2.16653
-2.16653
-2.16653
-2.16653
-2.16653
-2.16653
-2.16653
-2.16653
-2.16653
-2.16653
-2.16653
-2.26504
-2.26504
-2.26504
-2.26504
-2.26504
-2.26504
-2.26504
-2.26504
-2.26505
-2.26505
-2.26505
-2.26506
-2.26506
-2.26507
-2.26507
-2.26507
-2.26508
-2.26508
-2.26508
-2.26509
-2.26509
-2.26509
-2.2651
-2.2651
-2.2651
-2.2651
-2.2651
-2.2651
-2.2651
-2.2651
-2.26511
-2.26511
-2.26511
-2.26511
-2.26511
-2.26511
-2.26511
-2.26511
-2.26511
-2.26511
-2.26511
-2.26511
-2.26511
-2.26511
-2.26511
-2.26512
-2.26512
-2.26512
-2.26511
-2.26511
-2.2651
-2.2651
-2.2651
-2.26511
-2.26511
-2.26511
-2.26511
-2.26511
-2.26511
-2.26511
-2.26511
-2.26511
-2.2651
-2.2651
-2.2651
-2.2651
-2.2651
-2.2651
-2.2651
-2.26509
-2.26509
-2.26509
-2.26508
-2.26508
-2.26507
-2.26507
-2.26506
-2.26505
-2.26504
-2.26504
-2.26503
-2.26502
-2.26502
-2.26501
-2.26501
-2.26501
-2.26501
-2.26501
-2.26501
-2.26501
-2.26501
-2.26501
-2.26501
-2.26501
-2.26501
-2.26501
-2.26501
-2.26501
-2.26501
-2.265
-2.36351
-2.36351
-2.36351
-2.36351
-2.36351
-2.36351
-2.36351
-2.36351
-2.36351
-2.36351
-2.36352
-2.36352
-2.36353
-2.36353
-2.36354
-2.36355
-2.36355
-2.36356
-2.36356
-2.36357
-2.36357
-2.36357
-2.36358
-2.36358
-2.36358
-2.36358
-2.36359
-2.36359
-2.36359
-2.36359
-2.36359
-2.36359
-2.36359
-2.3636
-2.3636
-2.3636
-2.3636
-2.3636
-2.3636
-2.3636
-2.3636
-2.36361
-2.36361
-2.36361
-2.36361
-2.36361
-2.36362
-2.36362
-2.36362
-2.3636
-2.3636
-2.3636
-2.3636
-2.3636
-2.3636
-2.3636
-2.3636
-2.3636
-2.3636
-2.3636
-2.36359
-2.36359
-2.36359
-2.36359
-2.36359
-2.36358
-2.36358
-2.36358
-2.36358
-2.36357
-2.36357
-2.36357
-2.36356
-2.36356
-2.36355
-2.36355
-2.36354
-2.36353
-2.36352
-2.36351
-2.36351
-2.3635
-2.3635
-2.36349
-2.36349
-2.36349
-2.36349
-2.36349
-2.36349
-2.36349
-2.36349
-2.36349
-2.36349
-2.36349
-2.36348
-2.36348
-2.36348
-2.36348
-2.36348
-2.36348
-2.46197
-2.46197
-2.46197
-2.46197
-2.46197
-2.46197
-2.46197
-2.46197
-2.46198
-2.46198
-2.46198
-2.46199
-2.462
-2.462
-2.46201
-2.46202
-2.46203
-2.46203
-2.46204
-2.46205
-2.46205
-2.46205
-2.46206
-2.46206
-2.46206
-2.46207
-2.46207
-2.46207
-2.46207
-2.46207
-2.46208
-2.46208
-2.46208
-2.46208
-2.46208
-2.46209
-2.46209
-2.46209
-2.46209
-2.46209
-2.4621
-2.4621
-2.4621
-2.4621
-2.46211
-2.46211
-2.46211
-2.46212
-2.46211
-2.4621
-2.4621
-2.4621
-2.4621
-2.4621
-2.4621
-2.46209
-2.46209
-2.46209
-2.46209
-2.46208
-2.46208
-2.46208
-2.46207
-2.46207
-2.46207
-2.46207
-2.46207
-2.46206
-2.46206
-2.46206
-2.46205
-2.46205
-2.46204
-2.46204
-2.46203
-2.46202
-2.46202
-2.46201
-2.462
-2.46199
-2.46198
-2.46198
-2.46197
-2.46197
-2.46197
-2.46197
-2.46197
-2.46197
-2.46197
-2.46197
-2.46197
-2.46196
-2.46196
-2.46196
-2.46196
-2.46196
-2.46196
-2.46196
-2.46196
-2.46196
-2.56044
-2.56044
-2.56044
-2.56044
-2.56044
-2.56044
-2.56044
-2.56044
-2.56044
-2.56045
-2.56045
-2.56046
-2.56047
-2.56048
-2.56048
-2.56049
-2.5605
-2.56051
-2.56052
-2.56052
-2.56053
-2.56053
-2.56054
-2.56054
-2.56055
-2.56055
-2.56055
-2.56055
-2.56055
-2.56056
-2.56056
-2.56056
-2.56056
-2.56057
-2.56057
-2.56057
-2.56058
-2.56058
-2.56058
-2.56058
-2.56059
-2.56059
-2.56059
-2.5606
-2.5606
-2.56061
-2.56061
-2.56061
-2.5606
-2.56059
-2.56059
-2.56059
-2.56059
-2.56059
-2.56059
-2.56058
-2.56058
-2.56058
-2.56057
-2.56057
-2.56057
-2.56056
-2.56056
-2.56056
-2.56055
-2.56055
-2.56055
-2.56054
-2.56054
-2.56054
-2.56053
-2.56053
-2.56052
-2.56052
-2.56051
-2.5605
-2.5605
-2.56049
-2.56048
-2.56047
-2.56046
-2.56045
-2.56045
-2.56045
-2.56044
-2.56044
-2.56044
-2.56044
-2.56044
-2.56044
-2.56044
-2.56044
-2.56044
-2.56044
-2.56044
-2.56044
-2.56044
-2.56044
-2.56044
-2.56044
-2.65891
-2.65891
-2.65891
-2.65891
-2.65891
-2.65891
-2.65891
-2.65891
-2.65891
-2.65891
-2.65892
-2.65893
-2.65894
-2.65895
-2.65896
-2.65897
-2.65898
-2.65899
-2.65899
-2.659
-2.65901
-2.65901
-2.65902
-2.65902
-2.65903
-2.65903
-2.65903
-2.65903
-2.65904
-2.65904
-2.65904
-2.65905
-2.65905
-2.65905
-2.65906
-2.65906
-2.65906
-2.65907
-2.65907
-2.65907
-2.65907
-2.65908
-2.65908
-2.65909
-2.6591
-2.6591
-2.6591
-2.6591
-2.65909
-2.65908
-2.65908
-2.65908
-2.65908
-2.65908
-2.65908
-2.65907
-2.65907
-2.65906
-2.65906
-2.65906
-2.65905
-2.65905
-2.65904
-2.65904
-2.65904
-2.65903
-2.65903
-2.65903
-2.65902
-2.65902
-2.65901
-2.65901
-2.659
-2.65899
-2.65899
-2.65898
-2.65897
-2.65896
-2.65896
-2.65895
-2.65894
-2.65893
-2.65893
-2.65892
-2.65892
-2.65892
-2.65892
-2.65892
-2.65892
-2.65892
-2.65892
-2.65892
-2.65892
-2.65892
-2.65892
-2.65891
-2.65891
-2.65891
-2.65891
-2.65891
-2.75738
-2.75738
-2.75738
-2.75738
-2.75737
-2.75737
-2.75737
-2.75737
-2.75738
-2.75738
-2.75739
-2.7574
-2.75741
-2.75742
-2.75743
-2.75744
-2.75745
-2.75746
-2.75747
-2.75748
-2.75748
-2.75749
-2.75749
-2.7575
-2.7575
-2.75751
-2.75751
-2.75751
-2.75752
-2.75752
-2.75752
-2.75753
-2.75753
-2.75754
-2.75754
-2.75754
-2.75755
-2.75755
-2.75755
-2.75756
-2.75756
-2.75757
-2.75757
-2.75758
-2.75759
-2.75759
-2.75759
-2.75758
-2.75757
-2.75756
-2.75756
-2.75757
-2.75757
-2.75757
-2.75757
-2.75756
-2.75756
-2.75755
-2.75755
-2.75754
-2.75754
-2.75753
-2.75753
-2.75752
-2.75752
-2.75751
-2.75751
-2.75751
-2.7575
-2.7575
-2.75749
-2.75748
-2.75748
-2.75747
-2.75746
-2.75746
-2.75745
-2.75744
-2.75743
-2.75742
-2.75741
-2.75741
-2.7574
-2.7574
-2.7574
-2.7574
-2.7574
-2.7574
-2.7574
-2.7574
-2.7574
-2.7574
-2.75739
-2.75739
-2.75739
-2.75739
-2.75739
-2.75739
-2.75739
-2.75739
-2.85585
-2.85585
-2.85585
-2.85585
-2.85584
-2.85584
-2.85584
-2.85584
-2.85584
-2.85585
-2.85586
-2.85587
-2.85588
-2.85589
-2.8559
-2.85591
-2.85592
-2.85593
-2.85594
-2.85595
-2.85596
-2.85597
-2.85597
-2.85598
-2.85598
-2.85599
-2.85599
-2.85599
-2.856
-2.856
-2.85601
-2.85601
-2.85602
-2.85602
-2.85602
-2.85603
-2.85603
-2.85603
-2.85604
-2.85604
-2.85604
-2.85605
-2.85606
-2.85606
-2.85607
-2.85607
-2.85606
-2.85606
-2.85605
-2.85604
-2.85604
-2.85605
-2.85605
-2.85605
-2.85605
-2.85605
-2.85604
-2.85603
-2.85603
-2.85602
-2.85602
-2.85601
-2.85601
-2.856
-2.856
-2.856
-2.85599
-2.85599
-2.85598
-2.85598
-2.85597
-2.85596
-2.85596
-2.85595
-2.85594
-2.85593
-2.85592
-2.85591
-2.85591
-2.8559
-2.85589
-2.85588
-2.85588
-2.85587
-2.85587
-2.85587
-2.85587
-2.85587
-2.85587
-2.85587
-2.85587
-2.85587
-2.85587
-2.85587
-2.85587
-2.85587
-2.85587
-2.85586
-2.85586
-2.85586
-2.95432
-2.95432
-2.95432
-2.95432
-2.95431
-2.95431
-2.95431
-2.95431
-2.95431
-2.95432
-2.95433
-2.95434
-2.95435
-2.95436
-2.95438
-2.95439
-2.9544
-2.95441
-2.95442
-2.95443
-2.95443
-2.95444
-2.95445
-2.95445
-2.95446
-2.95446
-2.95447
-2.95447
-2.95448
-2.95448
-2.95449
-2.95449
-2.9545
-2.9545
-2.95451
-2.95451
-2.95451
-2.95452
-2.95452
-2.95452
-2.95453
-2.95453
-2.95454
-2.95455
-2.95455
-2.95454
-2.95454
-2.95453
-2.95452
-2.95452
-2.95452
-2.95452
-2.95453
-2.95453
-2.95453
-2.95453
-2.95452
-2.95452
-2.95451
-2.95451
-2.9545
-2.9545
-2.95449
-2.95449
-2.95448
-2.95448
-2.95447
-2.95447
-2.95446
-2.95445
-2.95445
-2.95444
-2.95443
-2.95442
-2.95442
-2.95441
-2.9544
-2.95439
-2.95438
-2.95437
-2.95436
-2.95436
-2.95435
-2.95435
-2.95435
-2.95435
-2.95435
-2.95435
-2.95435
-2.95435
-2.95435
-2.95435
-2.95435
-2.95434
-2.95434
-2.95434
-2.95434
-2.95434
-2.95434
-2.95434
-3.05279
-3.05279
-3.05279
-3.05279
-3.05279
-3.05278
-3.05278
-3.05278
-3.05278
-3.05279
-3.0528
-3.05281
-3.05282
-3.05283
-3.05285
-3.05286
-3.05287
-3.05288
-3.05289
-3.0529
-3.05291
-3.05291