/*--------------------------------*- C++ -*----------------------------------*\
| =========                 |                                                 |
| \\      /  F ield         | OpenFOAM: The Open Source CFD Toolbox           |
|  \\    /   O peration     | Version:  4.1                                   |
|   \\  /    A nd           | Web:      www.OpenFOAM.org                      |
|    \\/     M anipulation  |                                                 |
\*---------------------------------------------------------------------------*/
FoamFile
{
    version     2.0;
    format      ascii;
    class       volScalarField;
    location    "740";
    object      T;
}
// * * * * * * * * * * * * * * * * * * * * * * * * * * * * * * * * * * * * * //

dimensions      [0 0 0 1 0 0 0];

internalField   nonuniform List<scalar> 
5000
(
285.018
284.708
284.512
284.356
284.222
284.102
283.991
283.887
283.788
283.692
283.598
283.505
283.417
283.348
283.293
283.251
283.221
283.201
283.191
283.19
283.196
283.209
283.227
283.247
283.262
283.257
283.464
283.574
283.69
283.812
283.941
284.082
284.235
284.403
284.586
284.785
285.001
285.204
285.398
285.586
285.771
285.953
286.123
286.223
286.073
285.15
285.281
285.77
285.848
285.777
285.737
285.694
285.639
285.564
285.463
285.337
285.189
285.022
284.837
284.632
284.43
284.252
284.101
283.979
283.885
283.823
283.802
283.84
283.969
284.244
284.642
284.844
284.611
284.143
283.709
283.351
283.049
282.834
282.706
282.645
282.634
282.667
282.733
282.82
282.929
283.054
283.188
283.33
283.478
283.633
283.796
283.951
284.103
284.253
284.403
284.555
284.712
284.874
285.048
285.291
284.342
283.614
283.189
282.909
282.701
282.536
282.404
282.299
282.218
282.159
282.122
282.107
282.105
282.102
282.098
282.094
282.09
282.085
282.08
282.075
282.07
282.065
282.06
282.056
282.052
282.048
282.047
282.047
282.046
282.047
282.047
282.048
282.05
282.051
282.054
282.057
282.061
282.09
282.149
282.267
282.507
282.905
283.349
283.511
282.97
282.433
282.353
284.29
284.559
283.431
282.739
282.504
282.506
282.524
282.476
282.374
282.253
282.145
282.07
282.04
282.037
282.045
282.061
282.089
282.132
282.198
282.3
282.458
282.702
283.068
283.563
283.992
284.055
283.747
283.261
282.746
282.338
282.085
281.953
281.89
281.866
281.861
281.862
281.865
281.869
281.874
281.879
281.885
281.892
281.899
281.907
281.929
281.965
282.01
282.063
282.114
282.158
282.268
282.878
284.216
283.997
283.15
282.717
282.477
282.332
282.241
282.185
282.152
282.135
282.128
282.125
282.124
282.121
282.118
282.113
282.107
282.1
282.093
282.085
282.077
282.069
282.062
282.055
282.048
282.042
282.037
282.034
282.032
282.03
282.028
282.027
282.026
282.025
282.024
282.023
282.022
282.021
282.021
282.024
282.038
282.082
282.195
282.364
282.413
282.218
282.08
282.129
283.863
284.027
282.844
282.256
282.062
282.017
282
281.977
281.946
281.915
281.89
281.875
281.866
281.861
281.86
281.863
281.871
281.888
281.919
281.969
282.052
282.184
282.39
282.695
283.081
283.314
283.268
282.962
282.467
282.11
281.94
281.874
281.853
281.854
281.857
281.861
281.864
281.867
281.87
281.873
281.876
281.88
281.884
281.888
281.894
281.901
281.91
281.922
281.936
281.952
281.993
282.376
283.767
283.779
282.901
282.504
282.318
282.225
282.18
282.16
282.152
282.15
282.15
282.15
282.149
282.146
282.141
282.134
282.126
282.117
282.106
282.096
282.085
282.074
282.064
282.055
282.046
282.038
282.032
282.028
282.024
282.022
282.019
282.018
282.017
282.017
282.017
282.017
282.017
282.016
282.015
282.014
282.014
282.02
282.042
282.082
282.093
282.048
282.019
282.093
283.599
283.76
282.635
282.133
281.971
281.922
281.9
281.883
281.866
281.85
281.835
281.823
281.812
281.802
281.795
281.789
281.784
281.782
281.782
281.785
281.789
281.798
281.813
281.839
281.891
281.967
281.951
281.844
281.82
281.827
281.837
281.849
281.862
281.872
281.879
281.882
281.884
281.885
281.886
281.887
281.889
281.891
281.893
281.896
281.9
281.904
281.909
281.914
281.92
281.927
281.946
282.195
283.513
283.628
282.749
282.395
282.252
282.194
282.174
282.169
282.171
282.173
282.175
282.175
282.174
282.17
282.164
282.156
282.145
282.133
282.12
282.107
282.093
282.08
282.067
282.055
282.044
282.035
282.028
282.022
282.017
282.013
282.01
282.008
282.007
282.006
282.006
282.007
282.008
282.008
282.009
282.008
282.008
282.008
282.011
282.018
282.019
282.008
282.004
282.073
283.375
283.627
282.555
282.097
281.944
281.892
281.867
281.849
281.833
281.818
281.805
281.793
281.782
281.774
281.767
281.763
281.76
281.76
281.761
281.765
281.769
281.775
281.781
281.787
281.794
281.801
281.809
281.82
281.834
281.849
281.865
281.881
281.896
281.908
281.913
281.915
281.914
281.913
281.911
281.91
281.909
281.908
281.909
281.91
281.912
281.914
281.917
281.92
281.923
281.926
281.936
282.112
283.347
283.517
282.651
282.334
282.224
282.189
282.182
282.186
282.191
282.196
282.2
282.2
282.199
282.195
282.187
282.177
282.164
282.15
282.134
282.117
282.101
282.085
282.07
282.056
282.043
282.034
282.025
282.018
282.011
282.006
282.002
281.999
281.997
281.996
281.995
281.996
281.997
281.998
282
282.001
282.001
282.001
282.001
282.001
282
281.996
281.998
282.058
283.154
283.571
282.535
282.09
281.934
281.876
281.847
281.826
281.809
281.793
281.779
281.768
281.758
281.751
281.747
281.745
281.745
281.748
281.753
281.759
281.767
281.777
281.787
281.798
281.809
281.822
281.836
281.852
281.87
281.888
281.906
281.923
281.939
281.95
281.953
281.952
281.948
281.944
281.939
281.935
281.931
281.928
281.926
281.926
281.926
281.927
281.928
281.929
281.929
281.93
281.935
282.069
283.23
283.433
282.583
282.298
282.212
282.193
282.195
282.203
282.211
282.218
282.223
282.224
282.223
282.218
282.209
282.197
282.182
282.165
282.146
282.126
282.107
282.089
282.072
282.057
282.044
282.033
282.023
282.014
282.007
282
281.995
281.99
281.987
281.985
281.984
281.985
281.986
281.987
281.989
281.991
281.993
281.994
281.994
281.994
281.993
281.991
281.993
282.044
282.937
283.555
282.548
282.099
281.932
281.866
281.831
281.808
281.788
281.772
281.758
281.747
281.739
281.734
281.732
281.733
281.737
281.743
281.752
281.762
281.775
281.788
281.803
281.819
281.836
281.854
281.873
281.893
281.914
281.934
281.953
281.97
281.984
281.994
281.995
281.991
281.984
281.976
281.968
281.961
281.954
281.949
281.945
281.942
281.94
281.94
281.939
281.938
281.937
281.935
281.936
282.043
283.143
283.367
282.534
282.276
282.209
282.2
282.207
282.219
282.229
282.238
282.243
282.245
282.243
282.238
282.229
282.215
282.198
282.178
282.156
282.134
282.113
282.093
282.074
282.059
282.045
282.033
282.022
282.012
282.003
281.995
281.988
281.983
281.979
281.976
281.974
281.974
281.975
281.976
281.978
281.981
281.983
281.986
281.987
281.988
281.987
281.986
281.989
282.032
282.745
283.544
282.583
282.117
281.935
281.859
281.819
281.792
281.771
281.755
281.741
281.731
281.725
281.722
281.723
281.727
281.734
281.744
281.756
281.771
281.788
281.807
281.826
281.847
281.869
281.891
281.914
281.937
281.96
281.981
282.001
282.017
282.03
282.039
282.037
282.03
282.02
282.009
281.998
281.987
281.977
281.969
281.963
281.958
281.954
281.952
281.95
281.947
281.944
281.939
281.938
282.028
283.076
283.315
282.498
282.262
282.209
282.207
282.219
282.233
282.245
282.254
282.26
282.262
282.261
282.255
282.245
282.23
282.211
282.189
282.164
282.14
282.117
282.095
282.077
282.061
282.046
282.033
282.021
282.01
282
281.991
281.983
281.977
281.972
281.968
281.965
281.964
281.964
281.965
281.968
281.971
281.974
281.977
281.979
281.981
281.982
281.982
281.985
282.022
282.581
283.521
282.64
282.142
281.942
281.855
281.81
281.78
281.757
281.74
281.727
281.718
281.714
281.713
281.717
281.724
281.735
281.749
281.766
281.785
281.807
281.83
281.854
281.879
281.905
281.931
281.957
281.982
282.006
282.028
282.047
282.062
282.074
282.081
282.078
282.067
282.055
282.041
282.027
282.013
282
281.989
281.98
281.973
281.968
281.964
281.96
281.955
281.95
281.944
281.941
282.017
283.022
283.272
282.472
282.254
282.21
282.214
282.229
282.244
282.257
282.267
282.273
282.275
282.273
282.267
282.257
282.242
282.221
282.196
282.17
282.144
282.119
282.098
282.079
282.062
282.046
282.033
282.02
282.008
281.998
281.988
281.98
281.972
281.966
281.961
281.957
281.955
281.955
281.955
281.957
281.96
281.964
281.968
281.971
281.974
281.976
281.977
281.981
282.013
282.447
283.458
282.731
282.173
281.952
281.854
281.803
281.769
281.745
281.728
281.716
281.708
281.706
281.708
281.715
281.726
281.74
281.758
281.779
281.803
281.828
281.856
281.884
281.913
281.942
281.971
281.999
282.025
282.05
282.071
282.089
282.104
282.114
282.12
282.116
282.103
282.087
282.071
282.055
282.038
282.022
282.008
281.996
281.987
281.98
281.974
281.969
281.963
281.956
281.948
281.943
282.01
282.978
283.238
282.452
282.248
282.213
282.22
282.237
282.253
282.266
282.275
282.28
282.281
282.279
282.275
282.266
282.25
282.228
282.201
282.173
282.146
282.122
282.099
282.08
282.062
282.047
282.033
282.02
282.008
281.997
281.987
281.977
281.969
281.961
281.955
281.951
281.948
281.946
281.946
281.948
281.951
281.954
281.958
281.963
281.966
281.969
281.971
281.977
282.005
282.34
283.362
282.828
282.208
281.964
281.854
281.797
281.761
281.736
281.718
281.707
281.701
281.701
281.706
281.715
281.73
281.748
281.77
281.795
281.823
281.852
281.883
281.915
281.947
281.979
282.01
282.039
282.066
282.09
282.111
282.128
282.141
282.151
282.155
282.15
282.135
282.118
282.1
282.081
282.063
282.044
282.027
282.012
282
281.991
281.984
281.977
281.969
281.96
281.951
281.945
282.006
282.941
283.21
282.436
282.244
282.215
282.225
282.243
282.259
282.271
282.279
282.282
282.281
282.279
282.278
282.27
282.254
282.232
282.203
282.175
282.147
282.122
282.1
282.08
282.063
282.047
282.033
282.02
282.008
281.997
281.986
281.976
281.966
281.958
281.951
281.945
281.941
281.939
281.938
281.939
281.941
281.945
281.949
281.954
281.959
281.962
281.966
281.972
281.998
282.258
283.244
282.914
282.248
281.978
281.857
281.794
281.755
281.728
281.71
281.7
281.695
281.697
281.705
281.718
281.736
281.758
281.784
281.813
281.844
281.877
281.912
281.947
281.981
282.015
282.047
282.076
282.103
282.127
282.146
282.162
282.174
282.182
282.186
282.181
282.164
282.145
282.125
282.106
282.086
282.065
282.045
282.027
282.013
282.002
281.993
281.984
281.975
281.964
281.954
281.947
282.002
282.91
283.187
282.425
282.241
282.217
282.229
282.247
282.263
282.274
282.278
282.277
282.273
282.274
282.277
282.271
282.255
282.231
282.204
282.175
282.147
282.121
282.099
282.08
282.063
282.048
282.034
282.022
282.01
281.998
281.987
281.976
281.965
281.956
281.947
281.941
281.935
281.932
281.931
281.931
281.933
281.936
281.941
281.946
281.951
281.956
281.96
281.967
281.992
282.196
283.116
282.972
282.303
281.994
281.861
281.793
281.75
281.721
281.704
281.694
281.691
281.695
281.706
281.722
281.743
281.769
281.798
281.831
281.866
281.903
281.94
281.977
282.013
282.048
282.08
282.11
282.136
282.159
282.177
282.192
282.203
282.21
282.213
282.208
282.19
282.168
282.147
282.127
282.107
282.085
282.063
282.042
282.025
282.012
282.001
281.99
281.979
281.968
281.957
281.949
282
282.883
283.168
282.416
282.24
282.218
282.231
282.25
282.265
282.273
282.275
282.269
282.261
282.268
282.274
282.269
282.254
282.23
282.202
282.172
282.144
282.119
282.097
282.079
282.063
282.049
282.036
282.024
282.012
282
281.988
281.977
281.966
281.955
281.945
281.937
281.931
281.927
281.924
281.924
281.925
281.928
281.933
281.938
281.944
281.949
281.954
281.962
281.987
282.15
282.984
283.002
282.367
282.01
281.867
281.792
281.746
281.716
281.698
281.69
281.689
281.695
281.708
281.727
281.751
281.78
281.814
281.85
281.888
281.927
281.967
282.005
282.043
282.078
282.111
282.14
282.166
282.187
282.205
282.218
282.227
282.234
282.236
282.23
282.211
282.187
282.165
282.145
282.126
282.104
282.08
282.057
282.037
282.022
282.008
281.996
281.983
281.971
281.959
281.951
281.998
282.859
283.153
282.409
282.238
282.219
282.233
282.251
282.265
282.272
282.271
282.261
282.254
282.263
282.27
282.267
282.251
282.227
282.198
282.168
282.14
282.116
282.095
282.078
282.063
282.05
282.039
282.027
282.016
282.004
281.992
281.979
281.967
281.955
281.945
281.935
281.928
281.922
281.919
281.917
281.918
281.921
281.925
281.931
281.936
281.942
281.949
281.958
281.982
282.117
282.858
283.01
282.428
282.026
281.873
281.793
281.744
281.713
281.694
281.686
281.687
281.695
281.71
281.732
281.76
281.792
281.829
281.868
281.909
281.95
281.991
282.031
282.069
282.104
282.137
282.166
282.191
282.212
282.228
282.24
282.249
282.254
282.255
282.249
282.229
282.201
282.177
282.159
282.141
282.12
282.096
282.071
282.049
282.031
282.016
282.001
281.987
281.973
281.961
281.953
281.997
282.838
283.14
282.404
282.237
282.219
282.233
282.251
282.264
282.27
282.267
282.254
282.251
282.26
282.268
282.264
282.247
282.222
282.192
282.162
282.135
282.112
282.093
282.077
282.065
282.053
282.043
282.032
282.021
282.009
281.996
281.983
281.97
281.957
281.945
281.934
281.925
281.918
281.914
281.912
281.912
281.914
281.918
281.924
281.93
281.936
281.943
281.953
281.978
282.092
282.743
283.003
282.481
282.042
281.88
281.796
281.743
281.71
281.691
281.684
281.686
281.696
281.713
281.738
281.769
281.804
281.843
281.885
281.928
281.971
282.013
282.053
282.091
282.127
282.159
282.188
282.213
282.233
282.249
282.26
282.267
282.272
282.272
282.264
282.243
282.211
282.184
282.168
282.153
282.135
282.112
282.086
282.061
282.04
282.023
282.006
281.99
281.975
281.963
281.955
281.997
282.819
283.13
282.4
282.236
282.219
282.233
282.25
282.262
282.267
282.262
282.251
282.25
282.26
282.266
282.261
282.242
282.214
282.184
282.155
282.129
282.108
282.091
282.078
282.067
282.057
282.048
282.038
282.027
282.015
282.002
281.988
281.973
281.959
281.945
281.933
281.923
281.915
281.91
281.907
281.906
281.908
281.912
281.917
281.923
281.93
281.938
281.949
281.975
282.075
282.642
282.986
282.525
282.058
281.888
281.799
281.743
281.708
281.689
281.682
281.685
281.697
281.716
281.744
281.777
281.815
281.856
281.9
281.945
281.989
282.031
282.072
282.11
282.145
282.177
282.206
282.231
282.251
282.267
282.277
282.283
282.287
282.287
282.277
282.253
282.218
282.186
282.172
282.161
282.147
282.125
282.099
282.073
282.05
282.03
282.01
281.992
281.977
281.965
281.957
281.996
282.803
283.121
282.397
282.235
282.218
282.232
282.248
282.259
282.263
282.257
282.248
282.25
282.261
282.266
282.257
282.235
282.205
282.174
282.146
282.123
282.104
282.09
282.08
282.071
282.064
282.055
282.046
282.036
282.023
282.009
281.994
281.978
281.962
281.947
281.933
281.922
281.913
281.906
281.903
281.901
281.903
281.906
281.911
281.917
281.924
281.933
281.945
281.973
282.064
282.558
282.964
282.557
282.072
281.896
281.803
281.744
281.707
281.687
281.68
281.684
281.698
281.719
281.749
281.784
281.824
281.868
281.913
281.959
282.004
282.046
282.086
282.123
282.158
282.191
282.22
282.246
282.267
282.282
282.291
282.297
282.3
282.3
282.288
282.261
282.221
282.184
282.171
282.165
282.155
282.137
282.112
282.085
282.059
282.037
282.015
281.995
281.978
281.966
281.958
281.997
282.788
283.113
282.394
282.234
282.217
282.23
282.246
282.256
282.258
282.251
282.244
282.251
282.263
282.265
282.251
282.226
282.195
282.164
282.138
282.117
282.102
282.092
282.084
282.078
282.072
282.065
282.056
282.045
282.032
282.017
282.001
281.983
281.966
281.949
281.934
281.921
281.91
281.903
281.899
281.897
281.898
281.901
281.906
281.912
281.919
281.928
281.943
281.973
282.058
282.492
282.942
282.579
282.086
281.905
281.809
281.746
281.707
281.686
281.679
281.684
281.698
281.722
281.753
281.79
281.832
281.878
281.924
281.97
282.015
282.056
282.096
282.132
282.167
282.2
282.231
282.258
282.28
282.295
282.305
282.31
282.312
282.311
282.299
282.268
282.222
282.179
282.166
282.164
282.16
282.147
282.125
282.096
282.069
282.044
282.02
281.997
281.98
281.968
281.96
281.997
282.775
283.107
282.393
282.234
282.216
282.229
282.243
282.251
282.251
282.245
282.241
282.253
282.266
282.263
282.244
282.214
282.182
282.153
282.13
282.113
282.102
282.095
282.09
282.086
282.082
282.075
282.067
282.056
282.042
282.026
282.008
281.988
281.969
281.95
281.934
281.92
281.908
281.9
281.895
281.893
281.893
281.896
281.901
281.907
281.915
281.924
281.941
281.974
282.057
282.443
282.923
282.591
282.098
281.915
281.816
281.75
281.707
281.685
281.678
281.683
281.699
281.723
281.756
281.795
281.838
281.885
281.932
281.978
282.022
282.063
282.101
282.137
282.172
282.205
282.237
282.266
282.29
282.307
282.316
282.321
282.323
282.322
282.308
282.274
282.222
282.172
282.157
282.16
282.161
282.154
282.135
282.108
282.079
282.052
282.024
281.999
281.981
281.969
281.962
281.998
282.763
283.101
282.391
282.233
282.216
282.227
282.239
282.245
282.244
282.238
282.241
282.259
282.268
282.259
282.233
282.201
282.169
282.143
282.124
282.111
282.104
282.101
282.099
282.097
282.094
282.088
282.079
282.067
282.052
282.034
282.014
281.993
281.972
281.952
281.933
281.918
281.906
281.897
281.891
281.889
281.889
281.892
281.897
281.903
281.91
281.921
281.941
281.979
282.062
282.412
282.912
282.595
282.111
281.927
281.825
281.754
281.708
281.685
281.678
281.683
281.698
281.724
281.757
281.797
281.842
281.889
281.936
281.982
282.025
282.065
282.102
282.137
282.172
282.207
282.241
282.272
282.298
282.317
282.327
282.331
282.333
282.332
282.318
282.281
282.222
282.164
282.147
282.153
282.16
282.158
282.144
282.119
282.088
282.059
282.03
282.002
281.982
281.971
281.964
282
282.752
283.095
282.39
282.232
282.214
282.224
282.234
282.239
282.237
282.232
282.246
282.266
282.269
282.251
282.22
282.186
282.156
282.134
282.12
282.112
282.11
282.11
282.111
282.11
282.107
282.101
282.092
282.079
282.062
282.043
282.021
281.997
281.974
281.952
281.932
281.916
281.903
281.893
281.887
281.885
281.885
281.888
281.893
281.899
281.907
281.919
281.943
281.987
282.073
282.399
282.908
282.593
282.124
281.941
281.836
281.76
281.71
281.685
281.677
281.682
281.698
281.723
281.757
281.798
281.843
281.89
281.938
281.983
282.025
282.063
282.099
282.134
282.169
282.206
282.242
282.276
282.305
282.325
282.336
282.34
282.342
282.341
282.328
282.29
282.223
282.157
282.136
282.145
282.155
282.159
282.151
282.128
282.098
282.067
282.035
282.004
281.983
281.972
281.966
282.001
282.743
283.09
282.389
282.23
282.213
282.221
282.23
282.232
282.229
282.231
282.256
282.274
282.267
282.24
282.204
282.17
282.144
282.127
282.119
282.117
282.119
282.122
282.125
282.125
282.122
282.115
282.105
282.09
282.072
282.05
282.025
282
281.974
281.951
281.93
281.913
281.899
281.89
281.884
281.881
281.881
281.884
281.889
281.896
281.904
281.919
281.949
282
282.092
282.404
282.911
282.591
282.139
281.957
281.85
281.768
281.713
281.685
281.676
281.68
281.696
281.722
281.756
281.797
281.842
281.889
281.936
281.98
282.021
282.057
282.092
282.127
282.164
282.202
282.241
282.278
282.309
282.332
282.345
282.349
282.351
282.35
282.338
282.299
282.227
282.15
282.126
282.136
282.149
282.158
282.156
282.137
282.107
282.075
282.041
282.007
281.985
281.974
281.969
282.003
282.735
283.085
282.387
282.229
282.212
282.218
282.224
282.225
282.222
282.239
282.27
282.279
282.259
282.224
282.186
282.155
282.134
282.124
282.123
282.126
282.132
282.137
282.14
282.14
282.136
282.128
282.116
282.1
282.079
282.055
282.028
282
281.972
281.947
281.926
281.908
281.895
281.885
281.88
281.877
281.878
281.881
281.887
281.893
281.902
281.921
281.959
282.021
282.12
282.429
282.918
282.59
282.156
281.976
281.866
281.778
281.716
281.686
281.675
281.679
281.694
281.719
281.753
281.793
281.838
281.885
281.932
281.975
282.014
282.049
282.083
282.119
282.157
282.198
282.239
282.278
282.312
282.338
282.352
282.357
282.358
282.358
282.348
282.309
282.232
282.145
282.117
282.128
282.143
282.155
282.158
282.144
282.116
282.083
282.047
282.01
281.986
281.975
281.971
282.005
282.728
283.08
282.386
282.228
282.21
282.215
282.219
282.219
282.219
282.255
282.284
282.278
282.245
282.204
282.167
282.142
282.129
282.126
282.131
282.139
282.147
282.154
282.157
282.156
282.15
282.14
282.126
282.107
282.084
282.057
282.028
281.997
281.968
281.942
281.92
281.902
281.889
281.88
281.875
281.874
281.875
281.879
281.884
281.892
281.902
281.927
281.977
282.051
282.161
282.477
282.919
282.59
282.176
281.999
281.886
281.789
281.721
281.687
281.674
281.677
281.691
281.715
281.748
281.788
281.832
281.878
281.924
281.967
282.004
282.038
282.072
282.109
282.15
282.193
282.237
282.278
282.315
282.342
282.358
282.364
282.366
282.366
282.357
282.319
282.238
282.143
282.11
282.122
282.138
282.152
282.159
282.15
282.124
282.09
282.053
282.013
281.987
281.977
281.973
282.007
282.722
283.074
282.384
282.226
282.208
282.211
282.214
282.213
282.227
282.278
282.293
282.269
282.226
282.183
282.15
282.133
282.128
282.134
282.144
282.156
282.165
282.171
282.173
282.169
282.162
282.149
282.133
282.112
282.086
282.057
282.024
281.991
281.96
281.933
281.912
281.895
281.883
281.875
281.871
281.87
281.872
281.877
281.883
281.89
281.903
281.938
282.003
282.092
282.219
282.537
282.918
282.594
282.199
282.026
281.909
281.803
281.726
281.688
281.674
281.675
281.688
281.711
281.742
281.78
281.823
281.869
281.914
281.956
281.992
282.026
282.061
282.1
282.144
282.189
282.235
282.278
282.316
282.346
282.364
282.37
282.372
282.373
282.365
282.329
282.246
282.143
282.105
282.118
282.135
282.148
282.158
282.154
282.131
282.097
282.058
282.016
281.987
281.978
281.975
282.01
282.716
283.069
282.383
282.225
282.206
282.208
282.209
282.211
282.257
282.3
282.294
282.252
282.202
282.161
282.137
282.129
282.134
282.146
282.161
282.175
282.184
282.188
282.187
282.181
282.17
282.155
282.136
282.112
282.084
282.052
282.017
281.981
281.949
281.922
281.902
281.887
281.877
281.87
281.867
281.867
281.87
281.875
281.882
281.89
281.907
281.957
282.042
282.148
282.294
282.595
282.915
282.6
282.227
282.058
281.937
281.819
281.732
281.69
281.674
281.673
281.684
281.706
281.735
281.771
281.812
281.857
281.902
281.943
281.979
282.012
282.049
282.091
282.138
282.186
282.234
282.279
282.318
282.349
282.368
282.376
282.378
282.38
282.372
282.338
282.254
282.145
282.102
282.116
282.135
282.147
282.157
282.156
282.136
282.104
282.064
282.019
281.988
281.979
281.977
282.012
282.712
283.063
282.381
282.224
282.204
282.204
282.205
282.217
282.288
282.313
282.283
282.228
282.177
282.142
282.128
282.131
282.145
282.164
282.181
282.195
282.202
282.203
282.198
282.188
282.174
282.156
282.134
282.109
282.078
282.043
282.005
281.967
281.934
281.909
281.891
281.878
281.87
281.865
281.863
281.865
281.868
281.874
281.881
281.891
281.915
281.987
282.097
282.219
282.373
282.651
282.91
282.61
282.259
282.094
281.968
281.838
281.739
281.693
281.674
281.672
281.681
281.7
281.727
281.76
281.799
281.842
281.888
281.929
281.964
281.998
282.038
282.084
282.134
282.185
282.234
282.28
282.32
282.351
282.371
282.38
282.384
282.385
282.379
282.345
282.262
282.149
282.1
282.115
282.136
282.147
282.156
282.158
282.141
282.109
282.068
282.022
281.988
281.979
281.979
282.015
282.709
283.058
282.379
282.222
282.202
282.201
282.204
282.241
282.318
282.315
282.263
282.2
282.152
282.128
282.127
282.141
282.163
282.185
282.203
282.214
282.217
282.213
282.204
282.19
282.172
282.152
282.128
282.1
282.068
282.03
281.989
281.95
281.917
281.894
281.878
281.869
281.863
281.86
281.86
281.863
281.867
281.873
281.881
281.893
281.932
282.033
282.168
282.297
282.453
282.702
282.905
282.623
282.295
282.134
282.004
281.858
281.747
281.696
281.675
281.671
281.678
281.695
281.72
281.749
281.785
281.826
281.872
281.913
281.948
281.986
282.03
282.079
282.132
282.185
282.235
282.281
282.322
282.354
282.375
282.385
282.389
282.391
282.385
282.352
282.269
282.153
282.098
282.115
282.139
282.149
282.156
282.159
282.145
282.113
282.072
282.024
281.989
281.98
281.98
282.017
282.706
283.052
282.376
282.221
282.199
282.199
282.21
282.291
282.341
282.305
282.234
282.17
282.13
282.12
282.133
282.157
282.185
282.208
282.224
282.23
282.228
282.219
282.205
282.186
282.165
282.142
282.117
282.088
282.053
282.013
281.97
281.929
281.898
281.878
281.867
281.861
281.858
281.857
281.858
281.861
281.866
281.873
281.882
281.898
281.96
282.099
282.246
282.375
282.529
282.747
282.901
282.638
282.333
282.177
282.043
281.88
281.756
281.7
281.677
281.671
281.677
281.691
281.712
281.738
281.77
281.809
281.855
281.897
281.934
281.975
282.024
282.077
282.131
282.185
282.236
282.283
282.324
282.356
282.378
282.388
282.393
282.396
282.39
282.358
282.276
282.155
282.097
282.117
282.143
282.152
282.156
282.161
282.147
282.116
282.074
282.025
281.989
281.98
281.981
282.02
282.704
283.046
282.374
282.219
282.197
282.199
282.228
282.341
282.348
282.282
282.201
282.14
282.115
282.121
282.146
282.179
282.209
282.231
282.242
282.242
282.234
282.219
282.2
282.177
282.154
282.128
282.101
282.071
282.035
281.992
281.947
281.906
281.878
281.863
281.856
281.854
281.854
281.854
281.857
281.861
281.866
281.874
281.884
281.91
282.007
282.176
282.324
282.452
282.6
282.787
282.896
282.655
282.373
282.221
282.082
281.904
281.767
281.706
281.68
281.672
281.676
281.688
281.707
281.729
281.757
281.794
281.84
281.882
281.922
281.968
282.02
282.075
282.131
282.186
282.238
282.285
282.327
282.359
282.38
282.391
282.397
282.4
282.395
282.363
282.281
282.157
282.095
282.118
282.146
282.156
282.158
282.161
282.148
282.117
282.076
282.027
281.99
281.98
281.982
282.022
282.702
283.039
282.371
282.218
282.197
282.204
282.265
282.371
282.34
282.251
282.165
282.115
282.107
282.129
282.166
282.204
282.234
282.251
282.255
282.249
282.234
282.214
282.189
282.164
282.137
282.11
282.082
282.051
282.013
281.969
281.923
281.885
281.861
281.852
281.85
281.851
281.852
281.853
281.856
281.861
281.867
281.876
281.89
281.934
282.07
282.251
282.398
282.525
282.664
282.82
282.892
282.671
282.413
282.264
282.119
281.931
281.784
281.715
281.686
281.675
281.677
281.688
281.704
281.724
281.749
281.783
281.827
281.869
281.913
281.963
282.018
282.076
282.133
282.188
282.24
282.288
282.329
282.361
282.383
282.394
282.401
282.404
282.399
282.367
282.284
282.157
282.093
282.12
282.15
282.159
282.159
282.161
282.147
282.117
282.076
282.028
281.991
281.98
281.982
282.024
282.701
283.033
282.368
282.217
282.197
282.216
282.324
282.389
282.32
282.214
282.131
282.096
282.107
282.146
282.191
282.23
282.256
282.267
282.264
282.25
282.229
282.203
282.175
282.146
282.118
282.089
282.06
282.028
281.99
281.946
281.902
281.868
281.85
281.847
281.848
281.849
281.851
281.853
281.856
281.862
281.869
281.879
281.901
281.972
282.134
282.321
282.468
282.592
282.72
282.847
282.888
282.687
282.451
282.301
282.149
281.956
281.805
281.728
281.694
281.681
281.681
281.69
281.704
281.722
281.745
281.777
281.817
281.86
281.908
281.961
282.019
282.078
282.135
282.191
282.243
282.291
282.332
282.364
282.385
282.397
282.404
282.409
282.403
282.37
282.285
282.156
282.091
282.121
282.151
282.161
282.161
282.159
282.145
282.116
282.075
282.028
281.992
281.979
281.982
282.026
282.7
283.026
282.365
282.216
282.201
282.24
282.388
282.392
282.291
282.176
282.101
282.085
282.116
282.168
282.218
282.255
282.275
282.277
282.267
282.246
282.22
282.189
282.157
282.126
282.096
282.066
282.036
282.004
281.966
281.924
281.885
281.859
281.848
281.847
281.848
281.85
281.851
281.854
281.858
281.863
281.871
281.885
281.919
282.015
282.193
282.385
282.532
282.652
282.767
282.868
282.882
282.7
282.484
282.331
282.17
281.976
281.825
281.743
281.705
281.69
281.688
281.695
281.707
281.723
281.745
281.774
281.812
281.856
281.907
281.963
282.022
282.081
282.138
282.194
282.246
282.293
282.334
282.366
282.386
282.399
282.407
282.413
282.406
282.372
282.285
282.152
282.088
282.121
282.151
282.161
282.161
282.157
282.142
282.113
282.074
282.028
281.992
281.979
281.981
282.027
282.7
283.02
282.363
282.217
282.209
282.28
282.429
282.382
282.257
282.138
282.076
282.081
282.132
282.194
282.245
282.276
282.288
282.283
282.265
282.239
282.207
282.173
282.138
282.105
282.073
282.043
282.012
281.979
281.943
281.907
281.876
281.857
281.849
281.848
281.849
281.85
281.852
281.855
281.859
281.865
281.875
281.894
281.942
282.056
282.244
282.44
282.588
282.704
282.805
282.882
282.876
282.709
282.51
282.352
282.183
281.99
281.843
281.758
281.717
281.7
281.696
281.701
281.712
281.727
281.747
281.775
281.812
281.857
281.91
281.967
282.026
282.085
282.142
282.197
282.249
282.296
282.337
282.368
282.388
282.401
282.411
282.416
282.409
282.372
282.282
282.147
282.084
282.12
282.149
282.16
282.16
282.153
282.137
282.109
282.071
282.028
281.993
281.978
281.98
282.029
282.7
283.014
282.361
282.22
282.225
282.333
282.446
282.363
282.221
282.103
282.057
282.085
282.153
282.221
282.269
282.293
282.296
282.283
282.259
282.229
282.194
282.156
282.119
282.084
282.051
282.02
281.99
281.959
281.926
281.896
281.871
281.857
281.851
281.849
281.85
281.851
281.853
281.857
281.861
281.868
281.881
281.906
281.966
282.093
282.288
282.488
282.636
282.746
282.835
282.89
282.867
282.714
282.527
282.363
282.186
281.999
281.857
281.772
281.729
281.711
281.706
281.71
281.72
281.734
281.753
281.78
281.817
281.863
281.917
281.974
282.032
282.089
282.145
282.2
282.252
282.299
282.339
282.369
282.389
282.403
282.414
282.42
282.411
282.37
282.276
282.139
282.08
282.117
282.145
282.156
282.156
282.148
282.132
282.105
282.068
282.027
281.993
281.978
281.978
282.029
282.7
283.011
282.361
282.226
282.249
282.393
282.453
282.34
282.187
282.073
282.044
282.094
282.175
282.245
282.288
282.304
282.299
282.281
282.252
282.218
282.18
282.141
282.102
282.065
282.031
282
281.97
281.941
281.913
281.888
281.868
281.857
281.852
281.85
281.851
281.853
281.855
281.858
281.864
281.872
281.887
281.919
281.989
282.123
282.321
282.526
282.676
282.78
282.855
282.891
282.854
282.712
282.532
282.362
282.182
282.002
281.868
281.786
281.743
281.723
281.718
281.721
281.73
281.743
281.762
281.789
281.827
281.874
281.926
281.982
282.038
282.094
282.15
282.204
282.255
282.302
282.342
282.371
282.391
282.406
282.418
282.424
282.412
282.366
282.266
282.128
282.076
282.112
282.14
282.151
282.151
282.142
282.126
282.099
282.064
282.026
281.993
281.977
281.977
282.03
282.7