/*--------------------------------*- C++ -*----------------------------------*\
| =========                 |                                                 |
| \\      /  F ield         | OpenFOAM: The Open Source CFD Toolbox           |
|  \\    /   O peration     | Version:  4.1                                   |
|   \\  /    A nd           | Web:      www.OpenFOAM.org                      |
|    \\/     M anipulation  |                                                 |
\*---------------------------------------------------------------------------*/
FoamFile
{
    version     2.0;
    format      ascii;
    class       volVectorField;
    location    "740";
    object      U;
}
// * * * * * * * * * * * * * * * * * * * * * * * * * * * * * * * * * * * * * //

dimensions      [0 1 -1 0 0 0 0];

internalField   nonuniform List<vector> 
5000
(
(-0.00383567 0.0028863 0)
(-0.00592875 0.00155501 0)
(-0.00812553 0.00104974 0)
(-0.0097943 0.000826925 0)
(-0.0111918 0.000691232 0)
(-0.0123889 0.000586412 0)
(-0.0134086 0.000490758 0)
(-0.0142518 0.000395031 0)
(-0.0149102 0.000295304 0)
(-0.0153722 0.000190014 0)
(-0.0156251 7.83311e-05 0)
(-0.0156564 -4.08492e-05 0)
(-0.0154558 -0.000167831 0)
(-0.0150205 -0.000296194 0)
(-0.0143593 -0.000418878 0)
(-0.0134916 -0.000530384 0)
(-0.0124449 -0.000626358 0)
(-0.0112525 -0.000703653 0)
(-0.0099518 -0.000760525 0)
(-0.00858108 -0.000796769 0)
(-0.00717755 -0.000813655 0)
(-0.00577501 -0.000813941 0)
(-0.00440235 -0.000802752 0)
(-0.00308153 -0.000791183 0)
(-0.00182062 -0.000805599 0)
(-0.00058241 -0.00090233 0)
(0.000753526 -0.000626729 0)
(0.00157577 -0.000518241 0)
(0.00236016 -0.000423244 0)
(0.00303741 -0.000345983 0)
(0.00359461 -0.00028021 0)
(0.00404078 -0.000222019 0)
(0.00438629 -0.000170359 0)
(0.00463986 -0.000125264 0)
(0.00481036 -8.70976e-05 0)
(0.00490796 -5.64884e-05 0)
(0.00494407 -3.41698e-05 0)
(0.00493526 -1.82035e-05 0)
(0.00490291 -7.14812e-06 0)
(0.00484424 2.08164e-05 0)
(0.00468526 0.000125734 0)
(0.00423785 0.00038557 0)
(0.00325068 0.000789039 0)
(0.00164109 0.00101742 0)
(7.47534e-05 0.000338433 0)
(0.000516228 -0.000843101 0)
(0.00167901 -0.000718162 0)
(0.00206344 0.00179608 0)
(-0.00441407 0.00252865 0)
(-0.00627881 0.000821587 0)
(-0.00693738 0.000183535 0)
(-0.007184 8.33896e-05 0)
(-0.00747076 0.000192544 0)
(-0.00791022 0.000286921 0)
(-0.00840733 0.00029785 0)
(-0.0088448 0.000244871 0)
(-0.00915899 0.000164146 0)
(-0.00933274 8.02805e-05 0)
(-0.00937257 2.12379e-06 0)
(-0.00929461 -7.26122e-05 0)
(-0.00910374 -0.000149227 0)
(-0.00879506 -0.000231176 0)
(-0.00836124 -0.000321575 0)
(-0.00779237 -0.000423491 0)
(-0.00707695 -0.000538605 0)
(-0.00620575 -0.000664678 0)
(-0.00518834 -0.000789597 0)
(-0.00409716 -0.000876201 0)
(-0.00311483 -0.000825295 0)
(-0.00248882 -0.000436984 0)
(-0.00267753 0.000460251 0)
(-0.00449702 0.00141497 0)
(-0.00726453 0.00144475 0)
(-0.00944935 0.000659283 0)
(-0.0103683 -0.000215643 0)
(-0.00996292 -0.000912456 0)
(-0.00850061 -0.00141944 0)
(-0.00653827 -0.00168586 0)
(-0.00441692 -0.00174332 0)
(-0.00236027 -0.00168995 0)
(-0.00048763 -0.00157215 0)
(0.0014324 -0.00137114 0)
(0.00284233 -0.00110982 0)
(0.00402467 -0.000881747 0)
(0.00500208 -0.000680913 0)
(0.00577778 -0.000513142 0)
(0.00636283 -0.000375072 0)
(0.00677771 -0.000261874 0)
(0.00704606 -0.000170496 0)
(0.00718876 -9.85664e-05 0)
(0.00722646 -4.30963e-05 0)
(0.00717594 -3.58891e-06 0)
(0.00705235 2.66757e-05 0)
(0.00687094 4.94572e-05 0)
(0.0066462 6.3646e-05 0)
(0.00639707 6.50437e-05 0)
(0.00615201 4.93616e-05 0)
(0.0058989 8.30667e-05 0)
(0.00520867 0.000634075 0)
(0.00419096 0.00262385 0)
(-0.00335788 0.00627517 0)
(-0.00550395 0.00404224 0)
(-0.00799828 0.00291995 0)
(-0.00984872 0.00234439 0)
(-0.0113753 0.00197221 0)
(-0.0126541 0.00167671 0)
(-0.0137166 0.00140257 0)
(-0.01457 0.00112474 0)
(-0.0152098 0.000832658 0)
(-0.0156277 0.000523277 0)
(-0.0158142 0.000197335 0)
(-0.0157589 -0.000142735 0)
(-0.015467 -0.000490937 0)
(-0.0149487 -0.000832761 0)
(-0.0142138 -0.00115274 0)
(-0.0132823 -0.00143815 0)
(-0.0121814 -0.00167885 0)
(-0.0109442 -0.0018676 0)
(-0.00960687 -0.00200068 0)
(-0.00820663 -0.00207802 0)
(-0.0067789 -0.00210268 0)
(-0.00535602 -0.00208029 0)
(-0.00396782 -0.00202023 0)
(-0.00264443 -0.00193987 0)
(-0.0014143 -0.00186883 0)
(-0.000260796 -0.00183666 0)
(0.000761171 -0.00152139 0)
(0.00164487 -0.00128664 0)
(0.00243933 -0.00107785 0)
(0.00311039 -0.000892305 0)
(0.00365439 -0.000721397 0)
(0.00407643 -0.000561102 0)
(0.00438258 -0.000411438 0)
(0.00457884 -0.000274155 0)
(0.00467246 -0.000152022 0)
(0.00467239 -4.97337e-05 0)
(0.0046006 2.64631e-05 0)
(0.00447215 7.97336e-05 0)
(0.00429329 0.000114462 0)
(0.00407312 0.000178311 0)
(0.0038154 0.00039979 0)
(0.0034928 0.000916025 0)
(0.00304209 0.00162296 0)
(0.00249175 0.00191028 0)
(0.00227748 0.000884086 0)
(0.00208476 -0.000801748 0)
(0.00169093 -0.000904394 0)
(0.00091084 0.00477001 0)
(-0.0049215 0.00552745 0)
(-0.00707363 0.00235363 0)
(-0.008329 0.000818992 0)
(-0.00896704 0.000440264 0)
(-0.00934132 0.000534634 0)
(-0.00964372 0.000640444 0)
(-0.00992252 0.000617199 0)
(-0.0101638 0.000488812 0)
(-0.0103456 0.000311979 0)
(-0.0104568 0.000129253 0)
(-0.0104933 -3.98251e-05 0)
(-0.0104559 -0.000195216 0)
(-0.0103503 -0.000349339 0)
(-0.010175 -0.000512885 0)
(-0.00992375 -0.000689219 0)
(-0.00959312 -0.000878385 0)
(-0.009184 -0.00107586 0)
(-0.00870336 -0.00126552 0)
(-0.00817186 -0.0014049 0)
(-0.00763728 -0.00139693 0)
(-0.00717045 -0.0010517 0)
(-0.00675772 -0.000129812 0)
(-0.00621216 0.00131144 0)
(-0.00573509 0.0025334 0)
(-0.00586857 0.00276034 0)
(-0.00630197 0.00189703 0)
(-0.0064404 0.000443392 0)
(-0.00584244 -0.00113362 0)
(-0.00463657 -0.00233469 0)
(-0.00326563 -0.00288474 0)
(-0.00187692 -0.00298043 0)
(-0.000488622 -0.00289116 0)
(0.000951708 -0.00261497 0)
(0.00214534 -0.00227018 0)
(0.00319989 -0.00187357 0)
(0.0041393 -0.00151553 0)
(0.00494639 -0.00120065 0)
(0.00561721 -0.000926898 0)
(0.00615464 -0.000685561 0)
(0.00656276 -0.000468684 0)
(0.00684611 -0.000273311 0)
(0.00700967 -0.00010026 0)
(0.0070577 4.66619e-05 0)
(0.00699683 0.00017125 0)
(0.00683932 0.000275573 0)
(0.00659214 0.000360047 0)
(0.0062656 0.000421961 0)
(0.00587282 0.000451045 0)
(0.00542656 0.000434976 0)
(0.00491853 0.000540844 0)
(0.0040044 0.00193121 0)
(0.00341571 0.00579575 0)
(-0.00278426 0.00988281 0)
(-0.00460867 0.00673419 0)
(-0.00699589 0.00499695 0)
(-0.00878941 0.00403618 0)
(-0.010318 0.00338472 0)
(-0.0116151 0.0028555 0)
(-0.012699 0.0023617 0)
(-0.0135711 0.00186312 0)
(-0.0142257 0.0013431 0)
(-0.0146545 0.000797823 0)
(-0.014849 0.000230982 0)
(-0.0147998 -0.000348931 0)
(-0.0145119 -0.000931409 0)
(-0.013993 -0.00149791 0)
(-0.0132565 -0.00202571 0)
(-0.0123247 -0.00249442 0)
(-0.0112268 -0.0028874 0)
(-0.00999717 -0.00319277 0)
(-0.00867336 -0.0034046 0)
(-0.00729295 -0.0035234 0)
(-0.00589109 -0.00355463 0)
(-0.00450026 -0.00350783 0)
(-0.00315277 -0.0033985 0)
(-0.00188022 -0.00324878 0)
(-0.000686959 -0.00307183 0)
(0.000460943 -0.00281929 0)
(0.00134962 -0.0024763 0)
(0.00220593 -0.00213353 0)
(0.00296948 -0.00181087 0)
(0.00362011 -0.00150599 0)
(0.0041536 -0.00121477 0)
(0.00457091 -0.000935896 0)
(0.00487449 -0.000670536 0)
(0.00506727 -0.000421428 0)
(0.00515216 -0.000192718 0)
(0.00513135 8.79671e-06 0)
(0.00501057 0.000176031 0)
(0.00478348 0.000311316 0)
(0.00444966 0.000421506 0)
(0.00401499 0.000544319 0)
(0.00352477 0.000784754 0)
(0.00310093 0.0012731 0)
(0.00286624 0.00190493 0)
(0.0028121 0.002036 0)
(0.00273923 0.00103444 0)
(0.00215195 -0.000206484 0)
(0.00062296 0.000245367 0)
(-2.1011e-05 0.00802616 0)
(-0.00451386 0.00866302 0)
(-0.00627404 0.00427733 0)
(-0.00758154 0.00188764 0)
(-0.00848095 0.00104867 0)
(-0.00909351 0.000914456 0)
(-0.00950464 0.000918066 0)
(-0.0098014 0.000846594 0)
(-0.0100407 0.000682336 0)
(-0.0102457 0.000465018 0)
(-0.0104175 0.00023238 0)
(-0.0105465 5.47143e-06 0)
(-0.0106206 -0.000210783 0)
(-0.0106346 -0.000425436 0)
(-0.0105942 -0.000649224 0)
(-0.0105067 -0.000883413 0)
(-0.0103819 -0.00112483 0)
(-0.0102311 -0.00136567 0)
(-0.0100676 -0.00158725 0)
(-0.00990462 -0.00174912 0)
(-0.00974792 -0.00177222 0)
(-0.00956351 -0.00152207 0)
(-0.00920353 -0.000825035 0)
(-0.00838269 0.000385683 0)
(-0.00699237 0.00176509 0)
(-0.00555748 0.00239291 0)
(-0.00437615 0.00183626 0)
(-0.00328715 0.000322237 0)
(-0.00222371 -0.00166935 0)
(-0.00152439 -0.00314438 0)
(-0.000916128 -0.00382639 0)
(-0.000231255 -0.00401667 0)
(0.00065317 -0.00395313 0)
(0.0015424 -0.00366265 0)
(0.00244911 -0.00324909 0)
(0.00331673 -0.00279644 0)
(0.00411091 -0.00235843 0)
(0.00481182 -0.00194862 0)
(0.00541072 -0.0015671 0)
(0.00590378 -0.00121048 0)
(0.00628805 -0.000875251 0)
(0.00656085 -0.000560182 0)
(0.006719 -0.000267265 0)
(0.00676485 -2.17569e-06 0)
(0.00669058 0.000238896 0)
(0.00649807 0.000454415 0)
(0.00619648 0.000642715 0)
(0.00579228 0.000800949 0)
(0.00528666 0.000922631 0)
(0.00465861 0.00100674 0)
(0.0038528 0.00124293 0)
(0.00273304 0.00320218 0)
(0.00267596 0.00878719 0)
(-0.00233057 0.013067 0)
(-0.00385927 0.00916765 0)
(-0.00604926 0.00695683 0)
(-0.00772438 0.00569132 0)
(-0.00922138 0.00480304 0)
(-0.0105202 0.00406239 0)
(-0.0116191 0.00336164 0)
(-0.0125091 0.00265124 0)
(-0.0131795 0.00191083 0)
(-0.0136202 0.00113583 0)
(-0.0138219 0.000331096 0)
(-0.0137749 -0.000491894 0)
(-0.0134867 -0.0013147 0)
(-0.0129665 -0.00210908 0)
(-0.0122285 -0.0028454 0)
(-0.0112973 -0.00349612 0)
(-0.0102038 -0.00403853 0)
(-0.00898461 -0.00445649 0)
(-0.00767896 -0.00474223 0)
(-0.00632495 -0.00489777 0)
(-0.00495756 -0.0049318 0)
(-0.00361037 -0.00485872 0)
(-0.00231665 -0.00470002 0)
(-0.00109956 -0.00447781 0)
(8.91941e-05 -0.00416671 0)
(0.00107333 -0.00379382 0)
(0.00196993 -0.00336329 0)
(0.00279384 -0.00292723 0)
(0.00352355 -0.00250025 0)
(0.00414873 -0.00208472 0)
(0.00466544 -0.00168109 0)
(0.00507288 -0.00129046 0)
(0.00537184 -0.000914944 0)
(0.00556356 -0.000557649 0)
(0.00564864 -0.000222695 0)
(0.0056284 8.45882e-05 0)
(0.00550251 0.000360242 0)
(0.00526785 0.000605235 0)
(0.00492408 0.000825325 0)
(0.00447787 0.00104 0)
(0.00396037 0.001297 0)
(0.00346214 0.00165776 0)
(0.00311561 0.0020524 0)
(0.0029218 0.00208587 0)
(0.00259114 0.00149686 0)
(0.00180851 0.000898936 0)
(0.000173715 0.00163432 0)
(-0.000233507 0.0103932 0)
(-0.00380039 0.0113884 0)
(-0.00544459 0.00608053 0)
(-0.00678697 0.00308488 0)
(-0.00776949 0.00187897 0)
(-0.00847624 0.00148468 0)
(-0.00898 0.0013176 0)
(-0.00935324 0.00115253 0)
(-0.00964879 0.000939488 0)
(-0.00989393 0.000689029 0)
(-0.0100961 0.000421213 0)
(-0.0102525 0.000149735 0)
(-0.0103598 -0.000118991 0)
(-0.0104169 -0.000383945 0)
(-0.0104305 -0.00064765 0)
(-0.0104097 -0.000910204 0)
(-0.010364 -0.00116817 0)
(-0.0103044 -0.00141378 0)
(-0.0102413 -0.00163176 0)
(-0.0101806 -0.00179476 0)
(-0.0101138 -0.001858 0)
(-0.00999349 -0.00175832 0)
(-0.0096933 -0.00143434 0)
(-0.00900518 -0.000895031 0)
(-0.00776731 -0.000307195 0)
(-0.00607577 -1.25787e-05 0)
(-0.00431151 -0.000503221 0)
(-0.00278689 -0.00169891 0)
(-0.00171598 -0.00289947 0)
(-0.00104699 -0.00384454 0)
(-0.000514863 -0.00443164 0)
(8.77019e-05 -0.00472174 0)
(0.000829283 -0.00474256 0)
(0.00163348 -0.0044972 0)
(0.00244656 -0.00406354 0)
(0.00321544 -0.00355721 0)
(0.00391822 -0.00304247 0)
(0.0045428 -0.00254355 0)
(0.0050826 -0.00206591 0)
(0.00553294 -0.0016089 0)
(0.00588937 -0.00116997 0)
(0.00614723 -0.000747188 0)
(0.00630158 -0.000341099 0)
(0.00634689 4.50193e-05 0)
(0.0062719 0.000402921 0)
(0.00607792 0.00073232 0)
(0.00576454 0.001031 0)
(0.0053327 0.00129746 0)
(0.00478161 0.00153374 0)
(0.00409972 0.00175625 0)
(0.00327035 0.00212735 0)
(0.00205178 0.00424774 0)
(0.00217837 0.0110629 0)
(-0.00197915 0.0157278 0)
(-0.0032717 0.0112613 0)
(-0.00526134 0.00873147 0)
(-0.00679886 0.00725704 0)
(-0.00823041 0.00618282 0)
(-0.00949262 0.005253 0)
(-0.010571 0.00435135 0)
(-0.0114482 0.00342697 0)
(-0.0121102 0.00246065 0)
(-0.012545 0.0014502 0)
(-0.0127412 0.000403957 0)
(-0.0126873 -0.000661747 0)
(-0.0123928 -0.0017226 0)
(-0.0118668 -0.00274251 0)
(-0.0111249 -0.00368361 0)
(-0.0101935 -0.00451049 0)
(-0.009106 -0.00519452 0)
(-0.0079007 -0.00571528 0)
(-0.00661899 -0.00606361 0)
(-0.00529897 -0.00624461 0)
(-0.00397606 -0.00627172 0)
(-0.00268479 -0.00616489 0)
(-0.00145428 -0.00594825 0)
(-0.000269706 -0.00562467 0)
(0.000800275 -0.00520233 0)
(0.00173814 -0.00472624 0)
(0.00260705 -0.00421183 0)
(0.00339092 -0.00368593 0)
(0.00408183 -0.00316073 0)
(0.00467435 -0.00264208 0)
(0.00516537 -0.00213346 0)
(0.00555376 -0.00163763 0)
(0.00583957 -0.00115744 0)
(0.00602322 -0.000696109 0)
(0.00610449 -0.000257461 0)
(0.00608421 0.000154353 0)
(0.00596184 0.000536332 0)
(0.00573599 0.000887782 0)
(0.00540838 0.00121123 0)
(0.00498689 0.00151445 0)
(0.00449262 0.00181299 0)
(0.00397444 0.00212036 0)
(0.00350322 0.00238837 0)
(0.00307411 0.0024374 0)
(0.00250834 0.00217999 0)
(0.00166957 0.00194642 0)
(3.88121e-05 0.0028662 0)
(-6.45105e-05 0.0119163 0)
(-0.0029495 0.013811 0)
(-0.0046635 0.007782 0)
(-0.00607089 0.00428755 0)
(-0.00710607 0.00275152 0)
(-0.00786532 0.00211795 0)
(-0.00843179 0.00178402 0)
(-0.00886696 0.00150992 0)
(-0.00921328 0.00122507 0)
(-0.00949459 0.000920037 0)
(-0.00972123 0.000602454 0)
(-0.00989583 0.00028167 0)
(-0.0100204 -3.54861e-05 0)
(-0.0100991 -0.00034508 0)
(-0.0101353 -0.000646591 0)
(-0.0101369 -0.000939277 0)
(-0.0101102 -0.00121906 0)
(-0.0100611 -0.00147885 0)
(-0.00999286 -0.00170671 0)
(-0.00990248 -0.00188386 0)
(-0.00977425 -0.00198353 0)
(-0.00956718 -0.00197399 0)
(-0.00920154 -0.00183637 0)
(-0.00856852 -0.00160826 0)
(-0.00758566 -0.00142713 0)
(-0.00628507 -0.00149613 0)
(-0.00486225 -0.00196207 0)
(-0.00357008 -0.00277874 0)
(-0.0025257 -0.00370571 0)
(-0.00167647 -0.00451415 0)
(-0.000913457 -0.00510509 0)
(-0.000161822 -0.00546054 0)
(0.000685788 -0.00555927 0)
(0.00152126 -0.00532647 0)
(0.00230488 -0.00483559 0)
(0.00301415 -0.00425867 0)
(0.00365059 -0.0036691 0)
(0.00421263 -0.00309239 0)
(0.00469857 -0.0025342 0)
(0.00510553 -0.00199323 0)
(0.0054296 -0.00146604 0)
(0.00566577 -0.000949548 0)
(0.0058077 -0.000443338 0)
(0.00584996 4.89146e-05 0)
(0.00577919 0.000524465 0)
(0.00559145 0.000975726 0)
(0.00528419 0.0013971 0)
(0.00485693 0.00178673 0)
(0.00431009 0.00215008 0)
(0.00364019 0.00250993 0)
(0.00287618 0.00300006 0)
(0.00165384 0.00512829 0)
(0.00182659 0.0127822 0)
(-0.00169745 0.0179693 0)
(-0.00279623 0.0130662 0)
(-0.00459804 0.0103244 0)
(-0.00599033 0.00871169 0)
(-0.00732844 0.00749391 0)
(-0.00851874 0.00639956 0)
(-0.00954286 0.00531238 0)
(-0.0103792 0.00418502 0)
(-0.0110108 0.00300128 0)
(-0.0114234 0.00176135 0)
(-0.0116017 0.000476222 0)
(-0.0115307 -0.000833145 0)
(-0.0112228 -0.00213309 0)
(-0.0106866 -0.0033779 0)
(-0.00993853 -0.00452115 0)
(-0.00900758 -0.00551883 0)
(-0.00792908 -0.00633698 0)
(-0.00674294 -0.00695091 0)
(-0.00549276 -0.00735068 0)
(-0.00421615 -0.0075471 0)
(-0.00294897 -0.00755964 0)
(-0.00172512 -0.00741266 0)
(-0.000552304 -0.00712258 0)
(0.000565498 -0.00668836 0)
(0.00152976 -0.00618249 0)
(0.00243441 -0.00561568 0)
(0.00325793 -0.00501683 0)
(0.00399485 -0.00440205 0)
(0.00464155 -0.00378273 0)
(0.00519488 -0.00316667 0)
(0.00565284 -0.00255913 0)
(0.00601457 -0.00196395 0)
(0.00627992 -0.00138446 0)
(0.00644895 -0.000823938 0)
(0.00652116 -0.000285881 0)
(0.00649732 0.00022601 0)
(0.00637693 0.000708419 0)
(0.00615944 0.00115918 0)
(0.00584683 0.0015776 0)
(0.00544546 0.0019642 0)
(0.00496797 0.00232007 0)
(0.00443767 0.00264124 0)
(0.00388364 0.00289768 0)
(0.00329628 0.00301616 0)
(0.00258376 0.00297987 0)
(0.00171431 0.00299725 0)
(0.000117626 0.0040028 0)
(0.000258233 0.0127767 0)
(-0.00203422 0.0161024 0)
(-0.00390691 0.00950679 0)
(-0.00539853 0.00553367 0)
(-0.00649267 0.00366787 0)
(-0.00729752 0.00280426 0)
(-0.00791246 0.00231149 0)
(-0.00839493 0.00192642 0)
(-0.00878176 0.0015609 0)
(-0.0090944 0.001192 0)
(-0.00934463 0.000818618 0)
(-0.00953826 0.000446112 0)
(-0.00967992 8.03262e-05 0)
(-0.0097759 -0.000274176 0)
(-0.00982937 -0.000614874 0)
(-0.00984765 -0.000941252 0)
(-0.0098348 -0.00125044 0)
(-0.00979357 -0.00153801 0)
(-0.00972315 -0.00179718 0)
(-0.00961648 -0.00201827 0)
(-0.0094561 -0.00218919 0)
(-0.00920818 -0.00229922 0)
(-0.00881971 -0.00235017 0)
(-0.0082308 -0.00237615 0)
(-0.007408 -0.00245727 0)
(-0.00638219 -0.00270317 0)
(-0.00525652 -0.00319033 0)
(-0.00415431 -0.00388227 0)
(-0.0031428 -0.00464772 0)
(-0.00221508 -0.00535993 0)
(-0.0013302 -0.00593037 0)
(-0.000469308 -0.00630689 0)
(0.000442889 -0.00642951 0)
(0.00132874 -0.00616597 0)
(0.00209983 -0.00557213 0)
(0.00276637 -0.00490566 0)
(0.00335284 -0.00423851 0)
(0.00386454 -0.0035877 0)
(0.00430357 -0.00295489 0)
(0.00466924 -0.00233695 0)
(0.00495927 -0.001729 0)
(0.0051699 -0.00112615 0)
(0.00529551 -0.00052581 0)
(0.00532997 7.03728e-05 0)
(0.00526006 0.00065602 0)
(0.00508012 0.00122192 0)
(0.00478712 0.00175992 0)
(0.00438132 0.00226625 0)
(0.00386528 0.00274642 0)
(0.00323655 0.00322449 0)
(0.00256021 0.00381462 0)
(0.00138011 0.00592534 0)
(0.0015593 0.014182 0)
(-0.00146657 0.0198941 0)
(-0.0024002 0.0146397 0)
(-0.00402281 0.0117481 0)
(-0.00526343 0.0100394 0)
(-0.00648705 0.00870704 0)
(-0.00757899 0.00746908 0)
(-0.008523 0.00621263 0)
(-0.00929517 0.0048954 0)
(-0.00987692 0.00350455 0)
(-0.0102511 0.00204272 0)
(-0.0103983 0.000524025 0)
(-0.0102991 -0.0010248 0)
(-0.00997145 -0.00255928 0)
(-0.0094213 -0.00402366 0)
(-0.00866601 -0.00536257 0)
(-0.0077378 -0.00652161 0)
(-0.00667315 -0.00746321 0)
(-0.00551327 -0.00815765 0)
(-0.00430452 -0.00859591 0)
(-0.00308263 -0.0087979 0)
(-0.00188257 -0.0087875 0)
(-0.000728801 -0.00858721 0)
(0.000394169 -0.0081976 0)
(0.00137411 -0.00769439 0)
(0.00229824 -0.00710112 0)
(0.00314802 -0.00645361 0)
(0.00391617 -0.00577127 0)
(0.00459957 -0.00506938 0)
(0.0051961 -0.00436004 0)
(0.00570418 -0.00365213 0)
(0.0061229 -0.00295185 0)
(0.00645189 -0.00226367 0)
(0.00669108 -0.00159113 0)
(0.00684037 -0.000937439 0)
(0.00689908 -0.000305868 0)
(0.00686797 0.000300073 0)
(0.00674606 0.000876664 0)
(0.00653297 0.00142054 0)
(0.00622993 0.00192882 0)
(0.00584076 0.00239817 0)
(0.00537182 0.00282415 0)
(0.00483264 0.0031988 0)
(0.00423244 0.00350466 0)
(0.0035618 0.0037141 0)
(0.00277417 0.00383846 0)
(0.00188825 0.00403373 0)
(0.000399638 0.00507257 0)
(0.000586408 0.0131788 0)
(-0.00111004 0.0182592 0)
(-0.00315091 0.0113302 0)
(-0.00474767 0.00685332 0)
(-0.00591169 0.00463528 0)
(-0.00676413 0.00353428 0)
(-0.00742138 0.00288048 0)
(-0.00794151 0.00237973 0)
(-0.00836032 0.00192591 0)
(-0.00869857 0.00148493 0)
(-0.008969 0.00104921 0)
(-0.00917939 0.000621064 0)
(-0.00933608 0.00020521 0)
(-0.00944674 -0.00019377 0)
(-0.00951506 -0.000573009 0)
(-0.0095474 -0.000933305 0)
(-0.00954715 -0.00127372 0)
(-0.00951524 -0.0015926 0)
(-0.00944906 -0.00188777 0)
(-0.00934039 -0.00215642 0)
(-0.00917339 -0.00239606 0)
(-0.00892229 -0.00260762 0)
(-0.00855218 -0.00280233 0)
(-0.00802841 -0.0030104 0)
(-0.00733504 -0.0032827 0)
(-0.00649202 -0.00367554 0)
(-0.00555392 -0.00421877 0)
(-0.00458304 -0.00488633 0)
(-0.00361822 -0.00560367 0)
(-0.00266682 -0.00628346 0)
(-0.00172032 -0.00684618 0)
(-0.000782785 -0.00722519 0)
(0.000153437 -0.0073403 0)
(0.00108652 -0.00701916 0)
(0.00185648 -0.00628468 0)
(0.00249306 -0.00551284 0)
(0.00304469 -0.00476488 0)
(0.00351902 -0.00404061 0)
(0.00391983 -0.00333557 0)
(0.00424844 -0.00264487 0)
(0.00450482 -0.00196244 0)
(0.00468771 -0.00128129 0)
(0.00479365 -0.000596097 0)
(0.00481658 9.34005e-05 0)
(0.00474557 0.000781173 0)
(0.00457413 0.00145425 0)
(0.00429968 0.00210051 0)
(0.00392407 0.00271329 0)
(0.00345187 0.00329701 0)
(0.00287679 0.00387638 0)
(0.00229313 0.00455506 0)
(0.00118056 0.00666413 0)
(0.00135055 0.0153851 0)
(-0.00127478 0.0215633 0)
(-0.00206296 0.0160147 0)
(-0.0035106 0.0130085 0)
(-0.00459315 0.0112282 0)
(-0.00568659 0.00980143 0)
(-0.00666081 0.00843826 0)
(-0.00750501 0.00702991 0)
(-0.00819417 0.00553889 0)
(-0.00870891 0.00395505 0)
(-0.00902981 0.00228288 0)
(-0.00913271 0.000539387 0)
(-0.00899362 -0.00124252 0)
(-0.00864009 -0.00300441 0)
(-0.00807311 -0.00468025 0)
(-0.00731042 -0.00620616 0)
(-0.00638903 -0.00751376 0)
(-0.00534414 -0.00856595 0)
(-0.00421996 -0.00932603 0)
(-0.00306437 -0.00978993 0)
(-0.00190969 -0.00998791 0)
(-0.000782033 -0.00994104 0)
(0.000315902 -0.00965847 0)
(0.00129719 -0.00920557 0)
(0.00222358 -0.00862486 0)
(0.00308384 -0.00795808 0)
(0.00386865 -0.00723214 0)
(0.0045737 -0.00646771 0)
(0.00519688 -0.00568154 0)
(0.00573725 -0.00488665 0)
(0.00619449 -0.00409255 0)
(0.00656869 -0.00330591 0)
(0.00686003 -0.00253139 0)
(0.00706863 -0.00177247 0)
(0.0071943 -0.00103214 0)
(0.00723617 -0.000313345 0)
(0.00719473 0.000380583 0)
(0.00706841 0.00104539 0)
(0.0068565 0.00167699 0)
(0.00655914 0.0022714 0)
(0.00617787 0.00282366 0)
(0.00571493 0.00332772 0)
(0.00517307 0.0037758 0)
(0.00455343 0.00415779 0)
(0.00384879 0.00446478 0)
(0.00303449 0.00471807 0)
(0.00214777 0.00504805 0)
(0.000821691 0.00609668 0)
(0.000828397 0.0133357 0)
(-0.000219913 0.0201436 0)
(-0.00236537 0.0132954 0)
(-0.00411506 0.00826139 0)
(-0.00535059 0.00566257 0)
(-0.00625409 0.00430927 0)
(-0.00695151 0.00348727 0)
(-0.00750372 0.00286532 0)
(-0.00794848 0.00231795 0)
(-0.00830747 0.0018003 0)
(-0.0085946 0.00129891 0)
(-0.00881926 0.000813271 0)
(-0.008989 0.000346723 0)
(-0.00911241 -9.69428e-05 0)
(-0.00919513 -0.00051546 0)
(-0.0092414 -0.00091055 0)
(-0.0092554 -0.00128406 0)
(-0.00923711 -0.00163741 0)
(-0.00918336 -0.00197264 0)
(-0.00908613 -0.00229242 0)
(-0.00893161 -0.00260085 0)
(-0.00869995 -0.00290533 0)
(-0.0083671 -0.00322001 0)
(-0.00791106 -0.00356901 0)
(-0.00732181 -0.00398458 0)
(-0.00660884 -0.00449654 0)
(-0.00579889 -0.00511473 0)
(-0.0049233 -0.00581626 0)
(-0.0040049 -0.00654797 0)
(-0.00305488 -0.00723917 0)
(-0.00208059 -0.00781214 0)
(-0.00110023 -0.00818767 0)
(-0.000148824 -0.00827806 0)
(0.000805061 -0.00788476 0)
(0.00158717 -0.0069853 0)
(0.00220593 -0.00609474 0)
(0.00273604 -0.00526205 0)
(0.00318568 -0.00446185 0)
(0.00355778 -0.00368294 0)
(0.00385514 -0.00291971 0)
(0.00408024 -0.00216573 0)
(0.00423502 -0.00141198 0)
(0.00431925 -0.000649666 0)
(0.00432875 0.000124418 0)
(0.00425535 0.000904286 0)
(0.00409197 0.00167322 0)
(0.00383777 0.00241485 0)
(0.00349654 0.0031198 0)
(0.00307429 0.00379207 0)
(0.00255756 0.00445816 0)
(0.00206425 0.00521723 0)
(0.00103193 0.0073435 0)
(0.00118532 0.0164426 0)
(-0.0011131 0.0230129 0)
(-0.00176909 0.0172082 0)
(-0.00304451 0.0141064 0)
(-0.00396426 0.012269 0)
(-0.00491649 0.0107626 0)
(-0.00575908 0.00929038 0)
(-0.00648862 0.00774699 0)
(-0.00707969 0.00609869 0)
(-0.00751302 0.00433702 0)
(-0.00776726 0.00246755 0)
(-0.00781279 0.000510222 0)
(-0.00762124 -0.00149534 0)
(-0.00723629 -0.00347331 0)
(-0.00665059 -0.00534828 0)
(-0.00588072 -0.00705007 0)
(-0.00497231 -0.00848874 0)
(-0.00395362 -0.00963687 0)
(-0.00287708 -0.0104456 0)
(-0.00178816 -0.0109226 0)
(-0.000706422 -0.0111028 0)
(0.000356997 -0.0109925 0)
(0.00131745 -0.0106494 0)
(0.00223171 -0.0101313 0)
(0.00308697 -0.00948495 0)
(0.00387355 -0.00874604 0)
(0.00458573 -0.00794301 0)
(0.00522063 -0.00709898 0)
(0.00577729 -0.00623233 0)
(0.00625595 -0.00535695 0)
(0.00665743 -0.0044828 0)
(0.00698269 -0.00361665 0)
(0.00723248 -0.002763 0)
(0.00740714 -0.00192497 0)
(0.00750644 -0.00110508 0)
(0.00752927 -0.000305891 0)
(0.00747563 0.000469572 0)
(0.00734316 0.00121669 0)
(0.00713069 0.00193104 0)
(0.00683737 0.00260813 0)
(0.00646305 0.00324251 0)
(0.00600745 0.00382796 0)
(0.00547013 0.00435771 0)
(0.00484934 0.00482537 0)
(0.00414022 0.00522919 0)
(0.00332934 0.00559234 0)
(0.00245412 0.00602986 0)
(0.00127341 0.00708032 0)
(0.0010172 0.0133672 0)
(0.000603857 0.0216817 0)
(-0.00154171 0.0154196 0)
(-0.00351193 0.00975887 0)
(-0.00480061 0.00675637 0)
(-0.00576079 0.00513135 0)
(-0.00649844 0.00412933 0)
(-0.0070798 0.00337797 0)
(-0.00754643 0.00273095 0)
(-0.00792229 0.00213215 0)
(-0.00822291 0.00156198 0)
(-0.00845937 0.00101707 0)
(-0.00864031 0.000499582 0)
(-0.00877479 1.22959e-05 0)
(-0.00887165 -0.000444464 0)
(-0.00893259 -0.00087315 0)
(-0.008963 -0.00127868 0)
(-0.0089625 -0.00166556 0)
(-0.00892786 -0.00203966 0)
(-0.00885168 -0.00240815 0)
(-0.00872206 -0.00277985 0)
(-0.008523 -0.00316618 0)
(-0.0082363 -0.00358241 0)
(-0.00784562 -0.00404803 0)
(-0.00734179 -0.00458411 0)
(-0.00672632 -0.00520595 0)
(-0.0060101 -0.00591328 0)
(-0.00520783 -0.00668295 0)
(-0.00433288 -0.00746809 0)
(-0.00339705 -0.00820175 0)
(-0.00241588 -0.00880131 0)
(-0.00141747 -0.00917414 0)
(-0.000455479 -0.00922496 0)
(0.000486738 -0.00875922 0)
(0.0012952 -0.0076873 0)
(0.00190925 -0.00666467 0)
(0.00242849 -0.00574265 0)
(0.00286514 -0.0048621 0)
(0.00321856 -0.00400482 0)
(0.00349205 -0.00316614 0)
(0.00369024 -0.0023407 0)
(0.00381862 -0.00151808 0)
(0.00388118 -0.000685441 0)
(0.00387607 0.000164656 0)
(0.00379922 0.00102589 0)
(0.00364363 0.00187805 0)
(0.00341048 0.00270064 0)
(0.0031054 0.00348249 0)
(0.00273525 0.00422885 0)
(0.00227696 0.00496958 0)
(0.00186669 0.00580299 0)
(0.000917444 0.0079619 0)
(0.00105228 0.0173827 0)
(-0.000974704 0.0242681 0)
(-0.00150752 0.0182311 0)
(-0.00261396 0.0150418 0)
(-0.00336872 0.0131553 0)
(-0.004173 0.0115806 0)
(-0.00487452 0.0100135 0)
(-0.00547857 0.00835075 0)
(-0.00595988 0.00656125 0)
(-0.00630078 0.00463711 0)
(-0.00647795 0.00258388 0)
(-0.00645419 0.000424956 0)
(-0.0061973 -0.00179211 0)
(-0.00577472 -0.00397061 0)
(-0.00516896 -0.00602666 0)
(-0.00439158 -0.00789037 0)
(-0.00350469 -0.00943846 0)
(-0.00251895 -0.0106666 0)
(-0.00150493 -0.011505 0)
(-0.000489661 -0.0119809 0)
(0.000524733 -0.0121178 0)
(0.00144866 -0.0119521 0)
(0.00233772 -0.0115556 0)
(0.00317461 -0.0109797 0)
(0.00394923 -0.0102679 0)
(0.00465481 -0.00945721 0)
(0.00528756 -0.00857902 0)
(0.00584607 -0.00765873 0)
(0.00633071 -0.00671617 0)
(0.00674292 -0.00576604 0)
(0.00708457 -0.00481855 0)
(0.00735744 -0.00388031 0)
(0.00756279 -0.00295534 0)
(0.00770119 -0.00204607 0)
(0.00777231 -0.00115431 0)
(0.00777482 -0.000281991 0)
(0.00770807 0.000568225 0)
(0.00756908 0.00139151 0)
(0.00735599 0.0021834 0)
(0.00706702 0.00293927 0)
(0.00670074 0.00365355 0)
(0.00625544 0.00432021 0)
(0.00572921 0.00493327 0)
(0.00511938 0.00548783 0)
(0.00442288 0.00598436 0)
(0.0036323 0.00644459 0)
(0.00277772 0.0069724 0)
(0.00171907 0.00802727 0)
(0.0012126 0.0134068 0)
(0.0012622 0.0227127 0)
(-0.000671632 0.0177574 0)
(-0.00291175 0.0113605 0)
(-0.00425111 0.00792582 0)
(-0.00528174 0.0060044 0)
(-0.00606117 0.00480642 0)
(-0.00667016 0.00391514 0)
(-0.00715579 0.00316179 0)
(-0.00754547 0.00247775 0)
(-0.00785691 0.00183653 0)
(-0.00810296 0.00123151 0)
(-0.0082937 0.000663422 0)
(-0.00843887 0.000133669 0)
(-0.00854843 -0.000359246 0)
(-0.00862462 -0.000819457 0)
(-0.00867296 -0.00125477 0)
(-0.00869318 -0.00167288 0)
(-0.00868225 -0.00208321 0)
(-0.00863322 -0.00249682 0)
(-0.00853537 -0.00292626 0)
(-0.00837487 -0.00338566 0)
(-0.00813639 -0.00389084 0)
(-0.00780577 -0.00445834 0)
(-0.00737305 -0.00510267 0)
(-0.00683432 -0.00583113 0)
(-0.00619139 -0.0066373 0)
(-0.00544967 -0.00749568 0)
(-0.00461679 -0.00835871 0)
(-0.00370404 -0.00915597 0)
(-0.00273123 -0.00979524 0)
(-0.00173313 -0.0101682 0)
(-0.000762831 -0.0101642 0)
(0.000133487 -0.00963564 0)
(0.000977238 -0.00840395 0)
(0.00160225 -0.00723371 0)
(0.00211782 -0.00621734 0)
(0.00255201 -0.00525179 0)
(0.00289747 -0.00431023 0)
(0.00315621 -0.0033908 0)
(0.00333411 -0.00249127 0)
(0.00343989 -0.0016012 0)
(0.00348226 -0.000703762 0)
(0.0034629 0.000213729 0)
(0.00338252 0.00114571 0)
(0.00323462 0.00206818 0)
(0.00302277 0.00295685 0)
(0.00275415 0.0038005 0)
(0.00243568 0.0046081 0)
(0.00203302 0.00541427 0)
(0.00169585 0.0063183 0)
(0.000826126 0.00852286 0)
(0.000943203 0.0182274 0)
(-0.000854765 0.0253489 0)
(-0.00127141 0.0190928 0)
(-0.00221362 0.0158161 0)
(-0.00280394 0.0138841 0)
(-0.00345751 0.0122497 0)
(-0.00401257 0.0105997 0)
(-0.00448401 0.00883182 0)
(-0.00484687 0.0069171 0)
(-0.00508712 0.00484788 0)
(-0.00517989 0.00262722 0)
(-0.00507629 0.000278635 0)
(-0.00474642 -0.00214093 0)
(-0.00427614 -0.00450068 0)
(-0.0036489 -0.0067116 0)
(-0.00286402 -0.00872093 0)
(-0.002009 -0.0103546 0)
(-0.00106445 -0.011646 0)
(-0.00012276 -0.0124938 0)
(0.000815109 -0.0129436 0)
(0.00169869 -0.0130322 0)
(0.00255081 -0.0128258 0)
(0.00335827 -0.0123799 0)
(0.00410932 -0.0117447 0)
(0.00479617 -0.0109663 0)
(0.00541426 -0.0100848 0)
(0.00596169 -0.00913406 0)
(0.00643866 -0.00814159 0)
(0.0068469 -0.00712847 0)
(0.00718902 -0.00611003 0)
(0.00746786 -0.00509655 0)
(0.00768595 -0.00409422 0)
(0.00784507 -0.00310627 0)
(0.00794595 -0.00213418 0)
(0.00798816 -0.00117875 0)
(0.00797013 -0.000241012 0)
(0.00789038 0.000676831 0)
(0.0077455 0.00156976 0)
(0.00753279 0.00243355 0)
(0.00724965 0.00326353 0)
(0.0068936 0.00405421 0)
(0.00646205 0.00479968 0)
(0.00595227 0.00549424 0)
(0.00536141 0.00613328 0)
(0.00468749 0.00671731 0)
(0.00392652 0.00726563 0)
(0.00309915 0.00787373 0)
(0.00214096 0.00894126 0)
(0.00143615 0.0135321 0)
(0.00172764 0.023295 0)
(0.000166342 0.0201079 0)
(-0.00230942 0.0130952 0)
(-0.00371712 0.00917889 0)
(-0.00482301 0.00693191 0)
(-0.00564339 0.00551847 0)
(-0.00627817 0.00447479 0)
(-0.00677999 0.00360774 0)
(-0.00718055 0.0028344 0)
(-0.00750008 0.00212018 0)
(-0.00775338 0.0014547 0)
(-0.00795202 0.000836953 0)
(-0.00810664 0.000266608 0)
(-0.00822827 -0.000259899 0)
(-0.00831973 -0.000748655 0)
(-0.00838671 -0.00121054 0)
(-0.00842913 -0.00165653 0)
(-0.00844401 -0.00209955 0)
(-0.00842463 -0.00255415 0)
(-0.00836077 -0.00303612 0)
(-0.00823961 -0.00356186 0)
(-0.00804706 -0.00414769 0)
(-0.00776966 -0.0048084 0)
(-0.00739655 -0.00555458 0)
(-0.00692062 -0.00638862 0)
(-0.00633867 -0.00729976 0)
(-0.00565097 -0.00825906 0)
(-0.00486154 -0.009215 0)
(-0.00398062 -0.0100899 0)
(-0.00302969 -0.0107787 0)
(-0.00204656 -0.0111551 0)