/*--------------------------------*- C++ -*----------------------------------*\
| =========                 |                                                 |
| \\      /  F ield         | OpenFOAM: The Open Source CFD Toolbox           |
|  \\    /   O peration     | Version:  4.1                                   |
|   \\  /    A nd           | Web:      www.OpenFOAM.org                      |
|    \\/     M anipulation  |                                                 |
\*---------------------------------------------------------------------------*/
FoamFile
{
    version     2.0;
    format      ascii;
    class       surfaceScalarField;
    location    "1540";
    object      phi;
}
// * * * * * * * * * * * * * * * * * * * * * * * * * * * * * * * * * * * * * //

dimensions      [0 3 -1 0 0 0 0];

internalField   nonuniform List<scalar> 
9850
(
-3.32716e-06
3.32716e-06
-2.87284e-06
-4.54316e-07
-1.53169e-06
-1.34115e-06
-6.17702e-07
-9.13991e-07
1.05501e-07
-7.23203e-07
8.61528e-07
-7.56027e-07
1.61144e-06
-7.49909e-07
2.14892e-06
-5.37483e-07
2.52119e-06
-3.72272e-07
2.7968e-06
-2.75606e-07
3.03941e-06
-2.42613e-07
3.30753e-06
-2.68123e-07
3.69276e-06
-3.85225e-07
4.29616e-06
-6.03405e-07
5.1023e-06
-8.06134e-07
5.92925e-06
-8.26954e-07
6.48784e-06
-5.58591e-07
6.22427e-06
2.63572e-07
4.64383e-06
1.58044e-06
1.20436e-06
3.43947e-06
-3.4896e-06
4.69396e-06
-7.17225e-06
3.68265e-06
-8.26309e-06
1.09084e-06
-6.98329e-06
-1.2798e-06
-4.88919e-06
-2.0941e-06
-3.30334e-06
-1.58584e-06
-2.11456e-06
-1.18878e-06
-1.0651e-06
-1.04946e-06
-4.92197e-09
-1.06018e-06
1.01764e-06
-1.02256e-06
1.97282e-06
-9.5518e-07
2.90042e-06
-9.27608e-07
3.81315e-06
-9.12725e-07
4.71448e-06
-9.0133e-07
5.60535e-06
-8.90868e-07
6.48564e-06
-8.80292e-07
7.35468e-06
-8.69036e-07
8.21143e-06
-8.56756e-07
9.05462e-06
-8.43188e-07
9.88272e-06
-8.28098e-07
1.0694e-05
-8.11279e-07
1.14866e-05
-7.92565e-07
1.22584e-05
-7.71829e-07
1.30074e-05
-7.48991e-07
1.37314e-05
-7.24016e-07
1.44283e-05
-6.96926e-07
1.50961e-05
-6.678e-07
1.57329e-05
-6.36768e-07
1.63369e-05
-6.04004e-07
1.69066e-05
-5.69711e-07
1.74407e-05
-5.34109e-07
1.79381e-05
-4.97424e-07
1.8398e-05
-4.59881e-07
1.88197e-05
-4.21696e-07
1.92028e-05
-3.83073e-07
1.9547e-05
-3.44201e-07
1.98522e-05
-3.05254e-07
2.01186e-05
-2.66391e-07
2.03464e-05
-2.27763e-07
2.05359e-05
-1.89519e-07
2.06877e-05
-1.51816e-07
2.08026e-05
-1.14842e-07
2.08814e-05
-7.88617e-08
2.09258e-05
-4.43314e-08
2.0938e-05
-1.22773e-08
2.09208e-05
1.72513e-08
2.0876e-05
4.47824e-08
2.0805e-05
7.09625e-08
2.07093e-05
9.57854e-08
2.05901e-05
1.1916e-07
2.04491e-05
1.41041e-07
2.02877e-05
1.61378e-07
2.01075e-05
1.80139e-07
1.99102e-05
1.97326e-07
1.96972e-05
2.12998e-07
1.94699e-05
2.27283e-07
1.92295e-05
2.40393e-07
1.89769e-05
2.52641e-07
1.87125e-05
2.64445e-07
1.84361e-05
2.7633e-07
1.81472e-05
2.88906e-07
1.78444e-05
3.02838e-07
1.75256e-05
3.18774e-07
1.71883e-05
3.37271e-07
1.68296e-05
3.5869e-07
1.64466e-05
3.83068e-07
1.60367e-05
4.09911e-07
1.55987e-05
4.3793e-07
1.51334e-05
4.65378e-07
1.46388e-05
4.94544e-07
1.40884e-05
5.5044e-07
1.3363e-05
7.25346e-07
1.21412e-05
1.22178e-06
9.90453e-06
2.23672e-06
6.46281e-06
3.44172e-06
2.91935e-06
3.54346e-06
9.23257e-07
1.99609e-06
6.12106e-07
3.11151e-07
1.26516e-06
-6.53055e-07
1.26516e-06
-2.07834e-06
5.4055e-06
-1.69292e-06
-8.39738e-07
-1.01746e-06
-2.0166e-06
-2.71647e-07
-1.65981e-06
3.96977e-07
-1.39183e-06
8.35575e-07
-1.19463e-06
1.04218e-06
-9.56512e-07
1.15836e-06
-6.53665e-07
1.18405e-06
-3.97964e-07
1.1584e-06
-2.49952e-07
1.1483e-06
-2.32516e-07
1.20551e-06
-3.25337e-07
1.38756e-06
-5.67266e-07
1.69473e-06
-9.10581e-07
2.05513e-06
-1.16653e-06
2.33478e-06
-1.1066e-06
2.22128e-06
-4.45087e-07
1.47493e-06
1.00992e-06
8.9158e-08
2.96621e-06
-1.75895e-06
5.28758e-06
-3.32171e-06
6.25671e-06
-4.53267e-06
4.89361e-06
-4.7554e-06
1.31357e-06
-3.43826e-06
-2.59693e-06
-2.30794e-06
-3.22443e-06
-1.24071e-06
-2.65307e-06
-1.4198e-07
-2.28752e-06
9.23325e-07
-2.11476e-06
1.88426e-06
-2.02112e-06
2.82199e-06
-1.96029e-06
3.77306e-06
-1.90625e-06
4.71265e-06
-1.8672e-06
5.63949e-06
-1.83957e-06
6.55475e-06
-1.81658e-06
7.4588e-06
-1.79492e-06
8.35151e-06
-1.77301e-06
9.23238e-06
-1.74991e-06
1.01006e-05
-1.72495e-06
1.0955e-05
-1.69762e-06
1.17944e-05
-1.66749e-06
1.26173e-05
-1.63417e-06
1.34221e-05
-1.59735e-06
1.4207e-05
-1.55679e-06
1.49704e-05
-1.51235e-06
1.57104e-05
-1.46398e-06
1.64252e-05
-1.41172e-06
1.71131e-05
-1.35575e-06
1.77726e-05
-1.2963e-06
1.84023e-05
-1.23371e-06
1.9001e-05
-1.16837e-06
1.95676e-05
-1.10069e-06
2.01013e-05
-1.03113e-06
2.06015e-05
-9.601e-07
2.10678e-05
-8.8804e-07
2.15001e-05
-8.15346e-07
2.18983e-05
-7.42391e-07
2.22626e-05
-6.69518e-07
2.25932e-05
-5.97047e-07
2.28907e-05
-5.25279e-07
2.31557e-05
-4.54503e-07
2.33889e-05
-3.85012e-07
2.35912e-05
-3.17118e-07
2.37635e-05
-2.51166e-07
2.39067e-05
-1.87542e-07
2.4021e-05
-1.26597e-07
2.41064e-05
-6.8156e-08
2.41638e-05
-1.25808e-08
2.41946e-05
4.02043e-08
2.42002e-05
9.01423e-08
2.41822e-05
1.37173e-07
2.4142e-05
1.81204e-07
2.40812e-05
2.22179e-07
2.40013e-05
2.6011e-07
2.39035e-05
2.95117e-07
2.3789e-05
3.27463e-07
2.36587e-05
3.57594e-07
2.35129e-05
3.86171e-07
2.33515e-05
4.141e-07
2.31734e-05
4.42539e-07
2.29768e-05
4.72887e-07
2.2759e-05
5.06738e-07
2.2516e-05
5.45788e-07
2.22431e-05
5.91699e-07
2.19344e-05
6.45931e-07
2.15835e-05
7.0959e-07
2.11833e-05
7.83342e-07
2.07257e-05
8.67517e-07
2.02008e-05
9.6277e-07
1.95935e-05
1.07266e-06
1.88757e-05
1.21238e-06
1.79935e-05
1.43266e-06
1.68536e-05
1.86517e-06
1.53275e-05
2.74793e-06
1.32999e-05
4.26428e-06
1.0699e-05
6.04264e-06
7.35546e-06
6.88701e-06
3.59482e-06
5.75673e-06
8.78425e-07
3.02755e-06
-4.56607e-07
6.81977e-07
8.08555e-07
-1.29601e-06
6.70151e-06
-1.0544e-06
-1.08135e-06
-6.55593e-07
-2.4154e-06
-2.32244e-07
-2.08316e-06
1.21729e-07
-1.7458e-06
3.30228e-07
-1.40313e-06
3.64273e-07
-9.90557e-07
2.84559e-07
-5.7395e-07
1.35784e-07
-2.49189e-07
-6.39709e-08
-5.01971e-08
-3.15571e-07
1.90841e-08
-5.75807e-07
-6.51015e-08
-8.39497e-07
-3.03576e-07
-1.18639e-06
-5.63685e-07
-1.67403e-06
-6.789e-07
-2.31169e-06
-4.68941e-07
-2.96932e-06
2.12542e-07
-3.37054e-06
1.41115e-06
-3.52283e-06
3.1185e-06
-3.19662e-06
4.96137e-06
-2.65007e-06
5.71016e-06
-2.08254e-06
4.32609e-06
-1.0616e-06
2.92623e-07
-4.3322e-07
-3.22531e-06
-8.7229e-08
-3.57042e-06
6.22503e-07
-3.3628e-06
1.52988e-06
-3.19489e-06
2.4767e-06
-3.06158e-06
3.42338e-06
-2.96779e-06
4.36203e-06
-2.89894e-06
5.29791e-06
-2.84213e-06
6.22502e-06
-2.79431e-06
7.13898e-06
-2.75353e-06
8.03864e-06
-2.71624e-06
8.92351e-06
-2.67979e-06
9.79312e-06
-2.64262e-06
1.06469e-05
-2.60371e-06
1.14843e-05
-2.56229e-06
1.23043e-05
-2.51768e-06
1.31061e-05
-2.46932e-06
1.38887e-05
-2.41668e-06
1.46506e-05
-2.35933e-06
1.53908e-05
-2.29693e-06
1.61077e-05
-2.22928e-06
1.68e-05
-2.1563e-06
1.74664e-05
-2.07805e-06
1.81054e-05
-1.99474e-06
1.87158e-05
-1.90671e-06
1.92965e-05
-1.81441e-06
1.98465e-05
-1.71836e-06
2.03649e-05
-1.61914e-06
2.08511e-05
-1.51736e-06
2.13047e-05
-1.41362e-06
2.17251e-05
-1.3085e-06
2.21123e-05
-1.20256e-06
2.24662e-05
-1.09631e-06
2.2787e-05
-9.90244e-07
2.30747e-05
-8.84816e-07
2.33299e-05
-7.80458e-07
2.3553e-05
-6.77589e-07
2.37446e-05
-5.76633e-07
2.39055e-05
-4.78024e-07
2.40366e-05
-3.82214e-07
2.41387e-05
-2.89661e-07
2.42129e-05
-2.00786e-07
2.42606e-05
-1.15878e-07
2.42832e-05
-3.51511e-08
2.4282e-05
4.1352e-08
2.42586e-05
1.1355e-07
2.42144e-05
1.81389e-07
2.41508e-05
2.44789e-07
2.40693e-05
3.03724e-07
2.39711e-05
3.58273e-07
2.38576e-05
4.08672e-07
2.37297e-05
4.55361e-07
2.35882e-05
4.99042e-07
2.34337e-05
5.40729e-07
2.3266e-05
5.81806e-07
2.30844e-05
6.24055e-07
2.28877e-05
6.69675e-07
2.26731e-05
7.21247e-07
2.24373e-05
7.81637e-07
2.21752e-05
8.53841e-07
2.18803e-05
9.4077e-07
2.15448e-05
1.04507e-06
2.11591e-05
1.16903e-06
2.07118e-05
1.31492e-06
2.01885e-05
1.48604e-06
1.95711e-05
1.69003e-06
1.88357e-05
1.94777e-06
1.79527e-05
2.31572e-06
1.68886e-05
2.92922e-06
1.5602e-05
4.03451e-06
1.40189e-05
5.84744e-06
1.20043e-05
8.05723e-06
9.3872e-06
9.50411e-06
6.17702e-06
8.96691e-06
2.84756e-06
6.35701e-06
3.33589e-07
3.19595e-06
1.14214e-06
-9.92836e-07
7.69434e-06
-7.50942e-07
-1.32325e-06
-5.45974e-07
-2.62037e-06
-3.74202e-07
-2.25493e-06
-2.82966e-07
-1.83704e-06
-3.27689e-07
-1.3584e-06
-5.15084e-07
-8.03163e-07
-8.28927e-07
-2.60107e-07
-1.2879e-06
2.09781e-07
-1.83381e-06
4.95712e-07
-2.39051e-06
5.75789e-07
-2.95512e-06
4.99508e-07
-3.58903e-06
3.3033e-07
-4.30995e-06
1.57243e-07
-5.06172e-06
7.28622e-08
-5.70185e-06
1.71191e-07
-6.05228e-06
5.62972e-07
-5.98255e-06
1.34142e-06
-5.33045e-06
2.4664e-06
-3.96266e-06
3.59359e-06
-2.16825e-06
3.91574e-06
-3.52106e-07
2.50994e-06
1.23836e-06
-1.29785e-06
1.44101e-06
-3.42796e-06
1.84333e-06
-3.97275e-06
2.52321e-06
-4.04267e-06
3.32898e-06
-4.00066e-06
4.2018e-06
-3.93441e-06
5.10224e-06
-3.86822e-06
6.01056e-06
-3.80726e-06
6.91846e-06
-3.75003e-06
7.8195e-06
-3.69535e-06
8.70846e-06
-3.6425e-06
9.58231e-06
-3.59008e-06
1.04392e-05
-3.5367e-06
1.12779e-05
-3.48134e-06
1.20975e-05
-3.42327e-06
1.28971e-05
-3.36184e-06
1.36759e-05
-3.29649e-06
1.44332e-05
-3.22662e-06
1.51682e-05
-3.15172e-06
1.58802e-05
-3.07132e-06
1.65683e-05
-2.98503e-06
1.72316e-05
-2.89261e-06
1.78693e-05
-2.79397e-06
1.84804e-05
-2.68917e-06
1.90641e-05
-2.57846e-06
1.96197e-05
-2.46222e-06
2.01462e-05
-2.34098e-06
2.06432e-05
-2.21534e-06
2.111e-05
-2.08598e-06
2.15463e-05
-1.95359e-06
2.19515e-05
-1.81888e-06
2.23255e-05
-1.68251e-06
2.26681e-05
-1.54512e-06
2.29791e-05
-1.40732e-06
2.32585e-05
-1.26965e-06
2.35063e-05
-1.13265e-06
2.37227e-05
-9.96817e-07
2.39078e-05
-8.6267e-07
2.40619e-05
-7.30723e-07
2.41854e-05
-6.01519e-07
2.42788e-05
-4.75632e-07
2.43428e-05
-3.53654e-07
2.43782e-05
-2.36176e-07
2.4386e-05
-1.23742e-07
2.43676e-05
-1.67544e-08
2.43244e-05
8.46369e-08
2.42576e-05
1.80326e-07
2.41688e-05
2.7017e-07
2.40595e-05
3.54049e-07
2.39313e-05
4.31937e-07
2.37856e-05
5.03959e-07
2.36239e-05
5.70445e-07
2.34472e-05
6.31983e-07
2.32568e-05
6.89482e-07
2.30533e-05
7.44239e-07
2.28371e-05
7.98009e-07
2.26081e-05
8.53074e-07
2.23655e-05
9.1229e-07
2.21076e-05
9.79105e-07
2.18317e-05
1.0575e-06
2.15337e-05
1.15188e-06
2.12076e-05
1.26684e-06
2.08457e-05
1.40694e-06
2.04382e-05
1.57658e-06
1.99729e-05
1.78017e-06
1.94358e-05
2.02316e-06
1.88108e-05
2.31508e-06
1.80809e-05
2.67763e-06
1.72316e-05
3.16502e-06
1.62544e-05
3.90639e-06
1.51397e-05
5.14927e-06
1.38381e-05
7.14902e-06
1.22162e-05
9.67912e-06
1.00944e-05
1.16259e-05
7.38363e-06
1.16777e-05
4.25517e-06
9.48546e-06
1.40117e-06
6.04995e-06
2.54332e-06
-7.76571e-07
8.47091e-06
-5.9691e-07
-1.50291e-06
-5.99244e-07
-2.61804e-06
-6.57623e-07
-2.19655e-06
-8.15563e-07
-1.6791e-06
-1.12042e-06
-1.05354e-06
-1.57608e-06
-3.47506e-07
-2.17262e-06
3.36431e-07
-2.79709e-06
8.34252e-07
-3.40974e-06
1.10837e-06
-4.05477e-06
1.22082e-06
-4.76084e-06
1.20557e-06
-5.52169e-06
1.09118e-06
-6.28477e-06
9.20325e-07
-6.96042e-06
7.48509e-07
-7.43464e-06
6.45411e-07
-7.56129e-06
6.89623e-07
-7.15849e-06
9.38617e-07
-6.05572e-06
1.36363e-06
-4.18698e-06
1.72484e-06
-1.77024e-06
1.49901e-06
9.24842e-07
-1.85138e-07
2.48748e-06
-2.86049e-06
3.00925e-06
-3.94973e-06
3.53487e-06
-4.49837e-06
4.19985e-06
-4.70765e-06
4.9675e-06
-4.76831e-06
5.79873e-06
-4.76564e-06
6.66431e-06
-4.7338e-06
7.54467e-06
-4.68762e-06
8.42773e-06
-4.63309e-06
9.30521e-06
-4.57283e-06
1.01709e-05
-4.50815e-06
1.10203e-05
-4.43951e-06
1.18505e-05
-4.36689e-06
1.26593e-05
-4.2902e-06
1.34454e-05
-4.20929e-06
1.42075e-05
-4.12395e-06
1.49449e-05
-4.0339e-06
1.5657e-05
-3.93876e-06
1.63434e-05
-3.83816e-06
1.70038e-05
-3.73168e-06
1.76378e-05
-3.61902e-06
1.82451e-05
-3.49994e-06
1.88255e-05
-3.37437e-06
1.93787e-05
-3.24238e-06
1.99045e-05
-3.10423e-06
2.04026e-05
-2.96033e-06
2.08728e-05
-2.81123e-06
2.13151e-05
-2.65756e-06
2.17291e-05
-2.50003e-06
2.21149e-05
-2.33937e-06
2.24723e-05
-2.17627e-06
2.28012e-05
-2.01142e-06
2.31016e-05
-1.84547e-06
2.33732e-05
-1.67899e-06
2.36161e-05
-1.51253e-06
2.38301e-05
-1.3466e-06
2.4015e-05
-1.18171e-06
2.41707e-05
-1.01838e-06
2.42971e-05
-8.5716e-07
2.43942e-05
-6.98646e-07
2.44621e-05
-5.43507e-07
2.45009e-05
-3.92474e-07
2.45111e-05
-2.46333e-07
2.44932e-05
-1.05905e-07
2.44482e-05
2.83417e-08
2.43767e-05
1.56133e-07
2.42798e-05
2.77134e-07
2.4159e-05
3.91016e-07
2.40155e-05
4.97531e-07
2.38509e-05
5.96587e-07
2.36665e-05
6.88296e-07
2.34639e-05
7.73035e-07
2.32444e-05
8.51497e-07
2.30091e-05
9.24768e-07
2.2759e-05
9.9439e-07
2.24946e-05
1.06245e-06
2.2216e-05
1.13166e-06
2.19228e-05
1.20544e-06
2.16139e-05
1.28798e-06
2.12872e-05
1.38423e-06
2.09393e-05
1.49984e-06
2.05651e-05
1.64096e-06
2.0158e-05
1.81404e-06
1.97091e-05
2.02554e-06
1.92074e-05
2.28189e-06
1.86403e-05
2.59018e-06
1.79948e-05
2.96064e-06
1.72586e-05
3.41379e-06
1.64245e-05
3.99913e-06
1.54938e-05
4.83713e-06
1.44716e-05
6.17144e-06
1.3333e-05
8.28764e-06
1.19662e-05
1.10459e-05
1.01829e-05
1.34092e-05
7.85297e-06
1.40076e-05
5.04735e-06
1.22911e-05
2.174e-06
8.9233e-06
4.71732e-06
-6.26378e-07
9.09729e-06
-5.68122e-07
-1.56116e-06
-7.68364e-07
-2.4178e-06
-1.04198e-06
-1.92293e-06
-1.43466e-06
-1.28642e-06
-1.97861e-06
-5.0959e-07
-2.65107e-06
3.24952e-07
-3.31854e-06
1.00391e-06
-3.9431e-06
1.45881e-06
-4.58052e-06
1.74578e-06
-5.2526e-06
1.89291e-06
-5.95442e-06
1.90739e-06
-6.65664e-06
1.7934e-06
-7.30018e-06
1.56386e-06
-7.79557e-06
1.2439e-06
-8.0222e-06
8.72045e-07
-7.8254e-06
4.92824e-07
-7.01729e-06
1.30506e-07
-5.46986e-06
-1.83803e-07
-3.19991e-06
-5.45106e-07
-3.72646e-07
-1.32826e-06
2.18944e-06
-2.74722e-06
3.29681e-06
-3.96785e-06
4.07296e-06
-4.72588e-06
4.7685e-06
-5.1939e-06
5.50483e-06
-5.44399e-06
6.29493e-06
-5.55841e-06
7.12567e-06
-5.59637e-06
7.98171e-06
-5.58985e-06
8.84964e-06
-5.55555e-06
9.71889e-06
-5.50234e-06
1.05812e-05
-5.43516e-06
1.14301e-05
-5.35702e-06
1.22605e-05
-5.26986e-06
1.30685e-05
-5.17494e-06
1.38515e-05
-5.07319e-06
1.46075e-05
-4.96526e-06
1.53351e-05
-4.8516e-06
1.60336e-05
-4.73241e-06
1.67026e-05
-4.60772e-06
1.73419e-05
-4.47745e-06
1.79516e-05
-4.3414e-06
1.8532e-05
-4.19941e-06
1.90834e-05
-4.05134e-06
1.96062e-05
-3.89718e-06
2.01009e-05
-3.73704e-06
2.05678e-05
-3.57119e-06
2.10075e-05
-3.40003e-06
2.14204e-05
-3.2241e-06
2.18069e-05
-3.04402e-06
2.21673e-05
-2.86045e-06
2.2502e-05
-2.67406e-06
2.28112e-05
-2.48551e-06
2.30952e-05
-2.29542e-06
2.33541e-05
-2.10433e-06
2.35878e-05
-1.91273e-06
2.37963e-05
-1.72107e-06
2.39795e-05
-1.52975e-06
2.4137e-05
-1.33919e-06
2.42684e-05
-1.14983e-06
2.43734e-05
-9.62157e-07
2.44515e-05
-7.76757e-07
2.45023e-05
-5.94322e-07
2.45255e-05
-4.15671e-07
2.4521e-05
-2.4175e-07
2.44886e-05
-7.35856e-08
2.44286e-05
8.83698e-08
2.43412e-05
2.43524e-07
2.42271e-05
3.91249e-07
2.40872e-05
5.30951e-07
2.39225e-05
6.6218e-07
2.37344e-05
7.84692e-07
2.35242e-05
8.98517e-07
2.32932e-05
1.00401e-06
2.30428e-05
1.10191e-06
2.27741e-05
1.19345e-06
2.24882e-05
1.28037e-06
2.21855e-05
1.36506e-06
2.18666e-05
1.45062e-06
2.1531e-05
1.54098e-06
2.1178e-05
1.64098e-06
2.08059e-05
1.7564e-06
2.04117e-05
1.89397e-06
1.99915e-05
2.06119e-06
1.95394e-05
2.26612e-06
1.90479e-05
2.51703e-06
1.85077e-05
2.8221e-06
1.79083e-05
3.18967e-06
1.72387e-05
3.63018e-06
1.64901e-05
4.16238e-06
1.56585e-05
4.83074e-06
1.47489e-05
5.74669e-06
1.37737e-05
7.1467e-06
1.27248e-05
9.3365e-06
1.15146e-05
1.22561e-05
9.96565e-06
1.49582e-05
7.92621e-06
1.60471e-05
5.40919e-06
1.48081e-05
2.63931e-06
1.16932e-05
7.35662e-06
-5.33048e-07
9.63034e-06
-6.30739e-07
-1.46347e-06
-9.96814e-07
-2.05172e-06
-1.44775e-06
-1.472e-06
-2.01954e-06
-7.14626e-07
-2.71471e-06
1.8558e-07
-3.41419e-06
1.02442e-06
-4.0559e-06
1.64562e-06
-4.68309e-06
2.08601e-06
-5.31873e-06
2.38142e-06
-5.96209e-06
2.53627e-06
-6.59057e-06
2.53587e-06
-7.15737e-06
2.3602e-06
-7.58675e-06
1.99325e-06
-7.77109e-06
1.42824e-06
-7.57081e-06
6.7176e-07
-6.81451e-06
-2.63479e-07
-5.45639e-06
-1.22761e-06
-3.57789e-06
-2.0623e-06
-1.33139e-06
-2.79161e-06
9.86304e-07
-3.64595e-06
2.71901e-06
-4.47993e-06
3.87368e-06
-5.12253e-06
4.80491e-06
-5.6571e-06
5.64444e-06
-6.03344e-06
6.46713e-06
-6.26668e-06
7.30207e-06
-6.39335e-06
8.15352e-06
-6.44782e-06
9.01684e-06
-6.45317e-06
9.88467e-06
-6.42338e-06
1.07493e-05
-6.36697e-06
1.16036e-05
-6.28943e-06
1.24412e-05
-6.19465e-06
1.32569e-05
-6.08558e-06
1.40466e-05
-5.96459e-06
1.4807e-05
-5.83359e-06
1.55359e-05
-5.69417e-06
1.62318e-05
-5.54754e-06
1.6894e-05
-5.39459e-06
1.75222e-05
-5.2359e-06
1.81166e-05
-5.07182e-06
1.86777e-05
-4.90251e-06
1.92063e-05
-4.72804e-06
1.97034e-05
-4.54846e-06
2.01701e-05
-4.36386e-06
2.06075e-05
-4.17442e-06
2.10167e-05
-3.98042e-06
2.13989e-05
-3.78224e-06
2.17552e-05
-3.58038e-06
2.20866e-05
-3.37538e-06
2.23939e-05
-3.16782e-06
2.26781e-05
-2.95826e-06
2.29399e-05
-2.74724e-06
2.31797e-05
-2.53522e-06
2.33979e-05
-2.32259e-06
2.35949e-05
-2.10968e-06
2.37706e-05
-1.89674e-06
2.39248e-05
-1.68401e-06
2.40573e-05
-1.4717e-06
2.41676e-05
-1.26008e-06
2.42549e-05
-1.04952e-06
2.43186e-05
-8.40469e-07
2.43579e-05
-6.33569e-07
2.43719e-05
-4.29639e-07
2.43598e-05
-2.29709e-07
2.43211e-05
-3.48715e-08
2.42549e-05
1.54531e-07
2.41613e-05
3.37213e-07
2.40402e-05
5.12351e-07
2.38921e-05
6.79045e-07
2.37176e-05
8.36587e-07
2.35178e-05
9.84513e-07
2.32937e-05
1.12268e-06
2.30463e-05
1.25133e-06
2.27771e-05
1.3712e-06
2.24869e-05
1.48357e-06
2.21769e-05
1.59036e-06
2.18478e-05
1.69421e-06
2.14998e-05
1.79857e-06
2.1133e-05
1.90784e-06
2.07465e-05
2.02743e-06
2.0339e-05
2.16389e-06
1.99082e-05
2.32484e-06
1.94504e-05
2.51895e-06
1.89609e-05
2.75562e-06
1.84333e-05
3.0446e-06
1.786e-05
3.39547e-06
1.72321e-05
3.81754e-06
1.65411e-05
4.3212e-06
1.57801e-05
4.92335e-06
1.4947e-05
5.66384e-06
1.40478e-05
6.64588e-06
1.30969e-05
8.09766e-06
1.20962e-05
1.03372e-05
1.09802e-05
1.33721e-05
9.59068e-06
1.63477e-05
7.76758e-06
1.78702e-05
5.4728e-06
1.71029e-05
2.82718e-06
1.43388e-05
1.01838e-05
-4.77015e-07
1.01074e-05
-7.33134e-07
-1.20735e-06
-1.21972e-06
-1.56514e-06
-1.78533e-06
-9.06379e-07
-2.44881e-06
-5.11484e-08
-3.15218e-06
8.88951e-07
-3.80644e-06
1.67868e-06
-4.43118e-06
2.27035e-06
-5.04529e-06
2.70012e-06
-5.65111e-06
2.98725e-06
-6.23368e-06
3.11884e-06
-6.75689e-06
3.05908e-06
-7.15871e-06
2.76202e-06
-7.34744e-06
2.18198e-06
-7.20126e-06
1.28205e-06
-6.58163e-06
5.21336e-08
-5.44025e-06
-1.40486e-06
-3.88434e-06
-2.78353e-06
-2.04974e-06
-3.8969e-06
-6.0206e-08
-4.78115e-06
1.72218e-06
-5.42833e-06
3.12007e-06
-5.87782e-06
4.30648e-06
-6.30894e-06
5.33042e-06
-6.68105e-06
6.26145e-06
-6.96446e-06
7.15138e-06
-7.15661e-06
8.02887e-06
-7.27084e-06
8.90497e-06
-7.32392e-06
9.78103e-06
-7.32923e-06
1.06537e-05
-7.29603e-06
1.15175e-05
-7.23077e-06
1.23664e-05
-7.13833e-06
1.31945e-05
-7.02279e-06
1.39967e-05
-6.88777e-06
1.47686e-05
-6.73652e-06
1.5507e-05
-6.57195e-06
1.62094e-05
-6.39657e-06
1.68743e-05
-6.2125e-06
1.75011e-05
-6.0214e-06
1.80898e-05
-5.82452e-06
1.86407e-05
-5.62277e-06
1.9155e-05
-5.41676e-06
1.96338e-05
-5.20689e-06
2.00788e-05
-4.99346e-06
2.04917e-05
-4.77671e-06
2.08742e-05
-4.5569e-06
2.12281e-05
-4.33433e-06
2.15552e-05
-4.10938e-06
2.18573e-05
-3.88244e-06
2.21358e-05
-3.65396e-06
2.23924e-05
-3.42438e-06
2.26282e-05
-3.1941e-06
2.28445e-05
-2.96348e-06
2.3042e-05
-2.73277e-06
2.32216e-05
-2.50215e-06
2.33836e-05
-2.27169e-06
2.35283e-05
-2.04142e-06
2.36556e-05
-1.8113e-06
2.37652e-05
-1.58131e-06
2.38566e-05
-1.35147e-06
2.39289e-05
-1.1219e-06
2.39813e-05
-8.92876e-07
2.40126e-05
-6.64873e-07
2.40216e-05
-4.38602e-07
2.4007e-05
-2.15059e-07
2.39673e-05
4.81548e-09
2.39016e-05
2.20192e-07
2.38091e-05
4.29724e-07
2.36893e-05
6.32173e-07
2.3542e-05
8.26369e-07
2.33673e-05
1.01127e-06
2.31657e-05
1.18611e-06
2.29379e-05
1.35047e-06
2.26848e-05
1.50441e-06
2.24074e-05
1.64856e-06
2.21068e-05
1.7842e-06
2.17839e-05
1.91333e-06
2.14393e-05
2.03878e-06
2.10735e-05
2.16434e-06
2.06865e-05
2.29482e-06
2.02778e-05
2.43616e-06
1.98461e-05
2.59558e-06
1.93894e-05
2.78151e-06
1.89048e-05
3.0036e-06
1.8388e-05
3.2724e-06
1.78338e-05
3.59883e-06
1.72357e-05
3.99353e-06
1.65868e-05
4.46648e-06
1.58801e-05
5.02789e-06
1.51104e-05
5.69298e-06
1.42767e-05
6.49756e-06
1.33848e-05
7.53783e-06
1.24485e-05
9.0339e-06
1.14752e-05
1.13105e-05
1.04168e-05
1.44304e-05
9.13604e-06
1.76285e-05
7.47168e-06
1.95345e-05
5.35085e-06
1.92237e-05
2.82589e-06
1.68638e-05
1.30097e-05
-4.42527e-07
1.05499e-05
-8.3233e-07
-8.17553e-07
-1.38823e-06
-1.00923e-06
-2.00033e-06
-2.94278e-07
-2.66279e-06
6.11304e-07
-3.30443e-06
1.53059e-06
-3.91578e-06
2.29003e-06
-4.5103e-06
2.86487e-06
-5.0899e-06
3.27971e-06
-5.64565e-06
3.543e-06
-6.15316e-06
3.62634e-06
-6.56674e-06
3.47266e-06
-6.81419e-06
3.00947e-06
-6.79496e-06
2.16275e-06
-6.39479e-06
8.81891e-07
-5.51699e-06
-8.2567e-07
-4.22174e-06
-2.70011e-06
-2.6415e-06
-4.36377e-06
-9.23674e-07
-5.61472e-06
7.18879e-07
-6.4237e-06
2.15797e-06
-6.86743e-06
3.47425e-06
-7.19409e-06
4.65331e-06
-7.488e-06
5.71433e-06
-7.74206e-06
6.69342e-06
-7.94356e-06
7.62483e-06
-8.08802e-06
8.53191e-06
-8.17792e-06
9.42653e-06
-8.21853e-06
1.03122e-05
-8.21493e-06
1.11876e-05
-8.17136e-06
1.20484e-05
-8.09156e-06
1.28893e-05
-7.97929e-06
1.3705e-05
-7.83846e-06
1.44904e-05
-7.67315e-06
1.52413e-05
-7.48741e-06
1.59544e-05
-7.2851e-06
1.66275e-05
-7.0697e-06
1.72593e-05
-6.84425e-06
1.78491e-05
-6.61126e-06
1.83973e-05
-6.37273e-06
1.89048e-05
-6.13018e-06
1.93727e-05
-5.88474e-06
1.9803e-05
-5.6372e-06
2.01977e-05
-5.38815e-06
2.05591e-05
-5.13803e-06
2.08894e-05
-4.88719e-06
2.1191e-05
-4.63597e-06
2.14663e-05
-4.3847e-06
2.17176e-05
-4.13368e-06
2.19468e-05
-3.88324e-06
2.21561e-05
-3.63362e-06
2.2347e-05
-3.38502e-06
2.25211e-05
-3.13757e-06
2.26796e-05
-2.89128e-06
2.28235e-05
-2.64603e-06
2.29534e-05
-2.40163e-06
2.30698e-05
-2.15779e-06
2.31727e-05
-1.91418e-06
2.32618e-05
-1.67046e-06
2.33367e-05
-1.42636e-06
2.33965e-05
-1.18169e-06
2.34401e-05
-9.36468e-07
2.34661e-05
-6.9092e-07
2.34731e-05
-4.45556e-07
2.34592e-05
-2.01201e-07
2.34228e-05
4.12292e-08
2.33623e-05
2.80664e-07
2.32764e-05
5.15664e-07
2.31639e-05
7.44665e-07
2.30241e-05
9.66163e-07
2.28566e-05
1.17877e-06
2.26614e-05
1.38135e-06
2.24387e-05
1.57319e-06
2.2189e-05
1.75406e-06
2.19132e-05
1.92441e-06
2.16119e-05
2.08542e-06
2.12861e-05
2.23911e-06
2.09365e-05
2.38844e-06
2.05634e-05
2.53744e-06
2.01669e-05
2.69128e-06
1.97467e-05
2.85642e-06
1.93016e-05
3.04066e-06
1.88299e-05
3.25318e-06
1.8329e-05
3.50448e-06
1.77954e-05
3.80605e-06
1.72244e-05
4.16977e-06
1.66109e-05
4.60708e-06
1.5949e-05
5.12835e-06
1.52335e-05
5.74338e-06
1.44607e-05
6.46581e-06
1.36301e-05
7.32814e-06
1.27471e-05
8.42087e-06
1.18239e-05
9.95704e-06
1.08699e-05
1.22646e-05
9.8501e-06
1.54502e-05
8.64677e-06
1.88319e-05
7.1041e-06
2.10772e-05
5.12811e-06
2.11997e-05
2.73062e-06
1.92613e-05
1.57403e-05
-4.17469e-07
1.09674e-05
-9.05691e-07
-3.29331e-07
-1.48596e-06
-4.28966e-07
-2.09196e-06
3.11726e-07
-2.69027e-06
1.20961e-06
-3.25972e-06
2.10004e-06
-3.81581e-06
2.84613e-06
-4.35978e-06
3.40884e-06
-4.88488e-06
3.80481e-06
-5.3753e-06
4.03342e-06
-5.80078e-06
4.05182e-06
-6.11043e-06
3.78232e-06
-6.2283e-06
3.12734e-06
-6.05489e-06
1.98934e-06
-5.49145e-06
3.18447e-07
-4.49938e-06
-1.81774e-06
-3.18778e-06
-4.0117e-06
-1.702e-06
-5.84955e-06
-1.85508e-07
-7.13121e-06
1.21889e-06
-7.8281e-06
2.53782e-06
-8.18636e-06
3.78628e-06
-8.44255e-06
4.94102e-06
-8.64275e-06
6.00579e-06
-8.80683e-06
7.001e-06
-8.93877e-06
7.94976e-06
-9.03678e-06
8.86986e-06
-9.09802e-06
9.77142e-06
-9.12009e-06
1.06579e-05
-9.10144e-06
1.15283e-05
-9.04174e-06
1.23788e-05
-8.9421e-06
1.32046e-05
-8.80506e-06
1.40005e-05
-8.63437e-06
1.47619e-05
-8.43452e-06
1.54848e-05
-8.21033e-06
1.61663e-05
-7.9666e-06
1.68044e-05
-7.70778e-06
1.7398e-05
-7.43786e-06
1.7947e-05
-7.16021e-06
1.84518e-05
-6.87759e-06
1.89138e-05
-6.59217e-06
1.93347e-05
-6.3056e-06
1.97166e-05
-6.0191e-06
2.0062e-05
-5.73357e-06
2.03736e-05
-5.44965e-06
2.06542e-05
-5.16781e-06
2.09067e-05
-4.88842e-06
2.11337e-05
-4.61175e-06
2.13381e-05
-4.33801e-06
2.15222e-05
-4.06734e-06
2.16883e-05
-3.79979e-06
2.18386e-05
-3.53533e-06
2.19749e-05
-3.27379e-06
2.20985e-05
-3.0149e-06
2.22107e-05
-2.75825e-06
2.23124e-05
-2.50329e-06
2.2404e-05
-2.24942e-06
2.24858e-05
-1.99595e-06
2.25575e-05
-1.74221e-06
2.26187e-05
-1.48755e-06
2.26685e-05
-1.23149e-06
2.27057e-05
-9.73689e-07
2.27289e-05
-7.14096e-07
2.27363e-05
-4.52943e-07
2.27259e-05
-1.90816e-07
2.26957e-05
7.14409e-08
2.26437e-05
3.3263e-07
2.25682e-05
5.91187e-07
2.24675e-05
8.45332e-07
2.23404e-05
1.09327e-06
2.21859e-05
1.33327e-06
2.20035e-05
1.56382e-06
2.17928e-05
1.78384e-06
2.15541e-05
1.99277e-06
2.12878e-05
2.19077e-06
2.09943e-05
2.37886e-06
2.06745e-05
2.55897e-06
2.03288e-05
2.73413e-06
1.99577e-05
2.90853e-06
1.95613e-05
3.08767e-06
1.91393e-05
3.27846e-06
1.86907e-05
3.48925e-06
1.8214e-05
3.72992e-06
1.77067e-05
4.0117e-06
1.71659e-05
4.34689e-06
1.65876e-05
4.74807e-06
1.59674e-05
5.22723e-06
1.53009e-05
5.79485e-06
1.45841e-05
6.4602e-06
1.38146e-05
7.23536e-06
1.29926e-05
8.15009e-06
1.2123e-05
9.29051e-06
1.1216e-05
1.0864e-05
1.02809e-05
1.31997e-05
9.29234e-06
1.64387e-05
8.15027e-06
1.99739e-05
6.70835e-06
2.25191e-05
4.86173e-06
2.30463e-05
2.59678e-06
2.15262e-05
1.83371e-05
-3.93292e-07
1.13606e-05
-9.38626e-07
2.16003e-07
-1.52588e-06
1.58284e-07
-2.07905e-06
8.64902e-07
-2.59021e-06
1.72077e-06
-3.0817e-06
2.59154e-06
-3.56535e-06
3.32978e-06
-4.03902e-06
3.88251e-06
-4.49148e-06
4.25727e-06
-4.90324e-06
4.44518e-06
-5.24182e-06
4.3904e-06
-5.45616e-06
3.99666e-06
-5.47366e-06
3.14484e-06
-5.20366e-06
1.71933e-06
-4.54552e-06
-3.39695e-07
-3.52622e-06
-2.83704e-06
-2.27183e-06
-5.26609e-06
-9.34535e-07
-7.18685e-06
3.79807e-07
-8.44556e-06
1.64096e-06
-9.08925e-06
2.88914e-06
-9.43453e-06
4.08151e-06
-9.63493e-06
5.19998e-06
-9.76122e-06
6.24599e-06
-9.85284e-06
7.23314e-06
-9.92592e-06
8.17796e-06
-9.9816e-06
9.09368e-06
-1.00137e-05
9.98788e-06
-1.00143e-05
1.08628e-05
-9.97638e-06
1.17169e-05
-9.89585e-06
1.25464e-05
-9.77157e-06
1.33465e-05
-9.60516e-06
1.41124e-05
-9.40031e-06
1.484e-05
-9.16204e-06
1.55256e-05
-8.89598e-06
1.61669e-05
-8.60788e-06
1.67623e-05
-8.30315e-06
1.73111e-05
-7.9867e-06
1.78136e-05
-7.66274e-06
1.82708e-05
-7.33477e-06
1.86842e-05
-7.00559e-06
1.9056e-05
-6.67738e-06
1.93887e-05
-6.35176e-06
1.96851e-05
-6.02994e-06
1.99482e-05
-5.71276e-06
2.01812e-05
-5.40081e-06
2.03872e-05
-5.09446e-06
2.05694e-05
-4.79393e-06
2.07307e-05
-4.4993e-06
2.08738e-05
-4.21052e-06
2.10015e-05
-3.92743e-06
2.11159e-05
-3.6497e-06
2.12189e-05
-3.37689e-06
2.13124e-05
-3.10838e-06
2.13976e-05
-2.84342e-06
2.14754e-05
-2.58113e-06
2.15465e-05
-2.32052e-06
2.16111e-05
-2.06055e-06
2.16691e-05
-1.80015e-06
2.17198e-05
-1.53833e-06
2.17626e-05
-1.27422e-06
2.17961e-05
-1.00717e-06
2.18187e-05
-7.36773e-07
2.18288e-05
-4.62961e-07
2.1824e-05
-1.86037e-07
2.18022e-05
9.32602e-08
2.17611e-05
3.73683e-07
2.16987e-05
6.536e-07
2.16129e-05
9.311e-07
2.1502e-05
1.20416e-06
2.13646e-05
1.47073e-06
2.11995e-05
1.72894e-06
2.1006e-05
1.97728e-06
2.0784e-05
2.21483e-06
2.05333e-05
2.4414e-06
2.02544e-05
2.65775e-06
1.99477e-05
2.86568e-06
1.96137e-05
3.06819e-06
1.92526e-05
3.26961e-06
1.88645e-05
3.4757e-06
1.84492e-05
3.69376e-06
1.80058e-05
3.93267e-06
1.75328e-05
4.20292e-06
1.70281e-05
4.51644e-06
1.64888e-05
4.88616e-06
1.59117e-05
5.32522e-06
1.52931e-05
5.84583e-06
1.46296e-05
6.45829e-06
1.39188e-05
7.17107e-06
1.31594e-05
7.99474e-06
1.23526e-05
8.95682e-06
1.15028e-05
1.01404e-05
1.06181e-05
1.17487e-05
9.70632e-06
1.41114e-05
8.7487e-06
1.73964e-05
7.66094e-06
2.10617e-05
6.30822e-06
2.38718e-05
4.58118e-06
2.47733e-05
2.45017e-06
2.36572e-05
2.07873e-05
-3.70254e-07
1.17309e-05
-9.30727e-07
7.76477e-07
-1.504e-06
7.31558e-07
-1.98734e-06
1.34824e-06
-2.41383e-06
2.14726e-06
-2.81653e-06
2.99423e-06
-3.21141e-06
3.72465e-06
-3.59656e-06
4.26766e-06
-3.95865e-06
4.61936e-06
-4.27645e-06
4.76298e-06
-4.51746e-06
4.63141e-06
-4.63246e-06
4.11167e-06
-4.55281e-06
3.06519e-06
-4.19848e-06
1.365e-06
-3.49928e-06
-1.0389e-06
-2.50945e-06
-3.82687e-06
-1.37766e-06
-6.39788e-06
-2.18785e-07
-8.34572e-06
9.23292e-07
-9.58763e-06
2.08894e-06
-1.02549e-05
3.25893e-06
-1.06045e-05
4.3882e-06
-1.07642e-05
5.45725e-06
-1.08303e-05
6.46624e-06
-1.08618e-05
7.42549e-06
-1.08852e-05
8.34746e-06
-1.09036e-05
9.24176e-06
-1.0908e-05
1.01133e-05
-1.08858e-05
1.09626e-05
-1.08257e-05
1.17873e-05
-1.07205e-05
1.25831e-05
-1.05674e-05
1.33455e-05
-1.03675e-05
1.40699e-05
-1.01248e-05
1.47528e-05
-9.84486e-06
1.53911e-05
-9.53429e-06
1.59829e-05
-9.19974e-06
1.65274e-05
-8.84759e-06
1.70243e-05
-8.48363e-06
1.74744e-05
-8.11285e-06
1.78791e-05
-7.73944e-06
1.82403e-05
-7.36681e-06
1.85605e-05
-6.99759e-06
1.88425e-05
-6.63382e-06
1.90896e-05
-6.27695e-06
1.93048e-05
-5.92802e-06
1.94917e-05
-5.58771e-06
1.96537e-05
-5.2564e-06
1.97939e-05
-4.93422e-06
1.99158e-05
-4.62111e-06
2.0022e-05
-4.31682e-06
2.01155e-05
-4.02091e-06
2.01986e-05
-3.73278e-06
2.02734e-05
-3.45165e-06
2.03415e-05
-3.17655e-06
2.04045e-05
-2.90638e-06
2.04632e-05
-2.63987e-06
2.05184e-05
-2.37565e-06
2.05701e-05
-2.11227e-06
2.06182e-05
-1.84828e-06
2.06622e-05
-1.58232e-06
2.07011e-05
-1.31315e-06
2.07337e-05
-1.03976e-06
2.07584e-05
-7.61416e-07
2.07731e-05
-4.77751e-07
2.07759e-05
-1.88766e-07
2.07642e-05
1.04929e-07
2.07358e-05
4.021e-07
2.06883e-05
7.01128e-07
2.06193e-05
1.00004e-06
2.05268e-05
1.29665e-06
2.04089e-05
1.58863e-06
2.02641e-05
1.87375e-06
2.00913e-05
2.15009e-06
1.98898e-05
2.4163e-06
1.96594e-05
2.67183e-06
1.94e-05
2.91712e-06
1.9112e-05
3.15376e-06
1.87954e-05
3.3847e-06
1.84507e-05
3.61434e-06
1.80777e-05
3.84867e-06
1.76762e-05
4.09534e-06
1.72451e-05
4.36372e-06
1.67831e-05
4.66489e-06
1.62882e-05
5.01135e-06
1.57578e-05
5.41656e-06
1.51891e-05
5.89395e-06
1.45792e-05
6.4557e-06
1.39259e-05
7.11158e-06
1.3228e-05
7.86896e-06
1.24859e-05
8.73686e-06
1.17017e-05
9.74104e-06
1.08792e-05
1.09629e-05
1.00243e-05
1.26036e-05
9.14271e-06
1.4993e-05