/*--------------------------------*- C++ -*----------------------------------*\
| =========                 |                                                 |
| \\      /  F ield         | OpenFOAM: The Open Source CFD Toolbox           |
|  \\    /   O peration     | Version:  4.1                                   |
|   \\  /    A nd           | Web:      www.OpenFOAM.org                      |
|    \\/     M anipulation  |                                                 |
\*---------------------------------------------------------------------------*/
FoamFile
{
    version     2.0;
    format      ascii;
    class       volScalarField;
    location    "1540";
    object      T;
}
// * * * * * * * * * * * * * * * * * * * * * * * * * * * * * * * * * * * * * //

dimensions      [0 0 0 1 0 0 0];

internalField   nonuniform List<scalar> 
5000
(
286.219
285.773
285.442
285.546
285.587
285.508
285.475
285.583
285.736
285.905
286.074
286.229
286.344
286.403
286.448
286.562
286.823
287.201
287.543
287.903
288.424
288.399
287.806
287.085
286.528
286.509
286.537
286.483
286.382
286.296
286.244
286.188
286.134
286.086
286.043
286.006
285.974
285.948
285.927
285.91
285.898
285.89
285.886
285.886
285.891
285.899
285.911
285.927
285.946
285.97
285.996
286.027
286.061
286.099
286.14
286.185
286.233
286.286
286.341
286.401
286.464
286.532
286.602
286.677
286.755
286.833
286.91
286.987
287.063
287.139
287.213
287.288
287.361
287.434
287.507
287.579
287.651
287.723
287.796
287.868
287.942
288.016
288.092
288.17
288.25
288.334
288.422
288.516
288.616
288.726
288.846
288.978
289.115
289.197
289.026
288.393
287.707
287.427
287.145
287.776
285.466
284.238
284.202
284.219
284.236
284.25
284.255
284.257
284.258
284.258
284.258
284.259
284.26
284.267
284.301
284.392
284.586
285.149
286.084
287.167
287.586
287.179
285.928
284.649
284.303
284.277
284.265
284.255
284.247
284.238
284.23
284.223
284.215
284.207
284.2
284.193
284.186
284.18
284.173
284.167
284.162
284.156
284.151
284.147
284.142
284.138
284.135
284.132
284.13
284.128
284.126
284.125
284.124
284.124
284.124
284.125
284.127
284.128
284.131
284.134
284.137
284.141
284.145
284.149
284.154
284.162
284.173
284.187
284.204
284.224
284.246
284.27
284.295
284.322
284.35
284.379
284.41
284.441
284.474
284.51
284.548
284.59
284.638
284.692
284.755
284.827
284.91
285.007
285.119
285.253
285.432
285.716
286.193
286.863
287.439
287.491
286.885
286.006
285.678
286.229
285.228
284.211
284.201
284.228
284.249
284.263
284.267
284.266
284.263
284.258
284.251
284.246
284.246
284.268
284.344
284.513
284.804
285.226
285.808
286.44
286.695
286.318
285.292
284.293
284.245
284.231
284.22
284.212
284.203
284.195
284.186
284.178
284.17
284.162
284.154
284.146
284.138
284.131
284.123
284.115
284.108
284.101
284.094
284.088
284.082
284.076
284.07
284.065
284.06
284.056
284.052
284.049
284.046
284.043
284.041
284.039
284.038
284.037
284.037
284.038
284.038
284.04
284.042
284.044
284.047
284.05
284.054
284.058
284.063
284.068
284.074
284.08
284.087
284.094
284.102
284.11
284.118
284.127
284.137
284.148
284.16
284.173
284.19
284.209
284.233
284.263
284.301
284.349
284.41
284.493
284.615
284.821
285.192
285.79
286.471
286.845
286.641
286.051
285.649
285.688
285.099
284.205
284.212
284.247
284.268
284.279
284.281
284.279
284.275
284.269
284.264
284.266
284.281
284.319
284.391
284.508
284.685
284.938
285.258
285.576
285.682
285.375
284.522
284.268
284.228
284.213
284.202
284.193
284.184
284.175
284.167
284.158
284.15
284.141
284.132
284.124
284.115
284.107
284.098
284.09
284.081
284.073
284.065
284.058
284.05
284.043
284.036
284.03
284.024
284.018
284.012
284.007
284.003
283.999
283.995
283.992
283.989
283.986
283.985
283.983
283.982
283.982
283.982
283.983
283.984
283.986
283.988
283.991
283.994
283.998
284.003
284.007
284.012
284.018
284.023
284.029
284.036
284.042
284.049
284.057
284.065
284.073
284.083
284.094
284.107
284.123
284.144
284.17
284.206
284.257
284.336
284.476
284.746
285.223
285.857
286.355
286.409
286.059
285.725
285.723
285.019
284.203
284.226
284.264
284.284
284.291
284.291
284.288
284.283
284.278
284.276
284.28
284.292
284.313
284.345
284.393
284.464
284.562
284.681
284.784
284.783
284.572
284.243
284.219
284.205
284.195
284.185
284.176
284.167
284.158
284.149
284.14
284.131
284.122
284.113
284.104
284.095
284.085
284.076
284.067
284.058
284.049
284.041
284.032
284.024
284.016
284.009
284.001
283.995
283.988
283.982
283.976
283.971
283.966
283.961
283.957
283.953
283.949
283.946
283.944
283.942
283.94
283.939
283.938
283.938
283.938
283.939
283.941
283.943
283.945
283.948
283.952
283.956
283.96
283.965
283.97
283.976
283.982
283.988
283.995
284.003
284.011
284.02
284.03
284.042
284.055
284.071
284.091
284.117
284.154
284.211
284.313
284.515
284.895
285.453
285.983
286.193
286.026
285.775
285.752
284.964
284.204
284.242
284.279
284.295
284.299
284.298
284.295
284.291
284.287
284.286
284.287
284.292
284.297
284.303
284.31
284.318
284.327
284.333
284.328
284.293
284.22
284.206
284.196
284.186
284.177
284.168
284.159
284.15
284.141
284.131
284.122
284.112
284.103
284.093
284.083
284.073
284.063
284.054
284.044
284.035
284.025
284.016
284.008
283.999
283.991
283.983
283.976
283.968
283.962
283.955
283.949
283.943
283.938
283.932
283.928
283.923
283.919
283.915
283.912
283.909
283.907
283.905
283.903
283.902
283.901
283.901
283.902
283.902
283.904
283.906
283.908
283.911
283.915
283.918
283.923
283.928
283.933
283.939
283.946
283.953
283.961
283.97
283.981
283.992
284.005
284.021
284.04
284.063
284.094
284.14
284.221
284.38
284.689
285.175
285.699
286.002
285.971
285.802
285.767
284.923
284.209
284.257
284.292
284.304
284.306
284.305
284.301
284.297
284.293
284.291
284.29
284.289
284.287
284.282
284.274
284.263
284.247
284.232
284.219
284.206
284.194
284.186
284.179
284.171
284.162
284.154
284.145
284.135
284.125
284.115
284.105
284.094
284.084
284.073
284.062
284.052
284.042
284.031
284.021
284.012
284.002
283.993
283.984
283.976
283.967
283.959
283.952
283.945
283.938
283.931
283.925
283.919
283.913
283.908
283.903
283.898
283.894
283.89
283.886
283.883
283.88
283.877
283.875
283.873
283.872
283.871
283.87
283.87
283.871
283.872
283.873
283.875
283.878
283.881
283.885
283.889
283.894
283.899
283.906
283.913
283.92
283.929
283.94
283.951
283.965
283.981
284
284.023
284.052
284.093
284.161
284.293
284.551
284.977
285.479
285.834
285.905
285.81
285.783
284.89
284.217
284.27
284.302
284.311
284.311
284.309
284.305
284.301
284.297
284.294
284.29
284.286
284.279
284.269
284.256
284.239
284.222
284.209
284.198
284.189
284.183
284.177
284.171
284.164
284.155
284.146
284.136
284.126
284.115
284.103
284.091
284.079
284.068
284.056
284.044
284.033
284.022
284.011
284.001
283.991
283.981
283.972
283.963
283.954
283.946
283.938
283.931
283.924
283.917
283.911
283.904
283.899
283.893
283.888
283.883
283.878
283.873
283.869
283.865
283.861
283.858
283.855
283.852
283.85
283.848
283.846
283.845
283.844
283.844
283.845
283.845
283.847
283.849
283.851
283.854
283.858
283.862
283.867
283.873
283.879
283.887
283.896
283.906
283.918
283.932
283.948
283.968
283.991
284.02
284.058
284.119
284.233
284.454
284.831
285.306
285.691
285.837
285.807
285.797
284.863
284.227
284.282
284.31
284.316
284.316
284.312
284.308
284.304
284.299
284.295
284.289
284.282
284.272
284.257
284.239
284.22
284.206
284.197
284.192
284.189
284.185
284.18
284.174
284.166
284.157
284.147
284.135
284.123
284.109
284.096
284.082
284.069
284.055
284.042
284.029
284.017
284.005
283.994
283.983
283.973
283.963
283.954
283.945
283.937
283.929
283.921
283.914
283.907
283.901
283.895
283.889
283.883
283.877
283.872
283.867
283.862
283.858
283.853
283.849
283.845
283.842
283.838
283.835
283.832
283.829
283.827
283.826
283.824
283.823
283.823
283.823
283.824
283.825
283.827
283.829
283.832
283.836
283.84
283.846
283.852
283.859
283.868
283.878
283.89
283.905
283.921
283.941
283.965
283.994
284.032
284.088
284.189
284.384
284.721
285.168
285.568
285.77
285.796
285.808
284.84
284.237
284.293
284.317
284.322
284.319
284.315
284.311
284.306
284.301
284.295
284.288
284.278
284.263
284.244
284.223
284.208
284.201
284.201
284.202
284.201
284.198
284.194
284.187
284.178
284.166
284.154
284.139
284.124
284.108
284.092
284.076
284.061
284.045
284.031
284.017
284.004
283.992
283.98
283.969
283.959
283.949
283.94
283.931
283.923
283.916
283.909
283.902
283.895
283.889
283.883
283.878
283.872
283.867
283.862
283.857
283.852
283.848
283.843
283.839
283.834
283.83
283.827
283.823
283.82
283.817
283.814
283.812
283.81
283.808
283.807
283.807
283.807
283.807
283.808
283.81
283.812
283.816
283.819
283.824
283.83
283.837
283.846
283.856
283.868
283.882
283.9
283.92
283.945
283.974
284.011
284.065
284.157
284.332
284.637
285.058
285.464
285.708
285.781
285.816
284.82
284.247
284.302
284.324
284.327
284.323
284.319
284.314
284.309
284.303
284.296
284.286
284.273
284.255
284.233
284.214
284.206
284.209
284.215
284.219
284.22
284.218
284.213
284.204
284.193
284.179
284.164
284.146
284.128
284.109
284.091
284.072
284.055
284.038
284.022
284.008
283.994
283.981
283.969
283.959
283.949
283.939
283.931
283.923
283.915
283.908
283.901
283.895
283.889
283.883
283.878
283.872
283.867
283.862
283.857
283.852
283.847
283.843
283.838
283.834
283.829
283.825
283.821
283.817
283.813
283.809
283.806
283.803
283.8
283.798
283.796
283.795
283.794
283.794
283.795
283.796
283.797
283.8
283.803
283.808
283.813
283.82
283.828
283.838
283.85
283.865
283.883
283.904
283.929
283.959
283.996
284.048
284.134
284.293
284.572
284.969
285.375
285.651
285.765
285.821
284.803
284.258
284.313
284.331
284.332
284.328
284.323
284.318
284.312
284.305
284.297
284.285
284.269
284.248
284.226
284.213
284.214
284.223
284.233
284.239
284.241
284.24
284.234
284.224
284.21
284.193
284.174
284.154
284.132
284.111
284.089
284.069
284.05
284.032
284.016
284.001
283.987
283.974
283.963
283.953
283.943
283.934
283.926
283.919
283.912
283.906
283.899
283.894
283.888
283.883
283.877
283.872
283.867
283.862
283.858
283.853
283.848
283.843
283.838
283.834
283.829
283.824
283.82
283.815
283.811
283.807
283.803
283.799
283.796
283.793
283.79
283.788
283.787
283.786
283.786
283.786
283.787
283.789
283.792
283.795
283.8
283.807
283.815
283.825
283.837
283.852
283.87
283.891
283.917
283.947
283.985
284.036
284.117
284.264
284.522
284.898
285.301
285.6
285.748
285.826
284.787
284.266
284.321
284.337
284.337
284.333
284.328
284.322
284.316
284.309
284.299
284.285
284.267
284.245
284.225
284.218
284.225
284.238
284.25
284.258
284.262
284.261
284.254
284.242
284.226
284.207
284.184
284.16
284.136
284.112
284.088
284.067
284.047
284.028
284.012
283.997
283.983
283.971
283.961
283.951
283.942
283.934
283.927
283.921
283.914
283.908
283.903
283.898
283.892
283.887
283.882
283.878
283.873
283.868
283.863
283.858
283.853
283.848
283.843
283.838
283.833
283.828
283.823
283.818
283.813
283.808
283.804
283.8
283.796
283.792
283.789
283.786
283.784
283.782
283.781
283.78
283.781
283.782
283.784
283.787
283.792
283.797
283.805
283.815
283.827
283.842
283.861
283.883
283.909
283.94
283.978
284.028
284.105
284.243
284.484
284.841
285.24
285.556
285.732
285.829
284.774
284.274
284.329
284.343
284.343
284.339
284.333
284.327
284.321
284.313
284.302
284.287
284.268
284.246
284.229
284.226
284.237
284.252
284.265
284.275
284.28
284.28
284.273
284.26
284.241
284.218
284.192
284.165
284.138
284.112
284.088
284.065
284.044
284.026
284.01
283.996
283.984
283.973
283.963
283.954
283.947
283.94
283.933
283.927
283.922
283.917
283.912
283.907
283.902
283.897
283.892
283.887
283.882
283.877
283.872
283.867
283.862
283.857
283.852
283.846
283.841
283.835
283.83
283.825
283.819
283.814
283.809
283.804
283.799
283.795
283.791
283.787
283.784
283.781
283.779
283.778
283.778
283.778
283.78
283.782
283.786
283.792
283.799
283.809
283.821
283.837
283.855
283.878
283.905
283.936
283.974
284.024
284.099
284.229
284.456
284.797
285.189
285.518
285.718
285.832
284.762
284.281
284.336
284.35
284.349
284.345
284.339
284.333
284.326
284.318
284.307
284.292
284.272
284.251
284.236
284.236
284.249
284.263
284.278
284.29
284.297
284.297
284.289
284.274
284.253
284.228
284.199
284.169
284.14
284.113
284.087
284.064
284.044
284.027
284.012
283.999
283.988
283.978
283.97
283.963
283.956
283.95
283.944
283.939
283.934
283.929
283.925
283.92
283.915
283.91
283.905
283.9
283.895
283.89
283.885
283.879
283.874
283.868
283.863
283.857
283.851
283.845
283.839
283.834
283.828
283.822
283.816
283.811
283.806
283.801
283.796
283.791
283.787
283.784
283.781
283.779
283.778
283.777
283.778
283.78
283.784
283.789
283.796
283.806
283.818
283.834
283.853
283.877
283.904
283.936
283.975
284.024
284.097
284.221
284.437
284.763
285.148
285.486
285.706
285.835
284.751
284.288
284.342
284.356
284.355
284.351
284.346
284.34
284.333
284.324
284.314
284.299
284.281
284.263
284.245
284.248
284.259
284.273
284.289
284.302
284.311
284.312
284.304
284.287
284.264
284.235
284.204
284.172
284.142
284.113
284.088
284.066
284.047
284.031
284.017
284.006
283.996
283.988
283.982
283.975
283.97
283.965
283.96
283.956
283.951
283.946
283.942
283.937
283.932
283.927
283.922
283.916
283.911
283.905
283.899
283.893
283.887
283.881
283.875
283.868
283.862
283.856
283.85
283.844
283.837
283.831
283.825
283.819
283.814
283.808
283.803
283.797
283.793
283.789
283.785
283.782
283.78
283.779
283.779
283.781
283.784
283.789
283.796
283.806
283.819
283.835
283.855
283.879
283.907
283.94
283.979
284.028
284.099
284.219
284.425
284.738
285.116
285.459
285.696
285.837
284.74
284.294
284.349
284.362
284.361
284.357
284.353
284.347
284.34
284.332
284.322
284.308
284.291
284.271
284.258
284.259
284.268
284.283
284.299
284.314
284.323
284.325
284.316
284.298
284.272
284.241
284.207
284.174
284.143
284.115
284.09
284.069
284.052
284.037
284.026
284.017
284.009
284.003
283.997
283.993
283.988
283.984
283.98
283.975
283.971
283.966
283.962
283.957
283.951
283.946
283.94
283.934
283.928
283.921
283.914
283.908
283.901
283.894
283.887
283.88
283.873
283.866
283.86
283.853
283.847
283.84
283.834
283.828
283.822
283.816
283.81
283.804
283.799
283.794
283.79
283.787
283.784
283.783
283.782
283.783
283.786
283.791
283.798
283.809
283.822
283.839
283.859
283.884
283.913
283.947
283.986
284.035
284.105
284.221
284.419
284.721
285.092
285.439
285.688
285.84
284.729
284.3
284.355
284.368
284.367
284.364
284.36
284.355
284.349
284.341
284.331
284.318
284.302
284.281
284.269
284.269
284.277
284.292
284.309
284.325
284.335
284.336
284.326
284.306
284.278
284.244
284.209
284.175
284.144
284.117
284.094
284.074
284.059
284.047
284.038
284.031
284.026
284.021
284.017
284.014
284.01
284.006
284.002
283.998
283.994
283.989
283.983
283.978
283.972
283.965
283.959
283.952
283.944
283.937
283.929
283.921
283.913
283.905
283.897
283.89
283.882
283.875
283.868
283.861
283.854
283.848
283.842
283.836
283.829
283.823
283.817
283.812
283.806
283.801
283.796
283.792
283.789
283.787
283.787
283.788
283.791
283.796
283.803
283.814
283.828
283.846
283.867
283.893
283.923
283.957
283.996
284.045
284.114
284.227
284.419
284.712
285.075
285.424
285.683
285.843
284.717
284.305
284.361
284.375
284.374
284.37
284.367
284.363
284.357
284.35
284.34
284.329
284.314
284.293
284.28
284.278
284.286
284.301
284.319
284.335
284.345
284.346
284.334
284.312
284.281
284.246
284.211
284.177
284.146
284.12
284.099
284.082
284.07
284.061
284.054
284.049
284.046
284.043
284.04
284.038
284.035
284.031
284.027
284.023
284.018
284.012
284.006
284
283.992
283.985
283.977
283.968
283.96
283.951
283.942
283.933
283.923
283.914
283.905
283.896
283.888
283.88
283.873
283.866
283.86
283.854
283.848
283.842
283.836
283.83
283.824
283.818
283.813
283.807
283.803
283.798
283.795
283.793
283.793
283.794
283.797
283.803
283.811
283.822
283.837
283.856
283.879
283.905
283.936
283.97
284.009
284.058
284.127
284.238
284.424
284.709
285.066
285.415
285.681
285.847
284.706
284.308
284.366
284.382
284.381
284.376
284.373
284.37
284.366
284.359
284.351
284.339
284.322
284.302
284.289
284.287
284.295
284.31
284.328
284.345
284.355
284.354
284.34
284.316
284.283
284.247
284.211
284.178
284.149
284.125
284.107
284.093
284.083
284.077
284.073
284.071
284.069
284.068
284.066
284.064
284.061
284.058
284.054
284.049
284.043
284.036
284.029
284.021
284.012
284.003
283.994
283.983
283.973
283.962
283.952
283.941
283.93
283.919
283.909
283.899
283.89
283.882
283.875
283.869
283.863
283.857
283.852
283.846
283.841
283.836
283.83
283.825
283.819
283.814
283.809
283.805
283.802
283.8
283.8
283.802
283.805
283.812
283.821
283.834
283.85
283.87
283.893
283.921
283.952
283.986
284.026
284.074
284.142
284.252
284.435
284.712
285.062
285.41
285.681
285.85
284.694
284.309
284.371
284.389
284.389
284.384
284.379
284.376
284.374
284.369
284.361
284.35
284.331
284.311
284.298
284.296
284.304
284.32
284.338
284.355
284.364
284.361
284.344
284.317
284.283
284.246
284.211
284.179
284.153
284.132
284.116
284.106
284.1
284.096
284.095
284.095
284.095
284.095
284.094
284.092
284.089
284.086
284.081
284.075
284.068
284.06
284.051
284.041
284.031
284.02
284.008
283.996
283.983
283.971
283.958
283.945
283.932
283.92
283.908
283.898
283.889
283.881
283.875
283.869
283.864
283.86
283.855
283.851
283.846
283.841
283.836
283.831
283.826
283.821
283.816
283.813
283.81
283.809
283.809
283.811
283.816
283.824
283.835
283.848
283.866
283.887
283.911
283.939
283.971
284.005
284.044
284.092
284.16
284.27
284.449
284.721
285.065
285.41
285.684
285.854
284.682
284.307
284.373
284.397
284.4
284.395
284.388
284.381
284.381
284.377
284.371
284.36
284.34
284.32
284.306
284.304
284.313
284.33
284.349
284.365
284.372
284.365
284.346
284.317
284.281
284.245
284.211
284.182
284.158
284.141
284.129
284.122
284.118
284.118
284.119
284.121
284.122
284.123
284.122
284.121
284.117
284.113
284.107
284.1
284.091
284.082
284.071
284.059
284.046
284.033
284.019
284.005
283.99
283.975
283.959
283.944
283.93
283.916
283.903
283.893
283.885
283.878
283.873
283.87
283.866
283.863
283.86
283.857
283.853
283.848
283.844
283.839
283.834
283.829
283.825
283.821
283.82
283.819
283.821
283.824
283.83
283.839
283.851
283.867
283.885
283.907
283.933
283.961
283.992
284.027
284.065
284.113
284.181
284.29
284.468
284.735
285.072
285.414
285.689
285.858
284.673
284.304
284.371
284.403
284.41
284.406
284.399
284.389
284.388
284.385
284.379
284.367
284.347
284.326
284.313
284.312
284.322
284.34
284.359
284.374
284.378
284.368
284.345
284.314
284.278
284.243
284.212
284.186
284.165
284.151
284.143
284.139
284.14
284.142
284.145
284.148
284.15
284.151
284.151
284.149
284.145
284.139
284.132
284.123
284.113
284.101
284.088
284.074
284.059
284.043
284.027
284.009
283.992
283.974
283.957
283.939
283.923
283.908
283.896
283.887
283.88
283.877
283.875
283.873
283.872
283.871
283.869
283.866
283.862
283.858
283.853
283.848
283.843
283.839
283.835
283.833
283.832
283.832
283.835
283.84
283.848
283.858
283.872
283.889
283.908
283.931
283.957
283.986
284.017
284.05
284.088
284.135
284.204
284.314
284.491
284.754
285.085
285.422
285.696
285.861
284.662
284.309
284.364
284.401
284.413
284.411
284.404
284.397
284.395
284.392
284.386
284.373
284.352
284.331
284.318
284.319
284.331
284.35
284.369
284.382
284.382
284.368
284.342
284.309
284.275
284.242
284.214
284.191
284.174
284.164
284.159
284.159
284.162
284.167
284.172
284.176
284.178
284.179
284.178
284.175
284.17
284.164
284.155
284.144
284.132
284.118
284.103
284.086
284.068
284.05
284.03
284.01
283.99
283.97
283.95
283.931
283.914
283.899
283.889
283.883
283.881
283.881
283.882
283.884
283.884
283.884
283.882
283.878
283.874
283.869
283.864
283.859
283.855
283.851
283.848
283.847
283.847
283.85
283.854
283.861
283.87
283.882
283.896
283.914
283.935
283.958
283.984
284.012
284.042
284.074
284.111
284.158
284.228
284.34
284.517
284.776
285.102
285.433
285.704
285.865
284.651
284.329
284.351
284.388
284.403
284.404
284.398
284.393
284.394
284.395
284.39
284.377
284.355
284.334
284.322
284.326
284.341
284.361
284.379
284.388
284.384
284.365
284.337
284.304
284.271
284.242
284.217
284.198
284.185
284.179
284.178
284.181
284.187
284.193
284.199
284.203
284.205
284.206
284.204
284.2
284.193
284.185
284.175
284.162
284.148
284.132
284.114
284.095
284.074
284.052
284.03
284.007
283.985
283.963
283.942
283.923
283.906
283.894
283.888
283.887
283.889
283.894
283.898
283.901
283.901
283.9
283.897
283.893
283.888
283.883
283.878
283.873
283.87
283.867
283.866
283.866
283.868
283.871
283.877
283.885
283.896
283.909
283.925
283.943
283.964
283.987
284.013
284.04
284.069
284.099
284.135
284.182
284.254
284.368
284.546
284.803
285.122
285.447
285.714
285.868
284.639
284.366
284.345
284.367
284.381
284.385
284.384
284.384
284.387
284.39
284.388
284.376
284.355
284.334
284.326
284.334
284.351
284.372
284.388
284.392
284.382
284.36
284.33
284.298
284.268
284.243
284.222
284.207
284.198
284.196
284.198
284.204
284.211
284.219
284.224
284.228
284.23
284.229
284.226
284.22
284.213
284.203
284.191
284.177
284.16
284.142
284.121
284.099
284.076
284.051
284.026
284.002
283.978
283.956
283.935
283.918
283.905
283.897
283.896
283.9
283.907
283.913
283.918
283.92
283.92
283.918
283.913
283.909
283.904
283.899
283.895
283.892
283.889
283.888
283.888
283.89
283.893
283.898
283.905
283.915
283.926
283.94
283.956
283.975
283.995
284.018
284.042
284.068
284.095
284.124
284.158
284.206
284.28
284.398
284.578
284.832
285.145
285.463
285.725
285.87
284.625
284.418
284.366
284.361
284.365
284.368
284.371
284.375
284.381
284.385
284.385
284.374
284.352
284.333
284.33
284.342
284.362
284.382
284.395
284.393
284.377
284.352
284.322
284.293
284.267
284.245
284.229
284.218
284.213
284.214
284.22
284.227
284.236
284.243
284.248
284.251
284.251
284.248
284.244
284.237
284.227
284.216
284.202
284.186
284.168
284.147
284.125
284.1
284.075
284.048
284.022
283.996
283.972
283.951
283.933
283.92
283.912
283.91
283.913
283.92
283.928
283.934
283.938
283.939
283.938
283.935
283.932
283.928
283.924
283.921
283.918
283.916
283.915
283.915
283.916
283.919
283.924
283.93
283.938
283.948
283.96
283.974
283.99
284.008
284.028
284.049
284.072
284.096
284.12
284.147
284.18
284.229
284.306
284.429
284.612
284.864
285.17
285.481
285.736
285.87
284.61
284.477
284.422
284.397
284.386
284.381
284.381
284.382
284.384
284.385
284.383
284.37
284.347
284.332
284.335
284.352
284.373
284.392
284.399
284.39
284.369
284.342
284.314
284.289
284.268
284.251
284.238
284.231
284.23
284.234
284.242
284.25
284.259
284.265
284.268
284.269
284.267
284.263
284.256
284.248
284.237
284.224
284.209
284.191
284.172
284.149
284.125
284.099
284.072
284.044
284.017
283.992
283.97
283.952
283.938
283.93
283.927
283.928
283.933
283.94
283.947
283.952
283.956
283.957
283.957
283.956
283.954
283.952
283.95
283.948
283.946
283.946
283.946
283.947
283.95
283.954
283.959
283.966
283.974
283.984
283.996
284.01
284.025
284.042
284.06
284.08
284.1
284.122
284.144
284.17
284.202
284.252
284.333
284.46
284.646
284.896
285.197
285.499
285.747
285.87
284.586
284.522
284.485
284.459
284.438
284.422
284.411
284.401
284.392
284.384
284.377
284.361
284.339
284.331
284.343
284.363
284.385
284.399
284.399
284.383
284.359
284.332
284.308
284.288
284.271
284.259
284.25
284.246
284.248
284.255
284.263
284.272
284.279
284.283
284.284
284.282
284.278
284.272
284.264
284.254
284.241
284.227
284.211
284.192
284.172
284.148
284.123
284.096
284.069
284.041
284.016
283.992
283.973
283.958
283.948
283.943
283.943
283.947
283.953
283.959
283.966
283.972
283.976
283.979
283.981
283.981
283.981
283.98
283.979
283.979
283.979
283.979
283.981
283.983
283.986
283.991
283.996
284.003
284.011
284.021
284.032
284.045
284.059
284.074
284.091
284.108
284.127
284.146
284.166
284.19
284.223
284.275
284.359
284.491
284.679
284.928
285.222
285.516
285.756
285.867
284.247
284.226
284.227
284.245
284.265
284.282
284.295
284.306
284.316
284.33
284.342
284.339
284.328
284.334
284.353
284.375
284.394
284.403
284.394
284.373
284.347
284.323
284.304
284.289
284.278
284.269
284.264
284.263
284.267
284.275
284.284
284.291
284.295
284.297
284.295
284.291
284.284
284.276
284.266
284.254
284.241
284.226
284.209
284.189
284.168
284.145
284.12
284.094
284.067
284.04
284.016
283.995
283.979
283.967
283.96
283.958
283.96
283.964
283.971
283.978
283.986
283.992
283.998
284.002
284.005
284.007
284.009
284.01
284.011
284.012
284.013
284.015
284.017
284.02
284.024
284.028
284.034
284.04
284.048
284.057
284.067
284.079
284.091
284.105
284.119
284.134
284.15
284.167
284.185
284.209
284.243
284.297
284.386
284.521
284.711
284.958
285.246
285.532
285.765
285.863
284.15
284.158
284.156
284.153
284.164
284.187
284.214
284.242
284.273
284.304
284.327
284.327
284.325
284.344
284.367
284.387
284.402
284.402
284.385
284.36
284.336
284.318
284.305
284.295
284.287
284.281
284.279
284.281
284.287
284.294
284.302
284.306
284.307
284.306
284.301
284.295
284.286
284.275
284.264
284.25
284.236
284.22
284.202
284.183
284.163
284.14
284.116
284.091
284.066
284.041
284.02
284.001
283.987
283.978
283.973
283.973
283.976
283.981
283.988
283.996
284.004
284.012
284.019
284.025
284.03
284.033
284.037
284.04
284.042
284.044
284.047
284.05
284.052
284.056
284.06
284.064
284.07
284.076
284.083
284.091
284.1
284.11
284.121
284.132
284.144
284.157
284.171
284.185
284.202
284.225
284.26
284.317
284.409
284.548
284.74
284.986
285.268
285.546
285.771
285.857
284.187
284.206
284.208
284.204
284.194
284.196
284.212
284.238
284.273
284.31
284.329
284.323
284.332
284.36
284.38
284.396
284.405
284.395
284.371
284.346
284.327
284.316
284.309
284.303
284.299
284.296
284.295
284.299
284.305
284.311
284.316
284.317
284.315
284.311
284.303
284.294
284.283
284.271
284.257
284.243
284.227
284.211
284.194
284.175
284.155
284.134
284.112
284.089
284.066
284.044
284.025
284.009
283.997
283.99
283.987
283.987
283.991
283.997
284.004
284.012
284.021
284.03
284.038
284.045
284.051
284.057
284.062
284.066
284.07
284.074
284.078
284.081
284.085
284.089
284.093
284.097
284.103
284.108
284.115
284.122
284.129
284.138
284.147
284.156
284.166
284.176
284.187
284.2
284.216
284.238
284.274
284.333
284.429
284.571
284.765
285.009
285.286
285.558
285.775
285.849
284.217
284.242
284.245
284.249
284.238
284.23
284.236
284.258
284.293
284.327
284.331
284.323
284.348
284.377
284.39
284.403
284.403
284.383
284.355
284.335
284.324
284.319
284.317
284.315
284.312
284.311
284.313
284.317
284.321
284.325
284.326
284.325
284.32
284.312
284.302
284.29
284.277
284.263
284.248
284.233
284.217
284.201
284.184
284.166
284.147
284.128
284.107
284.087
284.067
284.048
284.031
284.018
284.008
284.002
284
284.001
284.005
284.011
284.018
284.027
284.036
284.045
284.053
284.062
284.069
284.076
284.083
284.089
284.094
284.099
284.103
284.108
284.112
284.117
284.121
284.126
284.131
284.136
284.141
284.147
284.154
284.161
284.168
284.176
284.184
284.192
284.201
284.212
284.226
284.248
284.285
284.346
284.443
284.588
284.785
285.029
285.301
285.567
285.777
285.839
284.241
284.272
284.266
284.284
284.277
284.264
284.265
284.286
284.319
284.341
284.324
284.334
284.37
284.391
284.396
284.404
284.395
284.366
284.341
284.328
284.325
284.326
284.328
284.328
284.327
284.327
284.329
284.332
284.335
284.336
284.334
284.329
284.321
284.311
284.299
284.285
284.27
284.255
284.239
284.223
284.207
284.19
284.174
284.157
284.139
284.122
284.104
284.086
284.069
284.053
284.039
284.027
284.019
284.014
284.012
284.014
284.017
284.023
284.03
284.038
284.047
284.056
284.065
284.074
284.083
284.091
284.098
284.105
284.112
284.118
284.123
284.129
284.134
284.139
284.143
284.148
284.153
284.158
284.163
284.168
284.174
284.179
284.185
284.191
284.197
284.204
284.211
284.22
284.234
284.255
284.292
284.353
284.452
284.599
284.798
285.043
285.313
285.573
285.777
285.828
284.262
284.297
284.277
284.314
284.31
284.293
284.294
284.316
284.342
284.345
284.323
284.354
284.392
284.399
284.398
284.401
284.38
284.349
284.331
284.327
284.331
284.338
284.342
284.343
284.343
284.344
284.345
284.346
284.347
284.345
284.34
284.332
284.321
284.309
284.295
284.28
284.264
284.247
284.231
284.215
284.198
284.182
284.166
284.15
284.133
284.117
284.102
284.086
284.071
284.058
284.046
284.037
284.03
284.026
284.025
284.026
284.029
284.034
284.041
284.048
284.056
284.065
284.074
284.083
284.092
284.1
284.108
284.116
284.123
284.13
284.137
284.143
284.149
284.154
284.159
284.164
284.169
284.174
284.179
284.184
284.188
284.193
284.198
284.202
284.207
284.212
284.218
284.226
284.239
284.259
284.295
284.356
284.456
284.605
284.807
285.053
285.321
285.577
285.774
285.814
284.28
284.316
284.287
284.34
284.335
284.318
284.322
284.341
284.355
284.344
284.341
284.379
284.41
284.4
284.397
284.392
284.362
284.334
284.326
284.332
284.342
284.351
284.357
284.359
284.359
284.359
284.359
284.359
284.357
284.352
284.344
284.334
284.322
284.307
284.292
284.276
284.26
284.243
284.226
284.21
284.193
284.177
284.161
284.146
284.131
284.116
284.102
284.088
284.075
284.064
284.054
284.046
284.041
284.038
284.036
284.037
284.04
284.045
284.05
284.057
284.064
284.072
284.081
284.089
284.098
284.106
284.114
284.122
284.13
284.137
284.144
284.151
284.158
284.164
284.169
284.175
284.18
284.185
284.189
284.194
284.198
284.202
284.206
284.21
284.214
284.218
284.223
284.23
284.241
284.261
284.296
284.357
284.456
284.607
284.811
285.059
285.327
285.578
285.768
285.799
284.296
284.332
284.304
284.355
284.354
284.342
284.346
284.358
284.361
284.346
284.363
284.4
284.419
284.396
284.392
284.378
284.344
284.326
284.328
284.341
284.355
284.366
284.372
284.374
284.375
284.374
284.372
284.37
284.365
284.358
284.349
284.337
284.323
284.308
284.293
284.276
284.26
284.243
284.227
284.211
284.194
284.178
284.163
284.147
284.133
284.119
284.105
284.093
284.082
284.072
284.064
284.057
284.053
284.05
284.049
284.05
284.052
284.056
284.061
284.067
284.073
284.08
284.087
284.095
284.103
284.111
284.119
284.126
284.134
284.141
284.149
284.155
284.162
284.168
284.174
284.18
284.185
284.19
284.195
284.199
284.203
284.207
284.21
284.214
284.217
284.221
284.225
284.231