/*--------------------------------*- C++ -*----------------------------------*\
| =========                 |                                                 |
| \\      /  F ield         | OpenFOAM: The Open Source CFD Toolbox           |
|  \\    /   O peration     | Version:  4.1                                   |
|   \\  /    A nd           | Web:      www.OpenFOAM.org                      |
|    \\/     M anipulation  |                                                 |
\*---------------------------------------------------------------------------*/
FoamFile
{
    version     2.0;
    format      ascii;
    class       surfaceScalarField;
    location    "900";
    object      phi;
}
// * * * * * * * * * * * * * * * * * * * * * * * * * * * * * * * * * * * * * //

dimensions      [0 3 -1 0 0 0 0];

internalField   nonuniform List<scalar> 
9850
(
-2.36658e-06
2.36658e-06
1.13923e-06
-3.50581e-06
4.21855e-06
-3.07931e-06
5.85973e-06
-1.64118e-06
6.78209e-06
-9.2236e-07
7.11605e-06
-3.33959e-07
6.28815e-06
8.27896e-07
3.69856e-06
2.58959e-06
6.19518e-07
3.07904e-06
-4.25667e-06
4.87619e-06
-6.83909e-06
2.58241e-06
-6.68745e-06
-1.51638e-07
-4.88296e-06
-1.80449e-06
-2.54075e-06
-2.3422e-06
-6.2879e-07
-1.91196e-06
5.74347e-07
-1.20314e-06
1.36313e-06
-7.88784e-07
1.98207e-06
-6.18935e-07
2.52548e-06
-5.43411e-07
3.05807e-06
-5.3259e-07
3.62658e-06
-5.68511e-07
4.26968e-06
-6.43096e-07
5.02262e-06
-7.52941e-07
5.92031e-06
-8.97696e-07
6.99685e-06
-1.07653e-06
8.2748e-06
-1.27796e-06
9.73633e-06
-1.46153e-06
1.12758e-05
-1.53949e-06
1.26638e-05
-1.38801e-06
1.35841e-05
-9.20317e-07
1.37057e-05
-1.21504e-07
1.27466e-05
9.59048e-07
1.06427e-05
2.10387e-06
7.70987e-06
2.93287e-06
4.86067e-06
2.8492e-06
3.11734e-06
1.74333e-06
2.76924e-06
3.48095e-07
3.32439e-06
-5.55151e-07
4.24466e-06
-9.20268e-07
5.19116e-06
-9.465e-07
6.02387e-06
-8.32704e-07
6.70188e-06
-6.78017e-07
7.23324e-06
-5.31358e-07
7.6496e-06
-4.16358e-07
7.99139e-06
-3.41787e-07
8.29009e-06
-2.98708e-07
8.52183e-06
-2.3174e-07
8.41262e-06
1.09213e-07
6.97373e-06
1.43889e-06
2.30586e-06
4.66787e-06
-9.73981e-07
3.27984e-06
1.84709e-06
-2.82107e-06
4.83891e-06
-2.99182e-06
4.72428e-06
1.14631e-07
5.71928e-08
4.66709e-06
-6.31808e-06
6.37528e-06
-8.10832e-06
1.79023e-06
-6.32323e-06
-1.78508e-06
-3.40784e-06
-2.91539e-06
-1.07945e-06
-2.3284e-06
5.23654e-07
-1.6031e-06
1.38535e-06
-8.61692e-07
1.76035e-06
-3.75004e-07
1.83515e-06
-7.47964e-08
1.73352e-06
1.0163e-07
1.5072e-06
2.26317e-07
1.12754e-06
3.79655e-07
4.87781e-07
6.39763e-07
-8.21016e-07
1.3088e-06
-3.95003e-06
3.12902e-06
-8.16149e-06
4.21146e-06
-1.12631e-05
3.1016e-06
-1.27644e-05
1.50134e-06
-1.31126e-05
3.48185e-07
-1.27871e-05
-3.25485e-07
-1.2092e-05
-6.95159e-07
-1.11813e-05
-9.10659e-07
-1.01521e-05
-1.02916e-06
-9.08121e-06
-1.07094e-06
-8.02451e-06
-1.0567e-06
-7.01182e-06
-1.01268e-06
-6.05007e-06
-9.61758e-07
-5.13388e-06
-9.16185e-07
-4.25653e-06
-8.77348e-07
-3.41744e-06
-8.39091e-07
-2.62657e-06
-7.90877e-07
-1.90845e-06
-7.18113e-07
-1.30774e-06
-6.00717e-07
-8.97178e-07
-4.10558e-07
-7.67534e-07
-1.29644e-07
-9.23846e-07
1.56312e-07
-1.20887e-06
2.85026e-07
-1.46626e-06
2.57388e-07
-1.58969e-06
1.23428e-07
-1.51391e-06
-7.57755e-08
-1.16558e-06
-3.48335e-07
-4.17628e-07
-7.4795e-07
9.92426e-07
-1.41005e-06
2.3249e-06
-1.33248e-06
2.3249e-06
-1.05405e-06
3.42062e-06
1.31995e-06
-5.87981e-06
3.22346e-06
-4.98282e-06
4.15569e-06
-2.5734e-06
4.78995e-06
-1.55662e-06
4.15173e-06
3.04257e-07
2.60223e-06
2.37739e-06
8.38133e-07
4.35369e-06
-2.52416e-07
4.16959e-06
-2.43188e-06
7.05565e-06
-4.51471e-06
4.66524e-06
-5.09823e-06
4.31885e-07
-3.83176e-06
-3.07097e-06
-2.33441e-06
-3.83955e-06
-1.18411e-06
-3.06227e-06
-1.75634e-07
-2.21161e-06
6.9713e-07
-1.66155e-06
1.44325e-06
-1.36505e-06
2.12404e-06
-1.22421e-06
2.77111e-06
-1.17965e-06
3.40552e-06
-1.20292e-06
4.04495e-06
-1.28252e-06
4.70786e-06
-1.41586e-06
5.41566e-06
-1.6055e-06
6.19316e-06
-1.85403e-06
7.06579e-06
-2.15059e-06
8.04799e-06
-2.44372e-06
9.11123e-06
-2.60274e-06
1.01243e-05
-2.40103e-06
1.08082e-05
-1.60428e-06
1.0873e-05
-1.86311e-07
1.0282e-05
1.55006e-06
9.26126e-06
3.12462e-06
8.23916e-06
3.95497e-06
7.51296e-06
3.5754e-06
7.07611e-06
2.18018e-06
6.85551e-06
5.68697e-07
6.9398e-06
-6.39445e-07
7.2108e-06
-1.19127e-06
7.55563e-06
-1.29133e-06
7.88163e-06
-1.1587e-06
8.14412e-06
-9.40508e-07
8.33272e-06
-7.1996e-07
8.45571e-06
-5.39347e-07
8.52573e-06
-4.11806e-07
8.55189e-06
-3.24866e-07
8.52417e-06
-2.0402e-07
8.32695e-06
3.06433e-07
7.55805e-06
2.20779e-06
6.13241e-06
6.09351e-06
2.83992e-06
6.57233e-06
2.30605e-06
-2.2872e-06
3.45062e-06
-4.13639e-06
1.78039e-06
1.78486e-06
-1.68391e-06
8.13139e-06
-4.53027e-06
9.22164e-06
-5.77099e-06
3.03095e-06
-4.33284e-06
-3.22323e-06
-2.50756e-06
-4.74067e-06
-9.94816e-07
-3.84114e-06
1.40798e-07
-2.73871e-06
1.05583e-06
-1.77673e-06
1.66811e-06
-9.87281e-07
1.95772e-06
-3.64405e-07
1.93157e-06
1.27777e-07
1.62438e-06
5.33513e-07
1.06967e-06
9.34364e-07
2.71014e-07
1.43842e-06
-1.05704e-06
2.63685e-06
-3.46852e-06
5.5405e-06
-6.77742e-06
7.52036e-06
-9.78421e-06
6.10838e-06
-1.16734e-05
3.3905e-06
-1.24704e-05
1.14523e-06
-1.25003e-05
-2.95589e-07
-1.20743e-05
-1.12121e-06
-1.13849e-05
-1.60006e-06
-1.05467e-05
-1.86729e-06
-9.64305e-06
-1.97461e-06
-8.72543e-06
-1.97432e-06
-7.81314e-06
-1.92498e-06
-6.9042e-06
-1.87069e-06
-5.98945e-06
-1.83094e-06
-5.06171e-06
-1.80508e-06
-4.11946e-06
-1.78134e-06
-3.16713e-06
-1.7432e-06
-2.21318e-06
-1.67206e-06
-1.26723e-06
-1.54667e-06
-3.36775e-07
-1.34101e-06
5.34962e-07
-1.00138e-06
1.15981e-06
-4.68539e-07
1.43851e-06
6.32633e-09
1.47258e-06
2.23318e-07
1.35379e-06
2.42217e-07
1.17241e-06
1.05613e-07
1.07308e-06
-2.49006e-07
1.09227e-06
-7.6714e-07
1.0967e-06
-1.41449e-06
1.46864e-06
-1.70442e-06
3.79355e-06
-3.55397e-07
3.77602e-06
1.03132e-06
-7.26652e-06
2.00826e-06
-5.95977e-06
2.3328e-06
-2.89794e-06
1.12506e-06
-3.48879e-07
-4.63695e-07
1.89301e-06
-1.24734e-06
3.16104e-06
-1.01782e-06
4.12417e-06
-9.00162e-07
4.05193e-06
-9.70332e-07
7.12582e-06
-2.13202e-06
5.82693e-06
-2.94444e-06
1.24431e-06
-2.19941e-06
-3.816e-06
-1.47758e-06
-4.56138e-06
-8.87752e-07
-3.6521e-06
-2.99824e-07
-2.79954e-06
2.99408e-07
-2.26078e-06
8.76581e-07
-1.94223e-06
1.43695e-06
-1.78458e-06
1.9881e-06
-1.7308e-06
2.53609e-06
-1.75092e-06
3.08371e-06
-1.83014e-06
3.63075e-06
-1.96289e-06
4.17436e-06
-2.14911e-06
4.70999e-06
-2.38966e-06
5.2344e-06
-2.675e-06
5.75184e-06
-2.96116e-06
6.27672e-06
-3.12762e-06
6.80517e-06
-2.92949e-06
7.25857e-06
-2.05768e-06
7.5196e-06
-4.47336e-07
7.63813e-06
1.43153e-06
7.79667e-06
2.96608e-06
8.18875e-06
3.56289e-06
8.75057e-06
3.01358e-06
9.22674e-06
1.70401e-06
9.46951e-06
3.25928e-07
9.48432e-06
-6.54259e-07
9.41509e-06
-1.12203e-06
9.33035e-06
-1.20659e-06
9.24056e-06
-1.06891e-06
9.13047e-06
-8.30415e-07
8.97654e-06
-5.66027e-07
8.75312e-06
-3.15928e-07
8.44323e-06
-1.01918e-07
8.04536e-06
7.30079e-08
7.58039e-06
2.6095e-07
7.14628e-06
7.4054e-07
6.74499e-06
2.60908e-06
5.75926e-06
7.07924e-06
3.41664e-06
8.91495e-06
1.84825e-06
-7.18806e-07
1.17381e-06
-3.46195e-06
4.27897e-07
2.53078e-06
-8.54127e-07
9.41341e-06
-2.50209e-06
1.08696e-05
-2.71806e-06
3.24692e-06
-1.76236e-06
-4.17893e-06
-8.44722e-07
-5.65831e-06
1.20665e-07
-4.80653e-06
9.28191e-07
-3.54624e-06
1.55204e-06
-2.40058e-06
1.95818e-06
-1.39342e-06
2.08952e-06
-4.95744e-07
1.91254e-06
3.0476e-07
1.40956e-06
1.0365e-06
6.08907e-07
1.73501e-06
-4.56299e-07
2.50362e-06
-1.91649e-06
4.09705e-06
-3.74264e-06
7.36665e-06
-6.04741e-06
9.82513e-06
-8.45715e-06
8.51811e-06
-1.02202e-05
5.15356e-06
-1.11648e-05
2.08981e-06
-1.14589e-05
-1.50707e-09
-1.12873e-05
-1.29274e-06
-1.08116e-05
-2.07584e-06
-1.01639e-05
-2.51499e-06
-9.43842e-06
-2.70005e-06
-8.68267e-06
-2.73007e-06
-7.90672e-06
-2.70093e-06
-7.10378e-06
-2.67363e-06
-6.26532e-06
-2.6694e-06
-5.38699e-06
-2.68341e-06
-4.46917e-06
-2.69916e-06
-3.51581e-06
-2.69657e-06
-2.53268e-06
-2.65519e-06
-1.52323e-06
-2.55612e-06
-4.84057e-07
-2.38018e-06
5.73187e-07
-2.05862e-06
1.51693e-06
-1.41228e-06
2.20388e-06
-6.80627e-07
2.52874e-06
-1.01542e-07
2.53633e-06
2.34629e-07
2.34119e-06
3.00755e-07
2.0051e-06
8.70836e-08
1.62482e-06
-3.8686e-07
1.22788e-06
-1.01756e-06
9.32161e-07
-1.40869e-06
4.72571e-06
-1.53131e-08
3.79133e-06
3.58697e-07
-7.64053e-06
2.2067e-08
-5.62314e-06
-1.50766e-06
-1.36821e-06
-3.49643e-06
1.63988e-06
-4.08063e-06
2.47721e-06
-3.87592e-06
2.95634e-06
-2.77926e-06
3.02751e-06
-1.9689e-06
3.24157e-06
-4.75743e-07
5.63267e-06
-3.30391e-07
5.68158e-06
-3.57564e-07
1.27149e-06
-4.32853e-07
-3.74071e-06
-6.64177e-07
-4.33005e-06
-6.91994e-07
-3.62428e-06
-4.97194e-07
-2.99434e-06
-1.5588e-07
-2.6021e-06
2.69012e-07
-2.36712e-06
7.30554e-07
-2.24612e-06
1.21301e-06
-2.21325e-06
1.70865e-06
-2.24656e-06
2.20837e-06
-2.32987e-06
2.69907e-06
-2.4536e-06
3.16182e-06
-2.61186e-06
3.57058e-06
-2.79842e-06
3.89409e-06
-2.99851e-06
4.10714e-06
-3.17421e-06
4.21909e-06
-3.23957e-06
4.31891e-06
-3.0293e-06
4.57862e-06
-2.31739e-06
5.08583e-06
-9.54548e-07
5.85353e-06
6.63831e-07
6.88241e-06
1.9372e-06
8.10223e-06
2.34307e-06
9.24574e-06
1.87007e-06
1.00166e-05
9.33132e-07
1.03189e-05
2.36334e-08
1.026e-05
-5.95364e-07
1.00189e-05
-8.8093e-07
9.71483e-06
-9.02511e-07
9.40064e-06
-7.54723e-07
9.08248e-06
-5.12252e-07
8.73802e-06
-2.21567e-07
8.34134e-06
8.07509e-08
7.87355e-06
3.65873e-07
7.32262e-06
6.23934e-07
6.69665e-06
8.86923e-07
6.07966e-06
1.35753e-06
5.58009e-06
3.10866e-06
4.58067e-06
8.07865e-06
2.39249e-06
1.11031e-05
2.50839e-07
1.42284e-06
-8.11921e-07
-2.39919e-06
-4.68584e-07
2.18744e-06
1.86379e-07
8.75845e-06
-2.63736e-07
1.13197e-05
6.75578e-07
2.3076e-06
8.89564e-07
-4.39292e-06
1.03744e-06
-5.80618e-06
1.35105e-06
-5.12014e-06
1.7475e-06
-3.94269e-06
2.10294e-06
-2.75602e-06
2.30648e-06
-1.59696e-06
2.2778e-06
-4.67069e-07
1.96239e-06
6.20173e-07
1.33039e-06
1.6685e-06
3.85185e-07
2.68021e-06
-8.96411e-07
3.78522e-06
-2.49811e-06
5.69874e-06
-4.11615e-06
8.98469e-06
-5.83932e-06
1.15483e-05
-7.74484e-06
1.04236e-05
-9.31283e-06
6.72156e-06
-1.02781e-05
3.0551e-06
-1.06823e-05
4.02625e-07
-1.06529e-05
-1.32207e-06
-1.03403e-05
-2.38848e-06
-9.87521e-06
-2.98007e-06
-9.34065e-06
-3.23461e-06
-8.76517e-06
-3.30556e-06
-8.14534e-06
-3.32075e-06
-7.471e-06
-3.34797e-06
-6.73657e-06
-3.40382e-06
-5.94195e-06
-3.47803e-06
-5.09036e-06
-3.55076e-06
-4.18683e-06
-3.6001e-06
-3.23774e-06
-3.60428e-06
-2.25163e-06
-3.54224e-06
-1.23865e-06
-3.39316e-06
-1.66083e-07
-3.13119e-06
9.78026e-07
-2.55639e-06
1.93896e-06
-1.64156e-06
2.56559e-06
-7.28174e-07
2.80232e-06
-2.10423e-09
2.71977e-06
3.83306e-07
2.40795e-06
3.9891e-07
1.91931e-06
1.01773e-07
1.34068e-06
-4.38923e-07
7.65048e-07
-8.33063e-07
5.49075e-06
1.26813e-10
3.79121e-06
-5.76727e-07
-7.06368e-06
-1.91971e-06
-4.28016e-06
-3.93738e-06
6.49459e-07
-5.24076e-06
2.94326e-06
-5.97093e-06
3.20739e-06
-5.74244e-06
2.72784e-06
-4.78579e-06
2.07086e-06
-3.61646e-06
2.07224e-06
-1.29252e-06
3.30872e-06
6.55331e-07
3.73373e-06
1.45606e-06
4.70759e-07
5.43089e-07
-2.82774e-06
-3.19856e-07
-3.46711e-06
-7.41158e-07
-3.20298e-06
-7.68751e-07
-2.96674e-06
-5.76631e-07
-2.79421e-06
-2.53061e-07
-2.69069e-06
1.47323e-07
-2.64651e-06
5.87817e-07
-2.65374e-06
1.04937e-06
-2.70811e-06
1.51844e-06
-2.79894e-06
1.97852e-06
-2.91367e-06
2.40915e-06
-3.04249e-06
2.78473e-06
-3.174e-06
3.07418e-06
-3.28796e-06
3.24711e-06
-3.34714e-06
3.29759e-06
-3.29005e-06
3.29492e-06
-3.02663e-06
3.43292e-06
-2.45539e-06
4.00618e-06
-1.52781e-06
5.06005e-06
-3.90037e-07
6.45513e-06
5.42111e-07
7.89132e-06
9.06879e-07
9.04803e-06
7.13361e-07
9.73483e-06
2.46332e-07
9.96926e-06
-2.10795e-07
9.89044e-06
-5.16546e-07
9.63753e-06
-6.28016e-07
9.30737e-06
-5.7235e-07
8.94819e-06
-3.95544e-07
8.56991e-06
-1.33974e-07
8.1679e-06
1.80444e-07
7.72798e-06
5.20671e-07
7.22385e-06
8.70007e-07
6.6293e-06
1.21848e-06
5.93572e-06
1.5805e-06
5.18845e-06
2.10479e-06
4.52891e-06
3.7682e-06
3.50728e-06
9.10028e-06
1.37321e-06
1.32372e-05
-1.14898e-06
3.94503e-06
-2.27628e-06
-1.2719e-06
-1.47624e-06
1.3874e-06
6.83615e-07
6.5986e-06
2.17793e-06
9.82541e-06
3.64257e-06
8.42964e-07
3.1797e-06
-3.93005e-06
2.65054e-06
-5.27702e-06
2.41043e-06
-4.88003e-06
2.42936e-06
-3.96162e-06
2.52613e-06
-2.85278e-06
2.53668e-06
-1.60752e-06
2.35453e-06
-2.84927e-07
1.91146e-06
1.06325e-06
1.14479e-06
2.43517e-06
6.58234e-08
3.75918e-06
-1.43086e-06
5.2819e-06
-3.14591e-06
7.41379e-06
-4.66865e-06
1.05074e-05
-6.00737e-06
1.2887e-05
-7.47432e-06
1.18906e-05
-8.80424e-06
8.05148e-06
-9.69658e-06
3.94744e-06
-1.01176e-05
8.23689e-07
-1.01707e-05
-1.26902e-06
-9.99654e-06
-2.56264e-06
-9.71278e-06
-3.26383e-06
-9.37548e-06
-3.57191e-06
-8.98697e-06
-3.69407e-06
-8.53149e-06
-3.77623e-06
-7.99871e-06
-3.88076e-06
-7.38727e-06
-4.01526e-06
-6.70078e-06
-4.16453e-06
-5.94444e-06
-4.3071e-06
-5.12407e-06
-4.42046e-06
-4.24643e-06
-4.48192e-06
-3.32027e-06
-4.4684e-06
-2.35824e-06
-4.35519e-06
-1.38126e-06
-4.10816e-06
-2.76949e-07
-3.66071e-06
9.12093e-07
-2.8306e-06
1.86724e-06
-1.68332e-06
2.39276e-06
-5.27629e-07
2.49368e-06
2.82385e-07
2.30918e-06
5.8341e-07
1.9145e-06
4.96453e-07
1.34749e-06
1.28086e-07
6.48713e-07
-1.34284e-07
6.13947e-06
-1.74377e-07
3.96558e-06
-1.28475e-06
-5.95331e-06
-2.67048e-06
-2.89443e-06
-4.33503e-06
2.31402e-06
-5.69328e-06
4.30151e-06
-6.51707e-06
4.03117e-06
-6.59392e-06
2.8047e-06
-6.08437e-06
1.56131e-06
-5.00276e-06
9.90633e-07
-2.80995e-06
1.11591e-06
-2.97846e-07
1.22163e-06
6.37878e-07
-4.64965e-07
-2.56572e-08
-2.16421e-06
-7.6093e-07
-2.73183e-06
-1.05392e-06
-2.90999e-06
-1.07083e-06
-2.94983e-06
-9.11685e-07
-2.95336e-06
-6.38153e-07
-2.96422e-06
-2.85911e-07
-2.99875e-06
1.18385e-07
-3.05804e-06
5.48582e-07
-3.1383e-06
9.87333e-07
-3.23769e-06
1.42165e-06
-3.34799e-06
1.83619e-06
-3.45704e-06
2.2146e-06
-3.5524e-06
2.541e-06
-3.61436e-06
2.80556e-06
-3.6117e-06
3.01579e-06
-3.50029e-06
3.21719e-06
-3.22803e-06
3.51603e-06
-2.75423e-06
4.07797e-06
-2.08975e-06
5.02999e-06
-1.34205e-06
6.25584e-06
-6.83743e-07
7.47722e-06
-3.14496e-07
8.43712e-06
-2.4654e-07
9.03008e-06
-3.46626e-07
9.28565e-06
-4.66371e-07
9.28256e-06
-5.13457e-07
9.1077e-06
-4.53147e-07
8.82809e-06
-2.92749e-07
8.48169e-06
-4.91399e-08
8.09286e-06
2.54855e-07
7.67092e-06
6.02384e-07
7.20594e-06
9.85649e-07
6.67654e-06
1.39941e-06
6.05718e-06
1.83784e-06
5.32995e-06
2.30773e-06
4.51551e-06
2.91924e-06
3.75902e-06
4.52468e-06
2.79695e-06
1.00624e-05
8.65277e-07
1.51689e-05
-1.79215e-06
6.60246e-06
-3.06222e-06
-1.82425e-09
-2.48025e-06
8.05428e-07
2.61506e-07
3.85684e-06
3.2979e-06
6.78902e-06
4.58609e-06
-4.45227e-07
4.07489e-06
-3.41886e-06
3.29077e-06
-4.4929e-06
2.84043e-06
-4.42968e-06
2.66973e-06
-3.79092e-06
2.58784e-06
-2.77089e-06
2.4325e-06
-1.45218e-06
2.107e-06
4.05654e-08
1.52705e-06
1.64321e-06
5.52981e-07
3.40924e-06
-7.71461e-07
5.08362e-06
-2.37884e-06
6.88929e-06
-4.03875e-06
9.07369e-06
-5.41465e-06
1.18833e-05
-6.4486e-06
1.3921e-05
-7.51549e-06
1.29575e-05
-8.57168e-06
9.10767e-06
-9.33469e-06
4.71045e-06
-9.72494e-06
1.21393e-06
-9.83137e-06
-1.16258e-06
-9.78767e-06
-2.60634e-06
-9.68571e-06
-3.36579e-06
-9.54366e-06
-3.71396e-06
-9.33772e-06
-3.9e-06
-9.04533e-06
-4.06862e-06
-8.65924e-06
-4.26685e-06
-8.18229e-06
-4.49221e-06
-7.62045e-06
-4.72637e-06
-6.97983e-06
-4.94772e-06
-6.26628e-06
-5.13401e-06
-5.48605e-06
-5.26215e-06
-4.64705e-06
-5.30741e-06
-3.76045e-06
-5.24179e-06
-2.8386e-06
-5.03001e-06
-1.87361e-06
-4.62569e-06
-7.42252e-07
-3.96196e-06
4.75573e-07
-2.90114e-06
1.42336e-06
-1.47541e-06
1.80844e-06
-1.02692e-07
1.78855e-06
6.03294e-07
1.56045e-06
7.24551e-07
1.14449e-06
5.44048e-07
5.34319e-07
4.75889e-07
6.67379e-06
-3.88611e-07
4.35419e-06
-1.51765e-06
-4.82427e-06
-2.4838e-06
-1.92828e-06
-3.75905e-06
3.58927e-06
-5.16154e-06
5.704e-06
-6.0744e-06
4.94402e-06
-6.33658e-06
3.06688e-06
-6.06585e-06
1.29058e-06
-5.20183e-06
1.26617e-07
-3.67197e-06
-4.13956e-07
-1.87343e-06
-5.76904e-07
-1.10492e-06
-1.23348e-06
-1.2006e-06
-2.06853e-06
-1.37006e-06
-2.56237e-06
-1.43082e-06
-2.84924e-06
-1.36429e-06
-3.01636e-06
-1.19067e-06
-3.12698e-06
-9.3598e-07
-3.21891e-06
-6.22697e-07
-3.31203e-06
-2.65593e-07
-3.41514e-06
1.24502e-07
-3.5284e-06
5.31831e-07
-3.64502e-06
9.43278e-07
-3.75944e-06
1.35025e-06
-3.86401e-06
1.74397e-06
-3.94612e-06
2.11831e-06
-3.98871e-06
2.47444e-06
-3.96782e-06
2.82737e-06
-3.85322e-06
3.21435e-06
-3.61501e-06
3.6979e-06
-3.23778e-06
4.34788e-06
-2.73972e-06
5.19119e-06
-2.18537e-06
6.17708e-06
-1.66963e-06
7.14553e-06
-1.28294e-06
7.93987e-06
-1.04088e-06
8.48145e-06
-8.88213e-07
8.76547e-06
-7.50385e-07
8.82675e-06
-5.74739e-07
8.71515e-06
-3.41549e-07
8.47494e-06
-5.25386e-08
8.14303e-06
2.82773e-07
7.74711e-06
6.50768e-07
7.30077e-06
1.04872e-06
6.80555e-06
1.48088e-06
6.25056e-06
1.9544e-06
5.6153e-06
2.4731e-06
4.87978e-06
3.04325e-06
4.05278e-06
3.74624e-06
3.27102e-06
5.30644e-06
2.44335e-06
1.089e-05
8.4108e-07
1.67711e-05
-1.84706e-06
9.2906e-06
-3.08563e-06
1.23675e-06
-2.78051e-06
5.00307e-07
-4.92334e-07
1.56866e-06
3.14331e-06
3.15338e-06
3.80028e-06
-1.1022e-06
3.44689e-06
-3.06547e-06
2.91624e-06
-3.96225e-06
2.55752e-06
-4.07096e-06
2.32892e-06
-3.56232e-06
2.11301e-06
-2.55499e-06
1.80546e-06
-1.14463e-06
1.24779e-06
5.98243e-07
3.20389e-07
2.5706e-06
-8.66581e-07
4.59621e-06
-2.22562e-06
6.44266e-06
-3.6791e-06
8.34277e-06
-5.15232e-06
1.05469e-05
-6.3129e-06
1.30439e-05
-7.07069e-06
1.46788e-05
-7.77372e-06
1.36605e-05
-8.53414e-06
9.86809e-06
-9.13122e-06
5.30754e-06
-9.467e-06
1.54971e-06
-9.62014e-06
-1.00945e-06
-9.71039e-06
-2.51609e-06
-9.78867e-06
-3.28751e-06
-9.83083e-06
-3.6718e-06
-9.79396e-06
-3.93688e-06
-9.65559e-06
-4.20699e-06
-9.41352e-06
-4.50893e-06
-9.07381e-06
-4.83191e-06
-8.64371e-06
-5.15647e-06
-8.12952e-06
-5.46191e-06
-7.53662e-06
-5.72691e-06
-6.87005e-06
-5.92871e-06
-6.1353e-06
-6.04217e-06
-5.33882e-06
-6.03827e-06
-4.48662e-06
-5.88221e-06
-3.58027e-06
-5.53204e-06
-2.60351e-06
-4.93872e-06
-1.46248e-06
-4.04217e-06
-2.00206e-07
-2.73769e-06
7.0073e-07
-1.00363e-06
9.64151e-07
3.39873e-07
9.69389e-07
7.19313e-07
7.91718e-07
7.21719e-07
4.19145e-07
8.48463e-07
7.09293e-06
-5.97158e-07
4.95135e-06
-1.49161e-06
-3.92982e-06
-1.98743e-06
-1.43245e-06
-2.86686e-06
4.4687e-06
-4.24517e-06
7.08231e-06
-5.26531e-06
5.96417e-06
-5.67837e-06
3.47993e-06
-5.52771e-06
1.13992e-06
-4.85067e-06
-5.50428e-07
-3.79895e-06
-1.46567e-06
-2.76906e-06
-1.6068e-06
-2.15242e-06
-1.85012e-06
-1.94779e-06
-2.27316e-06
-1.8637e-06
-2.64647e-06
-1.78114e-06
-2.93179e-06
-1.65343e-06
-3.14407e-06
-1.46948e-06
-3.31093e-06
-1.23284e-06
-3.45555e-06
-9.51707e-07
-3.59316e-06
-6.34805e-07
-3.73204e-06
-2.88131e-07
-3.87507e-06
8.60919e-08
-4.01924e-06
4.79901e-07
-4.15325e-06
8.85202e-07
-4.26931e-06
1.2986e-06
-4.35952e-06
1.71862e-06
-4.40872e-06
2.14966e-06
-4.39887e-06
2.60519e-06
-4.30875e-06
3.10949e-06
-4.11931e-06
3.69467e-06
-3.82296e-06
4.38732e-06
-3.43237e-06
5.18586e-06
-2.98391e-06
6.04423e-06
-2.52801e-06
6.87008e-06
-2.10879e-06
7.56805e-06
-1.73886e-06
8.07711e-06
-1.39727e-06
8.37789e-06
-1.05116e-06
8.48113e-06
-6.77987e-07
8.4135e-06
-2.73917e-07
8.20598e-06
1.54985e-07
7.88978e-06
5.98973e-07
7.48881e-06
1.05174e-06
7.02216e-06
1.51537e-06
6.50104e-06
2.002e-06
5.92548e-06
2.52996e-06
5.28354e-06
3.11504e-06
4.55865e-06
3.76814e-06
3.75536e-06
4.54953e-06
2.99979e-06
6.06201e-06
2.3498e-06
1.154e-05
1.12051e-06
1.80004e-05
-1.57624e-06
1.19873e-05
-2.71791e-06
2.37842e-06
-2.44455e-06
2.26947e-07
-1.00566e-06
1.29766e-07
1.80343e-06
3.44289e-07
2.36119e-06
-1.65996e-06
2.27379e-06
-2.97807e-06
2.00339e-06
-3.69185e-06
1.70737e-06
-3.77493e-06
1.37499e-06
-3.22994e-06
9.38917e-07
-2.11891e-06
3.20921e-07
-5.26629e-07
-5.96762e-07
1.51593e-06
-1.68953e-06
3.66337e-06
-2.77793e-06
5.68461e-06
-3.94414e-06
7.60887e-06
-5.19025e-06
9.58888e-06
-6.39928e-06
1.17559e-05
-7.29154e-06
1.39362e-05
-7.77921e-06
1.51664e-05
-8.15509e-06
1.40364e-05
-8.61866e-06
1.03317e-05
-9.0339e-06
5.72277e-06
-9.31126e-06
1.82708e-06
-9.52332e-06
-7.97394e-07
-9.7542e-06
-2.28521e-06
-1.0004e-05
-3.03767e-06
-1.02096e-05
-3.46623e-06
-1.03201e-05
-3.82642e-06
-1.0319e-05
-4.2081e-06
-1.02095e-05
-4.61835e-06
-1.00002e-05
-5.04121e-06
-9.69903e-06
-5.45768e-06
-9.3122e-06
-5.84874e-06
-8.84441e-06
-6.19469e-06
-8.29905e-06
-6.47408e-06
-7.67853e-06
-6.66268e-06
-6.98451e-06
-6.73229e-06
-6.21712e-06
-6.6496e-06
-5.37345e-06
-6.37572e-06
-4.44576e-06
-5.86641e-06
-3.41561e-06
-5.07232e-06
-2.21469e-06
-3.93861e-06
-8.27659e-07
-2.39066e-06
7.87771e-08
-5.66564e-07
3.33279e-07
4.64811e-07
4.22592e-07
6.32406e-07
2.96652e-07
9.74403e-07
7.38958e-06
-7.65255e-07
5.71661e-06
-1.35443e-06
-3.34065e-06
-1.48368e-06
-1.30321e-06
-1.95909e-06
4.94412e-06
-3.25755e-06
8.38077e-06
-4.39188e-06
7.09849e-06
-4.96694e-06
4.055e-06
-4.96537e-06
1.13835e-06
-4.45806e-06
-1.05774e-06
-3.75052e-06
-2.1732e-06
-3.1316e-06
-2.22572e-06
-2.68052e-06
-2.30119e-06
-2.41489e-06
-2.53879e-06
-2.24693e-06
-2.81442e-06
-2.10953e-06
-3.06919e-06
-1.96221e-06
-3.29139e-06
-1.78517e-06
-3.48797e-06
-1.5712e-06
-3.66952e-06
-1.31974e-06
-3.84463e-06
-1.03333e-06
-4.01845e-06
-7.15702e-07
-4.1927e-06
-3.6931e-07
-4.36564e-06
8.94076e-09
-4.5315e-06
4.1673e-07
-4.6771e-06
8.485e-07
-4.79129e-06
1.30531e-06
-4.86552e-06
1.79114e-06
-4.8847e-06
2.31497e-06
-4.83258e-06
2.8904e-06
-4.69474e-06
3.53156e-06
-4.46412e-06
4.24452e-06
-4.14533e-06
5.01647e-06
-3.75585e-06
5.80903e-06
-3.32058e-06
6.56165e-06
-2.86141e-06
7.21025e-06
-2.38745e-06
7.70672e-06
-1.89374e-06
8.02664e-06
-1.37108e-06
8.16659e-06
-8.17931e-07
8.13804e-06
-2.45371e-07
7.96242e-06
3.30609e-07
7.6639e-06
8.97484e-07
7.26583e-06
1.44982e-06
6.79003e-06
1.99117e-06
6.25431e-06
2.53772e-06
5.66811e-06
3.11616e-06
5.02915e-06
3.754e-06
4.32735e-06
4.46995e-06
3.56705e-06
5.30983e-06
2.86324e-06
6.76582e-06
2.39507e-06
1.20082e-05
1.529e-06
1.88665e-05
-1.0182e-06
1.45345e-05
-2.39589e-06
3.75611e-06
-2.09267e-06
-7.62679e-08
-1.16609e-06
-7.96813e-07
3.38301e-07
-1.1601e-06
8.82288e-07
-2.20395e-06
9.35746e-07
-3.03153e-06
7.23511e-07
-3.47962e-06
3.35386e-07
-3.38681e-06
-2.06844e-07
-2.68771e-06
-9.25606e-07
-1.40015e-06
-1.87985e-06
4.27611e-07
-2.90603e-06
2.54211e-06
-3.84861e-06
4.60595e-06
-4.77046e-06
6.60646e-06
-5.74284e-06
8.58125e-06
-6.75213e-06
1.05982e-05
-7.66754e-06
1.26714e-05
-8.26925e-06
1.45379e-05
-8.49061e-06
1.53878e-05
-8.57427e-06
1.412e-05
-8.75892e-06
1.05163e-05
-8.9981e-06
5.96195e-06
-9.23388e-06
2.06286e-06
-9.52435e-06
-5.06923e-07
-9.9011e-06
-1.90846e-06
-1.03032e-05
-2.63559e-06
-1.06414e-05
-3.12805e-06
-1.08694e-05
-3.59836e-06
-1.09806e-05
-4.09688e-06
-1.09834e-05
-4.6156e-06
-1.08881e-05
-5.13656e-06
-1.07033e-05
-5.64247e-06
-1.04353e-05
-6.1167e-06
-1.0088e-05
-6.54196e-06
-9.66297e-06
-6.89914e-06
-9.15936e-06
-7.16629e-06
-8.57406e-06
-7.31759e-06
-7.90106e-06
-7.32259e-06
-7.13091e-06
-7.14587e-06
-6.25001e-06
-6.74731e-06
-5.23948e-06
-6.08285e-06
-4.07229e-06
-5.1058e-06
-2.69085e-06
-3.77211e-06
-1.19823e-06
-2.05918e-06
-2.91488e-07
-4.41933e-07
6.89972e-08
2.71921e-07
1.53498e-07
8.89901e-07
7.54308e-06
-8.71893e-07
6.5885e-06
-1.15982e-06
-3.05272e-06
-1.08488e-06
-1.37815e-06
-1.23671e-06
5.09595e-06
-2.35764e-06
9.50169e-06
-3.56648e-06
8.30733e-06
-4.27023e-06
4.75875e-06
-4.38913e-06
1.25725e-06
-4.00779e-06
-1.43908e-06
-3.58501e-06
-2.59598e-06
-3.23153e-06
-2.5792e-06
-2.93611e-06
-2.59662e-06
-2.72152e-06
-2.75338e-06
-2.56616e-06
-2.96978e-06
-2.43583e-06
-3.19952e-06
-2.30173e-06
-3.4255e-06
-2.14503e-06
-3.64467e-06
-1.9556e-06
-3.85895e-06
-1.7293e-06
-4.07092e-06
-1.46564e-06
-4.28212e-06
-1.16606e-06
-4.49228e-06
-8.32675e-07
-4.69902e-06
-4.66466e-07
-4.89771e-06
-6.2284e-08
-5.08128e-06
3.81571e-07
-5.23514e-06
8.61602e-07
-5.34556e-06
1.38037e-06
-5.40347e-06
1.94269e-06
-5.39489e-06
2.55477e-06
-5.30682e-06
3.22075e-06
-5.1301e-06
3.93739e-06
-4.86198e-06
4.68874e-06
-4.5072e-06
5.44344e-06
-4.07528e-06
6.15774e-06
-3.57571e-06
6.78491e-06
-3.01462e-06
7.2854e-06
-2.39423e-06
7.63238e-06
-1.71806e-06
7.8128e-06
-9.98351e-07
7.82664e-06
-2.59207e-07
7.68719e-06
4.70058e-07
7.4144e-06
1.17027e-06
7.03117e-06
1.83305e-06
6.56098e-06
2.46136e-06
6.02573e-06
3.07296e-06
5.44187e-06
3.70002e-06
4.81578e-06
4.38008e-06
4.1445e-06
5.14123e-06
3.43359e-06
6.02074e-06
2.78533e-06
7.41408e-06
2.46619e-06
1.23273e-05
1.89003e-06
1.94427e-05
-3.02513e-07
1.67271e-05
-2.09083e-06
5.54442e-06
-1.90242e-06
-2.64675e-07
-1.33003e-06
-1.3692e-06
-6.41612e-07
-1.84852e-06
-3.88077e-07
-2.45749e-06
-4.63524e-07
-2.95608e-06
-8.17614e-07
-3.12553e-06
-1.40612e-06
-2.7983e-06
-2.19806e-06
-1.89577e-06
-3.16471e-06
-4.335e-07
-4.18627e-06
1.44917e-06
-5.07622e-06
3.43205e-06
-5.87767e-06
5.40741e-06
-6.66216e-06
7.39095e-06
-7.45819e-06
9.37728e-06
-8.22974e-06
1.13697e-05
-8.85523e-06
1.32968e-05
-9.1708e-06
1.48535e-05
-9.13829e-06
1.53553e-05
-8.96497e-06
1.39467e-05
-8.90343e-06
1.04548e-05
-8.99221e-06
6.05073e-06
-9.21822e-06
2.28887e-06
-9.613e-06
-1.12143e-07
-1.01289e-05
-1.39255e-06
-1.06494e-05
-2.11513e-06
-1.10792e-05
-2.69826e-06
-1.13873e-05
-3.29018e-06
-1.15781e-05
-3.90611e-06
-1.16643e-05
-4.52935e-06
-1.16582e-05
-5.14274e-06
-1.15689e-05
-5.7317e-06
-1.1403e-05
-6.28267e-06
-1.11633e-05
-6.78161e-06
-1.08497e-05
-7.21274e-06
-1.04584e-05
-7.55759e-06
-9.98186e-06
-7.79415e-06
-9.40815e-06
-7.8963e-06
-8.72046e-06
-7.83356e-06
-7.8965e-06
-7.57126e-06
-6.90858e-06
-7.07077e-06
-5.7248e-06
-6.28957e-06
-4.30996e-06
-5.18695e-06
-2.62163e-06
-3.74751e-06
-1.04971e-06
-2.01385e-06
-2.20177e-07
-5.57611e-07
-5.17076e-08
7.21432e-07
7.49137e-06
-8.69723e-07
7.45822e-06
-9.20258e-07
-3.00219e-06
-8.06029e-07
-1.49237e-06
-8.01878e-07
5.0918e-06
-1.64807e-06
1.03479e-05
-2.85958e-06
9.51884e-06
-3.63615e-06
5.53532e-06
-3.83507e-06
1.45617e-06
-3.53191e-06
-1.74224e-06
-3.36434e-06
-2.76355e-06
-3.22085e-06
-2.7227e-06
-3.07608e-06
-2.74139e-06
-2.95638e-06
-2.87308e-06
-2.86022e-06
-3.06593e-06
-2.7702e-06
-3.28954e-06
-2.66748e-06
-3.52822e-06
-2.53787e-06
-3.77429e-06
-2.3727e-06
-4.02412e-06
-2.1678e-06
-4.27582e-06
-1.92205e-06
-4.52787e-06
-1.63618e-06
-4.77814e-06
-1.3118e-06
-5.02341e-06
-9.50498e-07
-5.25901e-06
-5.52929e-07
-5.47885e-06
-1.12974e-07
-5.6751e-06
3.73139e-07
-5.83167e-06
9.02853e-07
-5.93318e-06
1.47719e-06
-5.96922e-06
2.09791e-06
-5.92754e-06
2.76402e-06
-5.79621e-06
3.46872e-06
-5.56668e-06
4.19649e-06
-5.23497e-06
4.92195e-06
-4.80074e-06
5.61206e-06
-4.26581e-06
6.23096e-06
-3.63352e-06
6.7454e-06
-2.90867e-06
7.12742e-06
-2.10009e-06
7.35661e-06
-1.22754e-06
7.42245e-06
-3.2505e-07
7.32987e-06
5.6264e-07
7.09593e-06
1.40421e-06
6.74305e-06
2.18593e-06
6.29583e-06
2.90858e-06
5.77856e-06
3.59022e-06
5.21216e-06
4.26643e-06
4.60951e-06
4.98273e-06
3.97371e-06
5.77702e-06
3.31114e-06
6.68332e-06
2.7092e-06
8.01601e-06
2.48685e-06
1.25497e-05
2.11041e-06
1.98191e-05
3.84104e-07
1.84534e-05
-1.67613e-06
7.60465e-06
-1.81316e-06
-1.27642e-07
-1.63045e-06
-1.55191e-06
-1.46102e-06
-2.01795e-06
-1.51969e-06
-2.39882e-06
-1.84129e-06
-2.63448e-06
-2.41966e-06
-2.54715e-06
-3.22102e-06
-1.99695e-06
-4.18843e-06
-9.2836e-07
-5.22862e-06
6.0669e-07
-6.15734e-06
2.37789e-06
-6.94125e-06
4.21596e-06
-7.65854e-06
6.1247e-06
-8.33641e-06
8.06882e-06
-8.97439e-06
1.00153e-05
-9.5247e-06
1.192e-05
-9.88409e-06
1.36562e-05
-9.93746e-06
1.49068e-05
-9.67572e-06
1.50935e-05
-9.28531e-06
1.35563e-05
-9.02458e-06
1.0194e-05
-9.00901e-06
6.03516e-06
-9.2688e-06
2.54865e-06
-9.78259e-06
4.01643e-07
-1.04116e-05
-7.63522e-07
-1.09999e-05
-1.52683e-06
-1.14716e-05
-2.22661e-06
-1.18166e-05
-2.94517e-06
-1.2049e-05
-3.67374e-06
-1.21848e-05
-4.39346e-06
-1.22377e-05
-5.08994e-06
-1.22173e-05
-5.75208e-06
-1.21299e-05
-6.37002e-06
-1.19781e-05
-6.93347e-06
-1.17601e-05
-7.43064e-06
-1.14704e-05
-7.84735e-06
-1.10981e-05
-8.1664e-06
-1.06273e-05
-8.36711e-06
-1.00357e-05
-8.4252e-06
-9.29433e-06
-8.31261e-06
-8.36786e-06
-7.99725e-06
-7.21492e-06
-7.44251e-06
-5.79369e-06
-6.60818e-06
-4.08949e-06
-5.45171e-06
-2.18982e-06
-3.91353e-06
-7.82083e-07
-1.96535e-06
-4.94625e-07
4.33973e-07
6.99675e-06
-7.12973e-07
8.1712e-06
-6.51381e-07
-3.06378e-06
-6.49651e-07
-1.49411e-06
-6.52706e-07
5.09486e-06
-1.18982e-06
1.0885e-05
-2.3125e-06
1.06415e-05
-3.09205e-06
6.31487e-06
-3.32817e-06
1.69229e-06
-3.1026e-06
-1.96781e-06
-3.1576e-06
-2.70854e-06
-3.18965e-06
-2.69066e-06
-3.18564e-06
-2.7454e-06
-3.17164e-06
-2.88708e-06
-3.1506e-06
-3.08698e-06
-3.1135e-06
-3.32663e-06
-3.04939e-06
-3.59233e-06
-2.94961e-06
-3.87407e-06
-2.80878e-06
-4.16494e-06
-2.62438e-06
-4.46023e-06
-2.39597e-06
-4.75628e-06
-2.12446e-06
-5.04964e-06
-1.8115e-06
-5.33636e-06
-1.45892e-06
-5.6116e-06
-1.06832e-06
-5.86944e-06
-6.40633e-07
-6.10279e-06
-1.69386e-07
-6.30291e-06
3.49995e-07
-6.45257e-06
9.14109e-07
-6.53334e-06
1.52074e-06
-6.53418e-06
2.16675e-06
-6.44221e-06
2.84473e-06
-6.24466e-06
3.54109e-06
-5.93133e-06
4.2355e-06
-5.49515e-06
4.90304e-06
-4.93335e-06
5.51585e-06
-4.24633e-06
6.04664e-06
-3.43946e-06
6.46778e-06
-2.52123e-06
6.75342e-06
-1.51319e-06
6.88254e-06
-4.54167e-07
6.85055e-06
5.94637e-07
6.67134e-06
1.58341e-06
6.3667e-06
2.49057e-06
5.96172e-06
3.31356e-06
5.48175e-06
4.0702e-06
4.94982e-06
4.79836e-06
4.38269e-06
5.54986e-06
3.78774e-06
6.37197e-06
3.17147e-06
7.29959e-06
2.60584e-06
8.58165e-06
2.43278e-06
1.27227e-05
2.18142e-06
2.00705e-05
7.72752e-07
1.98621e-05
-1.28235e-06
9.65976e-06
-1.76941e-06
3.59419e-07
-1.9502e-06
-1.37112e-06
-2.15423e-06
-1.81392e-06
-2.52051e-06
-2.03254e-06
-3.09976e-06
-2.05523e-06
-3.89281e-06
-1.75411e-06
-4.8576e-06
-1.03215e-06
-5.91485e-06
1.28891e-07
-6.90078e-06
1.59262e-06
-7.7316e-06
3.20871e-06
-8.46995e-06
4.95431e-06
-9.13356e-06
6.7883e-06
-9.72273e-06
8.65799e-06
-1.02198e-05
1.05123e-05
-1.0574e-05
1.22742e-05
-1.07029e-05
1.37851e-05
-1.05315e-05
1.47355e-05
-1.00777e-05
1.46397e-05
-9.52005e-06
1.29987e-05
-9.12518e-06
9.79916e-06
-9.0732e-06
5.98319e-06
-9.41127e-06