/*--------------------------------*- C++ -*----------------------------------*\
| =========                 |                                                 |
| \\      /  F ield         | OpenFOAM: The Open Source CFD Toolbox           |
|  \\    /   O peration     | Version:  4.1                                   |
|   \\  /    A nd           | Web:      www.OpenFOAM.org                      |
|    \\/     M anipulation  |                                                 |
\*---------------------------------------------------------------------------*/
FoamFile
{
    version     2.0;
    format      ascii;
    class       surfaceScalarField;
    location    "900";
    object      phi;
}
// * * * * * * * * * * * * * * * * * * * * * * * * * * * * * * * * * * * * * //

dimensions      [0 3 -1 0 0 0 0];

internalField   nonuniform List<scalar> 
3120
(
-7.0587e-06
7.0587e-06
-7.43791e-06
3.79211e-07
-4.37454e-06
-3.06337e-06
-2.5696e-07
-4.11758e-06
3.50507e-06
-3.76203e-06
6.16479e-06
-2.65972e-06
8.08445e-06
-1.91966e-06
9.45253e-06
-1.36808e-06
1.0339e-05
-8.86489e-07
1.07684e-05
-4.29397e-07
1.07785e-05
-1.01325e-08
1.04271e-05
3.51471e-07
9.75816e-06
6.68914e-07
8.84543e-06
9.12727e-07
7.78309e-06
1.06234e-06
6.70108e-06
1.08201e-06
5.75536e-06
9.45713e-07
4.31602e-06
1.43935e-06
8.69517e-07
3.4465e-06
4.41402e-07
4.28115e-07
4.21956e-06
-3.77816e-06
1.11715e-06
3.10242e-06
-7.57649e-06
8.69364e-06
-7.52168e-06
-5.48089e-08
-5.60543e-06
-1.91625e-06
-5.44795e-06
-1.57487e-07
-4.4342e-06
-1.01374e-06
-3.62207e-06
-8.12134e-07
-2.72637e-06
-8.95697e-07
-1.34089e-06
-1.38548e-06
6.82158e-07
-2.02305e-06
3.40725e-06
-2.72509e-06
6.38746e-06
-2.98022e-06
9.23678e-06
-2.84932e-06
1.15653e-05
-2.32855e-06
1.27976e-05
-1.23227e-06
1.27799e-05
1.76519e-08
1.14725e-05
1.30748e-06
8.06875e-06
3.40372e-06
8.06875e-06
-4.79608e-06
1.18548e-05
-4.15914e-06
-2.57727e-07
-4.27008e-07
-6.79551e-06
3.03456e-06
-7.57915e-06
5.83246e-06
-6.55993e-06
8.22762e-06
-5.05487e-06
1.01256e-05
-3.81764e-06
1.15527e-05
-2.79515e-06
1.25242e-05
-1.858e-06
1.30367e-05
-9.41944e-07
1.31033e-05
-7.66769e-08
1.27438e-05
7.10984e-07
1.20067e-05
1.40601e-06
1.09674e-05
1.95197e-06
9.72333e-06
2.30644e-06
8.38328e-06
2.42207e-06
7.01785e-06
2.31114e-06
5.43262e-06
3.02458e-06
3.79305e-06
5.08607e-06
3.19885e-06
1.02231e-06
3.8815e-06
-4.46081e-06
1.44415e-06
5.53977e-06
-5.98739e-06
1.61252e-05
-6.33612e-06
2.93921e-07
-5.35008e-06
-2.90229e-06
-4.66435e-06
-8.43219e-07
-4.29062e-06
-1.38747e-06
-3.69923e-06
-1.40352e-06
-2.78745e-06
-1.80749e-06
-1.53547e-06
-2.63746e-06
2.37825e-07
-3.79634e-06
2.44695e-06
-4.93421e-06
5.06916e-06
-5.60243e-06
7.81834e-06
-5.59849e-06
1.02444e-05
-4.75457e-06
1.17212e-05
-2.70908e-06
1.18296e-05
-9.08089e-08
1.05725e-05
2.5646e-06
7.33875e-06
6.63747e-06
1.54075e-05
-2.14804e-06
1.40028e-05
1.7174e-07
-2.5775e-06
2.80969e-06
-9.43346e-06
5.42566e-06
-1.01951e-05
7.79297e-06
-8.92724e-06
9.90533e-06
-7.16722e-06
1.16593e-05
-5.57165e-06
1.30324e-05
-4.16818e-06
1.40065e-05
-2.8321e-06
1.45476e-05
-1.48303e-06
1.4621e-05
-1.50147e-07
1.42309e-05
1.10114e-06
1.34232e-05
2.21365e-06
1.2271e-05
3.10424e-06
1.08725e-05
3.7049e-06
9.32033e-06
3.97423e-06
7.65187e-06
3.9796e-06
6.11239e-06
4.56406e-06
5.43701e-06
5.76145e-06
4.58636e-06
1.87296e-06
3.58364e-06
-3.45808e-06
1.64934e-06
7.47406e-06
-4.10627e-06
2.18808e-05
-4.98676e-06
1.17441e-06
-4.96074e-06
-2.92832e-06
-4.67601e-06
-1.12794e-06
-4.64965e-06
-1.41383e-06
-4.27166e-06
-1.78151e-06
-3.53728e-06
-2.54187e-06
-2.47353e-06
-3.70121e-06
-1.09321e-06
-5.17666e-06
7.30977e-07
-6.7584e-06
3.01993e-06
-7.89139e-06
5.55523e-06
-8.13379e-06
7.96779e-06
-7.16712e-06
9.60175e-06
-4.34304e-06
9.75543e-06
-2.44487e-07
8.6255e-06
3.69453e-06
5.98038e-06
9.28259e-06
2.13879e-05
4.3112e-07
1.35717e-05
3.46749e-06
-5.61387e-06
5.36613e-06
-1.13321e-05
7.40464e-06
-1.22336e-05
9.35773e-06
-1.08803e-05
1.11567e-05
-8.96625e-06
1.27278e-05
-7.14267e-06
1.40282e-05
-5.46859e-06
1.50159e-05
-3.81978e-06
1.56288e-05
-2.09595e-06
1.5791e-05
-3.12365e-07
1.54678e-05
1.42431e-06
1.46845e-05
2.99693e-06
1.35056e-05
4.28321e-06
1.20256e-05
5.18485e-06
1.03401e-05
5.6598e-06
8.52905e-06
5.79062e-06
6.9636e-06
6.1295e-06
6.26518e-06
6.45987e-06
5.13688e-06
3.00126e-06
3.41259e-06
-1.7338e-06
1.78707e-06
9.09958e-06
-2.99984e-06
2.66677e-05
-4.29181e-06
2.46638e-06
-4.92395e-06
-2.29617e-06
-5.0666e-06
-9.85302e-07
-5.17354e-06
-1.30688e-06
-4.95687e-06
-1.99819e-06
-4.41235e-06
-3.08639e-06
-3.56201e-06
-4.55155e-06
-2.41916e-06
-6.31952e-06
-9.78394e-07
-8.19916e-06
8.97339e-07
-9.76712e-06
3.17256e-06
-1.0409e-05
5.50697e-06
-9.50153e-06
7.36039e-06
-6.19646e-06
7.68992e-06
-5.74008e-07
6.7829e-06
4.60154e-06
4.76392e-06
1.13016e-05
2.61518e-05
2.31663e-06
1.12551e-05
5.27822e-06
-8.57545e-06
7.29059e-06
-1.33445e-05
8.86236e-06
-1.38054e-05
1.03667e-05
-1.23847e-05
1.18266e-05
-1.04262e-05
1.31897e-05
-8.5058e-06
1.44046e-05
-6.68345e-06
1.54123e-05
-4.82743e-06
1.61277e-05
-2.81135e-06
1.6437e-05
-6.21751e-07
1.62607e-05
1.60067e-06
1.55961e-05
3.66156e-06
1.44918e-05
5.38748e-06
1.30347e-05
6.6419e-06
1.13261e-05
7.36844e-06
9.484e-06
7.63271e-06
7.85433e-06
7.75917e-06
6.85515e-06
7.45904e-06
5.46622e-06
4.3902e-06
3.3469e-06
3.85519e-07
1.83472e-06
1.06118e-05
-2.31393e-06
3.08164e-05
-3.90195e-06
4.0544e-06
-4.99188e-06
-1.20624e-06
-5.45901e-06
-5.18176e-07
-5.71577e-06
-1.05012e-06
-5.6705e-06
-2.04346e-06
-5.32934e-06
-3.42755e-06
-4.70499e-06
-5.1759e-06
-3.80056e-06
-7.22394e-06
-2.61716e-06
-9.38257e-06
-1.12365e-06
-1.12606e-05
7.55221e-07
-1.22879e-05
2.93055e-06
-1.16769e-05
4.99181e-06
-8.25773e-06
5.67406e-06
-1.25625e-06
5.08931e-06
5.18629e-06
3.70922e-06
1.26816e-05
2.9861e-05
4.04585e-06
7.20921e-06
6.85473e-06
-1.13843e-05
8.54271e-06
-1.50325e-05
9.64319e-06
-1.49059e-05
1.07033e-05
-1.34448e-05
1.18335e-05
-1.15563e-05
1.2994e-05
-9.66633e-06
1.41245e-05
-7.8139e-06
1.51547e-05
-5.8576e-06
1.59861e-05
-3.64281e-06
1.64787e-05
-1.11433e-06
1.65098e-05
1.56962e-06
1.60391e-05
4.1322e-06
1.50945e-05
6.33209e-06
1.37526e-05
7.98385e-06
1.2116e-05
9.00501e-06
1.03184e-05
9.43032e-06
8.64107e-06
9.43648e-06
7.33636e-06
8.76376e-06
5.70517e-06
6.02139e-06
3.39367e-06
2.69702e-06
1.82356e-06
1.21819e-05
-1.86459e-06
3.45045e-05
-3.67153e-06
5.86134e-06
-5.07875e-06
2.00986e-07
-5.81215e-06
2.15218e-07
-6.23798e-06
-6.24287e-07
-6.37179e-06
-1.90964e-06
-6.23761e-06
-3.56173e-06
-5.84321e-06
-5.5703e-06
-5.1832e-06
-7.88395e-06
-4.24566e-06
-1.03201e-05
-3.01515e-06
-1.24911e-05
-1.50457e-06
-1.37985e-05
2.62534e-07
-1.3444e-05
2.41791e-06
-1.04131e-05
3.67194e-06
-2.51028e-06
3.53136e-06
5.32687e-06
2.77288e-06
1.34401e-05
3.26339e-05
5.9863e-06
1.22291e-06
8.05129e-06
-1.34493e-05
9.0521e-06
-1.60333e-05
9.67257e-06
-1.55263e-05
1.03565e-05
-1.41288e-05
1.12198e-05
-1.24196e-05
1.22194e-05
-1.06659e-05
1.32841e-05
-8.87861e-06
1.43378e-05
-6.91127e-06
1.52788e-05
-4.58381e-06
1.59599e-05
-1.79551e-06
1.62258e-05
1.30371e-06
1.59944e-05
4.36367e-06
1.52678e-05
7.05866e-06
1.41088e-05
9.14281e-06
1.26148e-05
1.0499e-05
1.09168e-05
1.11283e-05
9.23176e-06
1.11216e-05
7.70477e-06
1.02907e-05
5.86684e-06
7.85932e-06
3.48299e-06
5.08086e-06
1.77822e-06
1.38867e-05
-1.58085e-06
3.78636e-05
-3.54609e-06
7.82658e-06
-5.14935e-06
1.80425e-06
-6.11261e-06
1.17847e-06
-6.71165e-06
-2.52451e-08
-7.01942e-06
-1.60187e-06
-7.08601e-06
-3.49514e-06
-6.91795e-06
-5.73835e-06
-6.50433e-06
-8.29758e-06
-5.82344e-06
-1.1001e-05
-4.85001e-06
-1.34646e-05
-3.57823e-06
-1.50703e-05
-2.05253e-06
-1.49697e-05
-3.70128e-07
-1.20955e-05
1.6733e-06
-4.5537e-06
2.28483e-06
4.71533e-06
1.94114e-06
1.37838e-05
3.45751e-05
8.08161e-06
-6.8587e-06
8.50341e-06
-1.38711e-05
8.69459e-06
-1.62245e-05
8.97257e-06
-1.58043e-05
9.43913e-06
-1.45953e-05
1.01493e-05
-1.31298e-05
1.10544e-05
-1.1571e-05
1.20811e-05
-9.90533e-06
1.3157e-05
-7.98713e-06
1.41868e-05
-5.6136e-06
1.50313e-05
-2.64007e-06
1.55176e-05
8.17413e-07
1.55283e-05
4.35301e-06
1.50412e-05
7.54572e-06
1.41013e-05
1.00827e-05
1.27934e-05
1.18069e-05
1.12345e-05
1.26872e-05
9.58749e-06
1.27686e-05
7.93647e-06
1.19418e-05
5.97724e-06
9.81855e-06
3.56821e-06
7.48989e-06
1.70918e-06
1.57457e-05
-1.41608e-06
4.09888e-05
-3.48279e-06
9.89329e-06
-5.20347e-06
3.52492e-06
-6.34381e-06
2.31882e-06
-7.10166e-06
7.32601e-07
-7.57237e-06
-1.13117e-06
-7.82508e-06
-3.24243e-06
-7.87284e-06
-5.69059e-06
-7.70234e-06
-8.46808e-06
-7.2846e-06
-1.14187e-05
-6.58164e-06
-1.41675e-05
-5.56053e-06
-1.60914e-05
-4.22344e-06
-1.63068e-05
-2.65537e-06
-1.36636e-05
8.21831e-08
-7.29125e-06
1.52874e-06
3.26878e-06
1.1694e-06
1.41432e-05
3.57445e-05
6.3446e-06
-1.32033e-05
7.35241e-06
-1.48789e-05
7.52357e-06
-1.63956e-05
7.76127e-06
-1.6042e-05
8.19295e-06
-1.5027e-05
8.85738e-06
-1.37942e-05
9.72105e-06
-1.24347e-05
1.07259e-05
-1.09102e-05
1.18146e-05
-9.07583e-06
1.2906e-05
-6.70505e-06
1.38739e-05
-3.6079e-06
1.45367e-05
1.54541e-07
1.47544e-05
4.13534e-06
1.44916e-05
7.80852e-06
1.37742e-05
1.08002e-05
1.26696e-05
1.29114e-05
1.12739e-05
1.40829e-05
9.7065e-06
1.4336e-05
8.01808e-06
1.36302e-05
6.0151e-06
1.18215e-05
3.62143e-06
9.88355e-06
1.61774e-06
1.77494e-05
-1.33593e-06
4.39425e-05
-3.45035e-06
1.20077e-05
-5.23338e-06
5.30796e-06
-6.4907e-06
3.57614e-06
-7.37679e-06
1.61869e-06
-7.99384e-06
-5.1412e-07
-8.40996e-06
-2.8263e-06
-8.65601e-06
-5.44454e-06
-8.71854e-06
-8.40555e-06
-8.56421e-06
-1.15731e-05
-8.14425e-06
-1.45875e-05
-7.39993e-06
-1.68357e-05
-6.26389e-06
-1.74428e-05
-4.56886e-06
-1.53586e-05
-2.05119e-06
-9.80893e-06
-1.69714e-07
1.3873e-06
3.33056e-07
1.36404e-05
3.60775e-05
4.41329e-06
-1.76166e-05
5.82273e-06
-1.62884e-05
6.15258e-06
-1.67255e-05
6.43469e-06
-1.63241e-05
6.88656e-06
-1.54789e-05
7.53967e-06
-1.44473e-05
8.37405e-06
-1.32691e-05
9.35144e-06
-1.18876e-05
1.04346e-05
-1.01589e-05
1.1561e-05
-7.83145e-06
1.26103e-05
-4.65726e-06
1.34011e-05
-6.36239e-07
1.37813e-05
3.7551e-06
1.3707e-05
7.88288e-06
1.31919e-05
1.13152e-05
1.2287e-05
1.38164e-05
1.10646e-05
1.53053e-05
9.60883e-06
1.57918e-05
7.95082e-06
1.52882e-05
5.96784e-06
1.38045e-05
3.62618e-06
1.22252e-05
1.50247e-06
1.98731e-05
-1.31677e-06
4.67618e-05
-3.42962e-06
1.41206e-05
-5.22266e-06
7.101e-06
-6.54317e-06
4.89665e-06
-7.51982e-06
2.59534e-06
-8.25264e-06
2.18697e-07
-8.80353e-06
-2.27542e-06
-9.22311e-06
-5.02495e-06
-9.49988e-06
-8.12878e-06
-9.60021e-06
-1.14727e-05
-9.47052e-06
-1.47172e-05
-9.03329e-06
-1.72729e-05
-8.17177e-06
-1.83043e-05
-6.72266e-06
-1.68077e-05
-4.88683e-06
-1.16448e-05
-2.4275e-06
-1.07203e-06
-7.34616e-07
1.19475e-05
3.53429e-05
3.17594e-06
-2.07925e-05
4.48962e-06
-1.7602e-05
4.8711e-06
-1.7107e-05
5.17652e-06
-1.66296e-05
5.63563e-06
-1.5938e-05
6.26829e-06
-1.508e-05
7.06181e-06
-1.40626e-05
7.99563e-06
-1.28214e-05
9.05158e-06
-1.12149e-05
1.01896e-05
-8.96952e-06
1.12877e-05
-5.75535e-06
1.21659e-05
-1.51441e-06
1.26751e-05
3.24587e-06
1.27549e-05
7.80313e-06
1.24154e-05
1.16547e-05
1.16956e-05
1.45361e-05
1.0647e-05
1.63539e-05
9.32508e-06
1.71137e-05
7.74758e-06
1.68657e-05
5.83455e-06
1.57175e-05
3.57743e-06
1.44823e-05
1.36125e-06
2.20893e-05
-1.34246e-06
4.94655e-05
-3.40772e-06
1.61858e-05
-5.16049e-06
8.85376e-06
-6.49003e-06
6.22619e-06
-7.51005e-06
3.61537e-06
-8.32101e-06
1.02965e-06
-8.98124e-06
-1.61518e-06
-9.54223e-06
-4.46396e-06
-1.00035e-05
-7.66749e-06
-1.03358e-05
-1.11405e-05
-1.04876e-05
-1.45653e-05
-1.03716e-05
-1.7389e-05
-9.84066e-06
-1.88352e-05
-8.72496e-06
-1.79234e-05
-7.00512e-06
-1.33646e-05
-4.23865e-06
-3.8385e-06
-1.8706e-06
9.57947e-06
3.34723e-05
2.25655e-06
-2.30491e-05
3.31096e-06
-1.86564e-05
3.68302e-06
-1.7479e-05
4.00082e-06
-1.69474e-05
4.44667e-06
-1.63838e-05
5.03821e-06
-1.56715e-05
5.77355e-06
-1.47979e-05
6.64784e-06
-1.36957e-05
7.65632e-06
-1.22234e-05
8.78409e-06
-1.00973e-05
9.92711e-06
-6.89837e-06
1.08832e-05
-2.47054e-06
1.14855e-05
2.64363e-06
1.16848e-05
7.60383e-06
1.14937e-05
1.18459e-05
1.0942e-05
1.50878e-05
1.00628e-05
1.72331e-05
8.88895e-06
1.82876e-05
7.42787e-06
1.83268e-05
5.62285e-06
1.75226e-05
3.47923e-06
1.6626e-05
1.19233e-06
2.43762e-05
-1.40153e-06
5.20593e-05
-3.3778e-06
1.81621e-05
-5.04602e-06
1.0522e-05
-6.33727e-06
7.51744e-06
-7.35601e-06
4.6341e-06
-8.20356e-06
1.8772e-06
-8.93816e-06
-8.80582e-07
-9.60086e-06
-3.80126e-06
-1.02056e-05
-7.06279e-06
-1.07299e-05
-1.06162e-05
-1.11328e-05
-1.41623e-05
-1.13311e-05
-1.71907e-05
-1.11663e-05
-1.90001e-05
-1.04181e-05
-1.86715e-05
-8.8053e-06
-1.49774e-05
-5.91563e-06
-6.72817e-06
-2.99829e-06
6.66213e-06
3.0474e-05
1.51904e-06
-2.45681e-05
2.27435e-06
-1.94118e-05
2.59716e-06
-1.78018e-05
2.90202e-06
-1.72522e-05
3.3021e-06
-1.67839e-05
3.82621e-06
-1.61956e-05
4.48757e-06
-1.54593e-05
5.29261e-06
-1.45007e-05
6.23852e-06
-1.31693e-05
7.33118e-06
-1.119e-05
8.50528e-06
-8.07247e-06
9.54239e-06
-3.50765e-06
1.02283e-05
1.95774e-06
1.05263e-05
7.30582e-06
1.04631e-05
1.19091e-05
1.00647e-05
1.54862e-05
9.34968e-06
1.79481e-05
8.33302e-06
1.93042e-05
7.01379e-06
1.9646e-05
5.34532e-06
1.9191e-05
3.34133e-06
1.863e-05
9.94334e-07
2.67231e-05
-1.48509e-06
5.45387e-05
-3.33701e-06
2.0014e-05
-4.88375e-06
1.20687e-05
-6.09706e-06
8.73074e-06
-7.0748e-06
5.61184e-06
-7.92116e-06
2.72356e-06
-8.69209e-06
-1.09644e-07
-9.41203e-06
-3.08133e-06
-1.01099e-05
-6.3649e-06
-1.0769e-05
-9.95712e-06
-1.13665e-05
-1.35649e-05
-1.18408e-05
-1.67163e-05
-1.20462e-05
-1.87947e-05
-1.17241e-05
-1.89936e-05
-1.04328e-05
-1.62687e-05
-7.6335e-06
-9.52749e-06
-4.16611e-06
3.19473e-06
2.63079e-05
9.06711e-07
-2.54748e-05
1.36949e-06
-1.98745e-05
1.61043e-06
-1.80428e-05
1.86096e-06
-1.75028e-05
2.17804e-06
-1.7101e-05
2.61211e-06
-1.66297e-05
3.19219e-06
-1.60394e-05
3.92902e-06
-1.52376e-05
4.80729e-06
-1.40475e-05
5.83978e-06
-1.22224e-05
7.01616e-06
-9.24885e-06
8.13577e-06
-4.62726e-06
8.90788e-06
1.18564e-06
9.29603e-06
6.91767e-06
9.34987e-06
1.18552e-05
9.0952e-06
1.57409e-05
8.5404e-06
1.85029e-05
7.68696e-06
2.01577e-05
6.52744e-06
2.08055e-05
5.01705e-06
2.07014e-05
3.17469e-06
2.04723e-05
7.63886e-07
2.91339e-05
-1.5854e-06
5.6888e-05
-3.28491e-06
2.17135e-05
-4.68128e-06
1.34651e-05
-5.78268e-06
9.83215e-06
-6.67923e-06
6.50839e-06
-7.48104e-06
3.52537e-06
-8.26237e-06
6.71683e-07
-9.01701e-06
-2.32668e-06
-9.75475e-06
-5.62716e-06
-1.04786e-05
-9.23322e-06
-1.11888e-05
-1.28547e-05
-1.18589e-05
-1.60463e-05
-1.238e-05
-1.82735e-05
-1.24985e-05
-1.88751e-05
-1.17294e-05
-1.70379e-05
-9.45717e-06
-1.17997e-05
-5.52746e-06
-7.34983e-07
2.07804e-05
3.87363e-07
-2.58622e-05
5.80138e-07
-2.00673e-05
7.07143e-07
-1.81698e-05
8.54465e-07
-1.76501e-05
1.05805e-06
-1.73046e-05
1.39062e-06
-1.69623e-05
1.89356e-06
-1.65423e-05
2.57386e-06
-1.59178e-05
3.39192e-06
-1.48656e-05
4.34663e-06
-1.31771e-05
5.48036e-06
-1.03826e-05
6.67295e-06
-5.81986e-06
7.53559e-06
3.22999e-07
8.00921e-06
6.44404e-06
8.17588e-06
1.16886e-05
8.06017e-06
1.58566e-05
7.66335e-06
1.88997e-05
6.97718e-06
2.08438e-05
5.98952e-06
2.17932e-05
4.65414e-06
2.20368e-05
2.99197e-06
2.21345e-05
4.98729e-07
3.16272e-05
-1.69519e-06
5.9082e-05
-3.22367e-06
2.3242e-05
-4.45456e-06
1.4696e-05
-5.43041e-06
1.0808e-05
-6.23565e-06
7.31362e-06
-6.98197e-06
4.27169e-06
-7.7347e-06
1.42441e-06
-8.47996e-06
-1.58142e-06
-9.20719e-06
-4.89993e-06
-9.92609e-06
-8.51432e-06
-1.06555e-05
-1.21253e-05
-1.14057e-05
-1.52961e-05
-1.21177e-05
-1.75616e-05
-1.25876e-05
-1.84052e-05
-1.23925e-05
-1.7233e-05
-1.09217e-05
-1.32705e-05
-6.99082e-06
-4.66582e-06
1.37896e-05
-7.59381e-08
-2.57863e-05
-9.67388e-08
-2.00465e-05
-1.39944e-07
-1.81266e-05
-1.31619e-07
-1.76584e-05
-5.81869e-08
-1.7378e-05
1.747e-07
-1.71952e-05
6.13257e-07
-1.69809e-05
1.25445e-06
-1.6559e-05
2.03006e-06
-1.56412e-05
2.90477e-06
-1.40519e-05
3.94067e-06
-1.14185e-05
5.17245e-06
-7.05164e-06
6.13039e-06
-6.34937e-07
6.68632e-06
5.88812e-06
6.96421e-06
1.14107e-05
6.98453e-06
1.58363e-05
6.74398e-06
1.91403e-05
6.22717e-06
2.13606e-05
5.41844e-06
2.26019e-05
4.27119e-06
2.3184e-05
2.79784e-06
2.36078e-05
2.06873e-07
3.42182e-05
-1.80918e-06
6.1098e-05
-3.15534e-06
2.45882e-05
-4.2167e-06
1.57573e-05
-5.06328e-06
1.16546e-05
-5.77403e-06
8.02438e-06
-6.45531e-06
4.95297e-06
-7.15837e-06
2.12747e-06
-7.86379e-06
-8.75997e-07
-8.54202e-06
-4.2217e-06
-9.20198e-06
-7.85436e-06
-9.87151e-06
-1.14558e-05
-1.05846e-05
-1.4583e-05
-1.13217e-05
-1.68244e-05
-1.19471e-05
-1.77798e-05
-1.21596e-05
-1.70205e-05
-1.14631e-05
-1.39671e-05
-8.58386e-06
-7.54506e-06
5.20575e-06
-4.18624e-07
-2.53676e-05
-7.2716e-07
-1.9738e-05
-9.35694e-07
-1.7918e-05
-1.10206e-06
-1.7492e-05
-1.15587e-06
-1.73242e-05
-1.01075e-06
-1.73403e-05
-6.20894e-07
-1.73707e-05
-9.70202e-09
-1.71702e-05
7.53097e-07
-1.6404e-05
1.56275e-06
-1.48615e-05
2.45702e-06
-1.23128e-05
3.64187e-06
-8.23649e-06
4.70167e-06
-1.69473e-06
5.35062e-06
5.23917e-06
5.74053e-06
1.10208e-05
5.89308e-06
1.56837e-05
5.80579e-06
1.92276e-05
5.45796e-06
2.17085e-05
4.82989e-06
2.323e-05
3.87854e-06
2.41354e-05
2.56401e-06
2.49224e-05
-1.79593e-07
3.69618e-05
-1.93113e-06
6.28495e-05
-3.08201e-06
2.5739e-05
-3.97612e-06
1.66515e-05
-4.69401e-06
1.23725e-05
-5.30971e-06
8.64008e-06
-5.91951e-06
5.56277e-06
-6.56143e-06
2.76939e-06
-7.20835e-06
-2.29085e-07
-7.81298e-06
-3.61707e-06
-8.38449e-06
-7.28285e-06
-8.95083e-06
-1.08894e-05
-9.55212e-06
-1.39817e-05
-1.01775e-05
-1.6199e-05
-1.07243e-05
-1.7233e-05
-1.09896e-05
-1.67552e-05
-1.06865e-05
-1.42702e-05
-8.94605e-06
-9.28548e-06
-3.7403e-06
-7.31826e-07
-2.46358e-05
-1.28651e-06
-1.91833e-05
-1.70466e-06
-1.74999e-05
-2.04493e-06
-1.71518e-05
-2.21887e-06
-1.71502e-05
-2.13999e-06
-1.74192e-05
-1.77188e-06
-1.77388e-05
-1.16323e-06
-1.77789e-05
-4.19198e-07
-1.7148e-05
3.38478e-07
-1.56192e-05
1.09925e-06
-1.30735e-05
2.15023e-06
-9.28747e-06
3.3274e-06
-2.87191e-06
4.04162e-06
4.52495e-06
4.53398e-06
1.05284e-05
4.81042e-06
1.54073e-05
4.87044e-06
1.91676e-05
4.68815e-06
2.18908e-05
4.2371e-06
2.3681e-05
3.48215e-06
2.48903e-05
2.27231e-06
2.61322e-05
-6.1174e-07
3.98458e-05
-2.06182e-06
6.42996e-05
-3.00706e-06
2.66843e-05
-3.73665e-06
1.7381e-05
-4.32587e-06
1.29617e-05
-4.84149e-06
9.1557e-06
-5.3644e-06
6.08568e-06
-5.92337e-06
3.32837e-06
-6.50565e-06
3.53197e-07
-7.04033e-06
-3.08239e-06
-7.51355e-06
-6.80962e-06
-7.96852e-06
-1.04345e-05
-8.44531e-06
-1.35049e-05
-8.92392e-06
-1.57204e-05
-9.29733e-06
-1.68596e-05
-9.36255e-06
-1.669e-05
-8.73548e-06
-1.48972e-05
-6.41942e-06
-1.16015e-05
-1.01597e-05
-1.00377e-06
-2.3632e-05
-1.79774e-06
-1.83893e-05
-2.43238e-06
-1.68653e-05
-2.94006e-06
-1.66441e-05
-3.22101e-06
-1.68693e-05
-3.19151e-06
-1.74487e-05
-2.8297e-06
-1.81006e-05
-2.20541e-06
-1.84032e-05
-1.45114e-06
-1.79023e-05
-7.23489e-07
-1.63468e-05
-9.3386e-08
-1.37036e-05
7.01979e-07
-1.00828e-05
1.96134e-06
-4.13127e-06
2.79344e-06
3.69285e-06
3.37108e-06
9.95075e-06
3.75882e-06
1.50195e-05
3.95683e-06
1.89695e-05
3.9338e-06
2.19138e-05
3.65227e-06
2.39626e-05
3.08884e-06
2.54538e-05
1.92052e-06
2.73005e-05
-1.04741e-06
4.28137e-05
-2.19735e-06
6.54496e-05
-2.93139e-06
2.74183e-05
-3.49859e-06
1.79482e-05
-3.95885e-06
1.34219e-05
-4.37094e-06
9.56779e-06
-4.80186e-06
6.5166e-06
-5.27573e-06
3.80224e-06
-5.77574e-06
8.53204e-07
-6.22504e-06
-2.63309e-06
-6.59739e-06
-6.43728e-06
-6.94728e-06
-1.00846e-05
-7.31404e-06
-1.31382e-05
-7.67152e-06
-1.5363e-05
-7.91688e-06
-1.66142e-05
-7.8584e-06
-1.67485e-05
-7.07984e-06
-1.56758e-05
-4.73563e-06
-1.39458e-05
-1.48953e-05
-1.23712e-06
-2.23949e-05
-2.25891e-06
-1.73675e-05
-3.10068e-06
-1.60235e-05
-3.75944e-06
-1.59853e-05
-4.12802e-06
-1.65007e-05
-4.1295e-06
-1.74472e-05
-3.76093e-06
-1.84692e-05
-3.11652e-06
-1.90476e-05
-2.35485e-06
-1.8664e-05
-1.64285e-06
-1.70588e-05
-1.05474e-06
-1.42917e-05
-5.88173e-07
-1.05494e-05
5.36959e-07
-5.2564e-06
1.68732e-06
2.54249e-06
2.27484e-06
9.36324e-06
2.75659e-06
1.45378e-05
3.08008e-06
1.8646e-05
3.20788e-06
2.1786e-05
3.08702e-06
2.40834e-05
2.70878e-06
2.5832e-05
1.50693e-06
2.85024e-05
-1.48726e-06
4.58079e-05
-2.33395e-06
6.62963e-05
-2.85334e-06
2.79377e-05
-3.25947e-06
1.83544e-05
-3.58956e-06
1.3752e-05
-3.89347e-06
9.8717e-06
-4.22484e-06
6.84797e-06
-4.60472e-06
4.18212e-06
-5.01148e-06
1.25996e-06
-5.36689e-06
-2.27767e-06
-5.64086e-06
-6.16331e-06
-5.89668e-06
-9.82876e-06
-6.16901e-06
-1.28658e-05
-6.42683e-06
-1.51051e-05
-6.57523e-06
-1.64658e-05
-6.43835e-06
-1.68854e-05
-5.63788e-06
-1.64763e-05
-3.56271e-06
-1.60209e-05
-1.84581e-05
-1.4311e-06
-2.09638e-05
-2.65999e-06
-1.61386e-05
-3.68719e-06
-1.49963e-05
-4.47228e-06
-1.52002e-05
-4.90417e-06
-1.60688e-05
-4.91708e-06
-1.74343e-05
-4.53164e-06
-1.88546e-05
-3.87056e-06
-1.97087e-05
-3.11678e-06
-1.94178e-05
-2.43941e-06
-1.77362e-05
-1.91038e-06
-1.48208e-05
-1.49291e-06
-1.09669e-05
-7.23089e-07
-6.02622e-06
5.24552e-07
1.29484e-06
1.24724e-06
8.64055e-06
1.81425e-06
1.39708e-05
2.2501e-06
1.82102e-05
2.51941e-06
2.15167e-05
2.552e-06
2.40508e-05
2.35216e-06
2.60319e-05
1.02132e-06
2.98332e-05
-1.92559e-06
4.87548e-05
-2.46609e-06
6.68368e-05
-2.76972e-06
2.82413e-05
-3.01502e-06
1.85997e-05
-3.21295e-06
1.395e-05
-3.40279e-06
1.00616e-05
-3.62485e-06
7.07003e-06
-3.89856e-06
4.45583e-06
-4.2079e-06
1.5693e-06
-4.47078e-06
-2.01479e-06
-4.65494e-06
-5.97916e-06
-4.83257e-06
-9.65113e-06
-5.02757e-06
-1.26708e-05
-5.20538e-06
-1.49273e-05
-5.28235e-06
-1.63888e-05
-5.10153e-06
-1.70662e-05
-4.36115e-06
-1.72166e-05
-2.65059e-06
-1.77315e-05
-2.11086e-05
-1.58133e-06
-1.93825e-05
-2.98671e-06
-1.47332e-05
-4.16779e-06
-1.38152e-05
-5.04784e-06
-1.43202e-05
-5.51557e-06
-1.56011e-05
-5.52127e-06
-1.74286e-05
-5.11419e-06
-1.92617e-05
-4.44902e-06
-2.03738e-05
-3.72908e-06
-2.01377e-05
-3.11669e-06
-1.83486e-05
-2.6658e-06
-1.52717e-05
-2.31027e-06
-1.13224e-05
-1.84065e-06
-6.49585e-06
-7.23748e-07
1.77947e-07
2.56936e-07
7.65986e-06
9.35002e-07
1.32927e-05
1.4716e-06
1.76736e-05
1.87263e-06
2.11156e-05
2.05526e-06
2.38682e-05
2.01482e-06
2.60723e-05
4.33873e-07
3.14142e-05
-2.35088e-06
5.15396e-05
-2.58555e-06
6.70714e-05
-2.67583e-06
2.83316e-05
-2.75985e-06
1.86837e-05
-2.82379e-06
1.40139e-05
-2.89434e-06
1.01321e-05
-2.99908e-06
7.17478e-06
-3.15771e-06
4.61446e-06
-3.36925e-06
1.78084e-06
-3.5449e-06
-1.83914e-06
-3.65284e-06
-5.87121e-06
-3.77121e-06
-9.53276e-06
-3.90579e-06
-1.25363e-05
-4.02078e-06
-1.48124e-05
-4.04858e-06
-1.6361e-05
-3.855e-06
-1.72598e-05
-3.22507e-06
-1.78466e-05
-1.89939e-06
-1.90572e-05
-2.3008e-05
-1.68146e-06
-1.7701e-05
-3.22354e-06
-1.31912e-05
-4.51968e-06
-1.25191e-05
-5.45937e-06
-1.33805e-05
-5.93557e-06
-1.51249e-05
-5.91991e-06
-1.74442e-05
-5.49481e-06
-1.96868e-05
-4.84817e-06
-2.10205e-05
-4.19704e-06
-2.07888e-05
-3.68545e-06
-1.88602e-05
-3.33824e-06
-1.56189e-05
-3.08779e-06
-1.15728e-05
-2.79638e-06
-6.78726e-06
-1.92854e-06
-6.89888e-07
-7.66188e-07
6.49751e-06
8.88731e-08
1.24377e-05
7.44366e-07
1.70181e-05
1.26629e-06
2.05937e-05
1.5985e-06
2.3536e-05
1.63532e-06
2.60355e-05
-2.08339e-07
3.32578e-05
-2.73796e-06
5.40692e-05
-2.68097e-06
6.70144e-05
-2.56553e-06
2.82162e-05
-2.48794e-06
1.86061e-05
-2.41725e-06
1.39432e-05
-2.36567e-06
1.00805e-05
-2.34926e-06
7.15837e-06
-2.38853e-06
4.65372e-06
-2.50346e-06
1.89577e-06
-2.59712e-06
-1.74548e-06
-2.6462e-06
-5.82213e-06
-2.72425e-06
-9.4547e-06
-2.81379e-06
-1.24467e-05
-2.88131e-06
-1.47448e-05
-2.87944e-06
-1.63629e-05
-2.70089e-06
-1.74383e-05
-2.21021e-06
-1.83372e-05
-1.25901e-06
-2.00084e-05
-2.4267e-05
-1.72521e-06
-1.59758e-05
-3.3567e-06
-1.15597e-05
-4.72507e-06
-1.11507e-05
-5.68922e-06
-1.24163e-05
-6.15136e-06
-1.46628e-05
-6.1093e-06
-1.74863e-05
-5.68087e-06
-2.01153e-05
-5.08485e-06
-2.16165e-05
-4.54269e-06
-2.1331e-05
-4.16793e-06
-1.92349e-05
-3.94596e-06
-1.58408e-05
-3.79327e-06
-1.17255e-05
-3.56825e-06
-7.01228e-06
-2.90537e-06
-1.35276e-06
-1.75513e-06
5.34726e-06
-7.69575e-07
1.14521e-05
4.51888e-08
1.62033e-05
6.93867e-07
1.9945e-05
1.17132e-06
2.30585e-05
1.14403e-06
2.60628e-05
-9.31804e-07
3.53337e-05
-3.0812e-06
5.62186e-05
-2.74209e-06
6.66753e-05
-2.43189e-06
2.7906e-05
-2.19278e-06
1.8367e-05
-1.9886e-06
1.3739e-05
-1.81577e-06
9.90769e-06
-1.68058e-06
7.02318e-06
-1.6056e-06
4.57874e-06
-1.62149e-06
1.91165e-06
-1.63091e-06
-1.73606e-06
-1.64251e-06
-5.81054e-06
-1.69501e-06
-9.4022e-06
-1.75207e-06
-1.23897e-05
-1.78715e-06
-1.47098e-05
-1.77355e-06
-1.63765e-05
-1.63509e-06
-1.75768e-05
-1.29918e-06
-1.86732e-05
-6.99176e-07
-2.06084e-05
-2.49662e-05
-1.70845e-06
-1.42674e-05
-3.37715e-06
-9.89097e-06
-4.77504e-06
-9.75281e-06
-5.73377e-06
-1.14576e-05
-6.16967e-06
-1.42269e-05
-6.10937e-06
-1.75466e-05
-5.70442e-06
-2.05202e-05
-5.19815e-06
-2.21228e-05
-4.80535e-06
-2.17238e-05
-4.5995e-06
-1.94408e-05
-4.52111e-06
-1.59192e-05
-4.45844e-06
-1.17882e-05
-4.26902e-06
-7.2017e-06
-3.73605e-06
-1.88574e-06
-2.69434e-06
4.30555e-06
-1.61271e-06
1.03705e-05
-6.7166e-07
1.52623e-05
1.26616e-07
1.91468e-05
7.38212e-07
2.24469e-05
4.91968e-07
2.6309e-05
-1.66084e-06
3.74865e-05
-3.3696e-06
5.79274e-05
-2.76048e-06
6.60662e-05
-2.26759e-06
2.74131e-05
-1.86727e-06
1.79667e-05
-1.53237e-06
1.34041e-05
-1.24329e-06
9.61861e-06
-9.99313e-07
6.7792e-06
-8.35309e-07
4.41473e-06
-7.38872e-07
1.81522e-06
-6.49017e-07
-1.82591e-06
-6.43679e-07
-5.81588e-06
-6.764e-07
-9.36948e-06
-7.10309e-07
-1.23558e-05
-7.28776e-07
-1.46913e-05
-7.22298e-07
-1.6383e-05
-6.45686e-07
-1.76534e-05
-4.7679e-07
-1.8842e-05
-1.90519e-07
-2.08946e-05
-2.51567e-05
-1.63126e-06
-1.26361e-05
-3.28326e-06
-8.23898e-06
-4.67259e-06
-8.36348e-06
-5.60646e-06
-1.05237e-05
-6.01865e-06
-1.38147e-05
-5.96331e-06
-1.76019e-05
-5.61935e-06
-2.08642e-05
-5.24493e-06
-2.24972e-05
-5.03687e-06
-2.19319e-05
-5.02384e-06
-1.94538e-05
-5.10493e-06
-1.58382e-05
-5.14445e-06
-1.17487e-05
-5.00419e-06
-7.34195e-06
-4.53708e-06
-2.35284e-06
-3.59799e-06
3.36646e-06
-2.45927e-06
9.23175e-06
-1.39491e-06
1.41979e-05
-4.72429e-07
1.82243e-05
1.78528e-07
2.1796e-05
-3.10043e-07
2.67976e-05
-2.36271e-06
3.95392e-05
-3.5853e-06
5.91499e-05
-2.72455e-06
6.52055e-05
-2.0637e-06
2.67522e-05
-1.50345e-06
1.74064e-05
-1.04079e-06
1.29415e-05
-6.43014e-07
9.22083e-06
-3.06321e-07
6.44251e-06
-9.54942e-08
4.20391e-06
1.3948e-07
1.58024e-06
3.20801e-07
-2.00723e-06
3.48934e-07
-5.84401e-06
3.42641e-07
-9.36318e-06
3.26501e-07
-1.23396e-05
3.08284e-07
-1.46731e-05
2.87477e-07
-1.63622e-05
2.78759e-07
-1.76447e-05
2.69941e-07
-1.88332e-05
2.4203e-07
-2.08667e-05
-2.49147e-05
-1.49967e-06
-1.11364e-05
-3.08241e-06
-6.65624e-06
-4.43352e-06
-7.01237e-06
-5.33706e-06
-9.62019e-06
-5.74418e-06
-1.34076e-05
-5.73042e-06
-1.76157e-05
-5.49191e-06
-2.11027e-05
-5.29e-06
-2.26991e-05
-5.29314e-06
-2.19287e-05
-5.48498e-06
-1.9262e-05
-5.73218e-06
-1.5591e-05
-5.88409e-06
-1.15968e-05
-5.8056e-06
-7.42044e-06
-5.37744e-06
-2.78101e-06
-4.50976e-06
2.49878e-06
-3.3433e-06
8.06528e-06
-2.17581e-06
1.30305e-05
-1.15812e-06
1.72066e-05
-5.60514e-07
2.11984e-05
-1.27173e-06
2.75088e-05
-3.01758e-06
4.1285e-05
-3.71007e-06
5.98424e-05
-2.6173e-06
6.41127e-05
-1.80888e-06
2.59438e-05
-1.09221e-06
1.66898e-05
-4.98403e-07
1.23477e-05
2.86796e-09
8.71956e-06
4.2204e-07
6.02334e-06
7.47363e-07
3.87858e-06
1.05475e-06
1.27286e-06
1.26245e-06
-2.21493e-06
1.34775e-06
-5.92931e-06
1.37605e-06
-9.39149e-06
1.37168e-06
-1.23353e-05
1.3368e-06
-1.46382e-05
1.26751e-06
-1.62929e-05
1.1466e-06
-1.75237e-05
9.58609e-07
-1.86452e-05
6.3064e-07
-2.05388e-05
-2.42841e-05
-1.32665e-06
-9.80979e-06
-2.79131e-06
-5.19157e-06
-4.08473e-06
-5.71896e-06
-4.96683e-06
-8.73808e-06
-5.40125e-06
-1.29731e-05
-5.47442e-06
-1.75425e-05
-5.38794e-06
-2.11891e-05
-5.3944e-06
-2.26926e-05
-5.62503e-06
-2.16981e-05
-6.02247e-06
-1.88645e-05
-6.43335e-06
-1.51801e-05
-6.70241e-06
-1.13277e-05
-6.69756e-06
-7.42529e-06
-6.3112e-06
-3.16737e-06
-5.49294e-06
1.68052e-06
-4.32701e-06
6.89935e-06
-3.09585e-06
1.17993e-05
-2.04571e-06
1.61564e-05
-1.57968e-06
2.07323e-05
-2.32482e-06
2.82539e-05
-3.60351e-06
4.25637e-05
-3.72842e-06
5.99674e-05
-2.41408e-06
6.27984e-05
-1.48768e-06
2.50174e-05
-6.17927e-07
1.582e-05
1.31586e-07
1.15982e-05
7.26845e-07
8.1243e-06
1.18792e-06
5.56226e-06
1.58692e-06
3.47959e-06
1.96797e-06
8.91808e-07
2.23354e-06
-2.48051e-06
2.38179e-06
-6.07755e-06
2.44481e-06
-9.45452e-06
2.44218e-06
-1.23326e-05
2.37394e-06
-1.45699e-05
2.23193e-06
-1.61509e-05
1.98631e-06
-1.72781e-05
1.60411e-06
-1.8263e-05
9.96545e-07
-1.99312e-05
-2.32875e-05
-1.13193e-06
-8.67786e-06
-2.43484e-06
-3.88865e-06
-3.66004e-06
-4.49376e-06
-4.54091e-06
-7.85721e-06
-5.04316e-06
-1.24709e-05
-5.25122e-06
-1.73345e-05
-5.36118e-06
-2.10792e-05
-5.60529e-06
-2.24485e-05
-6.07067e-06
-2.12327e-05
-6.66632e-06
-1.82689e-05
-7.23306e-06
-1.46133e-05
-7.62249e-06
-1.09383e-05
-7.70908e-06
-7.3387e-06
-7.38879e-06
-3.48766e-06
-6.62678e-06
9.18511e-07
-5.49486e-06
5.76743e-06
-4.25407e-06
1.05585e-05
-3.22724e-06
1.51296e-05
-2.84883e-06
2.03539e-05
-3.41699e-06
2.88221e-05
-4.09864e-06
4.32453e-05
-3.62651e-06
5.94952e-05
-2.07617e-06
6.1248e-05
-1.07054e-06
2.40118e-05
-7.20476e-08
1.48215e-05
8.54218e-07
1.06719e-05
1.51013e-06
7.46839e-06
2.02259e-06
5.0498e-06
2.48599e-06
3.01618e-06
2.93246e-06
4.45337e-07
3.27033e-06
-2.81838e-06
3.47677e-06
-6.28399e-06
3.56538e-06
-9.54313e-06
3.54947e-06
-1.23167e-05
3.42841e-06
-1.44489e-05
3.19195e-06
-1.59144e-05
2.8048e-06
-1.6891e-05
2.22031e-06
-1.76786e-05
1.34177e-06
-1.90527e-05
-2.19458e-05
-9.40247e-07
-7.73761e-06
-2.04435e-06
-2.78455e-06
-3.19534e-06
-3.34278e-06
-4.10056e-06
-6.952e-06
-4.7124e-06
-1.1859e-05
-5.10051e-06
-1.69464e-05
-5.44641e-06
-2.07333e-05
-5.95055e-06
-2.19444e-05
-6.6512e-06
-2.0532e-05
-7.43307e-06
-1.7487e-05
-8.14495e-06
-1.39015e-05
-8.6566e-06
-1.04266e-05
-8.85618e-06
-7.13912e-06
-8.64317e-06
-3.70067e-06
-7.97308e-06
2.48428e-07
-6.9147e-06
4.70904e-06
-5.71499e-06
9.35879e-06
-4.72047e-06
1.41351e-05
-4.30334e-06
1.99368e-05
-4.49714e-06
2.90159e-05
-4.48534e-06
4.32335e-05
-3.39508e-06
5.8405e-05
-1.54095e-06
5.93939e-05
-4.51002e-07
2.29218e-05