/*--------------------------------*- C++ -*----------------------------------*\
| =========                 |                                                 |
| \\      /  F ield         | OpenFOAM: The Open Source CFD Toolbox           |
|  \\    /   O peration     | Version:  4.1                                   |
|   \\  /    A nd           | Web:      www.OpenFOAM.org                      |
|    \\/     M anipulation  |                                                 |
\*---------------------------------------------------------------------------*/
FoamFile
{
    version     2.0;
    format      ascii;
    class       volScalarField;
    location    "1860";
    object      T;
}
// * * * * * * * * * * * * * * * * * * * * * * * * * * * * * * * * * * * * * //

dimensions      [0 0 0 1 0 0 0];

internalField   nonuniform List<scalar> 
5000
(
286.462
285.822
285.607
285.802
286.008
286.259
286.575
286.917
287.281
287.726
288.168
288.013
287.909
287.831
287.755
287.676
287.588
287.492
287.387
287.272
287.153
287.052
286.968
286.897
286.837
286.787
286.744
286.707
286.676
286.649
286.627
286.61
286.596
286.587
286.584
286.588
286.602
286.627
286.663
286.699
286.74
286.787
286.839
286.899
286.967
287.043
287.128
287.222
287.327
287.442
287.569
287.707
287.856
288.017
288.187
288.365
288.547
288.728
288.896
289.047
289.184
289.306
289.409
289.471
289.422
289.289
289.275
289.387
289.421
288.743
287.315
287.002
286.775
286.561
286.355
286.164
286.022
285.935
285.911
285.922
285.94
285.963
285.992
286.028
286.07
286.121
286.179
286.248
286.328
286.423
286.532
286.643
286.754
286.867
286.985
287.11
287.248
287.407
287.607
287.935
286.041
285.09
285.118
285.124
285.111
285.088
285.065
285.213
285.776
287.048
287.296
286.53
285.882
285.523
285.36
285.273
285.203
285.142
285.096
285.073
285.072
285.071
285.07
285.069
285.068
285.067
285.066
285.065
285.064
285.063
285.062
285.06
285.059
285.058
285.057
285.055
285.054
285.052
285.051
285.049
285.048
285.048
285.047
285.046
285.046
285.046
285.046
285.046
285.047
285.047
285.049
285.05
285.052
285.054
285.056
285.059
285.062
285.068
285.084
285.11
285.14
285.168
285.178
285.156
285.129
285.114
285.165
285.704
286.848
287.518
287.158
286.058
285.517
285.356
285.283
285.258
285.233
285.21
285.193
285.183
285.179
285.178
285.179
285.182
285.186
285.191
285.197
285.204
285.211
285.219
285.228
285.256
285.306
285.382
285.486
285.625
285.815
286.093
286.542
287.322
285.927
285.137
285.183
285.212
285.207
285.173
285.138
285.135
285.619
286.74
286.774
285.985
285.425
285.186
285.107
285.08
285.068
285.062
285.06
285.061
285.061
285.061
285.061
285.061
285.061
285.06
285.06
285.059
285.058
285.058
285.057
285.056
285.054
285.053
285.051
285.05
285.047
285.045
285.043
285.041
285.038
285.036
285.034
285.032
285.03
285.028
285.026
285.024
285.022
285.021
285.019
285.018
285.016
285.015
285.013
285.012
285.01
285.008
285.006
285.004
285.002
284.999
284.997
284.994
284.992
284.992
285.018
285.238
285.958
286.739
286.859
286.255
285.597
285.336
285.299
285.266
285.235
285.207
285.184
285.169
285.161
285.157
285.157
285.16
285.165
285.171
285.178
285.186
285.194
285.203
285.212
285.222
285.237
285.26
285.299
285.367
285.484
285.701
286.135
287.023
285.895
285.192
285.249
285.307
285.317
285.282
285.236
285.217
285.701
286.499
286.416
285.718
285.276
285.115
285.074
285.065
285.063
285.064
285.064
285.065
285.065
285.065
285.064
285.064
285.063
285.063
285.062
285.061
285.061
285.06
285.059
285.058
285.057
285.056
285.054
285.052
285.05
285.048
285.046
285.043
285.041
285.038
285.035
285.032
285.029
285.026
285.024
285.021
285.019
285.017
285.015
285.013
285.012
285.01
285.009
285.007
285.006
285.004
285.002
285
284.998
284.995
284.992
284.99
284.987
284.986
284.999
285.111
285.556
286.225
286.547
286.292
285.805
285.457
285.336
285.285
285.254
285.222
285.192
285.17
285.156
285.149
285.149
285.152
285.158
285.165
285.173
285.182
285.192
285.202
285.212
285.223
285.235
285.249
285.27
285.308
285.382
285.545
285.933
286.843
285.913
285.245
285.311
285.403
285.435
285.407
285.344
285.354
285.76
286.301
286.157
285.565
285.214
285.096
285.069
285.065
285.065
285.066
285.067
285.067
285.067
285.065
285.064
285.063
285.062
285.061
285.06
285.059
285.059
285.058
285.057
285.057
285.056
285.055
285.054
285.052
285.051
285.049
285.047
285.045
285.042
285.039
285.036
285.032
285.029
285.025
285.022
285.018
285.015
285.012
285.01
285.007
285.005
285.004
285.002
285
284.999
284.997
284.996
284.994
284.992
284.989
284.986
284.984
284.981
284.979
284.987
285.056
285.344
285.876
286.265
286.234
285.922
285.597
285.405
285.323
285.287
285.251
285.212
285.18
285.159
285.148
285.146
285.15
285.157
285.166
285.176
285.186
285.196
285.206
285.217
285.229
285.241
285.254
285.27
285.295
285.346
285.472
285.817
286.724
285.971
285.295
285.369
285.491
285.543
285.518
285.435
285.47
285.785
286.137
285.965
285.47
285.184
285.092
285.071
285.069
285.071
285.075
285.079
285.078
285.075
285.07
285.066
285.062
285.059
285.057
285.055
285.054
285.053
285.052
285.052
285.051
285.051
285.051
285.05
285.05
285.049
285.048
285.046
285.044
285.042
285.039
285.036
285.032
285.028
285.024
285.02
285.016
285.012
285.008
285.004
285.001
284.999
284.996
284.994
284.992
284.991
284.989
284.987
284.986
284.983
284.981
284.978
284.976
284.973
284.971
284.977
285.023
285.219
285.633
286.026
286.13
285.964
285.705
285.499
285.387
285.336
285.292
285.24
285.195
285.165
285.151
285.148
285.152
285.161
285.172
285.184
285.195
285.205
285.216
285.226
285.238
285.25
285.263
285.277
285.295
285.333
285.435
285.745
286.64
286.033
285.339
285.423
285.562
285.612
285.577
285.513
285.555
285.784
286.003
285.824
285.41
285.173
285.098
285.085
285.09
285.1
285.111
285.118
285.111
285.099
285.088
285.077
285.069
285.061
285.056
285.052
285.049
285.047
285.046
285.045
285.044
285.044
285.044
285.044
285.044
285.044
285.044
285.043
285.042
285.04
285.037
285.034
285.031
285.027
285.022
285.017
285.013
285.008
285.003
284.999
284.995
284.992
284.989
284.986
284.984
284.982
284.98
284.978
284.976
284.974
284.972
284.969
284.966
284.963
284.961
284.966
285
285.14
285.461
285.828
286.009
285.956
285.773
285.59
285.469
285.4
285.34
285.272
285.212
285.173
285.154
285.151
285.157
285.168
285.181
285.195
285.207
285.218
285.228
285.239
285.25
285.261
285.273
285.285
285.301
285.33
285.414
285.697
286.578
286.08
285.355
285.465
285.607
285.656
285.625
285.577
285.611
285.768
285.897
285.724
285.379
285.179
285.121
285.122
285.144
285.171
285.193
285.188
285.164
285.14
285.12
285.101
285.085
285.071
285.061
285.053
285.047
285.043
285.04
285.038
285.037
285.037
285.037
285.037
285.038
285.038
285.038
285.038
285.038
285.036
285.034
285.032
285.028
285.024
285.019
285.014
285.009
285.004
284.998
284.993
284.989
284.984
284.981
284.977
284.975
284.972
284.97
284.968
284.966
284.964
284.961
284.959
284.956
284.953
284.951
284.955
284.981
285.085
285.338
285.668
285.89
285.918
285.807
285.661
285.549
285.469
285.389
285.302
285.227
285.179
285.158
285.155
285.163
285.177
285.193
285.208
285.222
285.234
285.244
285.254
285.263
285.273
285.284
285.295
285.307
285.33
285.402
285.664
286.533
286.106
285.349
285.49
285.633
285.689
285.667
285.629
285.647
285.747
285.817
285.662
285.372
285.203
285.163
285.187
285.235
285.284
285.308
285.269
285.223
285.187
285.158
285.133
285.108
285.089
285.072
285.059
285.049
285.041
285.036
285.032
285.03
285.029
285.029
285.03
285.03
285.031
285.032
285.033
285.033
285.032
285.03
285.028
285.024
285.02
285.015
285.01
285.004
284.998
284.993
284.987
284.981
284.977
284.972
284.968
284.965
284.962
284.959
284.957
284.955
284.953
284.95
284.947
284.944
284.942
284.94
284.943
284.965
285.047
285.25
285.542
285.78
285.865
285.814
285.708
285.612
285.528
285.43
285.323
285.236
285.182
285.16
285.159
285.171
285.188
285.207
285.224
285.239
285.251
285.262
285.27
285.278
285.286
285.296
285.305
285.315
285.332
285.394
285.64
286.498
286.098
285.335
285.499
285.64
285.706
285.701
285.671
285.673
285.729
285.764
285.633
285.39
285.243
285.218
285.264
285.344
285.421
285.426
285.339
285.276
285.232
285.196
285.165
285.136
285.109
285.086
285.068
285.053
285.042
285.034
285.029
285.025
285.023
285.023
285.023
285.024
285.025
285.026
285.027
285.027
285.027
285.025
285.023
285.02
285.015
285.01
285.005
284.998
284.992
284.986
284.979
284.973
284.968
284.963
284.958
284.954
284.951
284.948
284.946
284.943
284.941
284.938
284.935
284.932
284.93
284.928
284.932
284.951
285.018
285.186
285.445
285.686
285.808
285.805
285.735
285.655
285.568
285.453
285.33
285.234
285.18
285.161
285.164
285.181
285.201
285.223
285.242
285.258
285.271
285.28
285.288
285.294
285.3
285.307
285.314
285.321
285.335
285.388
285.622
286.471
286.046
285.318
285.49
285.627
285.705
285.724
285.706
285.697
285.721
285.735
285.631
285.428
285.295
285.273
285.329
285.44
285.592
285.49
285.387
285.319
285.272
285.234
285.196
285.16
285.127
285.099
285.075
285.057
285.043
285.032
285.025
285.021
285.018
285.017
285.017
285.018
285.019
285.02
285.021
285.021
285.021
285.02
285.017
285.014
285.009
285.004
284.998
284.991
284.984
284.977
284.97
284.964
284.958
284.952
284.947
284.943
284.939
284.936
284.933
284.931
284.928
284.925
284.922
284.92
284.917
284.916
284.92
284.937
284.996
285.14
285.373
285.61
285.756
285.787
285.747
285.68
285.586
285.453
285.319
285.223
285.173
285.16
285.171
285.192
285.217
285.241
285.262
285.279
285.291
285.3
285.306
285.31
285.314
285.318
285.323
285.327
285.336
285.384
285.608
286.45
285.935
285.302
285.458
285.588
285.682
285.728
285.731
285.721
285.724
285.725
285.65
285.483
285.364
285.341
285.392
285.495
285.571
285.508
285.421
285.355
285.307
285.265
285.222
285.18
285.14
285.107
285.079
285.058
285.041
285.03
285.022
285.017
285.014
285.012
285.012
285.013
285.014
285.015
285.016
285.016
285.015
285.013
285.011
285.007
285.001
284.996
284.989
284.982
284.974
284.967
284.96
284.953
284.946
284.94
284.935
284.93
284.926
284.923
284.92
284.917
284.914
284.911
284.909
284.906
284.904
284.904
284.907
284.925
284.98
285.109
285.322
285.554
285.714
285.769
285.749
285.687
285.579
285.429
285.291
285.202
285.164
285.161
285.179
285.206
285.234
285.26
285.283
285.3
285.313
285.321
285.325
285.326
285.327
285.329
285.331
285.332
285.337
285.379
285.597
286.434
285.795
285.27
285.4
285.521
285.627
285.7
285.732
285.737
285.735
285.73
285.674
285.55
285.456
285.432
285.469
285.539
285.551
285.497
285.431
285.377
285.332
285.286
285.238
285.19
285.146
285.108
285.078
285.055
285.038
285.026
285.018
285.013
285.01
285.009
285.009
285.009
285.01
285.011
285.011
285.011
285.009
285.006
285.003
284.998
284.992
284.985
284.978
284.971
284.963
284.955
284.947
284.94
284.933
284.926
284.921
284.916
284.912
284.908
284.905
284.902
284.899
284.897
284.894
284.892
284.891
284.891
284.895
284.914
284.968
285.089
285.291
285.518
285.686
285.755
285.745
285.679
285.546
285.382
285.25
285.177
285.155
285.166
285.191
285.222
285.253
285.281
285.305
285.322
285.335
285.342
285.343
285.341
285.339
285.338
285.337
285.335
285.335
285.373
285.587
286.422
285.675
285.236
285.337
285.439
285.541
285.629
285.692
285.724
285.736
285.736
285.699
285.615
285.548
285.528
285.546
285.57
285.545
285.49
285.436
285.39
285.345
285.296
285.243
285.19
285.142
285.102
285.071
285.048
285.032
285.021
285.014
285.01
285.007
285.006
285.006
285.007
285.007
285.007
285.006
285.004
285.001
284.998
284.993
284.987
284.98
284.973
284.965
284.957
284.948
284.94
284.932
284.924
284.917
284.911
284.905
284.9
284.896
284.892
284.888
284.885
284.883
284.881
284.879
284.878
284.876
284.877
284.884
284.905
284.961
285.081
285.278
285.503
285.674
285.748
285.737
285.651
285.485
285.316
285.203
285.155
285.152
285.174
285.206
285.24
285.273
285.302
285.327
285.345
285.357
285.362
285.36
285.354
285.349
285.345
285.342
285.335
285.332
285.365
285.577
286.412
285.592
285.205
285.279
285.355
285.436
285.521
285.599
285.659
285.697
285.717
285.705
285.657
285.614
285.595
285.59
285.574
285.528
285.477
285.433
285.392
285.346
285.293
285.235
285.179
285.13
285.09
285.06
285.039
285.025
285.016
285.01
285.007
285.005
285.004
285.004
285.003
285.002
285.001
284.999
284.996
284.991
284.986
284.98
284.973
284.965
284.957
284.948
284.94
284.931
284.922
284.914
284.906
284.899
284.893
284.887
284.882
284.877
284.873
284.87
284.868
284.866
284.864
284.863
284.862
284.862
284.864
284.872
284.898
284.959
285.084
285.282
285.509
285.68
285.748
285.72
285.593
285.396
285.241
285.16
285.14
285.156
285.187
285.223
285.259
285.293
285.324
285.349
285.368
285.379
285.381
285.374
285.365
285.356
285.35
285.343
285.333
285.325
285.356
285.568
286.404
285.545
285.18
285.231
285.283
285.34
285.404
285.474
285.543
285.601
285.647
285.663
285.647
285.622
285.601
285.578
285.541
285.495
285.456
285.422
285.383
285.333
285.275
285.214
285.157
285.109
285.072
285.046
285.029
285.017
285.011
285.007
285.004
285.002
285.001
285
284.998
284.996
284.993
284.989
284.984
284.978
284.971
284.964
284.955
284.947
284.938
284.929
284.919
284.91
284.901
284.893
284.885
284.878
284.872
284.867
284.861
284.857
284.854
284.851
284.849
284.848
284.847
284.846
284.846
284.847
284.851
284.862
284.893
284.964
285.098
285.305
285.536
285.7
285.75
285.68
285.492
285.288
285.171
285.131
285.138
285.166
285.203
285.241
285.278
285.312
285.344
285.371
285.39
285.401
285.398
285.386
285.372
285.361
285.352
285.342
285.327
285.316
285.344
285.558
286.397
285.53
285.181
285.204
285.238
285.274
285.316
285.365
285.421
285.477
285.528
285.562
285.57
285.561
285.543
285.517
285.482
285.453
285.429
285.401
285.36
285.306
285.243
285.181
285.126
285.083
285.052
285.031
285.018
285.01
285.006
285.003
285
284.998
284.996
284.993
284.989
284.985
284.98
284.974
284.967
284.96
284.952
284.943
284.934
284.924
284.915
284.905
284.895
284.886
284.878
284.869
284.862
284.855
284.849
284.844
284.839
284.835
284.832
284.83
284.829
284.829
284.829
284.829
284.831
284.833
284.839
284.854
284.893
284.975
285.126
285.348
285.583
285.73
285.738
285.591
285.345
285.183
285.121
285.12
285.145
285.181
285.219
285.257
285.294
285.33
285.363
285.393
285.416
285.422
285.412
285.392
285.375
285.361
285.35
285.336
285.318
285.304
285.33
285.547
286.39
285.524
285.246
285.227
285.24
285.259
285.282
285.309
285.341
285.378
285.415
285.446
285.464
285.468
285.46
285.446
285.432
285.42
285.405
285.375
285.326
285.265
285.199
285.139
285.091
285.056
285.032
285.018
285.009
285.004
285.001
284.998
284.994
284.991
284.987
284.982
284.976
284.97
284.963
284.955
284.946
284.937
284.928
284.918
284.908
284.898
284.888
284.878
284.868
284.859
284.851
284.843
284.836
284.83
284.823
284.818
284.814
284.811
284.809
284.808
284.808
284.809
284.81
284.812
284.815
284.819
284.828
284.848
284.897
284.997
285.169
285.422
285.644
285.751
285.684
285.425
285.193
285.109
285.101
285.125
285.158
285.195
285.233
285.271
285.308
285.344
285.379
285.412
285.439
285.437
285.417
285.393
285.374
285.359
285.345
285.327
285.306
285.289
285.312
285.535
286.384
285.522
285.341
285.309
285.306
285.307
285.311
285.317
285.328
285.343
285.36
285.378
285.393
285.401
285.404
285.403
285.404
285.4
285.38
285.338
285.278
285.21
285.146
285.094
285.056
285.031
285.016
285.007
285.002
284.998
284.994
284.99
284.986
284.98
284.974
284.966
284.959
284.95
284.941
284.931
284.921
284.911
284.9
284.889
284.878
284.868
284.858
284.848
284.838
284.829
284.821
284.814
284.808
284.801
284.796
284.792
284.788
284.786
284.786
284.786
284.787
284.789
284.792
284.795
284.8
284.807
284.818
284.846
284.908
285.03
285.259
285.512
285.691
285.739
285.562
285.204
285.09
285.083
285.106
285.137
285.172
285.208
285.245
285.282
285.318
285.354
285.391
285.426
285.446
285.441
285.417
285.391
285.369
285.352
285.335
285.315
285.291
285.272
285.292
285.521
286.378
285.513
285.412
285.379
285.356
285.344
285.334
285.328
285.328
285.331
285.339
285.349
285.36
285.37
285.379
285.387
285.391
285.379
285.342
285.283
285.213
285.146
285.091
285.052
285.026
285.012
285.004
284.999
284.995
284.991
284.986
284.981
284.974
284.966
284.957
284.948
284.937
284.927
284.916
284.904
284.893
284.881
284.869
284.858
284.847
284.836
284.826
284.816
284.807
284.798
284.791
284.784
284.777
284.772
284.767
284.764
284.762
284.761
284.761
284.763
284.765
284.769
284.774
284.779
284.786
284.795
284.811
284.847
284.927
285.114
285.369
285.588
285.713
285.681
285.368
285.059
285.066
285.089
285.118
285.148
285.182
285.216
285.252
285.288
285.323
285.358
285.394
285.426
285.444
285.438
285.413
285.385
285.361
285.342
285.322
285.298
285.272
285.253
285.269
285.506
286.371
285.407
285.272
285.144
285.1
285.112
285.151
285.195
285.234
285.266
285.293
285.316
285.336
285.354
285.37
285.382
285.377
285.341
285.279
285.205
285.137
285.081
285.043
285.019
285.006
284.999
284.995
284.992
284.988
284.983
284.976
284.968
284.959
284.949
284.938
284.926
284.914
284.901
284.888
284.875
284.863
284.85
284.838
284.826
284.814
284.803
284.793
284.784
284.775
284.767
284.759
284.752
284.747
284.742
284.738
284.736
284.735
284.736
284.737
284.74
284.744
284.75
284.756
284.764
284.773
284.786
284.807
284.854
284.985
285.235
285.468
285.641
285.699
285.58
285.175
285.057
285.076
285.1
285.126
285.155
285.186
285.219
285.253
285.288
285.323
285.356
285.39
285.42
285.437
285.432
285.407
285.377
285.351
285.328
285.305
285.279
285.252
285.231
285.245
285.489
286.363
285.079
284.943
284.926
284.965
285.03
285.09
285.15
285.203
285.248
285.284
285.314
285.34
285.363
285.38
285.376
285.335
285.264
285.186
285.116
285.063
285.028
285.008
284.998
284.994
284.991
284.989
284.986
284.981
284.973
284.965
284.954
284.942
284.93
284.917
284.903
284.889
284.875
284.861
284.847
284.833
284.82
284.807
284.795
284.784
284.773
284.762
284.753
284.744
284.736
284.729
284.722
284.717
284.713
284.711
284.709
284.71
284.711
284.714
284.719
284.724
284.732
284.74
284.75
284.762
284.778
284.805
284.875
285.105
285.346
285.544
285.661
285.644
285.445
285.081
285.065
285.084
285.105
285.129
285.156
285.186
285.217
285.251
285.284
285.317
285.349
285.38
285.408
285.426
285.423
285.4
285.368
285.338
285.312
285.286
285.258
285.229
285.207
285.218
285.47
286.354
284.891
284.872
284.886
284.954
285.08
285.168
285.225
285.266
285.298
285.325
285.35
285.37
285.384
285.374
285.316
285.233
285.151
285.084
285.038
285.01
284.995
284.989
284.988
284.987
284.986
284.984
284.979
284.972
284.962
284.951
284.939
284.925
284.91
284.895
284.88
284.865
284.85
284.835
284.821
284.807
284.794
284.781
284.769
284.757
284.746
284.736
284.726
284.718
284.709
284.702
284.696
284.691
284.687
284.685
284.685
284.686
284.688
284.692
284.698
284.706
284.715
284.725
284.738
284.753
284.773
284.808
284.969
285.221
285.438
285.592
285.644
285.549
285.295
285.06
285.069
285.086
285.106
285.128
285.153
285.181
285.211
285.243
285.276
285.308
285.338
285.366
285.392
285.412
285.413
285.392
285.359
285.325
285.295
285.266
285.235
285.204
285.182
285.191
285.45
286.345
284.872
284.856
284.873
284.948
285.164
285.31
285.342
285.35
285.359
285.369
285.377
285.376
285.35
285.266
285.173
285.095
285.041
285.008
284.991
284.983
284.981
284.982
284.983
284.983
284.982
284.978
284.971
284.962
284.95
284.937
284.923
284.908
284.892
284.876
284.86
284.844
284.829
284.814
284.8
284.787
284.774
284.762
284.75
284.738
284.727
284.716
284.706
284.696
284.687
284.68
284.673
284.668
284.665
284.663
284.663
284.664
284.667
284.673
284.68
284.689
284.7
284.713
284.728
284.746
284.771
284.853
285.085
285.323
285.505
285.607
285.59
285.428
285.171
285.057
285.069
285.084
285.102
285.122
285.145
285.171
285.2
285.231
285.263
285.295
285.324
285.351
285.374
285.394
285.401
285.385
285.352
285.314
285.279
285.246
285.212
285.18
285.157
285.165
285.429
286.335
284.87
284.852
284.868
284.927
285.108
285.305
285.343
285.348
285.346
285.337
285.313
285.261
285.162
285.079
285.026
284.997
284.982
284.975
284.973
284.973
284.976
284.979
284.98
284.98
284.977
284.971
284.963
284.952
284.939
284.924
284.909
284.893
284.876
284.86
284.845
284.83
284.815
284.802
284.789
284.776
284.764
284.752
284.74
284.728
284.717
284.705
284.694
284.683
284.673
284.665
284.657
284.651
284.647
284.645
284.644
284.646
284.649
284.655
284.663
284.674
284.687
284.702
284.72
284.741
284.78
284.948
285.192
285.404
285.545
285.59
285.508
285.304
285.097
285.054
285.065
285.078
285.093
285.111
285.132
285.157
285.185
285.215
285.247
285.279
285.309
285.335
285.358
285.375
285.387
285.378
285.348
285.308
285.268
285.229
285.192
285.157
285.132
285.139
285.406
286.323
284.875
284.853
284.869
284.891
284.919
285.005
285.136
285.172
285.174
285.147
285.094
285.021
284.982
284.973
284.972
284.969
284.966
284.964
284.966
284.969
284.973
284.976
284.977
284.976
284.972
284.965
284.955
284.943
284.929
284.914
284.898
284.882
284.867
284.851
284.837
284.824
284.811
284.8
284.789
284.778
284.767
284.756
284.744
284.731
284.718
284.705
284.692
284.679
284.668
284.657
284.648
284.64
284.635
284.631
284.63
284.631
284.634
284.64
284.649
284.661
284.675
284.693
284.714
284.74
284.836
285.05
285.284
285.463
285.558
285.545
285.411
285.2
285.061
285.048
285.057
285.068
285.081
285.097
285.117
285.14
285.166
285.195
285.227
285.259
285.291
285.319
285.343
285.36
285.372
285.371
285.349
285.309
285.264
285.219
285.176
285.137
285.109
285.115
285.383
286.312
284.882
284.858
284.878
284.896
284.904
284.91
284.931
284.974
284.982
284.972
284.96
284.97
284.982
284.979
284.966
284.957
284.954
284.956
284.961
284.966
284.971
284.974
284.975
284.973
284.967
284.959
284.949
284.936
284.922
284.908
284.893
284.878
284.864
284.851
284.84
284.83
284.82
284.811
284.803
284.794
284.785
284.774
284.762
284.749
284.734
284.718
284.702
284.686
284.671
284.658
284.645
284.635
284.627
284.621
284.618
284.618
284.622
284.628
284.637
284.65
284.666
284.686
284.71
284.762
284.915
285.145
285.358
285.499
285.545
285.48
285.313
285.126
285.043
285.04
285.046
285.055
285.067
285.08
285.098
285.119
285.144
285.172
285.203
285.236
285.269
285.301
285.328
285.349
285.361
285.365
285.351
285.317
285.27
285.217
285.168
285.124
285.091
285.093
285.36
286.299
284.888
284.864
284.89
284.914
284.93
284.942
284.951
284.964
284.982
284.996
285.003
284.99
284.97
284.95
284.941
284.941
284.945
284.951
284.958
284.965
284.97
284.973
284.973
284.97
284.964
284.956
284.946
284.934
284.921
284.908
284.895
284.883
284.872
284.863
284.855
284.849
284.843
284.838
284.833
284.827
284.819
284.809
284.796
284.781
284.763
284.744
284.724
284.704
284.685
284.666
284.65
284.636
284.624
284.616
284.611
284.609
284.611
284.618
284.628
284.641
284.66
284.682
284.718
284.809
285.001
285.229
285.412
285.513
285.512
285.404
285.226
285.077
285.03
285.029
285.034
285.04
285.05
285.062
285.077
285.096
285.119
285.146
285.176
285.209
285.244
285.278
285.31
285.337
285.355
285.362
285.355
285.33
285.284
285.226
285.172
285.121
285.079
285.075
285.337
286.287
284.89
284.871
284.902
284.93
284.954
284.973
284.987
284.993
284.99
284.979
284.96
284.943
284.931
284.926
284.927
284.933
284.94
284.948
284.956
284.963
284.969
284.972
284.972
284.969
284.964
284.957
284.947
284.937
284.926
284.915
284.905
284.897
284.891
284.886
284.884
284.882
284.881
284.88
284.879
284.875
284.869
284.859
284.846
284.828
284.807
284.783
284.758
284.732
284.707
284.682
284.66
284.641
284.625
284.613
284.606
284.602
284.604
284.609
284.62
284.635
284.655
284.684
284.741
284.874
285.085
285.297
285.448
285.507
285.464
285.327
285.155
285.045
285.018
285.017
285.019
285.024
285.032
285.042
285.056
285.072
285.093
285.118
285.146
285.178
285.214
285.251
285.288
285.321
285.348
285.364
285.364
285.345
285.304
285.242
285.185
285.13
285.079
285.062
285.315
286.274
284.89
284.877
284.907
284.932
284.949
284.956
284.956
284.949
284.937
284.926
284.917
284.913
284.912
284.914
284.919
284.927
284.936
284.946
284.954
284.962
284.968
284.972
284.973
284.972
284.968
284.962
284.954
284.946
284.939
284.932
284.926
284.923
284.922
284.923
284.925
284.929
284.933
284.936
284.937
284.936
284.931
284.922
284.908
284.888
284.862
284.834
284.802
284.769
284.736
284.705
284.676
284.65
284.629
284.613
284.603
284.597
284.597
284.603
284.614
284.63
284.655
284.695
284.78
284.946
285.161
285.351
285.466
285.486
285.406
285.254
285.102
285.024
285.007
285.005
285.005
285.008
285.015
285.023
285.035
285.049
285.068
285.089
285.115
285.146
285.181
285.219
285.259
285.298
285.334
285.361
285.374
285.364
285.33
285.264
285.205
285.147
285.089
285.057
285.292
286.26
284.888
284.877
284.898
284.909
284.912
284.911
284.908
284.904
284.9
284.898
284.897
284.898
284.901
284.905
284.912
284.921
284.932
284.943
284.953
284.962
284.969
284.975
284.977
284.977
284.976
284.972
284.968
284.964
284.96
284.958
284.957
284.959
284.964
284.97
284.978
284.986
284.993
284.999
285.003
285.003
285
284.991
284.977
284.956
284.928
284.893
284.854
284.813
284.771
284.731
284.694
284.662
284.635
284.615
284.601
284.594
284.593
284.598
284.61
284.629
284.66
284.717
284.833
285.019
285.226
285.389
285.469
285.452
285.346
285.19
285.063
285.008
284.995
284.992
284.992
284.994
284.998
285.006
285.016
285.028
285.044
285.063
285.086
285.113
285.146
285.183
285.225
285.268
285.312
285.35
285.377
285.385
285.36
285.297
285.229
285.168
285.106
285.059
285.268
286.245
284.884
284.87
284.881
284.886
284.887
284.887
284.886
284.884
284.883
284.883
284.884
284.886
284.89
284.896
284.904
284.915
284.928
284.94
284.952
284.963
284.972
284.98
284.985
284.988
284.989
284.989
284.989
284.989
284.99
284.993
284.998
285.005
285.015
285.026
285.037
285.047
285.056
285.063
285.067
285.068
285.065
285.058
285.045
285.025
284.995
284.956
284.91
284.859
284.808
284.759
284.714
284.674
284.642
284.617
284.6
284.591
284.589
284.595
284.609
284.632
284.673
284.752
284.894
285.089
285.28
285.413
285.459
285.411
285.286
285.137
285.034
284.995
284.985
284.981
284.979
284.98
284.984
284.991
285
285.011
285.024
285.04
285.059
285.083
285.112
285.146
285.187
285.232
285.281
285.329
285.37
285.395
285.393
285.343
285.26
285.192
285.126
285.069
285.244
286.228
284.88
284.86
284.869
284.872
284.873
284.872
284.871
284.87
284.87
284.87
284.871
284.874
284.879
284.887
284.897
284.91
284.924
284.938
284.952
284.965
284.977
284.987
284.996
285.003
285.008
285.013
285.017
285.022
285.028
285.035
285.045
285.057
285.07
285.083
285.095
285.105
285.112
285.117
285.119
285.119
285.116
285.11
285.101
285.085
285.059
285.018
284.965
284.905
284.844
284.785
284.732
284.686
284.648
284.619
284.599
284.589
284.587
284.594
284.611
284.641
284.696
284.798
284.959
285.151
285.321
285.424
285.439
285.364
285.23
285.095
285.013
284.984
284.974
284.97
284.968
284.969
284.973
284.979
284.987
284.997
285.008
285.022
285.038
285.057
285.081
285.111
285.148
285.192
285.243
285.298
285.351
285.394
285.415
285.393
285.313
285.222
285.15
285.086
285.224
286.214
284.878
284.854
284.86
284.862
284.861
284.86
284.858
284.857
284.856
284.856
284.858
284.862
284.868
284.878
284.89
284.905
284.921
284.937
284.952
284.969
284.984
284.999
285.011
285.023
285.033
285.042
285.051
285.061
285.071
285.083
285.096
285.11
285.124
285.136
285.145
285.15
285.153
285.152
285.15
285.146
285.141
285.137
285.132
285.125
285.108
285.07
285.013
284.945
284.874
284.807
284.746
284.694
284.652
284.621
284.599
284.589
284.587
284.597
284.617
284.656
284.729
284.852
285.023
285.205
285.352
285.425
285.41
285.317
285.181
285.061
284.997
284.974
284.965
284.96
284.958
284.959
284.963
284.969
284.978
284.987
284.998
285.009
285.022
285.037
285.056
285.08
285.111
285.151
285.2
285.257
285.32
285.38
285.424
285.434
285.378
285.274
285.182
285.111
285.225
286.207
284.876
284.849
284.853
284.853
284.851
284.849
284.847
284.845
284.844
284.844
284.846
284.85
284.858
284.869
284.884
284.901
284.918
284.936
284.954
284.974
284.994
285.013
285.031
285.048
285.063
285.077
285.09
285.104
285.117
285.132
285.146
285.159
285.169
285.176
285.178
285.176
285.171
285.163
285.153
285.145
285.138
285.134
285.132
285.131
285.123
285.094
285.04
284.971
284.896
284.823
284.757
284.701
284.656
284.622
284.601
284.59
284.59
284.602
284.63
284.681
284.772
284.911
285.083
285.25
285.371
285.416
285.377
285.271
285.139
285.035
284.984
284.965
284.957
284.952
284.95
284.951
284.955
284.962
284.971
284.981
284.992
285.002
285.013
285.025
285.039
285.056
285.08
285.112
285.155
285.21
285.276
285.348
285.416
285.459
285.449
285.351
285.238
285.157
285.282
286.201
284.875
284.844
284.846
284.845
284.842
284.839
284.836
284.834
284.832
284.832
284.834
284.839
284.848
284.861
284.878
284.897
284.916
284.936
284.957
284.981
285.006
285.03
285.054
285.076
285.096
285.115
285.132
285.148
285.163
285.177
285.188
285.197
285.2
285.199
285.192
285.181
285.167
285.15
285.133
285.118
285.107
285.102
285.101
285.104
285.103
285.082
285.038
284.975
284.903
284.83
284.762
284.705
284.658
284.624
284.603
284.593
284.596
284.613
284.65
284.717
284.824
284.972
285.138
285.286
285.38
285.399
285.341
285.228
285.104
285.015
284.974
284.958
284.95
284.945
284.943
284.944
284.949
284.957
284.967
284.979
284.99
285.001
285.011
285.02
285.03
285.042
285.058
285.081
285.114
285.16
285.222
285.3
285.385
285.462
285.501
285.453
285.335
285.259
285.389
286.195
284.874
284.84
284.84
284.838
284.834
284.83
284.826
284.824
284.822
284.822
284.824
284.829
284.839
284.853
284.872
284.892
284.914
284.936
284.961
284.99
285.02
285.051
285.08
285.107
285.132
285.153
285.173
285.189
285.204
285.214
285.221
285.222
285.217
285.207
285.19
285.169
285.146
285.121
285.097
285.076
285.06
285.05
285.047
285.048
285.049
285.038
285.006
284.955
284.891
284.824
284.76
284.704
284.659
284.626
284.606
284.6
284.607
284.632
284.681
284.763
284.882
285.032
285.186
285.312
285.381
285.377
285.305
285.189
285.075
285
284.966
284.952
284.944
284.94
284.938
284.94
284.945
284.954
284.966
284.98
284.993
285.005
285.015
285.023
285.03
285.037
285.046
285.06
285.081
285.115
285.165
285.236
285.328
285.432
285.524
285.56
285.486