/*--------------------------------*- C++ -*----------------------------------*\
| =========                 |                                                 |
| \\      /  F ield         | OpenFOAM: The Open Source CFD Toolbox           |
|  \\    /   O peration     | Version:  4.1                                   |
|   \\  /    A nd           | Web:      www.OpenFOAM.org                      |
|    \\/     M anipulation  |                                                 |
\*---------------------------------------------------------------------------*/
FoamFile
{
    version     2.0;
    format      ascii;
    class       volVectorField;
    location    "1860";
    object      U;
}
// * * * * * * * * * * * * * * * * * * * * * * * * * * * * * * * * * * * * * //

dimensions      [0 1 -1 0 0 0 0];

internalField   nonuniform List<vector> 
5000
(
(-0.00314644 0.00137309 0)
(-0.00210469 -0.00167137 0)
(0.000660916 -0.00257644 0)
(0.00297131 -0.00152887 0)
(0.00428945 -0.000917428 0)
(0.00498759 -0.000545651 0)
(0.00524927 -0.000313907 0)
(0.00510629 -5.13251e-05 0)
(0.00430451 0.000571054 0)
(0.00266016 0.00215836 0)
(-0.00450475 0.00318631 0)
(-0.00769035 0.00152665 0)
(-0.00912395 0.000646207 0)
(-0.00996629 0.000354442 0)
(-0.0105859 0.000295406 0)
(-0.0111326 0.00027895 0)
(-0.0115996 0.000240921 0)
(-0.0119449 0.000178274 0)
(-0.0121402 0.000102171 0)
(-0.0121757 2.09667e-05 0)
(-0.0120546 -6.05708e-05 0)
(-0.011785 -0.000136114 0)
(-0.0113891 -0.000201243 0)
(-0.0108907 -0.000254907 0)
(-0.0103126 -0.000297756 0)
(-0.00967518 -0.000331193 0)
(-0.00899497 -0.000356934 0)
(-0.00828504 -0.000376784 0)
(-0.00755495 -0.000392443 0)
(-0.00681116 -0.000405449 0)
(-0.00605732 -0.000417174 0)
(-0.00529467 -0.000428728 0)
(-0.00452273 -0.000440843 0)
(-0.0037403 -0.000453742 0)
(-0.00294741 -0.000466733 0)
(-0.00214744 -0.000477518 0)
(-0.00134452 -0.000481636 0)
(-0.000523755 -0.000479969 0)
(0.000327584 -0.000462433 0)
(0.00107089 -0.000439189 0)
(0.00182276 -0.0004161 0)
(0.00255122 -0.000394212 0)
(0.00325044 -0.000372129 0)
(0.00391894 -0.000349103 0)
(0.00455403 -0.000324899 0)
(0.00515235 -0.0002995 0)
(0.00571066 -0.000273007 0)
(0.00622605 -0.000245603 0)
(0.00669612 -0.000217521 0)
(0.00711894 -0.000189007 0)
(0.00749318 -0.000160305 0)
(0.00781804 -0.000131638 0)
(0.00809324 -0.00010321 0)
(0.00831906 -7.52288e-05 0)
(0.00849633 -4.79359e-05 0)
(0.00862661 -2.16874e-05 0)
(0.00871259 2.82907e-06 0)
(0.00875867 2.50309e-05 0)
(0.00876972 4.44616e-05 0)
(0.00874833 6.18719e-05 0)
(0.00869587 7.89257e-05 0)
(0.00861431 9.54806e-05 0)
(0.008511 0.000103912 0)
(0.00841497 7.99254e-05 0)
(0.00841013 -1.17902e-05 0)
(0.0085935 -0.000161373 0)
(0.00892803 -0.000205859 0)
(0.00907589 0.000266486 0)
(0.00828716 0.0017497 0)
(0.00451253 0.00319953 0)
(-0.00161672 0.00154734 0)
(-0.00336498 0.000427935 0)
(-0.00448013 8.64637e-05 0)
(-0.00503228 -0.000112223 0)
(-0.00519857 -0.000287987 0)
(-0.00494112 -0.000531441 0)
(-0.0042544 -0.000849906 0)
(-0.00312775 -0.00116981 0)
(-0.00153426 -0.00132624 0)
(0.0003764 -0.00129436 0)
(0.00211169 -0.00120949 0)
(0.0038797 -0.00111501 0)
(0.00556291 -0.0010111 0)
(0.0071033 -0.000897022 0)
(0.00847238 -0.000775408 0)
(0.00965173 -0.000649697 0)
(0.010629 -0.000522783 0)
(0.0113973 -0.000397072 0)
(0.0119546 -0.000274825 0)
(0.0123031 -0.000158567 0)
(0.0124506 -5.17898e-05 0)
(0.0124088 4.47827e-05 0)
(0.0121851 0.000135847 0)
(0.0117839 0.00022564 0)
(0.0112035 0.000319604 0)
(0.010431 0.00042861 0)
(0.00942722 0.0005789 0)
(0.00809329 0.000839189 0)
(0.0061107 0.00143676 0)
(0.00416304 0.00297639 0)
(-0.00257048 0.00384991 0)
(-0.000667138 -0.00321951 0)
(0.000972573 -0.00395517 0)
(0.00247591 -0.00236538 0)
(0.00329601 -0.00116496 0)
(0.00357739 -0.00035958 0)
(0.00335781 0.000145723 0)
(0.0027437 0.000727663 0)
(0.00165344 0.00233422 0)
(-0.000887759 0.00606976 0)
(-0.00560741 0.00622853 0)
(-0.00817325 0.0035715 0)
(-0.00977786 0.0018645 0)
(-0.0108824 0.00114556 0)
(-0.0116678 0.000900677 0)
(-0.0122597 0.00076227 0)
(-0.0126876 0.00059264 0)
(-0.0129454 0.000377796 0)
(-0.0130232 0.00013791 0)
(-0.0129172 -0.000106191 0)
(-0.012644 -0.000336621 0)
(-0.0122338 -0.000539697 0)
(-0.0117111 -0.000707345 0)
(-0.0111023 -0.000839115 0)
(-0.0104307 -0.000938443 0)
(-0.00971582 -0.00101035 0)
(-0.00897299 -0.00106037 0)
(-0.00821374 -0.00109402 0)
(-0.0074461 -0.00111629 0)
(-0.00667521 -0.0011315 0)
(-0.00590361 -0.00114351 0)
(-0.0051317 -0.00115538 0)
(-0.00435849 -0.00116923 0)
(-0.00358263 -0.00118632 0)
(-0.00280352 -0.00120702 0)
(-0.00202336 -0.0012293 0)
(-0.00124323 -0.00124864 0)
(-0.000434162 -0.00125472 0)
(0.000402934 -0.00121371 0)
(0.00114555 -0.00116341 0)
(0.00189177 -0.00111895 0)
(0.0026165 -0.00107658 0)
(0.00331511 -0.00103226 0)
(0.00398572 -0.000984101 0)
(0.00462544 -0.000931455 0)
(0.00523092 -0.000874251 0)
(0.00579895 -0.000812783 0)
(0.00632677 -0.000747606 0)
(0.00681216 -0.000679452 0)
(0.00725353 -0.000609165 0)
(0.00765009 -0.000537642 0)
(0.00800191 -0.00046581 0)
(0.00830998 -0.000394601 0)
(0.0085763 -0.000324983 0)
(0.00880392 -0.000258021 0)
(0.008997 -0.000195067 0)
(0.0091607 -0.000138097 0)
(0.00930017 -8.77596e-05 0)
(0.00941868 -4.22268e-05 0)
(0.00951969 -6.62233e-07 0)
(0.00960848 3.64385e-05 0)
(0.00969357 6.47608e-05 0)
(0.0097889 6.86949e-05 0)
(0.00991041 1.48641e-05 0)
(0.0100447 -0.000129827 0)
(0.0101577 -0.000346616 0)
(0.0102462 -0.000389347 0)
(0.0101905 0.000524089 0)
(0.0097155 0.00298492 0)
(0.00789034 0.00559735 0)
(0.00477456 0.00589783 0)
(0.000970941 0.00314916 0)
(-0.00151933 0.00129858 0)
(-0.00254912 0.000731993 0)
(-0.00315354 0.00024467 0)
(-0.0032604 -0.000427962 0)
(-0.00289612 -0.00125425 0)
(-0.00207998 -0.00205895 0)
(-0.000731139 -0.00258014 0)
(0.000878785 -0.00273335 0)
(0.00253206 -0.00269616 0)
(0.00422083 -0.0025721 0)
(0.00583907 -0.00238519 0)
(0.00732976 -0.00215041 0)
(0.00866135 -0.00188176 0)
(0.00981426 -0.00159102 0)
(0.0107762 -0.00128725 0)
(0.0115404 -0.000977442 0)
(0.0121047 -0.000667443 0)
(0.0124703 -0.000362908 0)
(0.0126437 -7.02689e-05 0)
(0.0126143 0.000211515 0)
(0.0123812 0.000487398 0)
(0.0119412 0.000763146 0)
(0.0112862 0.00105079 0)
(0.0103967 0.0013785 0)
(0.00922778 0.00181151 0)
(0.00768624 0.00250279 0)
(0.00539638 0.00384937 0)
(0.0035043 0.00642804 0)
(-0.0022449 0.00559795 0)
(3.10332e-05 -0.00520986 0)
(0.000790278 -0.00541792 0)
(0.00216541 -0.00344452 0)
(0.00270859 -0.00167006 0)
(0.00280358 -0.000332372 0)
(0.00230456 0.000671312 0)
(0.00127054 0.00167761 0)
(-0.000704823 0.00482692 0)
(-0.00305455 0.0093363 0)
(-0.00600963 0.0089262 0)
(-0.00787656 0.00560423 0)
(-0.00922042 0.00325854 0)
(-0.010327 0.00213986 0)
(-0.0112057 0.00163649 0)
(-0.011861 0.00129061 0)
(-0.012294 0.000925691 0)
(-0.0125076 0.000513885 0)
(-0.0125009 7.62809e-05 0)
(-0.012277 -0.000354898 0)
(-0.0118839 -0.000742372 0)
(-0.011355 -0.00106978 0)
(-0.010729 -0.00133104 0)
(-0.0100378 -0.00152968 0)
(-0.0093061 -0.00167397 0)
(-0.00855261 -0.00177356 0)
(-0.00779127 -0.00183824 0)
(-0.00703144 -0.00187753 0)
(-0.00627885 -0.0018996 0)
(-0.0055366 -0.00191117 0)
(-0.00480536 -0.00191842 0)
(-0.00408348 -0.00192601 0)
(-0.00336849 -0.00193654 0)
(-0.00265824 -0.00195198 0)
(-0.00195027 -0.00197406 0)
(-0.00124698 -0.00200029 0)
(-0.000542524 -0.00202481 0)
(0.000207038 -0.00201677 0)
(0.000881895 -0.00195938 0)
(0.00155762 -0.00189439 0)
(0.00223308 -0.00183372 0)
(0.0028947 -0.00177208 0)
(0.00353747 -0.00170484 0)
(0.00415812 -0.00162989 0)
(0.00475321 -0.00154659 0)
(0.00531924 -0.0014551 0)
(0.00585303 -0.00135611 0)
(0.00635182 -0.00125072 0)
(0.00681334 -0.0011403 0)
(0.0072359 -0.00102646 0)
(0.00761843 -0.000910937 0)
(0.00796055 -0.000795612 0)
(0.00826263 -0.000682455 0)
(0.00852585 -0.000573518 0)
(0.00875217 -0.000470938 0)
(0.00894418 -0.000377008 0)
(0.00910467 -0.000294161 0)
(0.00923678 -0.000223159 0)
(0.00934574 -0.000162031 0)
(0.00943906 -0.000110894 0)
(0.00952476 -7.26997e-05 0)
(0.00961029 -5.38379e-05 0)
(0.00969865 -6.74664e-05 0)
(0.00978037 -0.000130159 0)
(0.00983194 -0.00024413 0)
(0.00981543 -0.00037436 0)
(0.00969183 -0.00028251 0)
(0.00958455 0.000870716 0)
(0.00958283 0.00385476 0)
(0.00898586 0.00725253 0)
(0.00745517 0.00852014 0)
(0.00503365 0.00674866 0)
(0.00203034 0.00361831 0)
(-0.000288877 0.00158783 0)
(-0.00127662 0.000661287 0)
(-0.00169614 -0.000459821 0)
(-0.00161063 -0.00178151 0)
(-0.00105824 -0.00307165 0)
(4.33588e-05 -0.0039436 0)
(0.00139098 -0.00430564 0)
(0.00289402 -0.00435696 0)
(0.00443851 -0.00421112 0)
(0.00592559 -0.00393145 0)
(0.00729551 -0.00356014 0)
(0.00851365 -0.0031273 0)
(0.00955899 -0.00265488 0)
(0.0104186 -0.00215925 0)
(0.0110853 -0.00165309 0)
(0.0115563 -0.00114649 0)
(0.0118319 -0.000647702 0)
(0.0119153 -0.00016131 0)
(0.0117969 0.000324236 0)
(0.0114765 0.000813726 0)
(0.0109499 0.00131173 0)
(0.0102103 0.00183415 0)
(0.00924559 0.00242259 0)
(0.0080299 0.00317386 0)
(0.00652927 0.00430739 0)
(0.00436236 0.00636546 0)
(0.00284714 0.00999532 0)
(-0.00204485 0.00672424 0)
(0.000382647 -0.0066935 0)
(0.000450207 -0.00657498 0)
(0.00172783 -0.00422389 0)
(0.00199403 -0.00191418 0)
(0.00196668 3.66075e-05 0)
(0.00139259 0.0015336 0)
(4.60525e-06 0.00317951 0)
(-0.00246148 0.00748608 0)
(-0.00423182 0.0115329 0)
(-0.0061655 0.0108222 0)
(-0.00756178 0.00718372 0)
(-0.00871438 0.00451075 0)
(-0.00975322 0.00314846 0)
(-0.0106037 0.0024144 0)
(-0.0112234 0.00183228 0)
(-0.0115925 0.00122883 0)
(-0.0117013 0.000577671 0)
(-0.0115448 -9.23814e-05 0)
(-0.0111581 -0.000726896 0)
(-0.0106025 -0.00126956 0)
(-0.00992959 -0.00170462 0)
(-0.00918574 -0.00203499 0)
(-0.00840562 -0.00227319 0)
(-0.00761363 -0.00243557 0)
(-0.00682712 -0.0025379 0)
(-0.00605758 -0.00259484 0)
(-0.00531146 -0.00262072 0)
(-0.00459149 -0.00262663 0)
(-0.00389801 -0.0026211 0)
(-0.00322892 -0.00261315 0)
(-0.00257974 -0.0026087 0)
(-0.00194644 -0.00260989 0)
(-0.0013257 -0.00261943 0)
(-0.000711774 -0.00263986 0)
(-0.00010995 -0.00266504 0)
(0.000521406 -0.00267451 0)
(0.00108583 -0.00264603 0)
(0.00165649 -0.00259084 0)
(0.00223937 -0.00252736 0)
(0.00282493 -0.00246025 0)
(0.00340437 -0.00238621 0)
(0.003972 -0.00230201 0)
(0.00452344 -0.00220608 0)
(0.00505476 -0.00209812 0)
(0.00556235 -0.00197866 0)
(0.00604307 -0.00184885 0)
(0.00649424 -0.00171023 0)
(0.00691373 -0.00156469 0)
(0.00729988 -0.00141435 0)
(0.00765156 -0.00126148 0)
(0.00796815 -0.00110854 0)
(0.00824955 -0.00095811 0)
(0.00849624 -0.000812874 0)
(0.00870924 -0.000675563 0)
(0.00889014 -0.000548874 0)
(0.009041 -0.000435254 0)
(0.00916448 -0.000336364 0)
(0.00926433 -0.000253057 0)
(0.00934555 -0.000186725 0)
(0.00941342 -0.000139699 0)
(0.00947193 -0.000115523 0)
(0.00952115 -0.000119419 0)
(0.00955376 -0.000155532 0)
(0.00955337 -0.000216954 0)
(0.00949502 -0.000261277 0)
(0.00935762 -9.11796e-05 0)
(0.00924252 0.000991822 0)
(0.00936547 0.00396822 0)
(0.00938891 0.00784314 0)
(0.00876278 0.00998025 0)
(0.00727245 0.00916123 0)
(0.00493377 0.00641662 0)
(0.00236325 0.00364972 0)
(0.000634941 0.00179104 0)
(-0.000154816 -0.000101004 0)
(-0.0003411 -0.00197585 0)
(-1.49293e-05 -0.00381153 0)
(0.000814836 -0.00504704 0)
(0.00197845 -0.005669 0)
(0.00333162 -0.00582077 0)
(0.00473289 -0.00565553 0)
(0.00608388 -0.00528321 0)
(0.00732486 -0.00477582 0)
(0.00842056 -0.00418025 0)
(0.00934922 -0.00352824 0)
(0.0100971 -0.00284286 0)
(0.0106563 -0.00214195 0)
(0.0110237 -0.00143937 0)
(0.0112019 -0.000744868 0)
(0.0111883 -5.86664e-05 0)
(0.0109807 0.000626451 0)
(0.0105781 0.00131445 0)
(0.00997546 0.00201272 0)
(0.00916962 0.00274116 0)
(0.00815915 0.00354804 0)
(0.00694047 0.00454782 0)
(0.00554302 0.00600393 0)
(0.00357328 0.00858099 0)
(0.00236007 0.0130586 0)
(-0.00184823 0.0075114 0)
(0.000667532 -0.00776229 0)
(6.09983e-05 -0.00737313 0)
(0.00112129 -0.00473557 0)
(0.0010884 -0.00203536 0)
(0.000905057 0.00028096 0)
(6.05374e-05 0.00249597 0)
(-0.00168266 0.00537752 0)
(-0.00361736 0.00951287 0)
(-0.00490387 0.0129827 0)
(-0.00615807 0.0120813 0)
(-0.00722806 0.00838378 0)
(-0.00822918 0.00558221 0)
(-0.00915838 0.00405589 0)
(-0.00991015 0.00310789 0)
(-0.0104312 0.00227899 0)
(-0.0106865 0.00141016 0)
(-0.0106491 0.000487232 0)
(-0.0103055 -0.000440749 0)
(-0.00973839 -0.0012801 0)
(-0.00900725 -0.0019623 0)
(-0.00818223 -0.00247864 0)
(-0.00731474 -0.00284738 0)
(-0.00644153 -0.00309367 0)
(-0.00558505 -0.00324453 0)
(-0.00476407 -0.00332259 0)
(-0.00398668 -0.0033476 0)
(-0.00325662 -0.00333905 0)
(-0.00257545 -0.0033105 0)
(-0.00193853 -0.00327111 0)
(-0.00134038 -0.0032329 0)
(-0.000776167 -0.00320387 0)
(-0.000238755 -0.00318648 0)
(0.000283665 -0.00318225 0)
(0.000793657 -0.00318941 0)
(0.00127478 -0.00319659 0)
(0.00173148 -0.00318795 0)
(0.00219015 -0.00315955 0)
(0.00266093 -0.00311624 0)
(0.00314286 -0.00306144 0)
(0.00363053 -0.00299536 0)
(0.00411766 -0.00291592 0)
(0.00459875 -0.00282113 0)
(0.00506907 -0.00271011 0)
(0.00552441 -0.00258308 0)
(0.00596108 -0.00244109 0)
(0.00637591 -0.00228583 0)
(0.00676635 -0.00211939 0)
(0.00713038 -0.00194417 0)
(0.0074665 -0.00176277 0)
(0.00777367 -0.00157793 0)
(0.00805126 -0.00139256 0)
(0.00829899 -0.00120969 0)
(0.00851696 -0.00103249 0)
(0.00870563 -0.000864165 0)
(0.00886588 -0.00070791 0)
(0.00899902 -0.000566692 0)
(0.00910688 -0.000443022 0)
(0.00919205 -0.000338836 0)
(0.00925775 -0.000255794 0)
(0.00930725 -0.000195541 0)
(0.00934276 -0.000159568 0)
(0.00936395 -0.000148548 0)
(0.00936624 -0.000159901 0)
(0.00933997 -0.000181002 0)
(0.00927156 -0.000167841 0)
(0.00915366 4.26491e-05 0)
(0.00905312 0.00101361 0)
(0.0091938 0.00375242 0)
(0.00949781 0.00778877 0)
(0.00943449 0.0106452 0)
(0.00859133 0.0107606 0)
(0.00688622 0.00867896 0)
(0.00464558 0.00581355 0)
(0.00272351 0.00320809 0)
(0.00156448 0.000688915 0)
(0.00105474 -0.00186366 0)
(0.00111089 -0.0042388 0)
(0.00169841 -0.00596484 0)
(0.00268165 -0.00687819 0)
(0.00387359 -0.00714233 0)
(0.00512135 -0.00696757 0)
(0.00632592 -0.0065124 0)
(0.00742873 -0.005879 0)
(0.00839493 -0.00513069 0)
(0.00920223 -0.00430845 0)
(0.0098356 -0.00344177 0)
(0.0102857 -0.00255409 0)
(0.0105488 -0.00166436 0)
(0.0106286 -0.000786054 0)
(0.01052 8.41335e-05 0)
(0.0102297 0.000958926 0)
(0.00975499 0.00184143 0)
(0.00909525 0.00273727 0)
(0.00825248 0.00366289 0)
(0.00723347 0.00466252 0)
(0.00604682 0.00585274 0)
(0.00476913 0.00752175 0)
(0.00298902 0.0104428 0)
(0.00199836 0.0155684 0)
(-0.00148095 0.00805533 0)
(0.000882418 -0.00832152 0)
(-0.000310099 -0.00766043 0)
(0.000281805 -0.00481604 0)
(-0.000171385 -0.00168061 0)
(-0.000730763 0.00143589 0)
(-0.00165253 0.00403431 0)
(-0.00297623 0.00705566 0)
(-0.00435675 0.0109615 0)
(-0.00521736 0.0139143 0)
(-0.00599457 0.01294 0)
(-0.0068149 0.00934101 0)
(-0.00768046 0.00650012 0)
(-0.00848841 0.00483825 0)
(-0.00912882 0.00368982 0)
(-0.00954957 0.00261852 0)
(-0.00969923 0.00147275 0)
(-0.00952451 0.000250863 0)
(-0.00899945 -0.000967474 0)
(-0.00826342 -0.0020171 0)
(-0.007372 -0.00282179 0)
(-0.00640826 -0.00339189 0)
(-0.00542222 -0.00376979 0)
(-0.00445506 -0.00399571 0)
(-0.00352089 -0.00410747 0)
(-0.00265344 -0.00413535 0)
(-0.00185052 -0.0041029 0)
(-0.00111908 -0.0040327 0)
(-0.000466403 -0.00394599 0)
(0.000126459 -0.00385358 0)
(0.000668739 -0.00376753 0)
(0.00115075 -0.00369978 0)
(0.00159178 -0.00365316 0)
(0.00199876 -0.00362559 0)
(0.00237969 -0.00361023 0)
(0.00274351 -0.0036006 0)
(0.00310123 -0.00358951 0)
(0.0034624 -0.00357005 0)
(0.00383272 -0.00353897 0)
(0.00421308 -0.00349393 0)
(0.00460085 -0.00343255 0)
(0.00499174 -0.00335247 0)
(0.00538101 -0.00325205 0)
(0.0057641 -0.00313081 0)
(0.00613679 -0.00298948 0)
(0.00649532 -0.00282968 0)
(0.00683654 -0.00265374 0)
(0.00715794 -0.00246438 0)
(0.00745765 -0.00226455 0)
(0.00773433 -0.00205734 0)
(0.0079871 -0.00184592 0)
(0.00821545 -0.00163352 0)
(0.00841915 -0.00142347 0)
(0.0085982 -0.00121922 0)
(0.0087528 -0.00102428 0)
(0.0088834 -0.000842166 0)
(0.00899076 -0.000676255 0)
(0.00907601 -0.000529592 0)
(0.00914076 -0.000404713 0)
(0.00918703 -0.000303572 0)
(0.00921688 -0.000227406 0)
(0.00923175 -0.000176293 0)
(0.00923168 -0.000148257 0)
(0.00921443 -0.00013717 0)
(0.00917528 -0.00012754 0)
(0.00910808 -7.68654e-05 0)
(0.00901326 0.000152932 0)
(0.00893517 0.00102359 0)
(0.00906472 0.00347298 0)
(0.00947364 0.00745296 0)
(0.00973682 0.0108141 0)
(0.00936351 0.0117735 0)
(0.0081808 0.0104021 0)
(0.00640949 0.00776382 0)
(0.00463461 0.00481155 0)
(0.00332738 0.00175507 0)
(0.00255001 -0.00143257 0)
(0.0023868 -0.00443898 0)
(0.00275074 -0.00667956 0)
(0.00353006 -0.00790544 0)
(0.00453579 -0.0082956 0)
(0.00560923 -0.00812121 0)
(0.00665062 -0.00759253 0)
(0.00760263 -0.00684261 0)
(0.00843082 -0.00595059 0)
(0.00911181 -0.00496571 0)
(0.00962866 -0.00392335 0)
(0.00997008 -0.00285279 0)
(0.0101313 -0.0017788 0)
(0.0101174 -0.000718787 0)
(0.00992019 0.000334818 0)
(0.00954942 0.00138846 0)
(0.00900729 0.00244578 0)
(0.00830064 0.00351265 0)
(0.00743815 0.00460251 0)
(0.00643352 0.0057527 0)
(0.00529878 0.00707509 0)
(0.00414292 0.00887361 0)
(0.00253455 0.0120242 0)
(0.00171748 0.0176644 0)
(-0.000882413 0.008057 0)
(0.000923612 -0.00815581 0)
(-0.000632331 -0.00734873 0)
(-0.000755063 -0.00426948 0)
(-0.00151529 -0.000895842 0)
(-0.0021883 0.00222379 0)
(-0.00287135 0.00503054 0)
(-0.00381734 0.00821568 0)
(-0.0047104 0.0118933 0)
(-0.00520313 0.0144635 0)
(-0.00563572 0.0135298 0)
(-0.00625222 0.0101228 0)
(-0.00698504 0.00727965 0)
(-0.00766603 0.0054915 0)
(-0.00819749 0.00415507 0)
(-0.00853671 0.00284893 0)
(-0.00861046 0.00141185 0)
(-0.00831605 -0.000150229 0)
(-0.00767192 -0.00168275 0)
(-0.00681311 -0.00293878 0)
(-0.00582136 -0.00384069 0)
(-0.00477285 -0.0044421 0)
(-0.00370424 -0.00481139 0)
(-0.00266833 -0.00500242 0)
(-0.00165483 -0.00505607 0)
(-0.000734509 -0.00500677 0)
(0.000121313 -0.00488577 0)
(0.000882864 -0.00471979 0)
(0.00152793 -0.00454617 0)
(0.00209075 -0.00438194 0)
(0.0025778 -0.00423655 0)
(0.00300173 -0.00411704 0)
(0.00337408 -0.00402792 0)
(0.00370514 -0.00396765 0)
(0.00400558 -0.00393101 0)
(0.00428635 -0.00391063 0)
(0.00455777 -0.00389792 0)
(0.00482853 -0.00388431 0)
(0.00510462 -0.00386255 0)
(0.0053886 -0.00382665 0)
(0.00568002 -0.00377176 0)
(0.00597635 -0.00369429 0)
(0.00627395 -0.00359213 0)
(0.0065688 -0.00346481 0)
(0.00685689 -0.00331338 0)
(0.00713458 -0.00314001 0)
(0.00739878 -0.00294766 0)
(0.00764706 -0.00273972 0)
(0.00787766 -0.00251978 0)
(0.00808939 -0.00229144 0)
(0.00828157 -0.00205828 0)
(0.0084539 -0.00182385 0)
(0.00860628 -0.00159169 0)
(0.0087388 -0.00136541 0)
(0.00885165 -0.00114867 0)
(0.00894509 -0.000945185 0)
(0.00901956 -0.000758591 0)
(0.00907571 -0.000592274 0)
(0.00911449 -0.000449157 0)
(0.00913717 -0.000331442 0)
(0.00914508 -0.000240194 0)
(0.00913932 -0.000174704 0)
(0.00912046 -0.000131635 0)
(0.00908834 -0.000103453 0)
(0.00904197 -7.40189e-05 0)
(0.0089801 -3.17429e-06 0)
(0.00890619 0.000231811 0)
(0.00885077 0.00101991 0)
(0.00896232 0.00319918 0)
(0.00938087 0.00700606 0)
(0.00981132 0.0106887 0)
(0.00975786 0.0123452 0)
(0.00899537 0.0116492 0)
(0.00766736 0.00934983 0)
(0.00619856 0.00631615 0)
(0.00498285 0.00292691 0)
(0.00410761 -0.000787125 0)
(0.00377775 -0.00439999 0)
(0.00394417 -0.00716716 0)
(0.00450874 -0.00872174 0)
(0.00530374 -0.00925326 0)
(0.00617893 -0.00909396 0)
(0.00703773 -0.00850708 0)
(0.0078249 -0.00765639 0)
(0.00850594 -0.00663553 0)
(0.00905547 -0.00550087 0)
(0.00945354 -0.00429335 0)
(0.00968617 -0.00304884 0)
(0.00974781 -0.00179957 0)
(0.00964324 -0.000567003 0)
(0.00935985 0.00066102 0)
(0.00891262 0.00188254 0)
(0.00831017 0.00309833 0)
(0.00756635 0.00431298 0)
(0.00669623 0.00553647 0)
(0.00571997 0.00679889 0)
(0.00464879 0.00820662 0)
(0.00361594 0.0100786 0)
(0.00216817 0.0133921 0)
(0.00149379 0.0194637 0)
(-0.00023288 0.00763295 0)
(0.000731742 -0.00766557 0)
(-0.000948927 -0.00659742 0)
(-0.00163718 -0.00348587 0)
(-0.00245137 -0.000210739 0)
(-0.00309003 0.00283771 0)
(-0.0036223 0.00571933 0)
(-0.0042254 0.00893581 0)
(-0.00469443 0.0123834 0)
(-0.00486158 0.0147009 0)
(-0.00502383 0.0139084 0)
(-0.00545588 0.0107502 0)
(-0.00604255 0.00791978 0)
(-0.00657406 0.00601113 0)
(-0.00697744 0.00450603 0)
(-0.0072376 0.00298769 0)
(-0.00726133 0.00126399 0)
(-0.00686671 -0.000664309 0)
(-0.00613981 -0.00252948 0)
(-0.00524739 -0.00395558 0)
(-0.004255 -0.00492544 0)
(-0.00321295 -0.00555271 0)
(-0.00213866 -0.00591933 0)
(-0.00108511 -0.00607989 0)
(-2.46132e-05 -0.00606615 0)
(0.000935076 -0.00591555 0)
(0.00179496 -0.00569345 0)
(0.00256574 -0.00543064 0)
(0.00324047 -0.00515883 0)
(0.00381958 -0.00490346 0)
(0.0043086 -0.00467873 0)
(0.00471796 -0.00449327 0)
(0.00506022 -0.00435065 0)
(0.00534846 -0.00424937 0)
(0.00559578 -0.00418389 0)
(0.00581479 -0.00414597 0)
(0.00601696 -0.00412563 0)
(0.0062119 -0.00411228 0)
(0.00640674 -0.00409573 0)
(0.00660569 -0.00406693 0)
(0.00681012 -0.00401848 0)
(0.00701917 -0.00394502 0)
(0.00723045 -0.00384346 0)
(0.00744076 -0.00371295 0)
(0.00764663 -0.0035546 0)
(0.00784475 -0.00337099 0)
(0.00803225 -0.00316568 0)
(0.00820687 -0.00294272 0)
(0.00836699 -0.00270635 0)
(0.00851162 -0.00246075 0)
(0.00864027 -0.00220993 0)
(0.00875286 -0.00195774 0)
(0.00884953 -0.00170792 0)
(0.00893056 -0.00146415 0)
(0.00899625 -0.00123017 0)
(0.00904693 -0.00100974 0)
(0.00908293 -0.000806592 0)
(0.00910466 -0.000624314 0)
(0.00911269 -0.000466072 0)
(0.00910782 -0.000334276 0)
(0.00909103 -0.000230068 0)
(0.00906339 -0.000152616 0)
(0.00902594 -9.82493e-05 0)
(0.00897985 -5.9161e-05 0)
(0.00892644 -1.93886e-05 0)
(0.0088677 5.9418e-05 0)
(0.00880778 0.000289442 0)
(0.00876844 0.00100686 0)
(0.00885946 0.00295272 0)
(0.00923754 0.00653628 0)
(0.00972339 0.0103955 0)
(0.00986641 0.0126035 0)
(0.00941635 0.0124983 0)
(0.00846211 0.0105532 0)
(0.00732046 0.00755119 0)
(0.00632389 0.00398301 0)
(0.00554673 -7.21528e-05 0)
(0.00515732 -0.00419126 0)
(0.00518742 -0.00744312 0)
(0.00555462 -0.00931462 0)
(0.00612881 -0.0099934 0)
(0.00678879 -0.00986459 0)
(0.00745007 -0.00923942 0)
(0.0080619 -0.00830885 0)
(0.00858966 -0.00717833 0)
(0.00900483 -0.00590971 0)
(0.00928326 -0.00454932 0)
(0.00940752 -0.00314077 0)
(0.00937236 -0.00172569 0)
(0.00917698 -0.000326159 0)
(0.00880878 0.00106839 0)
(0.00828933 0.00244298 0)
(0.00763408 0.00379517 0)
(0.00686228 0.00512967 0)
(0.00599512 0.00645338 0)
(0.00505892 0.00778981 0)
(0.00406166 0.00924173 0)
(0.00315614 0.0111457 0)
(0.00186463 0.0145817 0)
(0.00131299 0.0210315 0)
(0.000350175 0.00709232 0)
(0.000323813 -0.00685553 0)
(-0.0013445 -0.00552966 0)
(-0.00229228 -0.00257077 0)
(-0.00306589 0.000507547 0)
(-0.00358699 0.00334944 0)
(-0.00397301 0.0061778 0)
(-0.00426429 0.0092885 0)
(-0.00435497 0.0124954 0)
(-0.00421056 0.0146582 0)
(-0.00412278 0.0140909 0)
(-0.00436122 0.0112187 0)
(-0.00477563 0.00840138 0)
(-0.00511996 0.00637003 0)
(-0.00534555 0.00471821 0)
(-0.005493 0.00303602 0)
(-0.0054666 0.00107999 0)
(-0.00495311 -0.00121375 0)
(-0.00423207 -0.00339749 0)
(-0.00342187 -0.00492513 0)
(-0.00253811 -0.00594326 0)
(-0.00159004 -0.00660856 0)
(-0.000599037 -0.00699022 0)
(0.000433103 -0.00712653 0)
(0.00139225 -0.00705762 0)
(0.00232538 -0.00684384 0)
(0.00319956 -0.00653563 0)
(0.00399391 -0.0061769 0)
(0.00469564 -0.00580492 0)
(0.00529962 -0.00544985 0)
(0.00580724 -0.00513259 0)
(0.00622538 -0.0048658 0)
(0.00656474 -0.00465495 0)
(0.00683815 -0.00449934 0)
(0.00705929 -0.00439338 0)
(0.00724167 -0.00432791 0)
(0.00739772 -0.00429139 0)
(0.00753811 -0.00427102 0)
(0.00767113 -0.00425392 0)
(0.00780239 -0.00422819 0)
(0.00793484 -0.00418388 0)
(0.00806915 -0.00411361 0)
(0.00820428 -0.00401299 0)
(0.00833813 -0.00388045 0)
(0.00846805 -0.00371693 0)
(0.00859137 -0.00352522 0)
(0.00870569 -0.00330937 0)
(0.00880908 -0.00307404 0)
(0.00890022 -0.00282409 0)
(0.00897835 -0.00256427 0)
(0.00904322 -0.00229906 0)
(0.009095 -0.00203264 0)
(0.00913408 -0.00176892 0)
(0.00916101 -0.00151166 0)
(0.00917633 -0.00126458 0)
(0.00918052 -0.0010314 0)
(0.00917402 -0.000815849 0)
(0.00915722 -0.000621589 0)
(0.00913057 -0.000451939 0)
(0.0090946 -0.000309486 0)
(0.00905002 -0.000195548 0)
(0.00899786 -0.000109572 0)
(0.00893961 -4.82799e-05 0)
(0.00887759 -4.33621e-06 0)
(0.00881447 3.7903e-05 0)
(0.00875319 0.000115881 0)
(0.00869816 0.000334129 0)
(0.00866456 0.000991589 0)
(0.00872998 0.00274665 0)
(0.0090393 0.00610185 0)
(0.00950053 0.0100353 0)
(0.00973434 0.0126602 0)
(0.00949219 0.0130452 0)
(0.00882742 0.0114204 0)
(0.00798306 0.00848645 0)
(0.00723123 0.00480134 0)
(0.0066628 0.000524228 0)
(0.00635245 -0.00395497 0)
(0.00634607 -0.00757605 0)
(0.00656492 -0.00970333 0)
(0.00693182 -0.0105124 0)
(0.00737543 -0.0104232 0)
(0.00783547 -0.00978092 0)
(0.00826997 -0.0087947 0)
(0.00864466 -0.00757671 0)
(0.00892714 -0.00619197 0)
(0.00908793 -0.00469204 0)
(0.00910554 -0.00312992 0)
(0.00897676 -0.00155843 0)
(0.00868573 6.09888e-06 0)
(0.00823934 0.00155169 0)
(0.00765294 0.00306117 0)
(0.00695103 0.00452739 0)
(0.00616021 0.00595318 0)
(0.00530694 0.00734289 0)
(0.00442324 0.0087153 0)
(0.00351138 0.010173 0)
(0.00274044 0.0120752 0)
(0.00160491 0.0156091 0)
(0.00116435 0.0224042 0)
(0.000828809 0.00664774 0)
(-0.000238161 -0.00571982 0)
(-0.00183285 -0.00427329 0)
(-0.00281721 -0.00165535 0)
(-0.00346245 0.00111642 0)
(-0.00382637 0.00372651 0)
(-0.00402428 0.00640749 0)
(-0.00402494 0.00931398 0)
(-0.00376996 0.0122624 0)
(-0.00330953 0.0143313 0)
(-0.0029502 0.0140553 0)
(-0.00296214 0.0115065 0)
(-0.00318256 0.00870288 0)
(-0.00332764 0.00653991 0)
(-0.00334315 0.00476473 0)
(-0.00332601 0.00300165 0)
(-0.00324233 0.000938208 0)
(-0.00247453 -0.00174493 0)
(-0.00196025 -0.00413658 0)
(-0.00132597 -0.00572192 0)
(-0.000633611 -0.00679721 0)
(0.000170595 -0.00752561 0)
(0.000995953 -0.00792568 0)
(0.00186109 -0.00806997 0)
(0.00274381 -0.00799173 0)
(0.00361731 -0.00774193 0)
(0.00445182 -0.00737209 0)
(0.0052243 -0.00693276 0)
(0.00591901 -0.00646892 0)
(0.00652696 -0.00601744 0)
(0.00704517 -0.0056056 0)
(0.0074759 -0.00525114 0)
(0.00782572 -0.00496305 0)
(0.00810429 -0.00474281 0)
(0.0083232 -0.00458571 0)
(0.00849475 -0.00448234 0)
(0.00863087 -0.00441992 0)
(0.0087422 -0.0043837 0)
(0.00883748 -0.00435834 0)
(0.00892311 -0.00432934 0)
(0.00900317 -0.00428429 0)
(0.00907965 -0.0042138 0)
(0.00915287 -0.004112 0)
(0.00922201 -0.00397642 0)
(0.00928557 -0.00380761 0)
(0.00934182 -0.0036084 0)
(0.00938913 -0.00338314 0)
(0.00942619 -0.00313697 0)
(0.00945214 -0.00287531 0)
(0.00946659 -0.00260341 0)
(0.00946961 -0.00232622 0)
(0.00946164 -0.00204823 0)
(0.00944337 -0.00177355 0)
(0.00941563 -0.00150603 0)
(0.00937925 -0.00124932 0)
(0.00933498 -0.00100707 0)
(0.00928346 -0.000782908 0)
(0.00922524 -0.000580467 0)
(0.00916078 -0.000403119 0)
(0.00909047 -0.000253558 0)
(0.00901473 -0.000133261 0)
(0.00893456 -4.21269e-05 0)
(0.00885221 2.19294e-05 0)
(0.00877045 6.56822e-05 0)
(0.00869244 0.000104391 0)
(0.00862162 0.00017469 0)
(0.00856172 0.000376933 0)
(0.00852178 0.000985324 0)
(0.00855266 0.00259343 0)
(0.00877355 0.00574552 0)
(0.00915037 0.00969118 0)
(0.00938421 0.0126196 0)
(0.00925237 0.0133881 0)
(0.00879296 0.0120214 0)
(0.00819927 0.00914628 0)
(0.0076905 0.00535931 0)
(0.00737408 0.000904122 0)
(0.00724943 -0.00381541 0)
(0.00730043 -0.00765413 0)
(0.00742993 -0.00993211 0)
(0.00762082 -0.0108276 0)
(0.00786406 -0.0107761 0)
(0.00813347 -0.0101353 0)
(0.00839987 -0.009118 0)
(0.0086301 -0.0078352 0)
(0.00878746 -0.00635194 0)
(0.00883652 -0.00472505 0)
(0.00875215 -0.00301914 0)
(0.00853367 -0.00129946 0)
(0.0081527 0.000419835 0)
(0.00762567 0.00210596 0)
(0.00697437 0.00373257 0)
(0.00623273 0.00528762 0)
(0.00543416 0.00677315 0)
(0.00460863 0.00819287 0)
(0.00379258 0.009563 0)
(0.00297963 0.01099 0)
(0.00235291 0.0128624 0)
(0.00137515 0.0164824 0)
(0.00103979 0.0236066 0)
(0.00116426 0.00640721 0)
(-0.000853478 -0.0042848 0)
(-0.00238895 -0.00296828 0)
(-0.00331516 -0.000843107 0)
(-0.00377709 0.00153211 0)
(-0.00393133 0.00391371 0)
(-0.00389564 0.00639067 0)
(-0.00361597 0.0090345 0)
(-0.00304621 0.0117035 0)
(-0.0022682 0.0136961 0)
(-0.0015973 0.0137511 0)
(-0.00132375 0.0115952 0)
(-0.00131864 0.00884224 0)
(-0.00128694 0.00654805 0)
(-0.00113517 0.00465903 0)
(-0.000948114 0.00288571 0)
(-0.000857635 0.000922083 0)
(0.000360739 -0.00238229 0)
(0.000523109 -0.00464658 0)
(0.000932069 -0.00628615 0)
(0.00140662 -0.00743507 0)
(0.00197787 -0.00821898 0)
(0.00263407 -0.00869335 0)
(0.00335532 -0.00888492 0)
(0.00411191 -0.00882381 0)
(0.00487449 -0.00855918 0)
(0.00561622 -0.00814822 0)
(0.00631583 -0.00764825 0)
(0.00695818 -0.00711076 0)
(0.00753353 -0.00657828 0)
(0.00803664 -0.00608312 0)
(0.00846614 -0.00564743 0)
(0.00882411 -0.0052839 0)
(0.00911556 -0.00499682 0)
(0.00934779 -0.00478331 0)
(0.0095295 -0.00463463 0)
(0.00966987 -0.00453766 0)
(0.00977766 -0.00447641 0)
(0.00986049 -0.00443372 0)
(0.00992449 -0.004393 0)
(0.00997409 -0.0043398 0)
(0.0100122 -0.00426293 0)
(0.0100403 -0.00415513 0)
(0.0100589 -0.00401303 0)
(0.010068 -0.00383666 0)
(0.010067 -0.00362871 0)
(0.0100555 -0.00339363 0)
(0.0100329 -0.00313689 0)
(0.00999921 -0.00286428 0)
(0.00995447 -0.0025815 0)
(0.0098992 -0.00229384 0)
(0.0098342 -0.0020061 0)
(0.00976047 -0.00172259 0)
(0.00967913 -0.0014472 0)
(0.00959134 -0.00118358 0)
(0.00949813 -0.000935242 0)
(0.00940044 -0.000705706 0)
(0.00929902 -0.000498465 0)
(0.00919436 -0.000316766 0)
(0.0090866 -0.000163154 0)
(0.00897602 -3.9306e-05 0)
(0.00886426 5.32934e-05 0)
(0.00875372 0.000116202 0)
(0.00864728 0.000155615 0)
(0.00854833 0.000186189 0)
(0.00846022 0.000244306 0)
(0.00838523 0.000429049 0)
(0.00832599 0.00100061 0)
(0.00831007 0.00250603 0)
(0.00842492 0.00550061 0)
(0.00866982 0.00943246 0)
(0.00882598 0.0125731 0)
(0.00871794 0.0136176 0)
(0.00838954 0.0124242 0)
(0.00800287 0.00956464 0)
(0.00773359 0.00565667 0)
(0.00769156 0.00101446 0)
(0.00782029 -0.00385105 0)
(0.00798211 -0.00774527 0)
(0.0080633 -0.0100472 0)
(0.00811226 -0.0109685 0)
(0.00818256 -0.010944 0)