/*--------------------------------*- C++ -*----------------------------------*\
| =========                 |                                                 |
| \\      /  F ield         | OpenFOAM: The Open Source CFD Toolbox           |
|  \\    /   O peration     | Version:  4.1                                   |
|   \\  /    A nd           | Web:      www.OpenFOAM.org                      |
|    \\/     M anipulation  |                                                 |
\*---------------------------------------------------------------------------*/
FoamFile
{
    version     2.0;
    format      ascii;
    class       volScalarField;
    location    "120";
    object      p;
}
// * * * * * * * * * * * * * * * * * * * * * * * * * * * * * * * * * * * * * //

dimensions      [0 2 -2 0 0 0 0];

internalField   nonuniform List<scalar> 
5000
(
0
4.26098e-06
1.45681e-05
2.22208e-05
2.33337e-05
1.63859e-05
3.91311e-06
-1.05788e-05
-2.461e-05
-3.6833e-05
-4.67648e-05
-5.44642e-05
-6.01566e-05
-6.39468e-05
-6.58547e-05
-6.54194e-05
-6.21054e-05
-5.48516e-05
-4.17958e-05
-2.18005e-05
-1.04473e-05
-6.05369e-06
-3.15665e-06
-4.19776e-06
-9.46321e-06
-1.57406e-05
-1.96033e-05
-2.0064e-05
-1.65656e-05
-8.61284e-06
4.2016e-06
2.1705e-05
4.34359e-05
6.88401e-05
9.81981e-05
0.00013235
0.00017108
0.000210457
0.000241576
0.00025615
0.000258317
0.000247837
0.000219773
0.000174918
0.000121989
7.35863e-05
3.92129e-05
2.08745e-05
1.53676e-05
1.87354e-05
2.7849e-05
4.01012e-05
5.03941e-05
4.72946e-05
3.4323e-05
2.3655e-05
2.14923e-05
2.18223e-05
2.38026e-05
7.92468e-06
3.83746e-06
1.54352e-06
3.33032e-06
6.69672e-06
1.07067e-05
1.50797e-05
2.10887e-05
2.92597e-05
3.80942e-05
4.30304e-05
4.02322e-05
3.38894e-05
3.71337e-05
4.52152e-05
5.20668e-05
6.28218e-05
7.87691e-05
9.51013e-05
0.000108355
0.000117477
0.00012194
0.000121558
0.000116819
0.000111285
0.000105128
9.82209e-05
8.99783e-05
7.97441e-05
6.73315e-05
5.34194e-05
3.95393e-05
2.76489e-05
1.95051e-05
1.60871e-05
1.75411e-05
2.34596e-05
3.31377e-05
4.57659e-05
6.05236e-05
7.7847e-05
-0.0984957
-0.0984951
-0.0984867
-0.0984797
-0.0984783
-0.0984841
-0.0984948
-0.0985076
-0.0985199
-0.0985304
-0.0985386
-0.0985447
-0.0985491
-0.0985518
-0.0985526
-0.0985512
-0.0985466
-0.0985377
-0.0985225
-0.0985003
-0.09849
-0.0984862
-0.0984818
-0.0984855
-0.0984978
-0.0985108
-0.0985194
-0.0985234
-0.0985226
-0.0985169
-0.0985059
-0.0984899
-0.0984701
-0.0984475
-0.0984219
-0.0983923
-0.0983586
-0.0983242
-0.0982968
-0.0982838
-0.0982836
-0.0982949
-0.0983213
-0.0983627
-0.0984116
-0.0984557
-0.0984854
-0.098499
-0.0985002
-0.098493
-0.09848
-0.0984626
-0.0984456
-0.0984444
-0.0984603
-0.0984714
-0.0984752
-0.0984734
-0.0984696
-0.0984767
-0.09848
-0.0984857
-0.0984857
-0.0984846
-0.0984835
-0.098482
-0.0984789
-0.0984737
-0.0984676
-0.0984643
-0.0984665
-0.0984687
-0.0984607
-0.0984467
-0.0984389
-0.0984319
-0.0984206
-0.0984081
-0.0983968
-0.0983885
-0.098384
-0.0983835
-0.0983849
-0.0983885
-0.0983944
-0.098402
-0.0984114
-0.0984228
-0.0984361
-0.0984506
-0.0984644
-0.0984757
-0.0984826
-0.0984842
-0.0984803
-0.0984715
-0.0984586
-0.0984425
-0.0984245
-0.0984028
-0.196997
-0.196999
-0.196991
-0.196986
-0.196986
-0.196992
-0.197002
-0.197015
-0.197027
-0.197036
-0.197044
-0.19705
-0.197054
-0.197058
-0.197059
-0.197059
-0.197056
-0.197047
-0.197032
-0.197011
-0.196997
-0.196993
-0.196985
-0.19699
-0.197007
-0.197025
-0.197036
-0.197042
-0.197042
-0.197037
-0.197025
-0.197009
-0.196989
-0.196969
-0.196947
-0.196922
-0.196893
-0.196864
-0.19684
-0.196829
-0.19683
-0.196841
-0.196865
-0.196903
-0.196948
-0.196989
-0.197014
-0.197024
-0.197023
-0.197014
-0.197
-0.196982
-0.196965
-0.196962
-0.196974
-0.196982
-0.196984
-0.196979
-0.196973
-0.196967
-0.196972
-0.196984
-0.196987
-0.196988
-0.196987
-0.196987
-0.196985
-0.196982
-0.196976
-0.196972
-0.196971
-0.19697
-0.196962
-0.196952
-0.196947
-0.196942
-0.196934
-0.196924
-0.196914
-0.196907
-0.196903
-0.196902
-0.196904
-0.196907
-0.196913
-0.19692
-0.196929
-0.196941
-0.196955
-0.19697
-0.196984
-0.196996
-0.197003
-0.197004
-0.196999
-0.196989
-0.196974
-0.196957
-0.196938
-0.196916
-0.295491
-0.295497
-0.295491
-0.295489
-0.295492
-0.2955
-0.295511
-0.295523
-0.295535
-0.295544
-0.295551
-0.295556
-0.295561
-0.295565
-0.295569
-0.295571
-0.295569
-0.295563
-0.295549
-0.295529
-0.295513
-0.295506
-0.295497
-0.295504
-0.295526
-0.295545
-0.295557
-0.295563
-0.295562
-0.295556
-0.295543
-0.295526
-0.295507
-0.295488
-0.29547
-0.29545
-0.295427
-0.295402
-0.295382
-0.295372
-0.295373
-0.295384
-0.295406
-0.29544
-0.295481
-0.295517
-0.295538
-0.295545
-0.295542
-0.295534
-0.29552
-0.295503
-0.295487
-0.295482
-0.29549
-0.295495
-0.295494
-0.295485
-0.295472
-0.295451
-0.295458
-0.295475
-0.295485
-0.295488
-0.295489
-0.295491
-0.295491
-0.295488
-0.295483
-0.295477
-0.295471
-0.295467
-0.295462
-0.295459
-0.295458
-0.295456
-0.295449
-0.295441
-0.295433
-0.295427
-0.295423
-0.295423
-0.295425
-0.295428
-0.295433
-0.295439
-0.295448
-0.295461
-0.295476
-0.295492
-0.295508
-0.29552
-0.295527
-0.295528
-0.295523
-0.295513
-0.295498
-0.295481
-0.295465
-0.295446
-0.39398
-0.393987
-0.393987
-0.393989
-0.393996
-0.394006
-0.394019
-0.394032
-0.394044
-0.394052
-0.394058
-0.394063
-0.394069
-0.394074
-0.394079
-0.394082
-0.394082
-0.394076
-0.394062
-0.394041
-0.394026
-0.39402
-0.394015
-0.394024
-0.394046
-0.394065
-0.394077
-0.394082
-0.39408
-0.394072
-0.394058
-0.394039
-0.39402
-0.394003
-0.393988
-0.393973
-0.393955
-0.393935
-0.393919
-0.39391
-0.39391
-0.393919
-0.393938
-0.393967
-0.394003
-0.394033
-0.394049
-0.394054
-0.394052
-0.394044
-0.394032
-0.394016
-0.394001
-0.393998
-0.394004
-0.394007
-0.394004
-0.393992
-0.393972
-0.393941
-0.393944
-0.393959
-0.393973
-0.393982
-0.393987
-0.393991
-0.393992
-0.393992
-0.393988
-0.39398
-0.39397
-0.393964
-0.393963
-0.393966
-0.39397
-0.393969
-0.393965
-0.393958
-0.393952
-0.393947
-0.393944
-0.393944
-0.393946
-0.393949
-0.393953
-0.393959
-0.393969
-0.393982
-0.393998
-0.394016
-0.394032
-0.394045
-0.394053
-0.394054
-0.394049
-0.394039
-0.394026
-0.394011
-0.393997
-0.393981
-0.492467
-0.492474
-0.492481
-0.492489
-0.492499
-0.492512
-0.492527
-0.492541
-0.492553
-0.492561
-0.492565
-0.49257
-0.492576
-0.492581
-0.492587
-0.49259
-0.492589
-0.492581
-0.492566
-0.492547
-0.492536
-0.492535
-0.492534
-0.492543
-0.492563
-0.492581
-0.492592
-0.492596
-0.492593
-0.492584
-0.492569
-0.49255
-0.492531
-0.492516
-0.492503
-0.492491
-0.492478
-0.492462
-0.492449
-0.492441
-0.49244
-0.492447
-0.492461
-0.492484
-0.492511
-0.492534
-0.492547
-0.492551
-0.49255
-0.492544
-0.492532
-0.492517
-0.492506
-0.492506
-0.492512
-0.492515
-0.492511
-0.492498
-0.492477
-0.49245
-0.492442
-0.49245
-0.492463
-0.492474
-0.492482
-0.492487
-0.492491
-0.492492
-0.492488
-0.492481
-0.49247
-0.492463
-0.492466
-0.492474
-0.492481
-0.492482
-0.49248
-0.492475
-0.49247
-0.492466
-0.492464
-0.492465
-0.492467
-0.49247
-0.492474
-0.49248
-0.49249
-0.492503
-0.49252
-0.492539
-0.492557
-0.492571
-0.492579
-0.492581
-0.492576
-0.492567
-0.492554
-0.492541
-0.492529
-0.492516
-0.590964
-0.590969
-0.590978
-0.590989
-0.591002
-0.591017
-0.591033
-0.591048
-0.59106
-0.591067
-0.591071
-0.591075
-0.59108
-0.591084
-0.591088
-0.59109
-0.591087
-0.591079
-0.591065
-0.591051
-0.591046
-0.591048
-0.591049
-0.591056
-0.591073
-0.59109
-0.591099
-0.591102
-0.591099
-0.591091
-0.591076
-0.591058
-0.59104
-0.591027
-0.591016
-0.591007
-0.590997
-0.590985
-0.590973
-0.590966
-0.590963
-0.590966
-0.590976
-0.590991
-0.591009
-0.591024
-0.591034
-0.591038
-0.591037
-0.591031
-0.59102
-0.591008
-0.591003
-0.591008
-0.591015
-0.591019
-0.591015
-0.591002
-0.590984
-0.590966
-0.590955
-0.590955
-0.590963
-0.590972
-0.59098
-0.590985
-0.590989
-0.590989
-0.590987
-0.590981
-0.590973
-0.590966
-0.590969
-0.590982
-0.590992
-0.590995
-0.590994
-0.590991
-0.590987
-0.590985
-0.590984
-0.590985
-0.590987
-0.590989
-0.590993
-0.591
-0.59101
-0.591025
-0.591042
-0.591062
-0.591081
-0.591096
-0.591105
-0.591106
-0.591102
-0.591093
-0.591082
-0.59107
-0.591061
-0.591049
-0.689469
-0.689472
-0.689481
-0.689492
-0.689507
-0.689522
-0.689538
-0.689553
-0.689564
-0.68957
-0.689573
-0.689576
-0.689579
-0.689582
-0.689585
-0.689586
-0.689582
-0.689574
-0.689564
-0.689555
-0.689553
-0.689554
-0.689555
-0.689559
-0.689573
-0.689589
-0.689597
-0.6896
-0.689598
-0.689591
-0.689578
-0.689562
-0.689548
-0.689537
-0.689529
-0.689522
-0.689514
-0.689504
-0.689494
-0.689485
-0.689481
-0.68948
-0.689483
-0.68949
-0.689498
-0.689506
-0.689511
-0.689514
-0.689512
-0.689506
-0.689498
-0.689491
-0.689493
-0.689503
-0.689513
-0.689518
-0.689515
-0.689505
-0.689493
-0.689481
-0.689473
-0.689471
-0.689474
-0.68948
-0.689485
-0.689489
-0.68949
-0.689489
-0.689487
-0.689483
-0.689478
-0.689472
-0.689475
-0.689491
-0.689503
-0.689507
-0.689507
-0.689506
-0.689504
-0.689502
-0.689502
-0.689504
-0.689506
-0.689508
-0.689512
-0.68952
-0.68953
-0.689545
-0.689562
-0.689582
-0.689601
-0.689617
-0.689627
-0.689629
-0.689624
-0.689617
-0.689607
-0.689597
-0.689589
-0.68958
-0.787974
-0.787978
-0.787986
-0.787997
-0.788011
-0.788026
-0.788042
-0.788056
-0.788066
-0.788071
-0.788073
-0.788075
-0.788076
-0.788078
-0.78808
-0.78808
-0.788076
-0.78807
-0.788062
-0.788056
-0.788054
-0.788054
-0.788053
-0.788055
-0.788065
-0.788079
-0.788087
-0.788091
-0.788091
-0.788086
-0.788076
-0.788065
-0.788055
-0.788047
-0.788041
-0.788036
-0.78803
-0.788021
-0.788011
-0.788002
-0.787995
-0.787991
-0.787988
-0.787987
-0.787986
-0.787984
-0.787981
-0.787981
-0.787979
-0.787975
-0.787971
-0.787971
-0.787981
-0.787995
-0.788007
-0.788014
-0.788014
-0.78801
-0.788004
-0.787998
-0.787994
-0.787993
-0.787994
-0.787997
-0.787999
-0.788
-0.787998
-0.787996
-0.787992
-0.787989
-0.787986
-0.787984
-0.787982
-0.787999
-0.788013
-0.788019
-0.78802
-0.78802
-0.788019
-0.788019
-0.78802
-0.788022
-0.788024
-0.788026
-0.788031
-0.788038
-0.788049
-0.788063
-0.78808
-0.788099
-0.788118
-0.788134
-0.788144
-0.788146
-0.788143
-0.788136
-0.788128
-0.78812
-0.788114
-0.788106
-0.88648
-0.886484
-0.886492
-0.886502
-0.886515
-0.88653
-0.886545
-0.886558
-0.886566
-0.88657
-0.886572
-0.886572
-0.886573
-0.886574
-0.886574
-0.886573
-0.88657
-0.886564
-0.886558
-0.886553
-0.88655
-0.886547
-0.886545
-0.886545
-0.886552
-0.886564
-0.886573
-0.886579
-0.886581
-0.886579
-0.886574
-0.886568
-0.886562
-0.886557
-0.886552
-0.886548
-0.886543
-0.886535
-0.886526
-0.886516
-0.886508
-0.886501
-0.886495
-0.886488
-0.88648
-0.88647
-0.886459
-0.88645
-0.886447
-0.886445
-0.886445
-0.886454
-0.88647
-0.886488
-0.886503
-0.886512
-0.886517
-0.886519
-0.886519
-0.886519
-0.886518
-0.886518
-0.886519
-0.88652
-0.886519
-0.886517
-0.886513
-0.886508
-0.886503
-0.886499
-0.886497
-0.886497
-0.886495
-0.886508
-0.886524
-0.88653
-0.886533
-0.886533
-0.886534
-0.886535
-0.886536
-0.886539
-0.886541
-0.886544
-0.886549
-0.886556
-0.886566
-0.88658
-0.886596
-0.886613
-0.886631
-0.886645
-0.886656
-0.886659
-0.886656
-0.886652
-0.886646
-0.886639
-0.886634
-0.886628
-0.984987
-0.984991
-0.984998
-0.985008
-0.98502
-0.985033
-0.985047
-0.985059
-0.985066
-0.98507
-0.985071
-0.985071
-0.98507
-0.98507
-0.985069
-0.985067
-0.985064
-0.985058
-0.985053
-0.985048
-0.985043
-0.98504
-0.985037
-0.985036
-0.985041
-0.98505
-0.98506
-0.985067
-0.985072
-0.985074
-0.985075
-0.985073
-0.98507
-0.985066
-0.985062
-0.985059
-0.985054
-0.985048
-0.985038
-0.985029
-0.98502
-0.985012
-0.985004
-0.984995
-0.984985
-0.984972
-0.984957
-0.984943
-0.984934
-0.98493
-0.984935
-0.98495
-0.98497
-0.98499
-0.985007
-0.98502
-0.985029
-0.985036
-0.98504
-0.985042
-0.985044
-0.985045
-0.985046
-0.985046
-0.985044
-0.985039
-0.985033
-0.985025
-0.985018
-0.985013
-0.985011
-0.985011
-0.985012
-0.98502
-0.985035
-0.985042
-0.985045
-0.985047
-0.985048
-0.98505
-0.985052
-0.985055
-0.985058
-0.985061
-0.985066
-0.985073
-0.985082
-0.985095
-0.985109
-0.985125
-0.98514
-0.985153
-0.985163
-0.985168
-0.985167
-0.985164
-0.98516
-0.985156
-0.985152
-0.985147
-1.08349
-1.0835
-1.0835
-1.08351
-1.08352
-1.08354
-1.08355
-1.08356
-1.08357
-1.08357
-1.08357
-1.08357
-1.08357
-1.08357
-1.08357
-1.08356
-1.08356
-1.08355
-1.08355
-1.08354
-1.08354
-1.08353
-1.08353
-1.08353
-1.08353
-1.08354
-1.08355
-1.08356
-1.08357
-1.08357
-1.08358
-1.08358
-1.08358
-1.08357
-1.08357
-1.08357
-1.08356
-1.08356
-1.08355
-1.08354
-1.08353
-1.08352
-1.08352
-1.08351
-1.0835
-1.08349
-1.08347
-1.08346
-1.08345
-1.08345
-1.08345
-1.08347
-1.08349
-1.08351
-1.08353
-1.08354
-1.08355
-1.08356
-1.08356
-1.08357
-1.08357
-1.08357
-1.08357
-1.08357
-1.08357
-1.08356
-1.08356
-1.08355
-1.08354
-1.08353
-1.08353
-1.08353
-1.08353
-1.08353
-1.08355
-1.08355
-1.08356
-1.08356
-1.08356
-1.08357
-1.08357
-1.08357
-1.08357
-1.08358
-1.08358
-1.08359
-1.0836
-1.08361
-1.08362
-1.08363
-1.08365
-1.08366
-1.08367
-1.08367
-1.08368
-1.08367
-1.08367
-1.08367
-1.08367
-1.08366
-1.182
-1.18201
-1.18201
-1.18202
-1.18203
-1.18204
-1.18205
-1.18206
-1.18207
-1.18207
-1.18207
-1.18207
-1.18207
-1.18207
-1.18206
-1.18206
-1.18206
-1.18205
-1.18205
-1.18204
-1.18204
-1.18203
-1.18203
-1.18203
-1.18203
-1.18204
-1.18205
-1.18206
-1.18207
-1.18208
-1.18209
-1.18209
-1.18208
-1.18208
-1.18208
-1.18207
-1.18207
-1.18207
-1.18206
-1.18205
-1.18204
-1.18204
-1.18203
-1.18202
-1.18201
-1.182
-1.182
-1.18199
-1.18198
-1.18198
-1.18199
-1.182
-1.18202
-1.18204
-1.18205
-1.18206
-1.18207
-1.18208
-1.18209
-1.18209
-1.1821
-1.1821
-1.1821
-1.1821
-1.1821
-1.18209
-1.18208
-1.18207
-1.18206
-1.18205
-1.18204
-1.18204
-1.18205
-1.18205
-1.18206
-1.18207
-1.18207
-1.18207
-1.18208
-1.18208
-1.18208
-1.18209
-1.18209
-1.18209
-1.1821
-1.1821
-1.18211
-1.18212
-1.18213
-1.18214
-1.18216
-1.18217
-1.18218
-1.18218
-1.18218
-1.18218
-1.18218
-1.18218
-1.18218
-1.18218
-1.28051
-1.28051
-1.28052
-1.28053
-1.28054
-1.28055
-1.28056
-1.28057
-1.28057
-1.28058
-1.28058
-1.28057
-1.28057
-1.28057
-1.28057
-1.28056
-1.28056
-1.28056
-1.28055
-1.28055
-1.28054
-1.28054
-1.28054
-1.28054
-1.28054
-1.28055
-1.28056
-1.28057
-1.28058
-1.28059
-1.28059
-1.28059
-1.28059
-1.28059
-1.28058
-1.28058
-1.28058
-1.28057
-1.28057
-1.28056
-1.28056
-1.28055
-1.28054
-1.28054
-1.28053
-1.28053
-1.28052
-1.28052
-1.28051
-1.28052
-1.28053
-1.28054
-1.28055
-1.28056
-1.28057
-1.28058
-1.28059
-1.2806
-1.28061
-1.28061
-1.28062
-1.28062
-1.28062
-1.28062
-1.28062
-1.28061
-1.2806
-1.28059
-1.28058
-1.28057
-1.28056
-1.28056
-1.28056
-1.28057
-1.28057
-1.28058
-1.28059
-1.28059
-1.28059
-1.2806
-1.2806
-1.2806
-1.28061
-1.28061
-1.28061
-1.28062
-1.28063
-1.28063
-1.28064
-1.28065
-1.28066
-1.28067
-1.28068
-1.28069
-1.28069
-1.2807
-1.2807
-1.2807
-1.2807
-1.28069
-1.37902
-1.37902
-1.37903
-1.37903
-1.37904
-1.37905
-1.37906
-1.37907
-1.37908
-1.37908
-1.37908
-1.37908
-1.37908
-1.37907
-1.37907
-1.37907
-1.37906
-1.37906
-1.37906
-1.37905
-1.37905
-1.37905
-1.37905
-1.37905
-1.37905
-1.37906
-1.37907
-1.37908
-1.37909
-1.3791
-1.3791
-1.3791
-1.3791
-1.37909
-1.37909
-1.37908
-1.37908
-1.37908
-1.37908
-1.37907
-1.37907
-1.37906
-1.37906
-1.37905
-1.37905
-1.37905
-1.37904
-1.37904
-1.37904
-1.37905
-1.37906
-1.37907
-1.37908
-1.37909
-1.3791
-1.37911
-1.37911
-1.37912
-1.37913
-1.37914
-1.37914
-1.37914
-1.37915
-1.37915
-1.37914
-1.37913
-1.37912
-1.37911
-1.37909
-1.37908
-1.37908
-1.37908
-1.37908
-1.37908
-1.37909
-1.3791
-1.3791
-1.37911
-1.37911
-1.37911
-1.37912
-1.37912
-1.37912
-1.37912
-1.37913
-1.37913
-1.37914
-1.37914
-1.37915
-1.37916
-1.37917
-1.37918
-1.37919
-1.3792
-1.37921
-1.37921
-1.37921
-1.37921
-1.37921
-1.37921
-1.47753
-1.47753
-1.47754
-1.47754
-1.47755
-1.47756
-1.47757
-1.47758
-1.47758
-1.47759
-1.47759
-1.47758
-1.47758
-1.47758
-1.47757
-1.47757
-1.47757
-1.47757
-1.47756
-1.47756
-1.47756
-1.47756
-1.47756
-1.47756
-1.47756
-1.47757
-1.47758
-1.47759
-1.4776
-1.47761
-1.47761
-1.4776
-1.4776
-1.4776
-1.47759
-1.47759
-1.47759
-1.47759
-1.47759
-1.47758
-1.47758
-1.47758
-1.47757
-1.47757
-1.47757
-1.47757
-1.47757
-1.47757
-1.47757
-1.47758
-1.47759
-1.47759
-1.4776
-1.47761
-1.47762
-1.47763
-1.47763
-1.47764
-1.47765
-1.47765
-1.47766
-1.47766
-1.47767
-1.47766
-1.47766
-1.47765
-1.47764
-1.47762
-1.47761
-1.4776
-1.4776
-1.4776
-1.4776
-1.4776
-1.47761
-1.47762
-1.47762
-1.47763
-1.47763
-1.47763
-1.47763
-1.47764
-1.47764
-1.47764
-1.47764
-1.47765
-1.47765
-1.47765
-1.47766
-1.47767
-1.47768
-1.47769
-1.4777
-1.47771
-1.47772
-1.47772
-1.47773
-1.47773
-1.47773
-1.47773
-1.57604
-1.57604
-1.57605
-1.57605
-1.57606
-1.57607
-1.57607
-1.57608
-1.57609
-1.57609
-1.57609
-1.57609
-1.57609
-1.57608
-1.57608
-1.57608
-1.57607
-1.57607
-1.57607
-1.57607
-1.57607
-1.57607
-1.57607
-1.57607
-1.57608
-1.57608
-1.57609
-1.5761
-1.57611
-1.57611
-1.57611
-1.57611
-1.5761
-1.5761
-1.5761
-1.5761
-1.5761
-1.5761
-1.5761
-1.57609
-1.57609
-1.57609
-1.57609
-1.57609
-1.57609
-1.57609
-1.57609
-1.57609
-1.5761
-1.5761
-1.57611
-1.57612
-1.57612
-1.57613
-1.57614
-1.57614
-1.57615
-1.57616
-1.57616
-1.57617
-1.57618
-1.57618
-1.57618
-1.57618
-1.57618
-1.57617
-1.57615
-1.57614
-1.57613
-1.57612
-1.57611
-1.57611
-1.57612
-1.57612
-1.57613
-1.57614
-1.57614
-1.57615
-1.57615
-1.57615
-1.57615
-1.57615
-1.57615
-1.57615
-1.57616
-1.57616
-1.57616
-1.57616
-1.57617
-1.57618
-1.57619
-1.5762
-1.57621
-1.57622
-1.57623
-1.57624
-1.57624
-1.57624
-1.57624
-1.57624
-1.67455
-1.67456
-1.67456
-1.67456
-1.67457
-1.67458
-1.67458
-1.67459
-1.6746
-1.6746
-1.6746
-1.6746
-1.67459
-1.67459
-1.67458
-1.67458
-1.67458
-1.67458
-1.67458
-1.67458
-1.67457
-1.67457
-1.67458
-1.67458
-1.67458
-1.67459
-1.6746
-1.67461
-1.67461
-1.67461
-1.67461
-1.67461
-1.67461
-1.67461
-1.6746
-1.6746
-1.67461
-1.67461
-1.67461
-1.67461
-1.67461
-1.67461
-1.67461
-1.67461
-1.67461
-1.67461
-1.67461
-1.67461
-1.67462
-1.67462
-1.67463
-1.67463
-1.67464
-1.67465
-1.67465
-1.67466
-1.67467
-1.67467
-1.67468
-1.67469
-1.67469
-1.6747
-1.6747
-1.6747
-1.67469
-1.67468
-1.67467
-1.67465
-1.67464
-1.67463
-1.67463
-1.67463
-1.67464
-1.67464
-1.67465
-1.67466
-1.67467
-1.67467
-1.67467
-1.67468
-1.67467
-1.67467
-1.67467
-1.67467
-1.67467
-1.67467
-1.67467
-1.67467
-1.67468
-1.67468
-1.67469
-1.67471
-1.67472
-1.67473
-1.67474
-1.67475
-1.67475
-1.67475
-1.67475
-1.67475
-1.77307
-1.77307
-1.77307
-1.77308
-1.77308
-1.77309
-1.77309
-1.7731
-1.77311
-1.77311
-1.77311
-1.77311
-1.7731
-1.7731
-1.77309
-1.77308
-1.77308
-1.77308
-1.77308
-1.77308
-1.77308
-1.77308
-1.77308
-1.77309
-1.77309
-1.7731
-1.7731
-1.77311
-1.77311
-1.77312
-1.77312
-1.77312
-1.77311
-1.77311
-1.77311
-1.77311
-1.77312
-1.77312
-1.77312
-1.77312
-1.77312
-1.77312
-1.77312
-1.77312
-1.77312
-1.77312
-1.77313
-1.77313
-1.77313
-1.77314
-1.77314
-1.77315
-1.77316
-1.77316
-1.77317
-1.77317
-1.77318
-1.77319
-1.7732
-1.7732
-1.77321
-1.77321
-1.77321
-1.77321
-1.7732
-1.77319
-1.77318
-1.77317
-1.77316
-1.77315
-1.77315
-1.77315
-1.77315
-1.77316
-1.77317
-1.77318
-1.77319
-1.7732
-1.7732
-1.7732
-1.7732
-1.77319
-1.77319
-1.77318
-1.77318
-1.77318
-1.77318
-1.77318
-1.77318
-1.77319
-1.7732
-1.77321
-1.77322
-1.77324
-1.77325
-1.77326
-1.77326
-1.77326
-1.77326
-1.77325
-1.87159
-1.87159
-1.87159
-1.87159
-1.8716
-1.8716
-1.87161
-1.87162
-1.87162
-1.87162
-1.87162
-1.87162
-1.87161
-1.87161
-1.8716
-1.87159
-1.87158
-1.87158
-1.87158
-1.87158
-1.87158
-1.87158
-1.87158
-1.87159
-1.87159
-1.8716
-1.8716
-1.87161
-1.87162
-1.87162
-1.87162
-1.87162
-1.87162
-1.87162
-1.87162
-1.87162
-1.87163
-1.87163
-1.87163
-1.87163
-1.87163
-1.87163
-1.87164
-1.87164
-1.87164
-1.87164
-1.87164
-1.87165
-1.87165
-1.87166
-1.87166
-1.87167
-1.87167
-1.87168
-1.87168
-1.87169
-1.8717
-1.8717
-1.87171
-1.87172
-1.87172
-1.87172
-1.87172
-1.87171
-1.87171
-1.8717
-1.87169
-1.87168
-1.87167
-1.87167
-1.87166
-1.87167
-1.87167
-1.87168
-1.87169
-1.8717
-1.87171
-1.87172
-1.87173
-1.87172
-1.87172
-1.87171
-1.8717
-1.8717
-1.87169
-1.87169
-1.87169
-1.87169
-1.87169
-1.87169
-1.8717
-1.87171
-1.87172
-1.87174
-1.87175
-1.87176
-1.87176
-1.87176
-1.87176
-1.87175
-1.97011
-1.97011
-1.97011
-1.97011
-1.97012
-1.97012
-1.97013
-1.97013
-1.97014
-1.97014
-1.97014
-1.97014
-1.97013
-1.97012
-1.97011
-1.9701
-1.97009
-1.97009
-1.97008
-1.97008
-1.97008
-1.97008
-1.97008
-1.97009
-1.97009
-1.9701
-1.97011
-1.97012
-1.97013
-1.97013
-1.97014
-1.97014
-1.97014
-1.97013
-1.97013
-1.97014
-1.97014
-1.97014
-1.97014
-1.97015
-1.97015
-1.97015
-1.97015
-1.97015
-1.97015
-1.97016
-1.97016
-1.97016
-1.97017
-1.97017
-1.97018
-1.97018
-1.97019
-1.97019
-1.9702
-1.9702
-1.97021
-1.97022
-1.97022
-1.97023
-1.97023
-1.97023
-1.97023
-1.97022
-1.97021
-1.9702
-1.97019
-1.97019
-1.97018
-1.97018
-1.97018
-1.97018
-1.97019
-1.97019
-1.9702
-1.97021
-1.97023
-1.97024
-1.97024
-1.97024
-1.97024
-1.97023
-1.97022
-1.97021
-1.9702
-1.9702
-1.9702
-1.97019
-1.97019
-1.97019
-1.9702
-1.97021
-1.97022
-1.97023
-1.97025
-1.97025
-1.97026
-1.97025
-1.97025
-1.97024
-2.06863
-2.06863
-2.06863
-2.06863
-2.06864
-2.06864
-2.06865
-2.06865
-2.06866
-2.06866
-2.06866
-2.06866
-2.06865
-2.06864
-2.06863
-2.06862
-2.06861
-2.0686
-2.0686
-2.06859
-2.06859
-2.06859
-2.0686
-2.0686
-2.0686
-2.06861
-2.06863
-2.06864
-2.06865
-2.06865
-2.06865
-2.06865
-2.06865
-2.06865
-2.06865
-2.06865
-2.06865
-2.06866
-2.06866
-2.06866
-2.06866
-2.06866
-2.06867
-2.06867
-2.06867
-2.06867
-2.06868
-2.06868
-2.06869
-2.06869
-2.06869
-2.0687
-2.0687
-2.06871
-2.06871
-2.06872
-2.06872
-2.06873
-2.06873
-2.06874
-2.06874
-2.06874
-2.06873
-2.06872
-2.06871
-2.06871
-2.0687
-2.06869
-2.06869
-2.06869
-2.06869
-2.0687
-2.0687
-2.0687
-2.06871
-2.06872
-2.06874
-2.06875
-2.06876
-2.06876
-2.06875
-2.06874
-2.06873
-2.06872
-2.06871
-2.06871
-2.0687
-2.0687
-2.0687
-2.06869
-2.0687
-2.0687
-2.06871
-2.06872
-2.06873
-2.06874
-2.06874
-2.06874
-2.06873
-2.06872
-2.16715
-2.16715
-2.16716
-2.16716
-2.16716
-2.16717
-2.16717
-2.16718
-2.16718
-2.16718
-2.16718
-2.16718
-2.16718
-2.16717
-2.16716
-2.16715
-2.16714
-2.16713
-2.16712
-2.16712
-2.16712
-2.16712
-2.16712
-2.16712
-2.16713
-2.16714
-2.16715
-2.16716
-2.16717
-2.16717
-2.16717
-2.16717
-2.16717
-2.16716
-2.16717
-2.16717
-2.16717
-2.16717
-2.16717
-2.16717
-2.16718
-2.16718
-2.16718
-2.16718
-2.16719
-2.16719
-2.16719
-2.1672
-2.1672
-2.16721
-2.16721
-2.16722
-2.16722
-2.16722
-2.16723
-2.16723
-2.16724
-2.16724
-2.16724
-2.16724
-2.16724
-2.16724
-2.16723
-2.16723
-2.16722
-2.16721
-2.1672
-2.1672
-2.1672
-2.1672
-2.16721
-2.16721
-2.16721
-2.16721
-2.16722
-2.16723
-2.16724
-2.16725
-2.16726
-2.16726
-2.16726
-2.16725
-2.16724
-2.16723
-2.16722
-2.16721
-2.16721
-2.1672
-2.1672
-2.16719
-2.16719
-2.1672
-2.1672
-2.16721
-2.16722
-2.16722
-2.16722
-2.16721
-2.1672
-2.16719
-2.26568
-2.26568
-2.26568
-2.26568
-2.26569
-2.26569
-2.2657
-2.2657
-2.2657
-2.26571
-2.26571
-2.26571
-2.2657
-2.2657
-2.26569
-2.26568
-2.26567
-2.26566
-2.26565
-2.26565
-2.26564
-2.26564
-2.26564
-2.26564
-2.26565
-2.26566
-2.26567
-2.26568
-2.26568
-2.26569
-2.26569
-2.26568
-2.26568
-2.26568
-2.26568
-2.26568
-2.26568
-2.26569
-2.26569
-2.26569
-2.26569
-2.26569
-2.2657
-2.2657
-2.2657
-2.2657
-2.26571
-2.26571
-2.26572
-2.26572
-2.26573
-2.26573
-2.26574
-2.26574
-2.26574
-2.26575
-2.26575
-2.26575
-2.26575
-2.26575
-2.26575
-2.26575
-2.26574
-2.26573
-2.26572
-2.26571
-2.26571
-2.2657
-2.26571
-2.26571
-2.26572
-2.26572
-2.26572
-2.26572
-2.26573
-2.26574
-2.26575
-2.26576
-2.26576
-2.26576
-2.26576
-2.26576
-2.26575
-2.26574
-2.26573
-2.26572
-2.26571
-2.26571
-2.2657
-2.26569
-2.26569
-2.26569
-2.26569
-2.26569
-2.2657
-2.2657
-2.26569
-2.26568
-2.26567
-2.26566
-2.3642
-2.3642
-2.36421
-2.36421
-2.36421
-2.36422
-2.36422
-2.36423
-2.36423
-2.36423
-2.36424
-2.36424
-2.36423
-2.36423
-2.36422
-2.36421
-2.3642
-2.3642
-2.36419
-2.36418
-2.36417
-2.36417
-2.36417
-2.36417
-2.36417
-2.36418
-2.36419
-2.3642
-2.3642
-2.3642
-2.3642
-2.3642
-2.3642
-2.3642
-2.3642
-2.3642
-2.3642
-2.3642
-2.3642
-2.3642
-2.3642
-2.36421
-2.36421
-2.36421
-2.36422
-2.36422
-2.36422
-2.36423
-2.36423
-2.36424
-2.36424
-2.36425
-2.36425
-2.36426
-2.36426
-2.36426
-2.36426
-2.36426
-2.36426
-2.36426
-2.36426
-2.36425
-2.36424
-2.36424
-2.36423
-2.36422
-2.36421
-2.36421
-2.36421
-2.36422
-2.36422
-2.36423
-2.36423
-2.36423
-2.36424
-2.36425
-2.36425
-2.36426
-2.36426
-2.36426
-2.36426
-2.36426
-2.36425
-2.36424
-2.36423
-2.36422
-2.36422
-2.36421
-2.3642
-2.3642
-2.36419
-2.36419
-2.36419
-2.36418
-2.36418
-2.36417
-2.36416
-2.36415
-2.36413
-2.36412
-2.46273
-2.46273
-2.46273
-2.46274
-2.46274
-2.46274
-2.46275
-2.46275
-2.46276
-2.46276
-2.46276
-2.46276
-2.46276
-2.46276
-2.46275
-2.46275
-2.46274
-2.46273
-2.46272
-2.46271
-2.4627
-2.4627
-2.4627
-2.4627
-2.4627
-2.4627
-2.46271
-2.46271
-2.46271
-2.46271
-2.46271
-2.46271
-2.46271
-2.46271
-2.46271
-2.46271
-2.46271
-2.46271
-2.46271
-2.46272
-2.46272
-2.46272
-2.46272
-2.46273
-2.46273
-2.46273
-2.46274
-2.46274
-2.46275
-2.46275
-2.46276
-2.46277
-2.46277
-2.46277
-2.46277
-2.46277
-2.46277
-2.46277
-2.46277
-2.46277
-2.46276
-2.46276
-2.46275
-2.46274
-2.46273
-2.46272
-2.46272
-2.46271
-2.46271
-2.46272
-2.46273
-2.46274
-2.46275
-2.46275
-2.46276
-2.46276
-2.46276
-2.46276
-2.46276
-2.46276
-2.46276
-2.46276
-2.46276
-2.46275
-2.46274
-2.46273
-2.46272
-2.46271
-2.4627
-2.4627
-2.46269
-2.46269
-2.46268
-2.46268
-2.46267
-2.46265
-2.46264
-2.46262
-2.4626
-2.46259
-2.56125
-2.56125
-2.56126
-2.56126
-2.56127
-2.56127
-2.56127
-2.56128
-2.56128
-2.56129
-2.56129
-2.56129
-2.56129
-2.56129
-2.56128
-2.56128
-2.56127
-2.56126
-2.56125
-2.56124
-2.56123
-2.56123
-2.56122
-2.56122
-2.56122
-2.56122
-2.56122
-2.56122
-2.56122
-2.56122
-2.56122
-2.56122
-2.56122
-2.56122
-2.56122
-2.56123
-2.56123
-2.56123
-2.56123
-2.56123
-2.56123
-2.56123
-2.56124
-2.56124
-2.56124
-2.56125
-2.56125
-2.56126
-2.56126
-2.56127
-2.56128
-2.56128
-2.56128
-2.56129
-2.56128
-2.56128
-2.56128
-2.56128
-2.56128
-2.56127
-2.56127
-2.56127
-2.56126
-2.56125
-2.56124
-2.56123
-2.56122
-2.56122
-2.56122
-2.56123
-2.56125
-2.56126
-2.56127
-2.56127
-2.56128
-2.56127
-2.56127
-2.56127
-2.56127
-2.56127
-2.56127
-2.56127
-2.56126
-2.56125
-2.56124
-2.56123
-2.56123
-2.56122
-2.56121
-2.5612
-2.5612
-2.56119
-2.56119
-2.56118
-2.56116
-2.56115
-2.56112
-2.5611
-2.56108
-2.56107
-2.65977
-2.65978
-2.65978
-2.65979
-2.65979
-2.6598
-2.6598
-2.6598
-2.65981
-2.65981
-2.65982
-2.65982
-2.65982
-2.65982
-2.65981
-2.65981
-2.6598
-2.65979
-2.65978
-2.65977
-2.65976
-2.65975
-2.65975
-2.65974
-2.65974
-2.65974
-2.65974
-2.65974
-2.65973
-2.65973
-2.65973
-2.65973
-2.65974
-2.65974
-2.65974
-2.65974
-2.65974
-2.65974
-2.65974
-2.65974
-2.65975
-2.65975
-2.65975
-2.65975
-2.65976
-2.65976
-2.65977
-2.65977
-2.65978
-2.65978
-2.65979
-2.65979
-2.6598
-2.6598
-2.6598
-2.6598
-2.65979
-2.65979
-2.65979
-2.65978
-2.65978
-2.65977
-2.65977
-2.65976
-2.65975
-2.65974
-2.65973
-2.65973
-2.65973
-2.65975
-2.65977
-2.65978
-2.65979
-2.6598
-2.65979
-2.65979
-2.65978
-2.65977
-2.65977
-2.65977
-2.65977
-2.65977
-2.65976
-2.65976
-2.65975
-2.65974
-2.65973
-2.65972
-2.65972
-2.65971
-2.6597
-2.6597
-2.65969
-2.65968
-2.65967
-2.65965
-2.65963
-2.6596
-2.65958
-2.65957
-2.75829
-2.7583
-2.7583
-2.75831
-2.75832
-2.75832
-2.75832
-2.75833
-2.75833
-2.75833
-2.75834
-2.75834
-2.75834
-2.75834
-2.75834
-2.75833
-2.75832
-2.75832
-2.75831
-2.7583
-2.75829
-2.75828
-2.75827
-2.75826
-2.75826
-2.75826
-2.75825
-2.75825
-2.75825
-2.75825
-2.75825
-2.75825
-2.75825
-2.75825
-2.75825
-2.75825
-2.75825
-2.75825
-2.75826
-2.75826
-2.75826
-2.75826
-2.75827
-2.75827
-2.75827
-2.75828
-2.75828
-2.75829
-2.75829
-2.7583
-2.7583
-2.75831
-2.75831
-2.75831
-2.75831
-2.75831
-2.7583
-2.7583
-2.7583
-2.75829
-2.75829
-2.75828
-2.75828
-2.75827
-2.75826
-2.75825
-2.75825
-2.75825
-2.75825
-2.75827
-2.75829
-2.75831
-2.75832
-2.75832
-2.75831
-2.7583
-2.75829
-2.75828
-2.75828
-2.75828
-2.75828
-2.75827
-2.75827
-2.75826
-2.75825
-2.75824
-2.75824
-2.75823
-2.75822
-2.75822
-2.75821
-2.75821
-2.7582
-2.75819
-2.75818
-2.75816
-2.75814
-2.75811
-2.75809
-2.75808
-2.85681
-2.85681
-2.85682
-2.85683
-2.85684
-2.85684
-2.85684
-2.85685
-2.85685
-2.85685
-2.85686
-2.85686
-2.85686
-2.85686
-2.85685
-2.85685
-2.85684
-2.85684
-2.85683
-2.85682
-2.85681
-2.8568
-2.85679
-2.85678
-2.85678
-2.85677
-2.85677
-2.85676
-2.85676
-2.85676
-2.85676
-2.85676
-2.85676
-2.85676
-2.85676
-2.85677
-2.85677
-2.85677
-2.85677
-2.85677
-2.85677
-2.85678
-2.85678
-2.85678
-2.85678
-2.85679
-2.85679
-2.8568
-2.8568
-2.85681
-2.85681
-2.85682
-2.85682
-2.85682
-2.85682
-2.85682
-2.85681
-2.85681
-2.8568
-2.8568
-2.8568
-2.85679
-2.85679
-2.85679
-2.85678
-2.85677
-2.85677
-2.85677
-2.85678
-2.85679
-2.85681
-2.85683
-2.85683
-2.85683
-2.85682
-2.8568
-2.85679
-2.85679
-2.85678
-2.85678
-2.85678
-2.85678
-2.85677
-2.85677
-2.85676
-2.85675
-2.85674
-2.85673
-2.85673
-2.85673
-2.85672
-2.85672
-2.85672
-2.85671
-2.85669
-2.85668
-2.85666
-2.85664
-2.85662
-2.85661
-2.95532
-2.95532
-2.95533
-2.95534
-2.95535
-2.95536
-2.95536
-2.95537
-2.95537
-2.95537
-2.95537
-2.95537
-2.95537
-2.95537
-2.95537
-2.95537
-2.95536
-2.95536
-2.95535
-2.95534
-2.95533
-2.95532
-2.95531
-2.9553
-2.9553
-2.95529
-2.95528
-2.95528
-2.95527
-2.95527
-2.95527
-2.95527
-2.95528
-2.95528
-2.95528
-2.95528
-2.95528
-2.95528
-2.95528
-2.95529
-2.95529
-2.95529
-2.95529
-2.95529
-2.9553
-2.9553
-2.95531
-2.95531
-2.95532
-2.95532
-2.95532
-2.95533
-2.95533
-2.95533
-2.95533
-2.95532
-2.95532
-2.95532
-2.95531
-2.95531
-2.95531
-2.95531
-2.95531
-2.9553
-2.9553
-2.9553
-2.95529
-2.95529
-2.9553
-2.95531
-2.95533
-2.95534
-2.95534
-2.95533
-2.95532
-2.95531
-2.9553
-2.95529
-2.95529
-2.95529
-2.95529
-2.95529
-2.95528
-2.95527
-2.95527
-2.95526
-2.95525
-2.95524
-2.95524
-2.95524
-2.95523
-2.95523
-2.95523
-2.95522
-2.95521
-2.9552
-2.95518
-2.95516
-2.95515
-2.95514
-3.05382
-3.05383
-3.05384
-3.05385
-3.05387
-3.05388
-3.05388
-3.05388
-3.05389
-3.05389
-3.05389
-3.05389
-3.05389
-3.05388
-3.05388
-3.05388
-3.05387
-3.05387
-3.05386