/*--------------------------------*- C++ -*----------------------------------*\
| =========                 |                                                 |
| \\      /  F ield         | OpenFOAM: The Open Source CFD Toolbox           |
|  \\    /   O peration     | Version:  4.1                                   |
|   \\  /    A nd           | Web:      www.OpenFOAM.org                      |
|    \\/     M anipulation  |                                                 |
\*---------------------------------------------------------------------------*/
FoamFile
{
    version     2.0;
    format      ascii;
    class       volScalarField;
    location    "120";
    object      p_rgh;
}
// * * * * * * * * * * * * * * * * * * * * * * * * * * * * * * * * * * * * * //

dimensions      [0 2 -2 0 0 0 0];

internalField   nonuniform List<scalar> 
5000
(
0.0492368
0.0492452
0.0492589
0.0492666
0.0492672
0.0492596
0.0492464
0.049231
0.049216
0.0492027
0.0491916
0.0491826
0.0491757
0.0491705
0.0491673
0.0491664
0.0491683
0.049174
0.0491851
0.0492024
0.0492161
0.0492231
0.0492271
0.0492284
0.0492273
0.0492241
0.0492224
0.0492236
0.0492286
0.0492379
0.049252
0.0492708
0.0492936
0.04932
0.0493502
0.0493852
0.0494248
0.0494649
0.0494966
0.0495116
0.0495142
0.0495033
0.0494748
0.0494293
0.0493756
0.0493263
0.049291
0.0492715
0.0492649
0.0492669
0.0492743
0.0492835
0.0492878
0.0492796
0.0492687
0.0492608
0.0492616
0.0492639
0.0492616
0.0492382
0.0492362
0.0492363
0.0492401
0.0492453
0.0492511
0.0492573
0.0492651
0.0492748
0.0492849
0.0492907
0.0492882
0.0492806
0.049278
0.0492803
0.0492869
0.0493009
0.0493203
0.0493392
0.0493534
0.0493627
0.0493672
0.0493668
0.0493581
0.049351
0.0493453
0.0493394
0.0493321
0.0493226
0.0493106
0.0492967
0.0492826
0.04927
0.0492609
0.0492562
0.0492564
0.049261
0.0492692
0.0492801
0.0492928
0.049307
0.0492292
0.0492543
0.0492628
0.0492715
0.0492735
0.0492679
0.0492571
0.0492443
0.0492319
0.0492215
0.0492134
0.0492076
0.0492036
0.0492013
0.0492007
0.0492016
0.0492027
0.049202
0.0491982
0.0491955
0.0492052
0.0492403
0.0492442
0.0492333
0.049234
0.0492375
0.0492394
0.0492413
0.0492455
0.049253
0.0492649
0.0492812
0.0493015
0.0493248
0.0493513
0.0493819
0.0494168
0.0494525
0.049481
0.0494947
0.0494948
0.0494824
0.049454
0.0494101
0.0493586
0.0493129
0.0492827
0.0492682
0.049265
0.0492685
0.0492745
0.0492785
0.0492754
0.0492725
0.0492755
0.0492744
0.0492728
0.0492759
0.0492797
0.049224
0.0492376
0.0492527
0.0492637
0.0492702
0.0492744
0.0492771
0.0492804
0.0492857
0.049292
0.0492951
0.0492915
0.0492841
0.0492772
0.0492774
0.0492924
0.049319
0.0493439
0.0493602
0.0493724
0.0493811
0.0493857
0.0493862
0.0493846
0.0493806
0.0493745
0.0493667
0.0493573
0.0493457
0.0493321
0.0493173
0.049303
0.0492913
0.049284
0.0492813
0.0492825
0.049287
0.0492937
0.0493009
0.0493055
0.0493045
0.0492157
0.0492434
0.0492579
0.0492676
0.0492696
0.0492641
0.0492532
0.0492402
0.0492278
0.0492178
0.0492104
0.0492051
0.0492013
0.0491987
0.0491975
0.0491981
0.0491997
0.049198
0.0491858
0.0491662
0.0491732
0.0492208
0.049238
0.0492197
0.0492206
0.04923
0.0492334
0.049234
0.0492361
0.049242
0.0492532
0.0492699
0.0492901
0.0493123
0.0493367
0.0493648
0.049397
0.0494301
0.0494566
0.0494691
0.049468
0.0494543
0.0494255
0.0493807
0.049327
0.049281
0.0492538
0.0492442
0.049246
0.0492527
0.0492578
0.049254
0.0492422
0.0492485
0.049261
0.0492612
0.0492644
0.0492735
0.0492796
0.0492107
0.0492217
0.0492435
0.049268
0.0492719
0.0492736
0.0492746
0.0492765
0.0492809
0.0492869
0.049291
0.0492883
0.0492793
0.049272
0.0492721
0.0492914
0.0493223
0.0493457
0.0493606
0.0493717
0.0493796
0.049384
0.0493844
0.0493823
0.0493779
0.0493719
0.0493642
0.0493543
0.0493418
0.0493268
0.0493105
0.0492949
0.0492823
0.0492747
0.0492728
0.0492763
0.049284
0.0492934
0.049301
0.0492993
0.0492787
0.0492106
0.0492352
0.0492577
0.0492697
0.0492713
0.0492643
0.0492518
0.0492372
0.0492239
0.0492141
0.0492078
0.0492035
0.0492
0.0491969
0.0491942
0.0491914
0.0491877
0.0491796
0.0491583
0.0491297
0.0491413
0.0491933
0.0492188
0.0491928
0.0491931
0.0492094
0.049216
0.0492171
0.049219
0.0492248
0.0492364
0.0492541
0.0492751
0.0492966
0.0493193
0.0493456
0.0493764
0.0494086
0.049434
0.0494456
0.0494441
0.04943
0.0494003
0.0493529
0.0492922
0.0492416
0.0492168
0.0492129
0.0492205
0.0492304
0.0492333
0.0492215
0.0492075
0.0492237
0.0492388
0.0492437
0.0492548
0.0492724
0.0492882
0.049225
0.0492188
0.0492257
0.0492425
0.0492582
0.0492707
0.0492696
0.0492697
0.0492745
0.0492817
0.0492896
0.0492913
0.049282
0.0492712
0.0492703
0.0492909
0.0493232
0.0493461
0.0493599
0.0493697
0.0493766
0.0493803
0.0493803
0.0493775
0.0493726
0.0493666
0.049359
0.0493487
0.0493348
0.0493179
0.0492993
0.0492816
0.0492674
0.0492589
0.0492567
0.0492606
0.0492694
0.0492802
0.0492879
0.0492808
0.0492401
0.0492157
0.0492439
0.0492685
0.0492805
0.0492799
0.04927
0.0492541
0.049236
0.0492204
0.0492106
0.0492063
0.0492042
0.0492016
0.0491975
0.0491889
0.0491767
0.049165
0.0491508
0.0491252
0.0491011
0.049126
0.0491736
0.0491883
0.0491571
0.0491572
0.0491808
0.0491923
0.0491958
0.0491989
0.049206
0.0492191
0.0492399
0.0492633
0.0492841
0.0493046
0.0493296
0.0493603
0.0493923
0.0494167
0.0494275
0.0494266
0.0494134
0.049384
0.0493353
0.0492661
0.0492052
0.0491834
0.0491878
0.0492014
0.0492121
0.0492099
0.0491916
0.0491827
0.0492041
0.0492184
0.0492281
0.0492447
0.0492696
0.0492995
0.0492925
0.0492529
0.0492348
0.0492323
0.0492393
0.049249
0.0492553
0.0492593
0.0492662
0.0492742
0.049289
0.0492986
0.0492907
0.0492734
0.0492704
0.0492911
0.0493237
0.0493462
0.0493589
0.0493673
0.0493731
0.0493758
0.0493751
0.0493716
0.0493664
0.0493604
0.0493528
0.0493417
0.049326
0.0493064
0.0492847
0.0492639
0.0492474
0.0492378
0.0492352
0.0492392
0.0492483
0.0492597
0.0492676
0.0492567
0.0491982
0.0492324
0.0492695
0.0492912
0.0492993
0.0492946
0.0492802
0.0492596
0.0492362
0.049216
0.0492057
0.0492051
0.0492066
0.0492035
0.0491871
0.0491671
0.0491515
0.0491372
0.0491215
0.0491023
0.0490934
0.0491263
0.0491548
0.0491509
0.0491183
0.0491181
0.0491477
0.0491647
0.0491712
0.049176
0.049185
0.049203
0.0492315
0.0492608
0.0492803
0.0492972
0.0493202
0.0493508
0.0493822
0.0494054
0.0494161
0.0494164
0.0494053
0.0493793
0.0493326
0.0492589
0.0491839
0.0491662
0.0491795
0.049194
0.0492004
0.0491912
0.0491706
0.0491704
0.0491904
0.0492026
0.0492149
0.0492354
0.0492656
0.0493022
0.0493382
0.0493168
0.0492805
0.049254
0.0492412
0.0492388
0.0492412
0.0492437
0.0492453
0.0492578
0.0492851
0.0493056
0.0493023
0.0492765
0.0492699
0.0492908
0.0493239
0.0493463
0.0493579
0.0493649
0.0493694
0.0493712
0.0493696
0.0493656
0.0493606
0.0493544
0.0493463
0.049334
0.0493162
0.0492934
0.0492678
0.049243
0.0492233
0.0492122
0.0492092
0.0492136
0.0492234
0.0492355
0.0492439
0.0492307
0.0491567
0.0492912
0.0493075
0.0493201
0.0493221
0.049312
0.0492931
0.0492676
0.0492381
0.0492111
0.0491987
0.0492042
0.0492023
0.049186
0.0491677
0.0491512
0.0491359
0.0491214
0.0491089
0.0490994
0.049103
0.0491249
0.0491286
0.0491128
0.0490825
0.0490816
0.0491142
0.0491367
0.0491464
0.0491531
0.0491649
0.0491909
0.0492335
0.0492696
0.0492866
0.0492996
0.0493194
0.0493481
0.0493774
0.0493994
0.0494109
0.0494135
0.0494064
0.0493854
0.0493435
0.0492769
0.049199
0.0491637
0.0491821
0.0491927
0.0491934
0.0491798
0.0491623
0.049168
0.049182
0.049192
0.0492063
0.0492309
0.0492648
0.0493021
0.049336
0.0493504
0.0493313
0.0492978
0.0492681
0.0492491
0.0492398
0.0492366
0.0492366
0.0492409
0.0492592
0.0493072
0.0493149
0.0492797
0.0492675
0.0492892
0.0493239
0.0493465
0.0493571
0.0493628
0.0493662
0.0493671
0.0493647
0.0493603
0.0493553
0.0493492
0.0493404
0.0493267
0.0493068
0.0492807
0.0492508
0.049221
0.0491969
0.0491836
0.0491805
0.0491859
0.0491969
0.04921
0.0492193
0.0492048
0.0491169
0.0493049
0.0493314
0.049346
0.0493435
0.0493291
0.0493068
0.0492776
0.0492431
0.0492089
0.049192
0.049195
0.0491895
0.0491759
0.0491617
0.0491481
0.0491337
0.0491202
0.0491111
0.0491072
0.0491105
0.0491128
0.049101
0.0490807
0.049055
0.049053
0.0490854
0.0491132
0.0491261
0.0491344
0.0491502
0.0491878
0.04925
0.049285
0.0492982
0.0493091
0.0493255
0.0493496
0.0493753
0.049397
0.0494104
0.0494163
0.0494146
0.0494024
0.0493724
0.0493171
0.0492393
0.0491731
0.0491803
0.0491919
0.0491918
0.0491774
0.0491655
0.0491709
0.0491786
0.0491885
0.0492078
0.0492382
0.0492745
0.04931
0.0493398
0.0493591
0.0493593
0.0493376
0.0493049
0.0492742
0.0492522
0.0492394
0.0492338
0.0492344
0.0492447
0.0492801
0.0493253
0.0492838
0.0492626
0.0492859
0.0493234
0.0493469
0.0493566
0.0493611
0.0493637
0.0493641
0.0493609
0.049356
0.0493511
0.0493452
0.0493359
0.0493209
0.0492993
0.0492703
0.0492363
0.0492009
0.0491709
0.0491542
0.0491512
0.0491584
0.0491712
0.0491856
0.0491958
0.0491804
0.0490796
0.0493204
0.0493567
0.0493682
0.0493616
0.0493451
0.0493211
0.0492898
0.0492524
0.049214
0.049189
0.049187
0.049183
0.0491733
0.0491631
0.0491518
0.0491386
0.0491265
0.0491185
0.049114
0.0491096
0.0490993
0.0490817
0.0490612
0.0490403
0.0490375
0.0490674
0.0491002
0.0491152
0.0491248
0.049146
0.0492006
0.0492795
0.0493009
0.0493105
0.0493201
0.0493332
0.0493515
0.0493743
0.0493969
0.049413
0.0494223
0.0494262
0.0494239
0.0494106
0.049377
0.0493127
0.0492231
0.0491806
0.0491939
0.0491944
0.049182
0.0491761
0.0491783
0.0491851
0.0492018
0.0492318
0.0492671
0.0493015
0.0493312
0.0493543
0.0493697
0.0493744
0.0493628
0.0493355
0.0493015
0.0492705
0.049248
0.0492345
0.0492296
0.0492355
0.0492619
0.0493141
0.0492911
0.0492548
0.0492806
0.0493222
0.0493474
0.0493563
0.0493598
0.0493622
0.0493622
0.0493584
0.049353
0.0493483
0.0493427
0.0493333
0.049318
0.0492953
0.0492643
0.0492274
0.0491867
0.0491497
0.0491268
0.0491244
0.049134
0.0491485
0.0491638
0.0491746
0.0491582
0.0490455
0.0493414
0.0493795
0.0493863
0.0493777
0.0493611
0.0493373
0.0493058
0.0492675
0.0492266
0.0491938
0.0491828
0.0491799
0.0491746
0.0491681
0.049159
0.0491475
0.0491366
0.0491285
0.0491215
0.049112
0.0490977
0.0490795
0.0490605
0.0490434
0.0490409
0.0490676
0.049103
0.0491176
0.0491296
0.0491634
0.0492471
0.0493069
0.0493157
0.0493224
0.0493297
0.0493383
0.0493515
0.0493734
0.0493983
0.0494173
0.0494295
0.0494373
0.0494424
0.0494445
0.0494391
0.0494145
0.0493501
0.0492267
0.0492019
0.049204
0.0492006
0.0492012
0.0492089
0.0492281
0.0492607
0.0492946
0.049324
0.0493473
0.0493647
0.0493768
0.0493844
0.0493854
0.0493762
0.0493541
0.0493215
0.0492864
0.0492565
0.0492353
0.0492243
0.0492261
0.0492498
0.0492958
0.049296
0.0492473
0.0492726
0.04932
0.0493475
0.0493559
0.0493588
0.0493617
0.0493618
0.0493573
0.0493516
0.0493472
0.0493421
0.0493333
0.0493181
0.0492953
0.0492642
0.0492258
0.0491814
0.0491382
0.0491056
0.0491031
0.0491147
0.0491301
0.0491454
0.049156
0.0491385
0.0490145
0.0493659
0.0493979
0.0494013
0.0493925
0.0493772
0.049355
0.0493249
0.0492872
0.049245
0.0492058
0.0491842
0.0491793
0.0491776
0.0491752
0.0491694
0.0491606
0.0491521
0.0491453
0.0491386
0.0491293
0.0491161
0.0491
0.0490832
0.0490693
0.0490678
0.0490911
0.0491239
0.0491376
0.0491578
0.0492177
0.0493066
0.0493239
0.0493291
0.0493334
0.049337
0.0493408
0.0493509
0.0493736
0.0494011
0.0494227
0.0494368
0.0494465
0.0494547
0.0494632
0.0494733
0.0494848
0.0494939
0.0494773
0.0493806
0.0493327
0.0493219
0.0493274
0.0493445
0.0493674
0.0493829
0.0493904
0.0493934
0.0493938
0.0493931
0.0493921
0.0493901
0.0493857
0.0493768
0.0493589
0.0493301
0.0492947
0.0492604
0.0492333
0.049217
0.0492159
0.0492394
0.0492842
0.0492946
0.0492404
0.0492604
0.0493165
0.0493466
0.049355
0.0493581
0.0493621
0.0493627
0.0493576
0.0493515
0.0493475
0.0493436
0.049336
0.0493222
0.0493004
0.0492697
0.0492308
0.0491861
0.0491395
0.0490979
0.0490887
0.0491005
0.0491156
0.0491296
0.0491391
0.0491204
0.048986
0.0493763
0.0494108
0.0494137
0.0494062
0.0493932
0.0493736
0.0493456
0.0493093
0.049267
0.0492242
0.0491928
0.0491821
0.0491819
0.0491836
0.0491823
0.0491779
0.0491739
0.0491715
0.0491689
0.0491639
0.0491549
0.0491425
0.0491288
0.049118
0.0491179
0.0491367
0.0491633
0.0491798
0.0492134
0.049287
0.0493362
0.0493356
0.0493375
0.0493396
0.0493413
0.0493433
0.049353
0.0493764
0.0494056
0.0494289
0.049444
0.0494543
0.0494629
0.0494715
0.0494812
0.0494918
0.0495024
0.0495129
0.0495216
0.0495151
0.0494995
0.0494849
0.04947
0.049452
0.049434
0.0494184
0.0494055
0.0493953
0.0493876
0.0493817
0.049377
0.0493726
0.049366
0.0493525
0.0493281
0.0492944
0.0492581
0.0492269
0.0492071
0.049205
0.0492308
0.0492756
0.0492896
0.0492345
0.0492454
0.0493109
0.0493441
0.0493533
0.0493574
0.0493633
0.0493648
0.0493594
0.0493528
0.0493493
0.0493467
0.0493412
0.0493297
0.0493102
0.0492813
0.0492432
0.0491977
0.0491487
0.0491028
0.0490782
0.0490894
0.0491032
0.0491151
0.0491229
0.0491029
0.0489589
0.049383
0.04942
0.049424
0.0494185
0.0494086
0.0493923
0.0493668
0.0493321
0.0492906
0.0492465
0.0492084
0.0491895
0.0491874
0.0491918
0.0491954
0.049197
0.0491995
0.0492039
0.0492082
0.0492097
0.0492066
0.0491991
0.0491896
0.0491823
0.0491833
0.0491975
0.0492184
0.0492392
0.0492776
0.0493328
0.0493379
0.0493357
0.0493395
0.0493439
0.0493467
0.0493492
0.0493599
0.0493842
0.0494131
0.0494361
0.0494512
0.0494612
0.0494691
0.0494767
0.0494847
0.0494928
0.0495002
0.0495056
0.0495067
0.0495018
0.0494901
0.049473
0.0494535
0.0494343
0.0494169
0.0494019
0.0493893
0.049379
0.049371
0.0493647
0.0493599
0.0493559
0.0493507
0.0493398
0.0493187
0.0492867
0.0492496
0.0492162
0.0491949
0.0491944
0.0492254
0.0492708
0.0492843
0.0492293
0.0492303
0.0493007
0.0493401
0.0493505
0.0493564
0.0493651
0.0493682
0.0493628
0.0493557
0.0493524
0.0493513
0.0493483
0.0493397
0.0493233
0.0492972
0.049261
0.0492157
0.0491644
0.0491126
0.0490721
0.0490786
0.0490909
0.0491004
0.0491058
0.0490845
0.0489319
0.0493874
0.0494259
0.0494317
0.0494291
0.0494232
0.0494106
0.0493879
0.0493549
0.0493143
0.0492703
0.0492286
0.0492021
0.0491947
0.0491991
0.0492066
0.0492142
0.0492237
0.0492356
0.0492474
0.049256
0.0492592
0.0492574
0.0492529
0.0492493
0.049251
0.0492608
0.0492762
0.0492943
0.0493198
0.0493324
0.0493254
0.049332
0.0493421
0.049351
0.0493561
0.0493596
0.0493718
0.0493969
0.0494242
0.049445
0.0494585
0.0494674
0.0494741
0.0494802
0.0494862
0.0494918
0.0494956
0.0494957
0.0494901
0.0494783
0.0494621
0.0494439
0.0494256
0.0494086
0.0493935
0.0493804
0.0493695
0.0493605
0.0493531
0.0493473
0.0493428
0.049339
0.049334
0.0493242
0.0493046
0.0492735
0.0492361
0.049202
0.0491815
0.0491855
0.049225
0.0492708
0.04928
0.0492241
0.0492149
0.0492859
0.0493341
0.0493462
0.0493548
0.049367
0.0493726
0.0493681
0.0493605
0.0493571
0.0493573
0.0493567
0.0493512
0.0493382
0.0493154
0.0492816
0.0492371
0.0491839
0.0491271
0.0490756
0.049065
0.0490766
0.0490841
0.049087
0.0490642
0.0489039
0.0493898
0.0494295
0.0494365
0.0494377
0.0494367
0.0494285
0.0494088
0.0493774
0.0493379
0.0492942
0.0492513
0.0492191
0.0492049
0.0492059
0.0492145
0.0492263
0.0492414
0.0492594
0.0492774
0.0492918
0.0493004
0.0493035
0.0493032
0.0493021
0.0493032
0.0493078
0.0493149
0.0493221
0.0493259
0.0493114
0.049315
0.0493294
0.0493472
0.0493616
0.049369
0.0493736
0.0493883
0.0494138
0.0494381
0.0494554
0.0494663
0.0494734
0.0494786
0.0494831
0.0494871
0.0494902
0.0494908
0.0494865
0.0494752
0.0494569
0.0494353
0.0494146
0.0493966
0.0493814
0.0493686
0.0493581
0.0493496
0.0493427
0.049337
0.049332
0.0493275
0.049323
0.0493173
0.0493071
0.0492875
0.0492565
0.0492189
0.0491856
0.0491682
0.04918
0.0492309
0.0492755
0.0492773
0.0492186
0.0491992
0.0492667
0.0493253
0.04934
0.0493521
0.0493684
0.0493777
0.0493753
0.0493682
0.0493644
0.049365
0.0493663
0.0493636
0.0493536
0.0493342
0.0493031
0.0492595
0.0492045
0.0491429
0.0490837
0.0490481
0.0490586
0.0490651
0.0490656
0.0490413
0.0488738
0.0493904
0.0494312
0.0494393
0.0494448
0.0494496
0.0494462
0.0494296
0.0494003
0.0493621
0.0493192
0.0492759
0.0492401
0.0492189
0.0492138
0.0492201
0.0492328
0.0492503
0.0492716
0.0492932
0.0493111
0.0493229
0.0493284
0.0493292
0.0493271
0.0493236
0.0493194
0.049313
0.0493
0.049281
0.0492815
0.0492996
0.049326
0.049353
0.0493735
0.049383
0.0493899
0.0494084
0.0494331
0.049453
0.0494662
0.0494743
0.0494794
0.049483
0.0494858
0.0494881
0.0494891
0.0494872
0.0494797
0.0494639
0.0494397
0.049412
0.0493881
0.0493703
0.0493569
0.0493463
0.0493382
0.0493324
0.0493281
0.0493239
0.0493192
0.0493137
0.0493078
0.0493007
0.0492892
0.0492685
0.0492369
0.0491997
0.0491688
0.0491569
0.0491796
0.0492434
0.0492841
0.049276
0.0492125
0.049183
0.0492427
0.0493134
0.0493317
0.0493475
0.0493682
0.0493824
0.0493839
0.0493787
0.049375
0.0493755
0.0493778
0.0493767
0.0493692
0.0493527
0.0493242
0.0492816
0.0492247
0.0491573
0.0490886
0.049035
0.0490366
0.0490429
0.0490413
0.0490153
0.0488412
0.0493893
0.0494313
0.0494415
0.0494513
0.0494622
0.0494637
0.0494504
0.0494239
0.0493881
0.0493468
0.0493039
0.0492657
0.0492385
0.0492259
0.0492264
0.049236
0.0492522
0.049273
0.0492949
0.049314
0.0493272
0.0493334
0.0493335
0.0493286
0.0493189
0.0493039
0.0492848
0.0492613
0.0492512
0.0492651
0.049294
0.0493293
0.0493628
0.0493869
0.0493972
0.049408
0.0494305
0.0494523
0.0494673
0.0494765
0.049482
0.0494853
0.0494874
0.0494889
0.0494897
0.0494891
0.0494855
0.0494759
0.0494575
0.0494288
0.0493949
0.0493679
0.0493509
0.0493397
0.0493311
0.0493248
0.0493215
0.0493195
0.0493157
0.0493095
0.0493016
0.0492932
0.0492839
0.0492705
0.0492483
0.0492161
0.0491803
0.0491538
0.049149
0.0491854
0.0492615
0.0492955
0.0492752
0.0492056
0.0491663
0.0492154
0.0492935
0.0493218
0.0493401
0.049365
0.0493851
0.0493922
0.0493909
0.0493888
0.0493892
0.0493915
0.0493909
0.0493847
0.0493707
0.0493449
0.0493035
0.0492447
0.0491714
0.0490934
0.0490285
0.0490105
0.049017
0.0490141
0.0489864
0.0488061
0.0493862
0.0494299
0.0494434
0.0494587
0.049475
0.0494809
0.0494711
0.0494484
0.0494166
0.0493789
0.049338
0.0492986
0.0492668
0.0492466
0.0492391
0.0492419
0.0492527
0.0492689
0.0492874
0.0493051
0.0493179
0.0493239
0.049323
0.0493156
0.0493025
0.049284
0.0492629
0.0492477
0.049252
0.0492749
0.0493096
0.0493479
0.049382
0.0494047
0.0494128
0.0494292
0.0494526
0.0494695
0.0494798
0.0494859
0.0494893
0.0494911
0.049492
0.0494923
0.049492
0.0494903
0.0494856
0.0494753
0.049456
0.0494255
0.0493871
0.0493573
0.049342
0.0493334
0.0493263
0.0493212
0.0493193
0.0493182
0.0493129
0.0493025
0.0492902
0.0492786
0.049267
0.0492516
0.0492278
0.0491956
0.0491628
0.0491427
0.0491457
0.0491973
0.0492819
0.0493074
0.049274
0.0491975
0.0491493
0.0491862
0.049262
0.0493075
0.0493284
0.0493568
0.0493839
0.049398
0.0494023
0.0494038
0.0494052
0.0494072
0.0494062
0.0494004
0.0493883
0.0493654
0.0493258
0.0492658
0.0491868
0.0490985
0.0490216
0.0489834
0.0489868
0.048984
0.0489546
0.0487696
0.0493808
0.0494268
0.0494448
0.0494669
0.0494886
0.0494972
0.0494908
0.049473
0.0494475
0.0494162
0.0493805
0.0493428
0.0493087
0.0492824
0.0492662
0.0492601
0.0492621
0.04927
0.0492811
0.0492939
0.0493031
0.0493063
0.0493039
0.0492962
0.0492835
0.0492672
0.049254
0.0492566
0.0492767
0.049309
0.0493463
0.0493819
0.0494102
0.0494255
0.0494309
0.049453
0.0494719
0.0494833
0.0494903
0.0494943
0.0494962
0.0494968
0.0494966
0.049496
0.0494949
0.0494925
0.0494873
0.0494772
0.049459
0.0494301
0.0493909
0.0493583
0.0493431
0.0493361
0.0493301
0.0493245
0.0493212
0.0493187
0.0493102
0.049295
0.0492783
0.0492637
0.04925
0.0492327
0.049208
0.0491779
0.0491501
0.0491373
0.0491472
0.049213
0.0492992
0.0493182
0.0492715
0.0491884
0.0491327
0.0491568
0.0492223
0.049282
0.0493094
0.0493421
0.0493772
0.0493996
0.0494106
0.0494171
0.049421
0.0494235
0.0494222
0.0494162
0.0494059
0.0493863
0.0493494
0.0492897
0.0492062
0.0491073
0.0490145
0.0489583
0.0489522
0.04895
0.0489189
0.0487352
0.0493729
0.0494215
0.0494449
0.049474
0.0495009
0.0495118
0.0495077
0.0494956
0.0494786
0.0494572
0.0494313
0.0494012
0.0493698
0.0493413
0.049319
0.0493043
0.0492966
0.0492943
0.0492949
0.0492976
0.0492988
0.0492973
0.0492922
0.0492838
0.0492729
0.0492666
0.0492802
0.0493066
0.0493392
0.0493726
0.0494027
0.0494264
0.0494413
0.0494428
0.0494531
0.0494736
0.0494855
0.0494936
0.0494989
0.0495016
0.0495025
0.0495023
0.0495014
0.0495001
0.0494983
0.0494955
0.0494903
0.0494808
0.049465
0.0494402
0.0494046
0.0493689
0.0493498
0.0493411
0.049334
0.0493263
0.0493209
0.049317
0.0493055
0.049286
0.0492657
0.0492487
0.0492333
0.0492152
0.049192
0.0491658
0.0491442
0.0491385
0.0491531
0.0492289
0.0493089
0.0493274
0.0492682
0.0491791
0.0491179
0.0491301
0.0491845
0.0492394
0.049279
0.0493209
0.0493649
0.0493967
0.0494149
0.0494272
0.0494349
0.0494388
0.0494379
0.049432
0.0494234
0.0494079
0.0493752
0.0493181
0.049233
0.0491251
0.0490151
0.048938
0.0489163
0.0489125
0.0488801
0.0487051
0.0493622
0.0494138
0.0494424
0.0494768
0.0495061
0.0495186
0.0495182
0.0495123
0.0495043
0.0494947
0.0494828
0.0494671
0.0494482
0.0494277
0.0494082
0.0493917
0.0493791
0.0493699
0.0493625
0.0493555
0.0493465
0.0493349
0.0493233
0.0493113
0.0493195
0.0493573
0.049393
0.0494191
0.0494379
0.0494514
0.0494607
0.0494649
0.0494625
0.0494402
0.0494691
0.0494834
0.0494937
0.0495015
0.0495063
0.0495084
0.0495086
0.0495077
0.0495063
0.0495045
0.0495022
0.049499
0.0494939
0.0494855
0.0494721
0.0494521
0.0494225
0.0493855
0.0493586
0.0493438
0.0493335
0.0493239
0.0493198
0.0493162
0.0493004
0.0492767
0.0492547
0.0492367
0.0492205
0.0492026
0.0491817
0.0491604
0.0491454
0.0491464
0.0491628
0.0492414
0.0493101
0.0493336
0.0492651
0.0491714
0.049106
0.0491075
0.0491516
0.0492009
0.0492376
0.0492931
0.0493478
0.0493909
0.0494164
0.0494347
0.0494465
0.0494526
0.0494527
0.0494471
0.0494407
0.0494302
0.0494034
0.0493519
0.0492697
0.0491575
0.0490318
0.0489286
0.0488844
0.0488737
0.0488401
0.0486805
0.0493487
0.0494032
0.0494367
0.0494748
0.0495048
0.0495168
0.049517
0.0495136
0.0495104
0.0495082
0.049507
0.0495063
0.0495058
0.0495052
0.0495046
0.0495043
0.0495052
0.0495076
0.0495113
0.049516
0.0495211
0.0495222
0.0495139
0.049475
0.0495144
0.0495252
0.0495194
0.0495074
0.0494961
0.0494872
0.0494801
0.0494673
0.04944
0.0494131
0.0494691
0.0494876
0.0495
0.0495085
0.0495131
0.0495148
0.0495145
0.0495131
0.0495113
0.0495091
0.0495064
0.049503
0.0494979
0.0494903
0.0494789
0.0494625
0.049439
0.0494047
0.0493695
0.0493457
0.0493306
0.0493179
0.0493142
0.0493119
0.0492935
0.0492708
0.0492486
0.0492296
0.0492128
0.0491959
0.0491783
0.0491625
0.049154
0.0491604
0.0491757
0.0492494
0.0493057
0.049333
0.0492654
0.0491679
0.049098
0.0490897
0.0491251
0.0491714
0.0492051
0.0492399
0.0493285
0.0493844
0.0494172
0.0494412
0.0494571
0.0494656
0.0494669
0.0494613
0.049457
0.0494525
0.0494333
0.049391
0.0493176
0.0492089
0.0490736
0.0489425
0.0488653
0.0488381
0.0488021
0.0486621
0.0493325
0.0493899
0.0494276
0.0494685
0.0494987
0.0495098
0.0495092
0.0495054
0.0495024
0.0495009
0.0495016
0.0495045
0.0495097
0.0495172
0.0495265
0.0495371
0.0495481
0.0495587
0.0495678
0.0495744
0.0495774
0.0495777
0.0495753
0.0495704
0.0495596
0.0495425
0.0495192
0.0494953
0.0494788
0.0494686
0.0494499
0.0494307
0.0494136
0.0494037
0.0494695
0.0494922
0.0495065
0.0495154
0.0495197
0.0495209
0.0495202
0.0495186
0.0495164
0.0495139
0.0495109
0.0495072
0.0495021
0.0494948
0.0494844
0.0494702
0.0494511
0.0494231
0.0493842
0.0493495
0.049328
0.0493119
0.0493039
0.0493034
0.049289
0.0492684
0.0492468
0.0492275
0.0492108
0.0491958
0.0491824
0.0491725
0.04917
0.0491798
0.0491912
0.0492546
0.0493002
0.0493277
0.0492738
0.0491714
0.0490944
0.0490763
0.0491043
0.0491489
0.0491859
0.0492066
0.0493048
0.0493781
0.0494184
0.049448
0.0494679
0.0494789
0.0494811
0.0494748
0.0494718
0.0494736
0.0494634
0.0494332
0.0493752
0.0492802
0.0491475
0.0489968
0.0488746
0.0488161
0.0487707
0.0486506
0.0493141
0.0493738
0.0494153
0.0494585
0.0494889
0.0494989
0.0494968
0.0494917
0.0494875
0.0494851
0.0494852
0.0494878
0.049493
0.0495007
0.0495106
0.0495218
0.0495338
0.0495453
0.0495553
0.0495629
0.0495679
0.0495699
0.0495687
0.0495634
0.0495519
0.0495318
0.0495026
0.0494699
0.0494521
0.0494293
0.0494188
0.0494139
0.0494145
0.0494533
0.0494791
0.0494992
0.0495138
0.0495225
0.0495264
0.0495271
0.049526
0.0495241
0.0495217
0.0495189
0.0495157
0.0495117
0.0495064
0.049499
0.0494886
0.0494749
0.049458
0.0494364
0.0494018
0.0493569
0.0493265
0.0493074
0.0492956
0.0492964
0.049286
0.0492686
0.0492486
0.0492301
0.0492148
0.0492026
0.049194
0.04919
0.0491924
0.0492031
0.0492089
0.0492602
0.0492978
0.0493242
0.0492897
0.0491835
0.0490955
0.0490666
0.049088
0.0491319
0.0491736
0.0492005
0.0492765
0.0493715
0.0494204
0.0494557
0.0494796
0.0494929
0.0494957
0.0494875
0.0494847
0.0494921
0.0494911
0.0494746
0.0494371
0.0493666
0.0492527
0.0490986
0.0489362
0.048829
0.0487579
0.0486495
0.0492942
0.0493555
0.0493999
0.0494451
0.0494761
0.0494852
0.0494812
0.0494737
0.049467
0.0494625
0.0494608
0.0494622
0.0494666
0.0494739
0.0494837
0.049496
0.0495098
0.0495239
0.049537
0.049548
0.0495561
0.0495607
0.0495612
0.0495567
0.0495456
0.0495255
0.0494919
0.0494481
0.0494182
0.0494105
0.0494064
0.0494059
0.0494089
0.0494647
0.0494879
0.0495079
0.049522
0.04953
0.0495331
0.0495333
0.0495319
0.0495298
0.0495272
0.0495242
0.0495208
0.0495165
0.0495108
0.0495027
0.0494914
0.0494769
0.0494601
0.0494421
0.0494169
0.0493686
0.0493244
0.0493052
0.0492921
0.0492915
0.0492846
0.0492706
0.0492533
0.0492367
0.0492237
0.0492152
0.0492117
0.0492134
0.0492195
0.0492288
0.0492292
0.049272
0.0493045
0.049327
0.0493061
0.0492011
0.0490997
0.0490594
0.0490751
0.0491188
0.0491647
0.0491986
0.0492731
0.0493624
0.0494227
0.0494642
0.049492
0.0495074
0.0495106
0.0494994
0.0494952
0.0495073
0.0495138
0.0495101
0.0494945
0.049456
0.0493782
0.049249
0.0490729
0.0489104
0.0487908
0.0486725
0.049274
0.0493352
0.0493819
0.049429
0.0494613
0.04947
0.0494636
0.0494525
0.0494419
0.0494337
0.0494287
0.0494276
0.0494307
0.0494377
0.0494481
0.0494622
0.0494789
0.0494967
0.0495142
0.0495298
0.0495422
0.0495506
0.0495542
0.0495521
0.0495428
0.0495237
0.0494915
0.049448
0.0494142
0.0494054
0.0494021
0.0494046
0.0494211
0.0494668
0.0494973
0.0495183
0.0495313
0.0495378
0.0495399
0.0495395
0.0495379
0.0495356
0.0495329
0.0495298
0.0495262
0.0495216
0.0495154
0.0495063
0.0494933
0.0494767
0.0494582
0.0494407
0.0494226
0.049384
0.0493238
0.0493058
0.0492909
0.0492886
0.0492844
0.0492738
0.0492596
0.0492459
0.049236
0.0492319
0.0492339
0.049241
0.0492504
0.0492585
0.0492588
0.0493021
0.0493282
0.0493385
0.0493168
0.0492155
0.0491032
0.049053
0.0490647
0.049109
0.0491587
0.0491997
0.0492773
0.0493582
0.0494247
0.0494729
0.0495047
0.0495222
0.0495253
0.0495101
0.0495034
0.0495188
0.0495304
0.0495359
0.049538
0.0495297
0.0494969
0.0494207
0.0492814
0.0490909
0.048914
0.048756
0.0492554
0.0493136
0.0493618
0.0494107
0.0494452
0.0494546
0.049446
0.0494306
0.0494144
0.0494002
0.0493897
0.0493844
0.049385
0.0493914
0.049403
0.0494197
0.0494404
0.0494632
0.0494863
0.0495078
0.049526
0.0495395
0.0495475
0.0495495
0.0495445
0.0495302
0.0495037
0.0494634
0.0494169
0.0494062
0.0494024
0.0494035
0.0494567
0.0494858
0.0495124
0.0495308
0.0495412
0.0495458
0.0495467
0.0495458
0.0495439
0.0495416
0.0495388
0.0495356
0.0495319
0.049527
0.0495201
0.0495097
0.0494946
0.0494749
0.0494533
0.0494343
0.0494183
0.0493926
0.049336
0.0493085
0.0492911
0.0492873
0.0492852
0.0492778
0.0492668
0.0492565
0.0492508
0.049252
0.0492605
0.0492748
0.0492909
0.0493038
0.0493207
0.0493643
0.0493665
0.0493497
0.0493162
0.0492176
0.0491007
0.0490456
0.0490563
0.0491022
0.0491553
0.0492032
0.0492822
0.0493603
0.0494264
0.0494814
0.0495175
0.049537
0.0495397
0.0495195
0.0495092
0.0495271
0.0495416
0.0495517
0.0495635
0.0495746
0.0495772
0.0495583
0.0494942
0.049349
0.0491567
0.0489545
0.0492411
0.0492915
0.0493393
0.0493903
0.0494284
0.0494403
0.0494309
0.0494113
0.0493888
0.0493666
0.0493474
0.0493344
0.0493302
0.0493354
0.049349
0.0493693
0.049395
0.0494237
0.0494533
0.0494818
0.049507
0.0495269
0.0495406
0.0495477
0.0495481
0.0495406
0.0495222
0.0494888
0.0494364
0.0494103
0.0494071
0.0494195
0.0494719
0.0495066
0.04953
0.049544
0.0495511
0.0495535
0.0495534
0.049552
0.04955
0.0495476
0.0495449
0.0495417
0.0495379
0.0495327
0.049525
0.0495131
0.0494955
0.0494723
0.0494468
0.0494246
0.0494083
0.0493909
0.049357
0.0493116
0.0492917
0.0492874
0.049287
0.0492824
0.0492749
0.0492686
0.0492682
0.0492766
0.0492945
0.0493204
0.0493504
0.0493782
0.0494147
0.0494208
0.0493794
0.0493377
0.0492981
0.0492043
0.0490899
0.0490367
0.04905
0.0490986
0.0491542
0.0492083
0.049287
0.0493634
0.0494317
0.0494895
0.0495301
0.0495516
0.0495537
0.0495283
0.0495133
0.0495328
0.0495484
0.0495608
0.0495758
0.0495941
0.049613
0.0496281
0.0496273
0.0495786
0.0494532
0.049269
0.0492323
0.0492724
0.0493144
0.0493666
0.0494102
0.0494274
0.04942
0.0493984
0.0493709
0.0493413
0.0493118
0.0492861
0.0492703
0.0492712
0.0492899
0.0493145
0.0493451
0.0493797
0.049416
0.0494521
0.0494849
0.0495123
0.0495325
0.0495453
0.0495514
0.0495507
0.049541
0.049518
0.0494767
0.0494157
0.0494144
0.0494731
0.0495067
0.0495321
0.0495481
0.0495566
0.0495601
0.0495606
0.0495597
0.0495581
0.0495561
0.0495538
0.0495512
0.0495481
0.0495442
0.0495387
0.0495303
0.0495168
0.0494965
0.0494696
0.0494399
0.0494132
0.0493925
0.0493732
0.0493444
0.0493108
0.0492926
0.0492888
0.0492897
0.0492878
0.0492837
0.049282
0.0492878
0.0493048
0.0493334
0.0493709
0.0494103
0.0494407
0.0494489
0.0494202
0.0493576
0.0493044
0.049268
0.0491805
0.0490738
0.0490281
0.049047
0.0490984
0.0491553
0.0492143
0.0492917
0.0493682
0.0494389
0.0494986
0.0495423
0.0495658
0.0495677
0.0495375
0.0495165
0.0495374
0.0495533
0.0495659
0.0495808
0.0496001
0.0496229
0.049648
0.0496716
0.0496842
0.0496545
0.0495623
0.0492299
0.049258
0.0492922
0.0493381
0.0493874
0.0494139
0.0494126
0.0493926
0.0493636
0.0493306
0.0492956
0.0492618
0.0492352
0.0492228
0.0492343
0.0492641
0.0492966
0.0493349
0.0493761
0.0494194
0.04946
0.0494954
0.0495228
0.0495416
0.0495531
0.0495583
0.0495562
0.0495418
0.0495043
0.0494221
0.0494615
0.0495121
0.0495399
0.0495556
0.0495637
0.049567
0.0495677
0.049567
0.0495657
0.0495641
0.0495622
0.04956
0.0495575
0.0495545
0.0495507
0.0495451
0.049536
0.049521