/*--------------------------------*- C++ -*----------------------------------*\
| =========                 |                                                 |
| \\      /  F ield         | OpenFOAM: The Open Source CFD Toolbox           |
|  \\    /   O peration     | Version:  4.1                                   |
|   \\  /    A nd           | Web:      www.OpenFOAM.org                      |
|    \\/     M anipulation  |                                                 |
\*---------------------------------------------------------------------------*/
FoamFile
{
    version     2.0;
    format      ascii;
    class       surfaceScalarField;
    location    "120";
    object      phi;
}
// * * * * * * * * * * * * * * * * * * * * * * * * * * * * * * * * * * * * * //

dimensions      [0 3 -1 0 0 0 0];

internalField   nonuniform List<scalar> 
9850
(
-3.31181e-06
3.31181e-06
-3.11918e-06
-1.92626e-07
-7.23694e-07
-2.39549e-06
1.95565e-06
-2.67935e-06
4.31174e-06
-2.35608e-06
6.27027e-06
-1.95853e-06
7.82266e-06
-1.5524e-06
8.97969e-06
-1.15703e-06
9.78318e-06
-8.03493e-07
1.03026e-05
-5.19382e-07
1.0613e-05
-3.10422e-07
1.07745e-05
-1.61556e-07
1.08244e-05
-4.98357e-08
1.07843e-05
4.00561e-08
1.06442e-05
1.40076e-07
1.03648e-05
2.79495e-07
9.78582e-06
5.78932e-07
8.51806e-06
1.26776e-06
5.83995e-06
2.67811e-06
8.16917e-07
5.02303e-06
-3.92511e-06
4.74203e-06
-6.08799e-06
2.16288e-06
-8.5905e-06
2.50251e-06
-1.21905e-05
3.59997e-06
-1.51044e-05
2.91395e-06
-1.69616e-05
1.85719e-06
-1.81711e-05
1.20945e-06
-1.898e-05
8.08901e-07
-1.94812e-05
5.01228e-07
-1.96949e-05
2.13737e-07
-1.95997e-05
-9.52625e-08
-1.92069e-05
-3.92773e-07
-1.8522e-05
-6.84886e-07
-1.75486e-05
-9.73367e-07
-1.62396e-05
-1.30904e-06
-1.44878e-05
-1.75181e-06
-1.21574e-05
-2.33043e-06
-9.1382e-06
-3.01916e-06
-5.42625e-06
-3.71195e-06
-1.2555e-06
-4.17075e-06
3.2484e-06
-4.5039e-06
7.46456e-06
-4.21616e-06
1.13164e-05
-3.85181e-06
1.45823e-05
-3.26597e-06
1.69645e-05
-2.38218e-06
1.83528e-05
-1.38832e-06
1.88512e-05
-4.98409e-07
1.85887e-05
2.6253e-07
1.7678e-05
9.10685e-07
1.61489e-05
1.52918e-06
1.38509e-05
2.29798e-06
1.03071e-05
3.54376e-06
5.04606e-06
5.26104e-06
1.52962e-07
4.8931e-06
-2.25907e-06
2.41203e-06
-2.97304e-06
7.13976e-07
-2.39146e-06
-5.81583e-07
-4.19015e-07
-1.97245e-06
1.1049e-06
-1.52392e-06
-3.40651e-06
4.51141e-06
-6.35903e-06
2.95252e-06
-7.76058e-06
1.40155e-06
-8.35086e-06
5.9028e-07
-8.5913e-06
2.4044e-07
-8.57603e-06
-1.52699e-08
-8.3256e-06
-2.50431e-07
-7.74483e-06
-5.80769e-07
-6.69298e-06
-1.05185e-06
-5.05057e-06
-1.64241e-06
-2.86791e-06
-2.18266e-06
-6.98004e-07
-2.1699e-06
6.61896e-08
-7.64193e-07
-1.94016e-06
2.00635e-06
-5.6791e-06
3.73894e-06
-8.39599e-06
2.71689e-06
-9.02953e-06
6.33537e-07
-8.20985e-06
-8.19677e-07
-6.72416e-06
-1.48569e-06
-5.01328e-06
-1.71088e-06
-3.20565e-06
-1.80764e-06
-1.29385e-06
-1.9118e-06
7.70374e-07
-2.06422e-06
2.1927e-06
-1.42232e-06
3.28333e-06
-1.09063e-06
4.38775e-06
-1.10442e-06
5.60482e-06
-1.21707e-06
6.94483e-06
-1.34002e-06
8.34558e-06
-1.40074e-06
9.69717e-06
-1.35159e-06
1.08778e-05
-1.18065e-06
1.17817e-05
-9.03876e-07
1.23371e-05
-5.55363e-07
1.25168e-05
-1.79721e-07
1.23191e-05
1.97633e-07
1.17461e-05
5.73089e-07
1.07901e-05
9.55944e-07
9.41508e-06
1.37503e-06
7.50353e-06
1.91155e-06
4.67075e-06
2.83278e-06
4.67075e-06
-1.6587e-06
4.97051e-06
-1.18024e-06
-6.71084e-07
3.35052e-07
-3.91078e-06
2.25912e-06
-4.60342e-06
4.2014e-06
-4.29835e-06
5.92453e-06
-3.68166e-06
7.32715e-06
-2.95502e-06
8.37877e-06
-2.20864e-06
9.10329e-06
-1.52802e-06
9.56751e-06
-9.83596e-07
9.85024e-06
-5.93154e-07
1.00121e-05
-3.23457e-07
1.00843e-05
-1.22034e-07
1.0068e-05
5.64344e-08
9.94136e-06
2.66674e-07
9.62483e-06
5.96026e-07
8.94621e-06
1.25755e-06
7.58492e-06
2.62905e-06
5.1688e-06
5.09423e-06
1.84232e-06
8.34951e-06
-2.05779e-06
8.64214e-06
-4.91009e-06
5.01517e-06
-7.23156e-06
4.82398e-06
-1.042e-05
6.78839e-06
-1.33133e-05
5.80729e-06
-1.53524e-05
3.89623e-06
-1.6673e-05
2.53006e-06
-1.74718e-05
1.60775e-06
-1.78637e-05
8.93143e-07
-1.78983e-05
2.48357e-07
-1.7611e-05
-3.82593e-07
-1.70309e-05
-9.72919e-07
-1.62268e-05
-1.48894e-06
-1.52414e-05
-1.95879e-06
-1.40367e-05
-2.51377e-06
-1.24863e-05
-3.30218e-06
-1.04314e-05
-4.38532e-06
-7.77091e-06
-5.67966e-06
-4.58851e-06
-6.89435e-06
-1.16859e-06
-7.59067e-06
2.29024e-06
-7.96273e-06
5.79106e-06
-7.71698e-06
9.15219e-06
-7.21294e-06
1.21476e-05
-6.26139e-06
1.43952e-05
-4.62981e-06
1.57216e-05
-2.71473e-06
1.62052e-05
-9.81927e-07
1.59667e-05
5.00972e-07
1.50731e-05
1.80427e-06
1.35141e-05
3.08822e-06
1.11726e-05
4.63944e-06
7.92026e-06
6.79615e-06
4.1919e-06
8.98941e-06
9.52277e-07
8.13272e-06
-1.11285e-06
4.47716e-06
-2.1366e-06
1.73773e-06
-2.17324e-06
-5.44945e-07
-1.66094e-06
-2.48474e-06
-7.1229e-08
-3.11363e-06
-1.65318e-06
6.09336e-06
-3.7756e-06
5.07495e-06
-5.3835e-06
3.00944e-06
-6.01489e-06
1.22167e-06
-6.45863e-06
6.84175e-07
-6.7447e-06
2.70802e-07
-6.86613e-06
-1.29003e-07
-6.65744e-06
-7.89454e-07
-6.05377e-06
-1.65552e-06
-5.00337e-06
-2.69281e-06
-3.68001e-06
-3.50603e-06
-2.82774e-06
-3.02218e-06
-3.46641e-06
-1.2552e-07
-5.26626e-06
3.8062e-06
-6.91047e-06
5.38315e-06
-8.03796e-06
3.84439e-06
-8.23778e-06
8.33355e-07
-7.54452e-06
-1.51294e-06
-6.38257e-06
-2.64764e-06
-4.98766e-06
-3.10579e-06
-3.43126e-06
-3.36403e-06
-1.78569e-06
-3.55737e-06
-2.27038e-07
-3.62287e-06
1.55609e-06
-3.20545e-06
3.10827e-06
-2.64282e-06
4.44282e-06
-2.43896e-06
5.74929e-06
-2.52354e-06
7.10737e-06
-2.6981e-06
8.48865e-06
-2.78203e-06
9.80527e-06
-2.66821e-06
1.09486e-05
-2.32402e-06
1.18188e-05
-1.77399e-06
1.23443e-05
-1.0809e-06
1.24897e-05
-3.251e-07
1.22371e-05
4.5022e-07
1.15752e-05
1.23496e-06
1.04955e-05
2.03569e-06
8.96571e-06
2.90477e-06
6.88974e-06
3.98752e-06
4.01395e-06
5.70857e-06
8.68471e-06
-3.63586e-07
5.33409e-06
5.2124e-07
-1.55591e-06
1.41998e-06
-4.80952e-06
2.71613e-06
-5.89957e-06
4.16427e-06
-5.7465e-06
5.5359e-06
-5.05329e-06
6.69391e-06
-4.11303e-06
7.5555e-06
-3.07023e-06
8.11035e-06
-2.08287e-06
8.42758e-06
-1.30082e-06
8.60463e-06
-7.70203e-07
8.70921e-06
-4.28037e-07
8.76285e-06
-1.75677e-07
8.7583e-06
6.098e-08
8.62139e-06
4.03591e-07
8.2082e-06
1.00921e-06
7.37491e-06
2.09084e-06
5.97565e-06
4.0283e-06
3.94123e-06
7.12865e-06
1.62882e-06
1.06619e-05
-5.87991e-07
1.08589e-05
-2.70657e-06
7.13376e-06
-5.04435e-06
7.16176e-06
-8.11743e-06
9.86147e-06
-1.09119e-05
8.60173e-06
-1.2908e-05
5.89232e-06
-1.4184e-05
3.80607e-06
-1.49073e-05
2.33107e-06
-1.51847e-05
1.17053e-06
-1.50769e-05
1.40577e-07
-1.46364e-05
-8.23093e-07
-1.39338e-05
-1.67554e-06
-1.30915e-05
-2.33124e-06
-1.22304e-05
-2.81989e-06
-1.13177e-05
-3.42649e-06
-1.01718e-05
-4.44806e-06
-8.58718e-06
-5.96992e-06
-6.46824e-06
-7.7986e-06
-3.96988e-06
-9.39272e-06
-1.43182e-06
-1.01287e-05
1.10055e-06
-1.04951e-05
3.80496e-06
-1.04214e-05
6.53759e-06
-9.94557e-06
9.12121e-06
-8.84501e-06
1.11158e-05
-6.62444e-06
1.22215e-05
-3.82039e-06
1.25967e-05
-1.35714e-06
1.23796e-05
7.18118e-07
1.16429e-05
2.54091e-06
1.03348e-05
4.39636e-06
8.33511e-06
6.63912e-06
5.68239e-06
9.44886e-06
3.15349e-06
1.15183e-05
1.36526e-06
9.92096e-06
-2.21772e-07
6.06419e-06
-1.26158e-06
2.77753e-06
-1.59784e-06
-2.08677e-07
-1.40694e-06
-2.67564e-06
-5.26376e-07
-3.9942e-06
3.7794e-07
5.18905e-06
-2.47669e-07
5.70055e-06
-1.56699e-06
4.32876e-06
-2.97701e-06
2.63169e-06
-3.97644e-06
1.68361e-06
-4.50953e-06
8.03891e-07
-5.03145e-06
3.92915e-07
-5.3665e-06
-4.54407e-07
-5.37939e-06
-1.64263e-06
-5.06146e-06
-3.01074e-06
-4.58907e-06
-3.97842e-06
-4.50432e-06
-3.10692e-06
-5.23512e-06
6.05282e-07
-6.22141e-06
4.79248e-06
-7.00171e-06
6.16345e-06
-7.39565e-06
4.23833e-06
-7.26102e-06
6.98727e-07
-6.66674e-06
-2.10722e-06
-5.74647e-06
-3.5679e-06
-4.5743e-06
-4.27797e-06
-3.2107e-06
-4.72763e-06
-1.73443e-06
-5.03364e-06
-2.41922e-07
-5.11538e-06
1.26275e-06
-4.71012e-06
2.59347e-06
-3.97353e-06
3.82051e-06
-3.666e-06
5.08623e-06
-3.78926e-06
6.4345e-06
-4.04637e-06
7.81031e-06
-4.15783e-06
9.11156e-06
-3.96946e-06
1.02245e-05
-3.43699e-06
1.1046e-05
-2.59548e-06
1.15021e-05
-1.537e-06
1.1557e-05
-3.79963e-07
1.12007e-05
8.0655e-07
1.0442e-05
1.99358e-06
9.29115e-06
3.18658e-06
7.74783e-06
4.44809e-06
5.78027e-06
5.95508e-06
3.26611e-06
8.22272e-06
1.19508e-05
6.91191e-07
4.6429e-06
1.53247e-06
-2.39719e-06
2.27667e-06
-5.55372e-06
3.09765e-06
-6.72055e-06
4.05807e-06
-6.70691e-06
5.0561e-06
-6.05133e-06
5.95381e-06
-5.01074e-06
6.61675e-06
-3.73317e-06
6.98383e-06
-2.44995e-06
7.13049e-06
-1.44748e-06
7.19397e-06
-8.33679e-07
7.25661e-06
-4.90679e-07
7.32463e-06
-2.43697e-07
7.33636e-06
4.92517e-08
7.11015e-06
6.29796e-07
6.4887e-06
1.63067e-06
5.4129e-06
3.16664e-06
3.94774e-06
5.49346e-06
2.27013e-06
8.80626e-06
9.7457e-07
1.19575e-05
3.54191e-07
1.14793e-05
-1.01192e-06
8.49987e-06
-3.33031e-06
9.48015e-06
-6.03942e-06
1.25706e-05
-8.63251e-06
1.11948e-05
-1.0533e-05
7.79285e-06
-1.1737e-05
5.01006e-06
-1.23815e-05
2.97554e-06
-1.25544e-05
1.34338e-06
-1.23115e-05
-1.0233e-07
-1.17214e-05
-1.41313e-06
-1.08681e-05
-2.52882e-06
-9.95621e-06
-3.24317e-06
-9.23257e-06
-3.54353e-06
-8.66713e-06
-3.99193e-06
-7.99085e-06
-5.12433e-06
-6.9314e-06
-7.02937e-06
-5.40335e-06
-9.32666e-06
-3.61192e-06
-1.11841e-05
-1.82605e-06
-1.19146e-05
-3.40368e-08
-1.22871e-05
1.89721e-06
-1.23526e-05
3.93572e-06
-1.19841e-05
5.98779e-06
-1.08971e-05
7.69127e-06
-8.32792e-06
8.58169e-06
-4.71081e-06
8.87294e-06
-1.64839e-06
8.77983e-06
8.11221e-07
8.30413e-06
3.01661e-06
7.31309e-06
5.38739e-06
5.69166e-06
8.26055e-06
3.68353e-06
1.1457e-05
2.2759e-06
1.29259e-05
1.58738e-06
1.06095e-05
7.61704e-07
6.88986e-06
6.30229e-08
3.47621e-06
-3.82954e-07
2.373e-07
-7.70126e-07
-2.28847e-06
-9.2955e-07
-3.83478e-06
1.77465e-06
2.48484e-06
3.01743e-06
4.45778e-06
2.9214e-06
4.42479e-06
1.76365e-06
3.78944e-06
1.45498e-07
3.30177e-06
-1.539e-06
2.48839e-06
-2.90636e-06
1.76028e-06
-4.00892e-06
6.48152e-07
-4.53637e-06
-1.11518e-06
-4.96642e-06
-2.58069e-06
-5.12344e-06
-3.8214e-06
-5.27372e-06
-2.95665e-06
-5.61058e-06
9.4214e-07
-6.12549e-06
5.30739e-06
-6.53204e-06
6.57001e-06
-6.66389e-06
4.37018e-06
-6.44283e-06
4.77668e-07
-5.93341e-06
-2.61665e-06
-5.1871e-06
-4.31422e-06
-4.20817e-06
-5.2569e-06
-3.03054e-06
-5.90526e-06
-1.73725e-06
-6.32693e-06
-4.68178e-07
-6.38445e-06
7.36036e-07
-5.91434e-06
1.86711e-06
-5.10461e-06
2.99581e-06
-4.7947e-06
4.24335e-06
-5.03681e-06
5.59996e-06
-5.40298e-06
6.97874e-06
-5.5366e-06
8.27082e-06
-5.26155e-06
9.36348e-06
-4.52965e-06
1.01502e-05
-3.38223e-06
1.05522e-05
-1.93902e-06
1.05386e-05
-3.66364e-07
1.01098e-05
1.23539e-06
9.29238e-06
2.811e-06
8.12183e-06
4.35713e-06
6.63373e-06
5.9362e-06
4.85027e-06
7.73854e-06
2.71359e-06
1.03594e-05
1.46644e-05
1.6357e-06
3.0072e-06
2.34243e-06
-3.10392e-06
2.76641e-06
-5.97769e-06
3.15674e-06
-7.11089e-06
3.68497e-06
-7.23514e-06
4.34034e-06
-6.7067e-06
5.00094e-06
-5.67133e-06
5.49172e-06
-4.22396e-06
5.68413e-06
-2.64236e-06
5.66118e-06
-1.42454e-06
5.62994e-06
-8.02436e-07
5.67461e-06
-5.35342e-07
5.67201e-06
-2.41103e-07
5.33486e-06
3.86398e-07
4.68355e-06
1.28111e-06
3.81994e-06
2.49429e-06
2.68586e-06
4.30072e-06
1.44293e-06
6.7364e-06
4.69588e-07
9.7796e-06
3.31488e-07
1.20956e-05
7.08178e-07
1.11026e-05
-2.95781e-07
9.50382e-06
-2.33089e-06
1.15153e-05
-4.40094e-06
1.46406e-05
-6.57963e-06
1.33735e-05
-8.28378e-06
9.497e-06
-9.372e-06
6.09829e-06
-9.95374e-06
3.55729e-06
-1.00967e-05
1.48631e-06
-9.82101e-06
-3.77989e-07
-9.18563e-06
-2.04851e-06
-8.23944e-06
-3.47501e-06
-7.27044e-06
-4.21217e-06
-6.65572e-06
-4.15824e-06
-6.37271e-06
-4.27494e-06
-6.09973e-06
-5.39732e-06
-5.50687e-06
-7.62223e-06
-4.52986e-06
-1.03037e-05
-3.38249e-06
-1.23315e-05
-2.21641e-06
-1.30807e-05
-1.06825e-06
-1.34353e-05
1.41133e-07
-1.3562e-05
1.46913e-06
-1.33121e-05
2.87991e-06
-1.23079e-05
4.21952e-06
-9.66753e-06
4.98193e-06
-5.47322e-06
5.34635e-06
-2.01281e-06
5.53275e-06
6.2482e-07
5.34243e-06
3.20693e-06
4.60198e-06
6.12784e-06
3.32602e-06
9.53652e-06
2.08804e-06
1.2695e-05
1.81876e-06
1.31952e-05
1.9788e-06
1.04494e-05
1.90127e-06
6.96739e-06
1.73343e-06
3.64405e-06
1.41413e-06
5.56605e-07
8.97704e-07
-1.77204e-06
-2.61115e-08
-2.91096e-06
2.66579e-06
-2.07054e-07
4.90658e-06
2.21698e-06
5.88019e-06
3.45118e-06
5.68922e-06
3.98042e-06
4.79957e-06
4.19141e-06
3.28793e-06
4.00003e-06
1.43541e-06
3.61281e-06
-8.25817e-07
2.90937e-06
-2.96777e-06
1.02677e-06
-4.30138e-06
-1.24708e-06
-4.95458e-06
-3.1682e-06
-5.17847e-06
-2.73276e-06
-5.07472e-06
8.38391e-07
-5.37913e-06
5.6118e-06
-5.70049e-06
6.89137e-06
-5.81285e-06
4.48254e-06
-5.65737e-06
3.22179e-07
-5.28386e-06
-2.99016e-06
-4.71273e-06
-4.88535e-06
-3.92124e-06
-6.04839e-06
-2.93622e-06
-6.89028e-06
-1.86145e-06
-7.4017e-06
-8.62698e-07
-7.3832e-06
4.74878e-08
-6.82452e-06
1.01575e-06
-6.07287e-06
2.07778e-06
-5.85673e-06
3.30268e-06
-6.2617e-06
4.63688e-06
-6.73718e-06
5.98329e-06
-6.88301e-06
7.24334e-06
-6.5216e-06
8.31344e-06
-5.59974e-06
9.08188e-06
-4.15067e-06
9.45501e-06
-2.31214e-06
9.40203e-06
-3.13382e-07
8.93937e-06
1.69804e-06
8.11994e-06
3.63043e-06
7.00159e-06
5.47548e-06
5.63969e-06
7.2981e-06
4.07654e-06
9.30169e-06
2.27187e-06
1.21641e-05
1.69363e-05
2.31136e-06
6.95839e-07
2.67959e-06
-3.47215e-06
2.67671e-06
-5.97481e-06
2.71245e-06
-7.14662e-06
2.92189e-06
-7.44458e-06
3.30939e-06
-7.0942e-06
3.77254e-06
-6.13448e-06
4.12721e-06
-4.57862e-06
4.17779e-06
-2.69294e-06
3.99648e-06
-1.24323e-06
3.92445e-06
-7.3041e-07
3.6004e-06
-2.11294e-07
2.90731e-06
4.51995e-07
2.08302e-06
1.21068e-06
1.37582e-06
1.9883e-06
6.61026e-07
3.20908e-06
-1.92481e-07
5.15423e-06
-9.09249e-07
7.45317e-06
-9.99542e-07
9.86989e-06
-1.67127e-07
1.12632e-05
4.656e-07
1.04699e-05
-4.62118e-07
1.04315e-05
-1.95636e-06
1.30095e-05
-3.23148e-06
1.59157e-05
-4.77788e-06
1.49199e-05
-6.14003e-06
1.08591e-05
-7.02829e-06
6.98654e-06
-7.55154e-06
4.08054e-06
-7.75706e-06
1.69183e-06
-7.62686e-06
-5.08192e-07
-7.10695e-06
-2.56842e-06
-6.22532e-06
-4.35665e-06
-5.37621e-06
-5.06127e-06
-4.89965e-06
-4.63481e-06
-4.74021e-06
-4.43438e-06
-4.66326e-06
-5.47427e-06
-4.37395e-06
-7.91154e-06
-3.83812e-06
-1.08395e-05
-3.21819e-06
-1.29514e-05
-2.558e-06
-1.37409e-05
-1.91425e-06
-1.4079e-05
-1.30422e-06
-1.41721e-05
-6.79764e-07
-1.39365e-05
-2.58245e-08
-1.29618e-05
9.14215e-07
-1.06076e-05
1.8891e-06
-6.44811e-06
2.41928e-06
-2.54299e-06
2.82229e-06
2.21809e-07
2.76083e-06
3.26839e-06
2.2121e-06
6.67658e-06
1.41113e-06
1.03375e-05
1.17203e-06
1.29341e-05
1.94302e-06
1.24242e-05
2.7922e-06
9.60026e-06
3.38321e-06
6.37638e-06
3.81309e-06
3.21417e-06
3.98064e-06
3.89055e-07
3.78924e-06
-1.58064e-06
3.20083e-06
-2.32255e-06
4.48412e-06
-1.49034e-06
6.34103e-06
3.60072e-07
7.71797e-06
2.07423e-06
8.25102e-06
3.44736e-06
7.98898e-06
4.45346e-06
7.00863e-06
4.98038e-06
5.58352e-06
5.03792e-06
3.92133e-06
4.57157e-06
1.27611e-06
3.67199e-06
-1.76488e-06
1.79391e-06
-3.9756e-06
-9.57478e-07
-4.39619e-06
-2.31217e-06
-4.03133e-06
4.73536e-07
-4.21442e-06
5.79489e-06
-4.64124e-06
7.31819e-06
-4.8979e-06
4.7392e-06
-4.90596e-06
3.30236e-07
-4.70757e-06
-3.18854e-06
-4.31938e-06
-5.27354e-06
-3.71726e-06
-6.6505e-06
-2.93535e-06
-7.67219e-06
-2.09918e-06
-8.23788e-06
-1.36382e-06
-8.11855e-06
-7.0916e-07
-7.47919e-06
1.08048e-07
-6.89008e-06
1.1126e-06
-6.86128e-06
2.27044e-06
-7.41954e-06
3.52081e-06
-7.98755e-06
4.78209e-06
-8.14429e-06
5.97809e-06
-7.71761e-06
7.01992e-06
-6.64156e-06
7.78942e-06
-4.92018e-06
8.16576e-06
-2.68848e-06
8.10649e-06
-2.54111e-07
7.6495e-06
2.15504e-06
6.88205e-06
4.39788e-06
5.88089e-06
6.47664e-06
4.70472e-06
8.47427e-06
3.38967e-06
1.06167e-05
1.89139e-06
1.36624e-05
1.88277e-05
1.80957e-06
-1.11373e-06
2.02326e-06
-3.68585e-06
1.87663e-06
-5.82818e-06
1.76269e-06
-7.03268e-06
1.79737e-06
-7.47927e-06
1.99595e-06
-7.29278e-06
2.28044e-06
-6.41898e-06
2.50207e-06
-4.80026e-06
2.44745e-06
-2.63831e-06
2.06824e-06
-8.64022e-07
1.33934e-06
-1.50551e-09
4.32858e-07
6.95186e-07
-3.40989e-07
1.22584e-06
-8.51779e-07
1.72147e-06
-1.34347e-06
2.48e-06
-1.94399e-06
3.8096e-06
-2.44704e-06
5.65727e-06
-2.58258e-06
7.58871e-06
-2.02537e-06
9.31268e-06
-9.21126e-07
1.01589e-05
-5.8074e-07
1.01295e-05
-1.34681e-06
1.11976e-05
-2.10901e-06
1.37717e-05
-2.50805e-06
1.63148e-05
-3.26426e-06
1.56761e-05
-4.14618e-06
1.17411e-05
-4.73719e-06
7.57754e-06
-5.17927e-06
4.52262e-06
-5.50911e-06
2.02167e-06
-5.61234e-06
-4.0496e-07
-5.32339e-06
-2.85736e-06
-4.67428e-06
-5.00576e-06
-4.21579e-06
-5.51976e-06
-3.97948e-06
-4.87111e-06
-3.82131e-06
-4.59255e-06
-3.69691e-06
-5.59867e-06
-3.51658e-06
-8.09188e-06
-3.28341e-06
-1.10727e-05
-3.04425e-06
-1.31906e-05
-2.76436e-06
-1.40208e-05
-2.52967e-06
-1.43137e-05
-2.37876e-06
-1.4323e-05
-2.27424e-06
-1.4041e-05
-2.11879e-06
-1.31172e-05
-1.72592e-06
-1.10004e-05
-7.18206e-07
-7.45582e-06
4.18531e-08
-3.30305e-06
4.34078e-07
-1.70416e-07
5.25115e-07
3.17735e-06
3.44814e-07
6.85688e-06
2.85879e-07
1.03964e-05
1.15457e-06
1.20654e-05
2.73276e-06
1.0846e-05
4.15703e-06
8.17599e-06
5.3365e-06
5.19692e-06
6.30474e-06
2.24592e-06
6.93149e-06
-2.37696e-07
7.13289e-06
-1.78204e-06
7.06569e-06
-2.25534e-06
7.31027e-06
-1.73493e-06
8.19142e-06
-5.21072e-07
9.1858e-06
1.07984e-06
9.85909e-06
2.77407e-06
9.96954e-06
4.34301e-06
9.43625e-06
5.51367e-06
8.34945e-06
6.12472e-06
6.81142e-06
6.1096e-06
4.95754e-06
5.52587e-06
2.36691e-06
4.38454e-06
-1.09156e-06
2.50099e-06
-3.12166e-06
-2.8207e-07
-2.78202e-06
1.3389e-07
-2.82266e-06
5.83554e-06
-3.46061e-06
7.95614e-06
-3.96672e-06
5.24532e-06
-4.20132e-06
5.6483e-07
-4.19927e-06
-3.19058e-06
-4.0001e-06
-5.47272e-06
-3.5914e-06
-7.05919e-06
-3.02038e-06
-8.24321e-06
-2.42624e-06
-8.83202e-06
-1.93034e-06
-8.61445e-06
-1.45755e-06
-7.95197e-06
-7.93358e-07
-7.55427e-06
1.16496e-07
-7.77114e-06
1.15105e-06
-8.4541e-06
2.25614e-06
-9.09265e-06
3.38399e-06
-9.27213e-06
4.48401e-06
-8.81763e-06
5.48782e-06
-7.64537e-06
6.27478e-06
-5.70714e-06
6.68816e-06
-3.10186e-06
6.64839e-06
-2.14342e-07
6.23409e-06
2.56934e-06
5.57254e-06
5.05943e-06
4.7499e-06
7.29928e-06
3.81106e-06
9.41311e-06
2.76828e-06
1.16595e-05
1.56153e-06
1.48691e-05
2.03892e-05
5.55139e-07
-1.66887e-06
7.86254e-07
-3.91696e-06
7.16375e-07
-5.7583e-06
5.57882e-07
-6.87419e-06
4.80601e-07
-7.40198e-06
5.16376e-07
-7.32855e-06
6.16828e-07
-6.51943e-06
6.60207e-07
-4.84364e-06
4.71125e-07
-2.44923e-06
-2.5322e-07
-1.39677e-07
-1.19856e-06
9.43831e-07
-1.92779e-06
1.42442e-06
-2.51196e-06
1.81001e-06
-2.99231e-06
2.20183e-06
-3.48112e-06
2.9688e-06
-3.94708e-06
4.27555e-06
-4.16141e-06
5.87161e-06
-3.95597e-06
7.38326e-06
-3.2524e-06
8.60911e-06
-2.44555e-06
9.35209e-06
-2.31663e-06
1.00006e-05
-2.60661e-06
1.14876e-05
-2.60732e-06
1.37724e-05
-2.18582e-06
1.58933e-05
-2.09551e-06
1.55858e-05
-2.39999e-06
1.20455e-05
-2.63663e-06
7.81419e-06
-2.9866e-06
4.87258e-06
-3.44899e-06
2.48406e-06
-3.75136e-06
-1.02589e-07
-3.72511e-06
-2.88362e-06
-3.42445e-06
-5.30642e-06
-3.48925e-06
-5.45496e-06
-3.48858e-06
-4.87178e-06
-3.27357e-06
-4.80756e-06
-2.99056e-06
-5.88168e-06
-2.81198e-06
-8.27046e-06
-2.76775e-06
-1.11169e-05
-2.77356e-06
-1.31848e-05
-2.7508e-06
-1.40435e-05
-2.80285e-06
-1.42617e-05
-2.98843e-06
-1.41374e-05
-3.27602e-06
-1.37535e-05
-3.51523e-06
-1.2878e-05
-3.43238e-06
-1.10833e-05
-2.76675e-06
-8.12145e-06
-1.91034e-06
-4.15946e-06
-1.54049e-06
-5.40265e-07
-1.14406e-06
2.78092e-06
-7.39521e-07
6.45234e-06
1.96097e-07
9.4608e-06
2.10151e-06
1.016e-05
4.25924e-06
8.68832e-06
6.18121e-06
6.25402e-06
7.85226e-06
3.52586e-06
9.18728e-06
9.10899e-07
9.99307e-06
-1.04348e-06
1.02853e-05
-2.07423e-06
1.02687e-05
-2.23882e-06
1.02324e-05
-1.69855e-06
1.03753e-05
-6.63991e-07
1.07094e-05
7.45687e-07
1.10444e-05
2.4391e-06
1.11392e-05
4.24826e-06
1.07923e-05
5.86051e-06
9.93636e-06
6.98067e-06
8.605e-06
7.44096e-06
6.89519e-06
7.23567e-06
4.84003e-06
6.4397e-06
2.24669e-06
5.09433e-06
-7.54277e-07
2.7189e-06
-1.54887e-06
9.28483e-07
-1.38002e-06
5.66669e-06
-2.24878e-06
8.8249e-06
-3.05323e-06
6.04976e-06
-3.54866e-06
1.06026e-06
-3.75477e-06
-2.98447e-06
-3.74739e-06
-5.4801e-06
-3.53335e-06
-7.27324e-06
-3.17261e-06
-8.60395e-06
-2.80495e-06
-9.19968e-06
-2.50919e-06
-8.91021e-06
-2.17548e-06
-8.28568e-06
-1.64142e-06
-8.08833e-06
-8.87935e-07
-8.52462e-06
-2.11214e-08
-9.32091e-06
9.02367e-07
-1.00161e-05
1.86528e-06
-1.0235e-05
2.84036e-06
-9.79271e-06
3.78828e-06
-8.5933e-06
4.59679e-06
-6.51565e-06
5.09388e-06
-3.59895e-06
5.08024e-06
-2.007e-07
4.74296e-06
2.90661e-06
4.24184e-06
5.56055e-06
3.65298e-06
7.88814e-06
2.98785e-06
1.00782e-05
2.22432e-06
1.24231e-05
1.28436e-06
1.58091e-05
2.16735e-05
-1.28733e-07
-1.54014e-06
-1.72207e-07
-3.87349e-06
-3.94311e-07
-5.5362e-06
-6.54412e-07
-6.61408e-06
-8.34167e-07
-7.22223e-06
-9.17432e-07
-7.24528e-06
-9.61632e-07
-6.47523e-06
-1.05595e-06
-4.74932e-06
-1.32083e-06
-2.18435e-06
-1.83979e-06
3.7929e-07
-2.63105e-06
1.73508e-06
-3.42258e-06
2.21596e-06
-4.06834e-06
2.45577e-06
-4.63956e-06
2.77305e-06
-5.18566e-06
3.51491e-06
-5.59812e-06
4.68801e-06
-5.71052e-06
5.984e-06
-5.46147e-06
7.13422e-06
-4.9169e-06
8.06453e-06
-4.39264e-06
8.82783e-06
-4.15147e-06
9.75944e-06
-3.89625e-06
1.12324e-05
-3.25618e-06
1.31323e-05
-2.18474e-06
1.48219e-05
-1.32824e-06
1.47293e-05
-1.03388e-06
1.17512e-05
-9.70624e-07
7.75093e-06
-1.27674e-06
5.1787e-06
-1.81464e-06
3.02197e-06
-2.23511e-06
3.17879e-07
-2.27846e-06
-2.84027e-06
-2.47474e-06
-5.11013e-06
-2.87865e-06
-5.05105e-06
-2.90655e-06
-4.84389e-06
-2.58527e-06
-5.12884e-06
-2.21017e-06
-6.25677e-06
-2.07087e-06
-8.40976e-06
-2.16866e-06
-1.10191e-05
-2.3317e-06
-1.30218e-05
-2.46731e-06
-1.39079e-05
-2.67703e-06
-1.40519e-05
-3.03391e-06
-1.37805e-05
-3.5314e-06
-1.3256e-05
-4.02803e-06
-1.23814e-05
-4.24289e-06
-1.08684e-05
-3.88545e-06
-8.47889e-06
-2.90199e-06
-5.14292e-06
-2.3693e-06
-1.07295e-06
-1.63735e-06
2.04897e-06
-5.21598e-07
5.33659e-06
1.44943e-06
7.48977e-06
4.05445e-06
7.55494e-06
6.63083e-06
6.11194e-06
8.94249e-06
3.94237e-06
1.08803e-05
1.58808e-06
1.2184e-05
-3.92844e-07
1.27759e-05
-1.6354e-06
1.28462e-05
-2.14446e-06
1.26281e-05
-2.02079e-06
1.23247e-05
-1.3951e-06
1.20566e-05
-3.9596e-07
1.18895e-05
9.12785e-07
1.18053e-05
2.52336e-06
1.1683e-05
4.3706e-06
1.13274e-05
6.21607e-06
1.05904e-05
7.71764e-06
9.42831e-06
8.60308e-06
7.88888e-06
8.7751e-06
6.05804e-06
8.27054e-06
4.02036e-06
7.132e-06
1.5702e-06
5.16907e-06
-2.01697e-08
2.51885e-06
-1.90305e-07
5.83682e-06
-1.06365e-06
9.69824e-06
-2.18475e-06
7.17086e-06
-2.95057e-06
1.82609e-06
-3.37065e-06
-2.5644e-06
-3.55321e-06
-5.29754e-06
-3.52928e-06
-7.29716e-06
-3.3674e-06
-8.76583e-06
-3.1951e-06
-9.37198e-06
-3.05587e-06
-9.04944e-06
-2.84062e-06
-8.50093e-06
-2.43412e-06
-8.49484e-06
-1.84414e-06
-9.11459e-06
-1.16333e-06
-1.00017e-05
-4.41694e-07
-1.07378e-05
3.40518e-07
-1.10173e-05
1.17606e-06
-1.06283e-05
2.04064e-06
-9.45787e-06
2.849e-06
-7.32401e-06
3.47501e-06
-4.22497e-06
3.54015e-06
-2.65838e-07
3.31001e-06
3.13675e-06
3.01046e-06
5.86009e-06
2.68219e-06
8.21642e-06
2.29208e-06
1.04683e-05
1.78285e-06
1.29323e-05
1.06517e-06
1.65268e-05
2.27387e-05
-5.97146e-07
-9.42991e-07
-9.67551e-07
-3.50308e-06
-1.38702e-06
-5.11672e-06
-1.76169e-06
-6.23941e-06
-2.03542e-06
-6.94851e-06
-2.21408e-06
-7.06662e-06
-2.33451e-06
-6.3548e-06
-2.43674e-06
-4.6471e-06
-2.5668e-06
-2.05429e-06
-2.87128e-06
6.83765e-07
-3.54962e-06
2.41342e-06
-4.37802e-06
3.04436e-06
-5.15573e-06
3.23348e-06
-5.8776e-06
3.49491e-06
-6.52072e-06
4.15803e-06
-6.9701e-06
5.13739e-06
-7.12017e-06
6.13407e-06
-6.9608e-06
6.97485e-06
-6.57417e-06
7.6779e-06
-6.12039e-06
8.37405e-06
-5.64497e-06
9.28402e-06
-4.96591e-06
1.05533e-05
-3.89268e-06
1.20591e-05
-2.40968e-06
1.33389e-05
-1.00075e-06
1.33204e-05
-2.13606e-07
1.0964e-05
-7.76597e-09
7.54509e-06
-2.96103e-07
5.46703e-06
-7.57354e-07
3.48322e-06
-1.00136e-06
5.61886e-07
-1.10115e-06
-2.74049e-06
-1.77021e-06
-4.44106e-06
-2.08259e-06
-4.73867e-06
-1.91492e-06
-5.01157e-06
-1.49909e-06
-5.54467e-06
-1.17298e-06
-6.58289e-06
-1.16549e-06
-8.41725e-06
-1.40731e-06
-1.07773e-05
-1.69333e-06
-1.27357e-05
-1.93008e-06
-1.36711e-05
-2.20004e-06
-1.3782e-05
-2.57122e-06
-1.34093e-05
-3.05903e-06
-1.27682e-05
-3.57843e-06
-1.1862e-05
-3.91983e-06
-1.0527e-05
-3.81405e-06
-8.58467e-06
-3.05093e-06
-5.90604e-06
-1.83108e-06
-2.2928e-06
-5.85635e-07
8.03525e-07
1.33386e-06
3.41709e-06
4.05934e-06
4.76429e-06
7.04201e-06
4.57227e-06
9.83593e-06
3.31801e-06
1.21724e-05
1.60588e-06
1.37641e-05
-3.63342e-09
1.4508e-05
-1.13673e-06
1.46098e-05
-1.73714e-06
1.43131e-05
-1.84776e-06
1.38222e-05
-1.5299e-06
1.32824e-05
-8.55284e-07
1.27597e-05
1.26732e-07
1.23015e-05
1.37094e-06
1.19371e-05
2.88773e-06
1.16176e-05
4.69012e-06
1.11963e-05
6.63735e-06
1.05139e-05
8.4001e-06
9.48584e-06
9.63112e-06
8.12595e-06
1.0135e-05
6.51594e-06
9.88054e-06
4.76872e-06
8.87922e-06
2.99002e-06
6.94777e-06
1.10049e-06
4.40837e-06
9.01241e-07
6.03607e-06
-1.00915e-09
1.06005e-05
-1.40264e-06
8.57249e-06
-2.4094e-06
2.83284e-06
-3.04564e-06
-1.92815e-06
-3.4092e-06
-4.93399e-06
-3.564e-06
-7.14236e-06
-3.57945e-06
-8.75039e-06
-3.56165e-06
-9.38977e-06
-3.53476e-06
-9.07633e-06
-3.41798e-06
-8.61771e-06
-3.14022e-06
-8.7726e-06
-2.7163e-06
-9.53852e-06
-2.20479e-06
-1.05132e-05
-1.64043e-06
-1.13021e-05
-1.02973e-06
-1.1628e-05
-3.58502e-07
-1.12995e-05
3.66508e-07
-1.01829e-05
1.153e-06
-8.1105e-06
1.9117e-06
-4.98367e-06
2.26813e-06
-6.22267e-07
2.14638e-06
3.2585e-06
2.03243e-06
5.97404e-06
1.93649e-06
8.31236e-06
1.77739e-06
1.06274e-05
1.46496e-06
1.32447e-05
9.07818e-07
1.70839e-05
2.36465e-05
-9.2518e-07
-1.78107e-08
-1.60414e-06
-2.82412e-06
-2.19566e-06
-4.5252e-06
-2.67486e-06
-5.76021e-06
-3.03188e-06
-6.59149e-06
-3.28244e-06
-6.81605e-06
-3.44297e-06
-6.19427e-06
-3.51506e-06
-4.57501e-06
-3.52037e-06
-2.04898e-06
-3.62577e-06
7.89162e-07
-4.11991e-06
2.90756e-06
-4.92178e-06
3.84624e-06
-5.80321e-06
4.11491e-06
-6.65993e-06
4.35164e-06
-7.40444e-06
4.90254e-06
-7.92827e-06
5.66122e-06
-8.15771e-06
6.36351e-06
-8.09067e-06
6.90781e-06
-7.78114e-06
7.36837e-06
-7.29964e-06
7.89255e-06
-6.64602e-06
8.63041e-06
-5.72699e-06
9.63428e-06
-4.44386e-06
1.0776e-05
-2.79871e-06
1.16937e-05
-1.1384e-06
1.16601e-05
-8.58936e-08
9.91154e-06
1.44313e-07
7.31488e-06
-2.67227e-08
5.63807e-06
-2.28207e-07
3.68471e-06
-3.00311e-07
6.3399e-07
-5.66516e-07
-2.47428e-06
-9.94949e-07
-4.01263e-06
-9.13106e-07
-4.82051e-06
-5.55345e-07
-5.36933e-06
-1.66872e-07
-5.93314e-06
1.4696e-08
-6.76446e-06
-1.26894e-07
-8.27566e-06
-4.97168e-07
-1.0407e-05
-8.93167e-07
-1.23397e-05
-1.21343e-06
-1.33509e-05
-1.50748e-06
-1.34879e-05
-1.82002e-06
-1.30968e-05
-2.1601e-06
-1.24281e-05
-2.4749e-06
-1.15472e-05
-2.62119e-06
-1.03807e-05
-2.38496e-06
-8.8209e-06
-1.54159e-06
-6.74941e-06
1.05904e-07
-3.94029e-06
2.06324e-06
-1.15381e-06
4.64737e-06
8.32957e-07
7.62267e-06
1.78899e-06
1.04923e-05
1.70263e-06
1.28296e-05
9.80702e-07
1.43581e-05
7.74368e-08
1.50448e-05
-6.90329e-07
1.51062e-05
-1.19821e-06
1.47765e-05
-1.40742e-06
1.42375e-05
-1.30875e-06
1.36211e-05
-9.1347e-07
1.29958e-05
-2.29972e-07
1.24035e-05
7.19002e-07
1.1876e-05
1.89841e-06
1.14226e-05
3.34112e-06
1.10119e-05
5.10087e-06
1.05452e-05
7.10409e-06
9.89316e-06
9.0521e-06
8.97239e-06
1.05519e-05
7.78448e-06
1.13229e-05
6.40357e-06
1.12614e-05
4.95035e-06
1.03324e-05
3.54947e-06
8.34865e-06
2.08919e-06
5.86866e-06
1.64373e-06
6.48153e-06
9.68546e-07
1.12757e-05
-6.54029e-07
1.01951e-05
-1.91327e-06
4.09208e-06
-2.77545e-06
-1.06597e-06
-3.3059e-06
-4.40353e-06
-3.62295e-06
-6.82532e-06
-3.78731e-06
-8.58602e-06
-3.87822e-06
-9.29887e-06
-3.91635e-06
-9.0382e-06
-3.86702e-06
-8.66704e-06
-3.69861e-06
-8.94101e-06
-3.41979e-06
-9.81733e-06
-3.06009e-06
-1.08729e-05
-2.63886e-06
-1.17234e-05
-2.15866e-06
-1.21082e-05
-1.60985e-06
-1.18483e-05
-9.89594e-07
-1.08031e-05
-2.7539e-07
-8.8247e-06
5.16708e-07
-5.77576e-06
1.34309e-06
-1.44865e-06
1.38886e-06
3.21273e-06
1.39927e-06
5.96363e-06
1.4671e-06
8.24452e-06
1.46485e-06
1.06297e-05
1.27472e-06
1.34348e-05
8.10545e-07
1.75481e-05
2.44571e-05
-1.11155e-06
1.09374e-06
-2.06694e-06
-1.86874e-06
-2.80173e-06
-3.79041e-06
-3.3752e-06
-5.18674e-06
-3.81198e-06
-6.15471e-06
-4.13167e-06
-6.49636e-06
-4.33556e-06
-5.99039e-06
-4.40138e-06
-4.50919e-06
-4.33079e-06
-2.11957e-06
-4.26526e-06
7.23635e-07
-4.51515e-06
3.15745e-06
-5.17711e-06
4.5082e-06
-6.06136e-06
4.99916e-06
-6.98075e-06
5.27103e-06
-7.79042e-06
5.71221e-06
-8.37981e-06
6.25061e-06
-8.685e-06
6.66869e-06
-8.69495e-06
6.91776e-06
-8.43757e-06
7.11099e-06
-7.94903e-06
7.40401e-06
-7.23162e-06
7.913e-06
-6.24397e-06
8.64663e-06
-4.9401e-06
9.4721e-06
-3.34418e-06
1.00978e-05
-1.72043e-06
1.00363e-05
-6.30356e-07
8.82146e-06
-3.05595e-07
6.99012e-06
-1.8856e-07
5.52103e-06
-2.74111e-08
3.52356e-06
6.33617e-08
5.43217e-07
1.72105e-08
-2.42813e-06
1.58872e-07
-4.15429e-06
4.62194e-07
-5.12383e-06
8.26908e-07
-5.73404e-06
1.08974e-06
-6.19597e-06
1.12539e-06
-6.80011e-06
8.87535e-07
-8.0378e-06
4.61773e-07
-9.98124e-06
-8.73933e-09
-1.18692e-05
-4.12867e-07
-1.29468e-05
-7.3842e-07
-1.31624e-05
-1.01018e-06
-1.2825e-05
-1.22551e-06
-1.22127e-05
-1.33866e-06
-1.14341e-05
-1.23957e-06
-1.04798e-05
-7.83598e-07
-9.27687e-06
1.61726e-07
-7.69473e-06
1.85106e-06
-5.62963e-06
4.27034e-06
-3.57308e-06
6.93782e-06
-1.83452e-06
9.46747e-06
-7.4066e-07
1.15175e-05
-3.47417e-07
1.29087e-05
-4.10519e-07
1.36484e-05
-6.62219e-07
1.38755e-05
-9.17409e-07
1.37437e-05
-1.06647e-06
1.33862e-05
-1.04991e-06
1.29103e-05
-8.32815e-07
1.23887e-05
-3.91874e-07
1.1864e-05
2.94685e-07
1.13712e-05
1.21182e-06
1.09101e-05
2.35947e-06
1.04719e-05
3.7794e-06
1.00337e-05
5.53902e-06
9.5377e-06
7.60009e-06
8.89938e-06
9.69042e-06
8.06109e-06
1.13902e-05
7.0311e-06
1.23529e-05
5.88163e-06
1.24109e-05
4.73851e-06
1.14756e-05
3.75317e-06
9.33399e-06
2.77498e-06
6.84684e-06
2.19229e-06
7.06423e-06
1.62463e-06
1.18433e-05
1.95818e-08
1.18001e-05
-1.50044e-06
5.61211e-06
-2.54855e-06
-1.78627e-08
-3.23295e-06
-3.71914e-06
-3.69457e-06
-6.3637e-06
-3.97741e-06