/*--------------------------------*- C++ -*----------------------------------*\
| =========                 |                                                 |
| \\      /  F ield         | OpenFOAM: The Open Source CFD Toolbox           |
|  \\    /   O peration     | Version:  4.1                                   |
|   \\  /    A nd           | Web:      www.OpenFOAM.org                      |
|    \\/     M anipulation  |                                                 |
\*---------------------------------------------------------------------------*/
FoamFile
{
    version     2.0;
    format      ascii;
    class       volVectorField;
    location    "120";
    object      U;
}
// * * * * * * * * * * * * * * * * * * * * * * * * * * * * * * * * * * * * * //

dimensions      [0 1 -1 0 0 0 0];

internalField   nonuniform List<vector> 
5000
(
(-0.00329721 0.00151495 0)
(-0.00339724 -0.000756613 0)
(-0.00210588 -0.00215007 0)
(0.000857956 -0.00217015 0)
(0.00310274 -0.0017729 0)
(0.00525564 -0.00140687 0)
(0.00707017 -0.00108845 0)
(0.00845937 -0.000812127 0)
(0.00944783 -0.000580743 0)
(0.0101041 -0.000399427 0)
(0.0105076 -0.000265951 0)
(0.0107308 -0.000170045 0)
(0.0108257 -9.85302e-05 0)
(0.0108235 -4.0363e-05 0)
(0.0107309 1.13435e-05 0)
(0.01053 7.95088e-05 0)
(0.0101399 0.000225094 0)
(0.0093356 0.000590149 0)
(0.00768041 0.00145641 0)
(0.0047023 0.00317157 0)
(-0.00324733 0.00236509 0)
(-0.00497958 0.00092278 0)
(-0.00672548 0.00144688 0)
(-0.0103999 0.00218257 0)
(-0.014081 0.00167789 0)
(-0.016286 0.000949783 0)
(-0.0176936 0.000556878 0)
(-0.0186611 0.000338766 0)
(-0.0193063 0.000176094 0)
(-0.019664 2.09239e-05 0)
(-0.0197224 -0.000146626 0)
(-0.0194694 -0.0003327 0)
(-0.0189316 -0.000528889 0)
(-0.0181191 -0.000742 0)
(-0.0170039 -0.000997863 0)
(-0.0154817 -0.00132839 0)
(-0.0133911 -0.00175563 0)
(-0.0106093 -0.00227994 0)
(-0.00723081 -0.00286115 0)
(-0.00363652 -0.0033864 0)
(0.00122714 -0.00387028 0)
(0.00542959 -0.00345705 0)
(0.00931647 -0.00301238 0)
(0.0129171 -0.00248766 0)
(0.015849 -0.00186176 0)
(0.0178396 -0.00122905 0)
(0.0188417 -0.000686313 0)
(0.0189518 -0.000253602 0)
(0.0183318 0.000119777 0)
(0.017109 0.000503669 0)
(0.0152874 0.00102509 0)
(0.0126667 0.00195776 0)
(0.00831092 0.00329678 0)
(0.00151792 0.00277255 0)
(-0.00177311 0.000921242 0)
(-0.00275009 -7.70828e-05 0)
(-0.00266378 -0.000898627 0)
(-0.00188209 -0.0018409 0)
(0.00167711 -0.00102044 0)
(-0.000591817 0.00252729 0)
(-0.00565305 0.00146857 0)
(-0.00724957 0.000500439 0)
(-0.00813359 2.96672e-05 0)
(-0.0085287 -0.000186768 0)
(-0.0086563 -0.000333664 0)
(-0.00855335 -0.000487086 0)
(-0.00815522 -0.000703487 0)
(-0.00729711 -0.00102094 0)
(-0.00583848 -0.00145263 0)
(-0.00387179 -0.00193892 0)
(-0.00186191 -0.00224604 0)
(-0.000134752 -0.00165442 0)
(0.000167324 4.80257e-05 0)
(-0.00368074 0.00208502 0)
(-0.00783299 0.00168205 0)
(-0.00914808 0.000248084 0)
(-0.00872634 -0.000629249 0)
(-0.00746682 -0.00104318 0)
(-0.00586317 -0.00118856 0)
(-0.00410278 -0.00124904 0)
(-0.00227418 -0.00132128 0)
(-0.000372891 -0.00142218 0)
(0.00165323 -0.000707344 0)
(0.00278456 -0.000420646 0)
(0.00384546 -0.00047026 0)
(0.00498915 -0.00060984 0)
(0.00625948 -0.000737055 0)
(0.00763019 -0.000805388 0)
(0.00901675 -0.000794675 0)
(0.0103025 -0.000704938 0)
(0.0113697 -0.000550855 0)
(0.0121242 -0.000356093 0)
(0.012512 -0.000148603 0)
(0.0125157 5.26642e-05 0)
(0.0121375 0.000251922 0)
(0.0113803 0.000459075 0)
(0.0102308 0.00069465 0)
(0.00863395 0.0010133 0)
(0.00633828 0.0016154 0)
(0.00416123 0.00306274 0)
(-0.00245313 0.00398803 0)
(-0.00136614 3.63277e-05 0)
(-0.000458494 -0.00335449 0)
(0.00134171 -0.00386625 0)
(0.00319959 -0.00346575 0)
(0.00504286 -0.00288642 0)
(0.00664407 -0.00227411 0)
(0.00789996 -0.00167967 0)
(0.00879997 -0.00115201 0)
(0.00939229 -0.000730829 0)
(0.00975473 -0.000423077 0)
(0.00996359 -0.000204497 0)
(0.0100699 -3.93622e-05 0)
(0.0100926 0.000102749 0)
(0.0100223 0.000250994 0)
(0.0098148 0.000466879 0)
(0.0093617 0.000908733 0)
(0.00844956 0.00188557 0)
(0.00675938 0.00376286 0)
(0.00426018 0.00646871 0)
(-0.000895163 0.00664586 0)
(-0.00356423 0.00348724 0)
(-0.00557406 0.00373565 0)
(-0.00879613 0.00513588 0)
(-0.0122576 0.00426422 0)
(-0.0145891 0.00283207 0)
(-0.0161633 0.00187723 0)
(-0.0171807 0.00126075 0)
(-0.017761 0.000785978 0)
(-0.0179708 0.000345676 0)
(-0.017827 -0.000104285 0)
(-0.0173657 -0.000557982 0)
(-0.0166671 -0.00097973 0)
(-0.0157889 -0.00138944 0)
(-0.0147244 -0.00187068 0)
(-0.0133607 -0.00252052 0)
(-0.011522 -0.00338742 0)
(-0.0090821 -0.00443046 0)
(-0.00612569 -0.00547261 0)
(-0.00302092 -0.00618544 0)
(0.00062807 -0.00658995 0)
(0.00408031 -0.00621724 0)
(0.00740334 -0.00565709 0)
(0.0105987 -0.00478295 0)
(0.0133125 -0.00345854 0)
(0.0152134 -0.00196044 0)
(0.0162039 -0.000588074 0)
(0.0163308 0.000548969 0)
(0.0157241 0.00150007 0)
(0.0144912 0.0024038 0)
(0.0126086 0.00349205 0)
(0.0100037 0.00509953 0)
(0.00629641 0.00697733 0)
(0.0019155 0.00643029 0)
(-0.000474082 0.0033886 0)
(-0.00176711 0.0012708 0)
(-0.00219612 -0.000605202 0)
(-0.00185718 -0.00236495 0)
(-0.000759248 -0.00262305 0)
(0.000312858 0.0052875 0)
(-0.00338643 0.00386573 0)
(-0.00469669 0.00199607 0)
(-0.0057321 0.000961786 0)
(-0.00626684 0.000558563 0)
(-0.00665879 0.000229745 0)
(-0.00691793 -0.00013979 0)
(-0.00687341 -0.000644605 0)
(-0.00641189 -0.00135945 0)
(-0.00549357 -0.00224262 0)
(-0.00426224 -0.00301241 0)
(-0.00323545 -0.00284361 0)
(-0.00306951 -0.000519188 0)
(-0.00396101 0.00326218 0)
(-0.00591148 0.00460493 0)
(-0.00789703 0.00325372 0)
(-0.00846889 0.000743031 0)
(-0.00797147 -0.00115316 0)
(-0.00696643 -0.00208837 0)
(-0.00569418 -0.00243342 0)
(-0.00421269 -0.00260909 0)
(-0.00262173 -0.00275724 0)
(-0.00108374 -0.00284797 0)
(0.000693697 -0.00238037 0)
(0.00239283 -0.0019355 0)
(0.0037812 -0.00182933 0)
(0.00509303 -0.00190773 0)
(0.00641922 -0.00203725 0)
(0.00778753 -0.00209653 0)
(0.00914591 -0.00200852 0)
(0.0103943 -0.00174879 0)
(0.0114237 -0.00133588 0)
(0.0121442 -0.000816755 0)
(0.0125064 -0.00025193 0)
(0.0124712 0.000317933 0)
(0.0120212 0.000888613 0)
(0.0111584 0.00147135 0)
(0.0098696 0.00210733 0)
(0.00811199 0.00290959 0)
(0.00557879 0.00421551 0)
(0.00350071 0.00657163 0)
(-0.00185154 0.00537774 0)
(0.000719068 -0.00147332 0)
(0.000866076 -0.00450122 0)
(0.00203371 -0.00542166 0)
(0.00340462 -0.00519504 0)
(0.00482755 -0.00451382 0)
(0.00612152 -0.00365142 0)
(0.00716021 -0.00273847 0)
(0.00788644 -0.00189808 0)
(0.00832354 -0.00123159 0)
(0.00855724 -0.000763268 0)
(0.00868145 -0.000445048 0)
(0.00874939 -0.000205359 0)
(0.00876921 1.67437e-05 0)
(0.0087053 0.000288218 0)
(0.00844874 0.000724681 0)
(0.00786529 0.00156024 0)
(0.00682466 0.00319627 0)
(0.0052117 0.00599666 0)
(0.0031663 0.00947032 0)
(7.40013e-05 0.00989341 0)
(-0.00149274 0.00616761 0)
(-0.00326505 0.00596664 0)
(-0.00673535 0.00832104 0)
(-0.00989148 0.00713439 0)
(-0.0121566 0.00482894 0)
(-0.0136977 0.00311266 0)
(-0.0146605 0.00191662 0)
(-0.0151484 0.000978676 0)
(-0.0152262 0.000142988 0)
(-0.014913 -0.00064879 0)
(-0.0143024 -0.00137374 0)
(-0.0135064 -0.00198562 0)
(-0.012674 -0.00251951 0)
(-0.0118336 -0.00315801 0)
(-0.0108302 -0.00410052 0)
(-0.00943867 -0.00542002 0)
(-0.00751492 -0.00699193 0)
(-0.00516556 -0.00841875 0)
(-0.00273129 -0.00915309 0)
(-0.000198403 -0.00952136 0)
(0.00247837 -0.00937363 0)
(0.00510383 -0.00886454 0)
(0.00774096 -0.00780779 0)
(0.0100964 -0.00585671 0)
(0.0118113 -0.00351501 0)
(0.0126469 -0.00140434 0)
(0.0127134 0.000404873 0)
(0.0121901 0.0020331 0)
(0.0111683 0.00365533 0)
(0.00957683 0.00556939 0)
(0.0073407 0.008062 0)
(0.00436519 0.0102692 0)
(0.00181629 0.00910852 0)
(0.000345498 0.00522422 0)
(-0.000897765 0.00208441 0)
(-0.00142169 -0.000533575 0)
(-0.00136289 -0.0027464 0)
(-0.00145131 -0.00374227 0)
(0.00072241 0.00615713 0)
(-0.000239431 0.00578236 0)
(-0.000576269 0.00377979 0)
(-0.00226268 0.00155531 0)
(-0.00354687 0.000805115 0)
(-0.0042733 0.000356086 0)
(-0.00484146 -6.48347e-05 0)
(-0.00531584 -0.000798566 0)
(-0.00541938 -0.00184472 0)
(-0.00518306 -0.00304008 0)
(-0.00476088 -0.00390873 0)
(-0.0045189 -0.00311113 0)
(-0.00486106 0.000402509 0)
(-0.00557423 0.00449107 0)
(-0.00656042 0.00591113 0)
(-0.00746291 0.00410369 0)
(-0.0075428 0.00076931 0)
(-0.00699718 -0.00185822 0)
(-0.00621403 -0.0031742 0)
(-0.00518021 -0.00375919 0)
(-0.0039051 -0.00410876 0)
(-0.00247772 -0.00435707 0)
(-0.0010464 -0.00445205 0)
(0.000537368 -0.00407567 0)
(0.0019712 -0.00341405 0)
(0.00321238 -0.00312437 0)
(0.00444313 -0.00318955 0)
(0.00574364 -0.00338472 0)
(0.00710921 -0.00347888 0)
(0.00846094 -0.00333226 0)
(0.00968764 -0.00290096 0)
(0.0106774 -0.00221323 0)
(0.0113382 -0.00134585 0)
(0.0116218 -0.000396664 0)
(0.0114873 0.00057923 0)
(0.0109373 0.00156637 0)
(0.00998707 0.00256905 0)
(0.00864767 0.00364092 0)
(0.00693477 0.00493783 0)
(0.00453073 0.00691591 0)
(0.00283969 0.0102059 0)
(-0.00108525 0.00541389 0)
(0.00182631 -0.00196706 0)
(0.00198578 -0.00525491 0)
(0.002631 -0.00641721 0)
(0.00352234 -0.0063477 0)
(0.00452097 -0.00565977 0)
(0.00549529 -0.00464504 0)
(0.00630884 -0.00346521 0)
(0.00685323 -0.00232117 0)
(0.0071164 -0.00142162 0)
(0.00720115 -0.000833744 0)
(0.00724014 -0.000470792 0)
(0.00729238 -0.000208286 0)
(0.00733885 5.95931e-05 0)
(0.00724627 0.000454057 0)
(0.00683642 0.00118123 0)
(0.00600274 0.00247774 0)
(0.00476563 0.0046621 0)
(0.00323767 0.00798657 0)
(0.0017268 0.0115339 0)
(0.000300041 0.0114969 0)
(1.57431e-06 0.0079757 0)
(-0.00169034 0.00822513 0)
(-0.004892 0.0112442 0)
(-0.00764196 0.00990239 0)
(-0.00981226 0.0068235 0)
(-0.0112823 0.00438989 0)
(-0.0121781 0.00264637 0)
(-0.0125795 0.00126835 0)
(-0.012537 5.20302e-05 0)
(-0.0120617 -0.00107927 0)
(-0.0112815 -0.00206198 0)
(-0.0103481 -0.00276188 0)
(-0.00955604 -0.00321393 0)
(-0.00898494 -0.00380915 0)
(-0.00840929 -0.00493295 0)
(-0.00752237 -0.00666866 0)
(-0.00615092 -0.00874708 0)
(-0.00445323 -0.0104928 0)
(-0.00271721 -0.0112221 0)
(-0.000967834 -0.0115872 0)
(0.00093203 -0.0116123 0)
(0.00285853 -0.0111991 0)
(0.00484135 -0.0100937 0)
(0.00670619 -0.00765205 0)
(0.00827784 -0.00443817 0)
(0.00897544 -0.00159637 0)
(0.00902835 0.000736818 0)
(0.00868761 0.00277927 0)
(0.00797618 0.00488548 0)
(0.00672673 0.00744823 0)
(0.00488317 0.010537 0)
(0.00275875 0.0124577 0)
(0.00165385 0.0104542 0)
(0.00102575 0.00659286 0)
(0.000313833 0.00316437 0)
(-0.000190284 -6.35702e-05 0)
(-0.00042468 -0.00256924 0)
(-0.0012957 -0.00390089 0)
(0.000325187 0.0046991 0)
(0.00222709 0.00568797 0)
(0.0030872 0.00486084 0)
(0.00259835 0.00358637 0)
(0.00126588 0.00266254 0)
(-0.000832345 0.00140411 0)
(-0.00242492 0.00071679 0)
(-0.00356065 -0.000246543 0)
(-0.00431507 -0.00151273 0)
(-0.00474027 -0.00297605 0)
(-0.00502636 -0.00399546 0)
(-0.00517256 -0.00297726 0)
(-0.0054301 0.000929365 0)
(-0.00581811 0.00515744 0)
(-0.00636616 0.00645725 0)
(-0.00678525 0.0043669 0)
(-0.00667869 0.00060092 0)
(-0.00618805 -0.0023924 0)
(-0.00556859 -0.0039902 0)
(-0.00472354 -0.0048213 0)
(-0.00363623 -0.00537263 0)
(-0.00238632 -0.00574567 0)
(-0.00111968 -0.00583665 0)
(0.00012744 -0.00541439 0)
(0.00133166 -0.00461483 0)
(0.00243403 -0.00427266 0)
(0.00360321 -0.00442972 0)
(0.00489988 -0.0047351 0)
(0.00627409 -0.0048611 0)
(0.00762412 -0.00463333 0)
(0.00883611 -0.00400355 0)
(0.00979881 -0.00301177 0)
(0.0104161 -0.00176516 0)
(0.0106446 -0.000402904 0)
(0.0104371 0.000989836 0)
(0.00981691 0.00237423 0)
(0.00882045 0.00375055 0)
(0.00748639 0.00518066 0)
(0.00589301 0.00684764 0)
(0.00370448 0.00930622 0)
(0.00234274 0.0133333 0)
(-2.01721e-05 0.00421116 0)
(0.00251244 -0.00257255 0)
(0.0027192 -0.00576517 0)
(0.00291244 -0.00696823 0)
(0.00334941 -0.00704009 0)
(0.00395884 -0.00644884 0)
(0.00464015 -0.00540423 0)
(0.00525294 -0.00403596 0)
(0.00564405 -0.00260608 0)
(0.00575007 -0.00149381 0)
(0.00568996 -0.000859719 0)
(0.00565553 -0.000540572 0)
(0.00569733 -0.000338837 0)
(0.00556445 -1.46821e-05 0)
(0.00499254 0.000751338 0)
(0.00417427 0.00196787 0)
(0.00325723 0.00368279 0)
(0.00208724 0.00617227 0)
(0.000951335 0.00954509 0)
(0.000321384 0.0123968 0)
(0.000390543 0.011519 0)
(0.000701423 0.00895628 0)
(-0.00105964 0.0104688 0)
(-0.00349309 0.0136876 0)
(-0.00569586 0.0123553 0)
(-0.00764153 0.0086609 0)
(-0.00895823 0.00553904 0)
(-0.00977375 0.00322272 0)
(-0.0101382 0.00134984 0)
(-0.0100653 -0.000295443 0)
(-0.0095473 -0.00178273 0)
(-0.00867315 -0.00302646 0)
(-0.00763747 -0.00374137 0)
(-0.00688756 -0.00387725 0)
(-0.00652708 -0.00417996 0)
(-0.00631397 -0.00533515 0)
(-0.00586884 -0.00742108 0)
(-0.0049895 -0.00993594 0)
(-0.00390811 -0.0119012 0)
(-0.00280575 -0.0126358 0)
(-0.00162623 -0.0129978 0)
(-0.000488428 -0.0131173 0)
(0.000774194 -0.012835 0)
(0.00204507 -0.011798 0)
(0.00328282 -0.00915759 0)
(0.00474778 -0.00515991 0)
(0.00540573 -0.00184766 0)
(0.00561328 0.000734815 0)
(0.00557124 0.00312262 0)
(0.00514518 0.00576438 0)
(0.00415382 0.00895944 0)
(0.00273718 0.0122876 0)
(0.00167349 0.013361 0)
(0.00174904 0.0107226 0)
(0.00182393 0.00707317 0)
(0.00177672 0.00366937 0)
(0.00168491 0.000492978 0)
(0.00135669 -0.00196466 0)
(0.000342057 -0.00337019 0)
(0.000551076 0.00081158 0)
(0.0036415 0.0035932 0)
(0.005506 0.00428707 0)
(0.00602134 0.00422477 0)
(0.00544969 0.00399878 0)
(0.00415878 0.00347042 0)
(0.00244578 0.00287035 0)
(0.000481616 0.00181655 0)
(-0.00233738 -0.000776595 0)
(-0.00366138 -0.00238927 0)
(-0.00466181 -0.00362266 0)
(-0.00504406 -0.0028284 0)
(-0.00506663 0.0010001 0)
(-0.00525176 0.00551903 0)
(-0.00563517 0.0067426 0)
(-0.00590678 0.00442706 0)
(-0.00579896 0.000380013 0)
(-0.00544705 -0.00284446 0)
(-0.00500911 -0.00464883 0)
(-0.00434639 -0.00570423 0)
(-0.00344582 -0.0064536 0)
(-0.00239585 -0.0069322 0)
(-0.00135423 -0.00696612 0)
(-0.000434949 -0.00645773 0)
(0.000536598 -0.00563996 0)
(0.0015476 -0.00535542 0)
(0.00267422 -0.00567016 0)
(0.00394779 -0.0060947 0)
(0.00529194 -0.00623963 0)
(0.00660775 -0.0059224 0)
(0.00779056 -0.00509334 0)
(0.00873371 -0.00379402 0)
(0.00933059 -0.00215706 0)
(0.00953668 -0.000375077 0)
(0.00928945 0.00143092 0)
(0.00864323 0.00319422 0)
(0.00766279 0.00490404 0)
(0.00640538 0.00662175 0)
(0.00499136 0.00854436 0)
(0.00304855 0.0113117 0)
(0.0019639 0.0158804 0)
(0.00132983 0.00232996 0)
(0.00270636 -0.0030735 0)
(0.00277884 -0.00591965 0)
(0.00265222 -0.00713202 0)
(0.0027442 -0.00736569 0)
(0.0030512 -0.00693988 0)
(0.00349092 -0.00595144 0)
(0.00392996 -0.00445897 0)
(0.00420728 -0.00274481 0)
(0.00420347 -0.00142526 0)
(0.00400405 -0.000847723 0)
(0.00388828 -0.000648585 0)
(0.00334212 -0.00015571 0)
(0.00238876 0.000805343 0)
(0.00167416 0.00173034 0)
(0.000945905 0.00293221 0)
(0.000257662 0.00490897 0)
(-0.000568842 0.00736897 0)
(-0.000989366 0.0101366 0)
(-0.000647546 0.0119116 0)
(0.000313592 0.0107264 0)
(0.000382116 0.00987457 0)
(-0.00113256 0.0123485 0)
(-0.00263898 0.0154464 0)
(-0.00411112 0.0142929 0)
(-0.00564051 0.0102468 0)
(-0.00667918 0.00656756 0)
(-0.0073713 0.00379826 0)
(-0.00775609 0.00152857 0)
(-0.00779282 -0.000507651 0)
(-0.00741422 -0.00238695 0)
(-0.00658738 -0.00398789 0)
(-0.00565527 -0.0047255 0)
(-0.0050827 -0.00444623 0)
(-0.0048239 -0.00434312 0)
(-0.00476799 -0.00541162 0)
(-0.00457942 -0.00777516 0)
(-0.00405837 -0.0106312 0)
(-0.00348884 -0.0127301 0)
(-0.00289506 -0.0135002 0)
(-0.00221372 -0.0138526 0)
(-0.00159988 -0.0139709 0)
(-0.0010134 -0.0137535 0)
(-0.000420281 -0.012796 0)
(0.00020221 -0.0102499 0)
(0.00142435 -0.00580872 0)
(0.00238187 -0.00222834 0)
(0.00278061 0.0004255 0)
(0.00292585 0.00321361 0)
(0.00264671 0.00644533 0)
(0.00191121 0.0101044 0)
(0.00115647 0.0131232 0)
(0.00132134 0.0130769 0)
(0.0022859 0.010199 0)
(0.00300179 0.00682955 0)
(0.00358647 0.0035711 0)
(0.00405026 0.000612499 0)
(0.00407842 -0.00156103 0)
(0.00365331 -0.00252615 0)
(0.00380237 -0.00139471 0)
(0.00510933 0.000942452 0)
(0.00700226 0.00271306 0)
(0.00815011 0.00381904 0)
(0.00831403 0.00447931 0)
(0.00766512 0.00466277 0)
(0.00639125 0.00446483 0)
(0.00470335 0.0038665 0)
(0.0029955 0.00285729 0)
(-0.000324475 0.000207781 0)
(-0.00331004 -0.00264266 0)
(-0.00420019 -0.0025735 0)
(-0.00409328 0.000723113 0)
(-0.00418952 0.00574415 0)
(-0.00456356 0.00707208 0)
(-0.00490082 0.00456968 0)
(-0.00492262 0.000284748 0)
(-0.00477264 -0.00313332 0)
(-0.00452837 -0.00512677 0)
(-0.00404918 -0.00639891 0)
(-0.00334046 -0.00733631 0)
(-0.00250975 -0.00788624 0)
(-0.00172286 -0.00782219 0)
(-0.00105311 -0.00720896 0)
(-0.000336764 -0.00652546 0)
(0.000608202 -0.00638691 0)
(0.00168221 -0.00687924 0)
(0.00287709 -0.00740547 0)
(0.00412765 -0.00755838 0)
(0.00536478 -0.00716113 0)
(0.00649726 -0.00615594 0)
(0.007427 -0.00456596 0)
(0.00803144 -0.00253405 0)
(0.00825442 -0.000319931 0)
(0.00800495 0.00188994 0)
(0.00737513 0.00399368 0)
(0.00646856 0.00597645 0)
(0.00535304 0.00790724 0)
(0.0041696 0.00999918 0)
(0.00249191 0.0129723 0)
(0.00165976 0.017962 0)
(0.00157272 -0.00106236 0)
(0.00193204 -0.00383118 0)
(0.00196557 -0.00594211 0)
(0.00178101 -0.00710119 0)
(0.00171847 -0.00748141 0)
(0.00183337 -0.00722651 0)
(0.00207811 -0.00632355 0)
(0.00234191 -0.00474904 0)
(0.00251251 -0.0027477 0)
(0.00244953 -0.00119729 0)
(0.0019869 -0.000602063 0)
(0.000783368 0.000301726 0)
(-6.19009e-07 0.00102657 0)
(-0.000615458 0.00158261 0)
(-0.00116581 0.00230328 0)
(-0.00175086 0.00361263 0)
(-0.00220359 0.00555023 0)
(-0.00255322 0.00767746 0)
(-0.00234769 0.00969822 0)
(-0.00145217 0.0106662 0)
(-0.000553064 0.010178 0)
(-0.000813088 0.0108832 0)
(-0.00174804 0.0135739 0)
(-0.00230311 0.0163347 0)
(-0.00291298 0.0155104 0)
(-0.00384696 0.0114341 0)
(-0.00448568 0.00737399 0)
(-0.00498829 0.00434083 0)
(-0.00542735 0.00183835 0)
(-0.00565489 -0.000531521 0)
(-0.0055093 -0.00279084 0)
(-0.00484246 -0.00476866 0)
(-0.00432149 -0.00541447 0)
(-0.00411814 -0.00480993 0)
(-0.00392753 -0.00448082 0)
(-0.00380536 -0.00545867 0)
(-0.00364007 -0.00796424 0)
(-0.00333155 -0.0109811 0)
(-0.00313176 -0.0131202 0)
(-0.00290524 -0.0139329 0)
(-0.00261601 -0.0142533 0)
(-0.00242923 -0.0143098 0)
(-0.00233759 -0.0140491 0)
(-0.002306 -0.0130745 0)
(-0.00213299 -0.010832 0)
(-0.00143511 -0.00707184 0)
(-0.000167208 -0.0028424 0)
(0.000302038 7.95738e-05 0)
(0.000600008 0.00337963 0)
(0.000514355 0.00699616 0)
(0.000252501 0.0106755 0)
(0.000492002 0.0128383 0)
(0.00179332 0.0118467 0)
(0.00338959 0.00905377 0)
(0.00469805 0.00594555 0)
(0.00585795 0.00287666 0)
(0.00680986 0.00018931 0)
(0.00721111 -0.001602 0)
(0.00721876 -0.00224677 0)
(0.00723373 -0.00166682 0)
(0.00760249 -0.000350623 0)
(0.0085561 0.00136881 0)
(0.00956954 0.00304317 0)
(0.0100596 0.00442542 0)
(0.0098611 0.00531958 0)
(0.00901649 0.00566542 0)
(0.00764921 0.0054378 0)
(0.00596199 0.00469737 0)
(0.00388819 0.00343362 0)
(0.000796358 0.0010185 0)
(-0.00273737 -0.00179538 0)
(-0.00279488 0.000283964 0)
(-0.00284925 0.00585876 0)
(-0.0032992 0.00758748 0)
(-0.0038356 0.00493323 0)
(-0.00407799 0.000397465 0)
(-0.0041661 -0.00323269 0)
(-0.00411895 -0.00541797 0)
(-0.00382654 -0.00690192 0)
(-0.00331625 -0.00801071 0)
(-0.00271477 -0.00859572 0)
(-0.00217656 -0.0084232 0)
(-0.00171247 -0.00775378 0)
(-0.00115407 -0.00725382 0)
(-0.000361097 -0.00734566 0)
(0.000629178 -0.0079925 0)
(0.00169161 -0.00860075 0)
(0.00278889 -0.00876325 0)
(0.00390692 -0.00831514 0)
(0.00496482 -0.00718147 0)
(0.00588109 -0.0053444 0)
(0.00651842 -0.0029299 0)
(0.00679752 -0.000270625 0)
(0.00658047 0.00232666 0)
(0.00600625 0.00471995 0)
(0.00523082 0.00690695 0)
(0.00431867 0.00898357 0)
(0.00341007 0.011191 0)
(0.0020093 0.0143267 0)
(0.00141062 0.019679 0)
(0.000541206 -0.00149231 0)
(0.000696031 -0.00391431 0)
(0.000763901 -0.00585631 0)
(0.000606401 -0.0069872 0)
(0.000470559 -0.00746834 0)
(0.000451085 -0.00734571 0)
(0.000523277 -0.0065157 0)
(0.000596893 -0.00487127 0)
(0.000621269 -0.00255972 0)
(0.000457189 -0.000410792 0)
(-0.000783442 0.000642208 0)
(-0.00156019 0.00115331 0)
(-0.00222944 0.00156363 0)
(-0.00277497 0.00197543 0)
(-0.00330344 0.00273427 0)
(-0.00380493 0.00407891 0)
(-0.00409426 0.0058079 0)
(-0.00410375 0.00750584 0)
(-0.00361965 0.0089146 0)
(-0.00277686 0.00964657 0)
(-0.00227483 0.0100751 0)
(-0.00244693 0.0115117 0)
(-0.0026662 0.013985 0)
(-0.00238349 0.0163265 0)
(-0.00211086 0.0158752 0)
(-0.00234045 0.0120846 0)
(-0.0025012 0.00784647 0)
(-0.00277544 0.00479768 0)
(-0.00328938 0.00231174 0)
(-0.00367322 -0.000258339 0)
(-0.00375806 -0.00290014 0)
(-0.00332305 -0.00521174 0)
(-0.00343333 -0.0055417 0)
(-0.00358434 -0.00486885 0)
(-0.00344463 -0.00465971 0)
(-0.00316244 -0.00569106 0)
(-0.00288676 -0.00816715 0)
(-0.00270574 -0.0111166 0)
(-0.00274316 -0.013216 0)
(-0.00275709 -0.0140582 0)
(-0.00274068 -0.0143103 0)
(-0.00285994 -0.0142497 0)
(-0.00313021 -0.0139107 0)
(-0.00348011 -0.0129918 0)
(-0.00364288 -0.0110027 0)
(-0.00327213 -0.0076958 0)
(-0.00231571 -0.00352207 0)
(-0.00166861 -0.000171363 0)
(-0.0012069 0.00329955 0)
(-0.000895685 0.00697507 0)
(-0.000414888 0.0102694 0)
(0.000961561 0.0114058 0)
(0.00309085 0.0099452 0)
(0.0051824 0.00737388 0)
(0.00701378 0.0045004 0)
(0.00865341 0.00167089 0)
(0.00980175 -0.000599469 0)
(0.0103006 -0.0019259 0)
(0.0103695 -0.002268 0)
(0.0102807 -0.0017702 0)
(0.0102779 -0.000717029 0)
(0.0104462 0.00073658 0)
(0.0108415 0.00247125 0)
(0.011158 0.00423359 0)
(0.011088 0.00568462 0)
(0.0104924 0.00658259 0)
(0.00937597 0.00681554 0)
(0.00783875 0.00642239 0)
(0.00595729 0.00548177 0)
(0.00371774 0.00401226 0)
(0.000593149 0.00125321 0)
(-0.00153553 0.000267022 0)
(-0.00140312 0.00582564 0)
(-0.00195818 0.00834151 0)
(-0.0027683 0.00558546 0)
(-0.00328396 0.00076195 0)
(-0.00362452 -0.00312724 0)
(-0.0037745 -0.00551751 0)
(-0.0036703 -0.00720998 0)
(-0.00336104 -0.00847251 0)
(-0.00298358 -0.00906745 0)
(-0.00266357 -0.00880494 0)
(-0.00236628 -0.0081487 0)
(-0.00192971 -0.00785156 0)
(-0.00127205 -0.00818856 0)
(-0.000476191 -0.00892723 0)
(0.000435339 -0.00961991 0)
(0.00134737 -0.00981346 0)
(0.00231719 -0.00935456 0)
(0.00327324 -0.00815402 0)
(0.00416277 -0.0061364 0)
(0.00484967 -0.00337483 0)
(0.0052289 -0.000251474 0)
(0.00506939 0.00271188 0)
(0.00458478 0.00532537 0)
(0.00399845 0.00763878 0)
(0.00334175 0.00980511 0)
(0.00273332 0.0121041 0)
(0.00160223 0.0154002 0)
(0.00120826 0.0210943 0)
(-7.49004e-05 -0.00164657 0)
(-0.0001409 -0.00396855 0)
(-0.000297701 -0.00569514 0)
(-0.000564594 -0.00676622 0)
(-0.000796178 -0.00732296 0)
(-0.000931602 -0.00729348 0)
(-0.00100301 -0.00649507 0)
(-0.0010715 -0.00476895 0)
(-0.00113837 -0.00224411 0)
(-0.00136928 0.000190424 0)
(-0.00215899 0.0013715 0)
(-0.00303744 0.00183855 0)
(-0.0037565 0.00212317 0)
(-0.00437775 0.0024702 0)
(-0.00497693 0.00324255 0)
(-0.00547368 0.00449851 0)
(-0.00570882 0.00593831 0)
(-0.00562422 0.00724689 0)
(-0.00518937 0.00829681 0)
(-0.00461583 0.00907785 0)
(-0.00425818 0.00997953 0)
(-0.00406911 0.0115299 0)
(-0.00364956 0.0136328 0)
(-0.00272317 0.015537 0)
(-0.00169863 0.0153805 0)
(-0.00121388 0.01211 0)
(-0.000914264 0.0079308 0)
(-0.00102917 0.00513037 0)
(-0.00161059 0.00285687 0)
(-0.00209293 0.00019522 0)
(-0.00217591 -0.00276389 0)
(-0.00215613 -0.00522458 0)
(-0.00277586 -0.00521567 0)
(-0.00301888 -0.00480492 0)
(-0.0028165 -0.00493891 0)
(-0.00240481 -0.0060843 0)
(-0.00208295 -0.00837684 0)
(-0.00203331 -0.0111013 0)
(-0.00222705 -0.0131255 0)
(-0.00239467 -0.0139887 0)
(-0.00254122 -0.0141566 0)
(-0.00282 -0.0139435 0)
(-0.00327083 -0.013474 0)
(-0.003835 -0.012581 0)
(-0.00425466 -0.0108924 0)
(-0.0041753 -0.00813805 0)
(-0.00348886 -0.00443237 0)
(-0.00262306 -0.000685451 0)
(-0.00194009 0.00274817 0)
(-0.00118388 0.00620442 0)
(0.000301017 0.00885619 0)
(0.00260748 0.00907084 0)
(0.00528262 0.00754053 0)
(0.00778681 0.00520629 0)
(0.0100055 0.00260001 0)
(0.0117667 0.000219532 0)
(0.0126772 -0.00140596 0)
(0.0129363 -0.00217886 0)
(0.0128065 -0.00219683 0)
(0.0124984 -0.00161672 0)
(0.0121891 -0.000616783 0)
(0.0119283 0.000715798 0)
(0.011796 0.0023659 0)
(0.0117535 0.00422712 0)
(0.0115828 0.00600108 0)
(0.0110706 0.00734661 0)
(0.0101212 0.00803775 0)
(0.00875446 0.00802927 0)
(0.00705073 0.0073847 0)
(0.00508098 0.0061624 0)
(0.00286358 0.00414002 0)
(0.000477086 0.00138626 0)
(-0.000194415 0.0057584 0)
(-0.000624812 0.00930304 0)
(-0.00173547 0.00655483 0)
(-0.00255379 0.00139706 0)
(-0.00314474 -0.0028091 0)
(-0.0034895 -0.00542527 0)
(-0.00357041 -0.00732481 0)
(-0.00345724 -0.0087278 0)
(-0.0032831 -0.00932626 0)
(-0.0031384 -0.0090099 0)
(-0.0029721 -0.0084178 0)
(-0.00265555 -0.00832342 0)
(-0.00214649 -0.00886379 0)
(-0.00151232 -0.00970818 0)
(-0.000822732 -0.010416 0)
(-8.54101e-05 -0.0106793 0)
(0.000724833 -0.0102567 0)
(0.00155304 -0.00905396 0)
(0.00238914 -0.00692837 0)
(0.00312253 -0.0038884 0)
(0.00364987 -0.000231362 0)
(0.00360799 0.00304661 0)
(0.00323672 0.00576904 0)
(0.00288004 0.00812496 0)
(0.00249816 0.0103463 0)
(0.00217789 0.0127434 0)
(0.00128136 0.0162249 0)
(0.00104834 0.0222607 0)
(-0.000549545 -0.00138725 0)
(-0.000782555 -0.00373953 0)
(-0.00121542 -0.00535364 0)
(-0.00161992 -0.00644183 0)
(-0.00194891 -0.00709465 0)
(-0.00217872 -0.00715845 0)
(-0.00233883 -0.00640266 0)
(-0.00245213 -0.00466013 0)
(-0.0024881 -0.00205745 0)
(-0.00255687 0.000590244 0)
(-0.0030726 0.00209941 0)
(-0.00394889 0.00262764 0)
(-0.00477301 0.00282475 0)
(-0.00554167 0.00311606 0)
(-0.00626119 0.0038343 0)
(-0.0068223 0.00491919 0)
(-0.00710556 0.00606199 0)
(-0.00708134 0.0070514 0)
(-0.00678453 0.00787307 0)
(-0.00635733 0.00864188 0)
(-0.00591733 0.00961469 0)
(-0.00537117 0.0110083 0)
(-0.00450515 0.0127063 0)
(-0.0031742 0.0141851 0)
(-0.00164427 0.014169 0)
(-0.000562866 0.0115162 0)
(4.27839e-05 0.00772327 0)
(-5.17515e-05 0.00539533 0)
(-0.000592775 0.00336499 0)
(-0.000964342 0.000607717 0)
(-0.000800871 -0.00272636 0)
(-0.00144493 -0.00475524 0)
(-0.00206599 -0.00482922 0)
(-0.00209532 -0.00488498 0)
(-0.00174262 -0.00534851 0)
(-0.00131417 -0.00647126 0)
(-0.00109451 -0.00846942 0)
(-0.0012104 -0.0109414 0)
(-0.00153149 -0.0129056 0)
(-0.00181347 -0.0138021 0)
(-0.00205052 -0.0139121 0)
(-0.00236657 -0.0135694 0)
(-0.00281013 -0.0129661 0)
(-0.0033553 -0.012061 0)
(-0.00382215 -0.0106202 0)
(-0.00392626 -0.00839985 0)
(-0.00348919 -0.00524405 0)
(-0.0025498 -0.00116691 0)
(-0.00133746 0.00195892 0)
(0.000248654 0.00491851 0)
(0.00252903 0.00643901 0)
(0.00543928 0.00623382 0)
(0.00843197 0.00481767 0)
(0.0111087 0.0027872 0)
(0.0132031 0.000694555 0)
(0.0143523 -0.000887982 0)
(0.0147035 -0.00179854 0)
(0.0145461 -0.00208376 0)
(0.0141073 -0.00184181 0)
(0.0135635 -0.00117969 0)
(0.0130235 -0.000185139 0)
(0.0124998 0.00108595 0)
(0.0120729 0.0026435 0)
(0.0117643 0.00447478 0)
(0.0114526 0.00639152 0)
(0.0109457 0.00804721 0)
(0.0101045 0.00912417 0)
(0.00889876 0.0094749 0)
(0.00738772 0.00910496 0)
(0.00566525 0.00804589 0)
(0.00382923 0.00611607 0)
(0.00200373 0.00360729 0)
(0.000833024 0.00577253 0)
(0.000532971 0.0102107 0)
(-0.000741672 0.00780627 0)
(-0.0019087 0.00228876 0)
(-0.00272535 -0.00227948 0)
(-0.00325903 -0.00514755 0)
(-0.00351595 -0.0072547 0)
(-0.00358543 -0.00879362 0)
(-0.00358199 -0.00940934 0)
(-0.00356474 -0.00908123 0)
(-0.00349588 -0.00857779 0)
(-0.00329314 -0.00866285 0)
(-0.00293688 -0.00936549 0)
(-0.00247216 -0.0102976 0)
(-0.00194273 -0.011055 0)
(-0.00136538 -0.0113512 0)
(-0.000736141 -0.0109985 0)
(-4.69755e-05 -0.00986061 0)
(0.000712623 -0.00770562 0)
(0.00147003 -0.00450486 0)
(0.00219082 -0.000233759 0)
(0.00242949 0.00329131 0)
(0.00213777 0.00600646 0)
(0.0020031 0.0083475 0)
(0.00186307 0.0106201 0)
(0.0017766 0.0131466 0)
(0.00105537 0.0168518 0)
(0.000927305 0.0232358 0)
(-0.000771844 -0.000461096 0)
(-0.00129063 -0.00320238 0)
(-0.00196054 -0.00484287 0)
(-0.00248649 -0.00601502 0)
(-0.00290272 -0.00678151 0)
(-0.00321009 -0.00694741 0)
(-0.00342806 -0.00626954 0)
(-0.00355246 -0.00458843 0)
(-0.00353947 -0.00200901 0)
(-0.003454 0.00079254 0)
(-0.0037034 0.00270444 0)
(-0.00446137 0.00345597 0)
(-0.00535223 0.00366288 0)
(-0.00625356 0.00390962 0)
(-0.00709147 0.0045232 0)
(-0.00774179 0.00539454 0)
(-0.00810991 0.00624261 0)
(-0.00817678 0.00693741 0)
(-0.00797578 0.00753089 0)
(-0.00757994 0.00816307 0)
(-0.00702551 0.00900479 0)
(-0.00625448 0.0101422 0)
(-0.00515721 0.0114527 0)
(-0.00365481 0.012536 0)
(-0.00191252 0.0125217 0)
(-0.000499286 0.0104807 0)
(0.000186808 0.00744307 0)
(0.000117423 0.00560436 0)
(-0.000178048 0.00366236 0)
(-0.000233062 0.000621232 0)
(-0.00036704 -0.00264787 0)
(-0.000871099 -0.00415696 0)
(-0.00101903 -0.00473926 0)
(-0.000757176 -0.00519799 0)
(-0.000353828 -0.00577381 0)
(-3.87018e-05 -0.00671131 0)
(1.00252e-05 -0.00838356 0)
(-0.000251297 -0.0106304 0)
(-0.000675649 -0.0125688 0)
(-0.00106167 -0.0135302 0)
(-0.00136554 -0.0136382 0)
(-0.00166902 -0.0132395 0)
(-0.00200623 -0.0125697 0)
(-0.00235566 -0.0116734 0)
(-0.00260598 -0.010451 0)
(-0.00257587 -0.00879222 0)
(-0.00209584 -0.00659931 0)
(-0.000677558 -0.00344429 0)
(0.00102595 6.36462e-05 0)
(0.00314284 0.00236699 0)
(0.00597559 0.00331646 0)
(0.00903568 0.00303755 0)
(0.0117814 0.00193491 0)
(0.0138082 0.000557508 0)
(0.0148947 -0.000581076 0)
(0.0152097 -0.00131827 0)
(0.0150236 -0.00165259 0)
(0.0145491 -0.00161201 0)
(0.0139434 -0.00123003 0)
(0.0133184 -0.000542806 0)
(0.0126895 0.000426343 0)
(0.0121127 0.00163198 0)
(0.0116167 0.00310034 0)
(0.0112043 0.00487234 0)
(0.0108096 0.00684882 0)
(0.0102931 0.00871526 0)
(0.00952538 0.0100959 0)
(0.00846146 0.0107486 0)
(0.00714839 0.0106048 0)
(0.00568112 0.00965359 0)
(0.00418096 0.00771168 0)
(0.00283511 0.00521195 0)
(0.0017843 0.00616669 0)
(0.00137707 0.0109463 0)
(0.000154054 0.00936408 0)
(-0.00134004 0.00342935 0)
(-0.00235552 -0.0015366 0)
(-0.00307664 -0.00469643 0)
(-0.00349588 -0.00701398 0)
(-0.00372774 -0.00869577 0)
(-0.00385572 -0.00936095 0)
(-0.00391574 -0.00906366 0)
(-0.00390469 -0.00865186 0)
(-0.00379214 -0.0088786 0)
(-0.00356851 -0.00970883 0)
(-0.00325302 -0.0107257 0)
(-0.00286906 -0.0115427 0)