/*--------------------------------*- C++ -*----------------------------------*\
| =========                 |                                                 |
| \\      /  F ield         | OpenFOAM: The Open Source CFD Toolbox           |
|  \\    /   O peration     | Version:  4.1                                   |
|   \\  /    A nd           | Web:      www.OpenFOAM.org                      |
|    \\/     M anipulation  |                                                 |
\*---------------------------------------------------------------------------*/
FoamFile
{
    version     2.0;
    format      ascii;
    class       volScalarField;
    location    "1520";
    object      mag(U);
}
// * * * * * * * * * * * * * * * * * * * * * * * * * * * * * * * * * * * * * //

dimensions      [0 1 -1 0 0 0 0];

internalField   nonuniform List<scalar> 
5000
(
0.0040571
0.00418783
0.00421361
0.0035945
0.00271304
0.00175996
0.00152298
0.00242238
0.00343467
0.00425278
0.00479243
0.00509681
0.00524009
0.00528288
0.00526267
0.00520125
0.00511757
0.00502899
0.00495095
0.00489791
0.00488173
0.00491513
0.00501135
0.00518028
0.00542831
0.00575868
0.00617145
0.00666367
0.00722975
0.00786187
0.00855058
0.00928536
0.0100552
0.0108492
0.011657
0.0124688
0.0132762
0.014072
0.0148502
0.0156059
0.0163357
0.017037
0.017708
0.0183477
0.0189557
0.0195316
0.0200754
0.0205869
0.0210656
0.0215108
0.0219209
0.022294
0.0226272
0.0229171
0.0231599
0.0233511
0.0234869
0.0235644
0.0235851
0.0235489
0.0234546
0.0233019
0.0230912
0.0228235
0.0225006
0.0221253
0.0217015
0.0212342
0.0207288
0.0201911
0.0196273
0.0190428
0.0184428
0.0178314
0.0172119
0.0165859
0.015954
0.0153158
0.0146707
0.0140178
0.013354
0.0126627
0.0118886
0.0108958
0.00940883
0.00781268
0.00273195
0.00427518
0.00644677
0.0067422
0.00647903
0.00617622
0.00579125
0.00527919
0.00457643
0.00360527
0.00252348
0.00202467
0.00188574
0.00257657
0.00531066
0.0028838
0.00294511
0.0027367
0.00238553
0.00224215
0.00258371
0.00267559
0.00292348
0.00337253
0.00375752
0.00400968
0.00415423
0.00422878
0.00426304
0.00427871
0.00428914
0.004307
0.00434304
0.00440692
0.00450921
0.00465621
0.00485436
0.00511128
0.00543411
0.00582836
0.00629708
0.00684029
0.00745472
0.00813414
0.00887001
0.00965223
0.01047
0.0113126
0.0121695
0.0130316
0.0138905
0.0147391
0.015572
0.0163844
0.0171732
0.017936
0.0186714
0.0193785
0.0200573
0.0207077
0.0213302
0.0219252
0.022493
0.0230337
0.023547
0.0240322
0.0244881
0.0249131
0.0253047
0.02566
0.0259748
0.0262437
0.0264566
0.0266038
0.0266773
0.026674
0.026593
0.0264342
0.0261991
0.025891
0.0255147
0.0250764
0.024583
0.0240422
0.0234616
0.0228488
0.0222104
0.0215525
0.0208798
0.0201955
0.0195018
0.0187991
0.0180862
0.0173586
0.016606
0.0158067
0.0149231
0.0139198
0.012886
0.0123415
0.0109093
0.00867353
0.00608131
0.0030486
0.00475074
0.00513519
0.00489158
0.0045691
0.00423074
0.00383057
0.00351187
0.00331582
0.00260453
0.00299
0.00702489
0.00227169
0.00220518
0.00248232
0.00273193
0.00313921
0.00356253
0.00338531
0.00293751
0.00280869
0.00286997
0.00295555
0.00301029
0.00303071
0.00302762
0.00301347
0.00299814
0.00299173
0.00300091
0.00303638
0.0031098
0.00323595
0.00342896
0.00370108
0.0040612
0.0045134
0.00505636
0.00568387
0.00638599
0.00715056
0.00796447
0.00881469
0.00968888
0.0105758
0.0114656
0.0123496
0.0132209
0.0140737
0.0149034
0.0157069
0.0164819
0.017227
0.0179417
0.0186261
0.0192805
0.0199058
0.0205031
0.0210733
0.0216175
0.0221364
0.0226304
0.0230997
0.0235441
0.0239629
0.0243547
0.0247177
0.0250492
0.0253456
0.0256029
0.0258164
0.0259788
0.0260787
0.0261096
0.0260674
0.0259487
0.0257529
0.0254814
0.0251381
0.0247285
0.0242597
0.0237395
0.0231761
0.0225776
0.0219516
0.0213045
0.0206417
0.019967
0.0192824
0.0185871
0.0178776
0.0171476
0.0163924
0.0156214
0.0148926
0.014414
0.0146588
0.0147823
0.014053
0.0124578
0.00954211
0.00597586
0.000866438
0.0032771
0.00381485
0.00399747
0.00422899
0.00460795
0.00495757
0.00423984
0.00218813
0.00836893
0.00232023
0.00181004
0.00239138
0.00311309
0.00383088
0.00427068
0.00399627
0.00310254
0.0023861
0.00201351
0.00184942
0.00176767
0.0017071
0.00164557
0.00157976
0.00151931
0.00147156
0.00145034
0.00147345
0.00156382
0.00174645
0.00203735
0.00244093
0.0029539
0.00356749
0.00426913
0.00504398
0.00587636
0.00675098
0.00765374
0.00857206
0.00949506
0.0104135
0.0113195
0.0122069
0.0130705
0.0139064
0.0147118
0.0154847
0.016224
0.0169294
0.0176011
0.0182398
0.0188466
0.0194227
0.0199697
0.0204888
0.0209816
0.021449
0.021892
0.0223112
0.0227068
0.0230788
0.0234268
0.0237497
0.0240464
0.0243149
0.0245531
0.0247582
0.024929
0.0250582
0.0251361
0.025155
0.0251077
0.0249891
0.0247962
0.0245291
0.0241904
0.0237849
0.0233195
0.022802
0.0222411
0.0216452
0.0210225
0.0203799
0.0197234
0.0190568
0.0183824
0.0177006
0.0170128
0.0163283
0.0156795
0.0151484
0.014917
0.0153527
0.0160942
0.0164171
0.0159846
0.0144557
0.0120626
0.00879725
0.00500193
0.000841823
0.00299576
0.00390068
0.0048873
0.00578914
0.00535572
0.00229053
0.00937374
0.00254547
0.00157702
0.00238106
0.00344416
0.00435662
0.00479325
0.00446761
0.00335244
0.00217698
0.00134898
0.000841142
0.000544897
0.000382102
0.000291768
0.000242001
0.000193239
0.00012212
7.75968e-05
0.000243396
0.000520556
0.000901729
0.00138623
0.0019735
0.00265781
0.00342759
0.00426705
0.00515874
0.00608568
0.00703262
0.00798659
0.00893688
0.00987487
0.0107937
0.0116878
0.0125532
0.0133865
0.0141855
0.0149487
0.0156753
0.0163651
0.0170184
0.017636
0.018219
0.0187688
0.019287
0.0197752
0.0202349
0.0206677
0.0210747
0.0214569
0.0218152
0.0221499
0.0224614
0.0227494
0.0230139
0.0232543
0.0234699
0.0236601
0.0238238
0.0239604
0.0240698
0.0241446
0.0241775
0.0241607
0.0240857
0.0239464
0.0237386
0.0234612
0.0231155
0.0227059
0.0222387
0.0217215
0.0211629
0.0205717
0.0199561
0.0193234
0.0186801
0.0180312
0.0173816
0.0167384
0.0161175
0.0155553
0.0151244
0.014958
0.015321
0.016153
0.0169726
0.0173438
0.0169208
0.0156735
0.0135463
0.0107034
0.00724414
0.00379223
0.00221654
0.0037241
0.00536404
0.006076
0.00612302
0.0101996
0.00286576
0.00145356
0.00238263
0.00368888
0.00474437
0.00518748
0.00477441
0.00362275
0.00222569
0.00117425
0.000650461
0.000612252
0.000772051
0.000906883
0.000970568
0.000964199
0.000899013
0.000792682
0.000707111
0.000764202
0.00106363
0.00157269
0.00223884
0.00302297
0.00389396
0.00482437
0.00579044
0.00677256
0.00775523
0.00872664
0.00967804
0.0106031
0.0114972
0.0123573
0.0131811
0.0139672
0.0147149
0.0154237
0.0160939
0.0167258
0.0173204
0.0178789
0.0184024
0.0188926
0.0193511
0.0197795
0.0201792
0.0205519
0.0208985
0.0212201
0.0215174
0.0217909
0.0220408
0.0222672
0.0224702
0.0226497
0.0228057
0.0229383
0.0230476
0.023134
0.0231989
0.0232398
0.0232526
0.0232312
0.0231677
0.0230545
0.0228849
0.0226545
0.0223611
0.0220058
0.021592
0.0211256
0.0206139
0.0200654
0.0194884
0.0188915
0.0182825
0.0176689
0.0170588
0.0164626
0.0158982
0.0153983
0.0150198
0.0148538
0.0150721
0.0157371
0.0166353
0.0174341
0.0177865
0.0174848
0.016392
0.0145287
0.0119595
0.00903142
0.00627879
0.00141919
0.00352951
0.00553995
0.00754152
0.0109301
0.00326402
0.0014459
0.00236775
0.0038476
0.00502437
0.00549313
0.00502688
0.0038016
0.00241765
0.00151123
0.0012887
0.00139951
0.0015248
0.00157432
0.00155289
0.00147308
0.00135363
0.00122528
0.00114303
0.00120769
0.00152909
0.00210603
0.0028626
0.00374494
0.00470543
0.00570814
0.00672592
0.00773873
0.00873234
0.00969707
0.0106267
0.0115176
0.0123677
0.0131763
0.0139431
0.0146687
0.0153535
0.0159985
0.0166047
0.017173
0.0177048
0.0182013
0.0186641
0.0190945
0.0194941
0.0198644
0.0202068
0.0205223
0.0208121
0.021077
0.0213173
0.0215336
0.021726
0.0218947
0.0220397
0.0221612
0.0222597
0.0223357
0.0223899
0.0224234
0.0224378
0.0224331
0.0224084
0.0223605
0.0222841
0.0221728
0.0220195
0.0218181
0.0215641
0.0212553
0.0208923
0.0204783
0.0200187
0.0195206
0.018992
0.0184414
0.0178774
0.0173089
0.0167456
0.0161995
0.0156881
0.0152386
0.0148929
0.0147112
0.0147953
0.0152287
0.015976
0.0168756
0.0176581
0.0180525
0.0178244
0.0168387
0.0150732
0.0126903
0.00997556
0.00724308
0.00373604
0.00419735
0.00755712
0.0116058
0.00372916
0.00156445
0.00233347
0.00393344
0.00522508
0.00574038
0.00525272
0.00398775
0.00263165
0.00187593
0.00175547
0.00183617
0.00188234
0.00186125
0.00178728
0.00168252
0.0015666
0.00146618
0.00143739
0.00159981
0.00207496
0.00280562
0.00369252
0.00468357
0.00572757
0.00678811
0.00783914
0.00886265
0.0098469
0.0107851
0.0116739
0.0125127
0.0133023
0.0140443
0.0147409
0.0153943
0.0160065
0.0165796
0.0171154
0.0176154
0.0180812
0.0185143
0.0189161
0.0192878
0.0196307
0.0199461
0.0202349
0.020498
0.020736
0.0209495
0.0211386
0.0213035
0.0214443
0.021561
0.0216537
0.0217228
0.0217689
0.021793
0.0217962
0.0217802
0.0217459
0.021695
0.0216281
0.0215446
0.0214423
0.0213171
0.0211635
0.0209752
0.0207468
0.020474
0.0201549
0.0197901
0.0193827
0.0189379
0.0184626
0.0179646
0.0174524
0.0169354
0.0164236
0.0159293
0.0154682
0.015062
0.014741
0.0145436
0.0145276
0.0147594
0.0152807
0.0160723
0.0169973
0.017812
0.0182206
0.0179672
0.0169075
0.0150596
0.0125945
0.0097862
0.00688988
0.00406722
0.00585553
0.0122551
0.00425698
0.00181436
0.00229393
0.00396385
0.00537168
0.005956
0.00547316
0.00417799
0.00282675
0.00212905
0.00200819
0.00203178
0.00202142
0.00196583
0.00188414
0.0017918
0.00169999
0.00163579
0.00168934
0.00203244
0.00275372
0.00365816
0.00467926
0.00576826
0.00687937
0.00797956
0.00904536
0.0100612
0.0110181
0.0119122
0.0127434
0.0135143
0.0142286
0.0148906
0.0155049
0.0160755
0.0166062
0.0171001
0.0175597
0.0179874
0.0183848
0.0187534
0.0190946
0.0194092
0.0196983
0.0199626
0.0202025
0.0204186
0.0206109
0.0207795
0.0209241
0.0210446
0.0211407
0.0212124
0.0212597
0.021283
0.0212832
0.0212616
0.0212196
0.0211597
0.0210816
0.0209882
0.020881
0.0207612
0.0206291
0.0204829
0.0203194
0.0201335
0.0199199
0.0196735
0.0193904
0.0190693
0.0187109
0.0183184
0.017897
0.0174536
0.0169958
0.0165326
0.0160738
0.0156305
0.0152164
0.0148483
0.0145476
0.0143387
0.0142539
0.0143376
0.0146482
0.0152452
0.0161173
0.0171108
0.0179321
0.0182465
0.0177948
0.016475
0.0143569
0.0116338
0.00854362
0.00508127
0.00369046
0.0129006
0.00484592
0.00218716
0.00227384
0.0039547
0.00548213
0.0061581
0.0057028
0.00437961
0.00299998
0.00230175
0.00215138
0.0021303
0.00209296
0.00203236
0.00195829
0.0018748
0.00179104
0.00176776
0.00198042
0.00262837
0.00359915
0.00464702
0.00577755
0.00694126
0.00809885
0.00922018
0.0102834
0.0112749
0.0121881
0.0130221
0.0137804
0.0144688
0.0150941
0.0156638
0.0161846
0.0166629
0.0171038
0.0175118
0.0178902
0.0182418
0.0185685
0.0188719
0.0191529
0.0194123
0.0196504
0.0198675
0.0200635
0.0202382
0.0203911
0.0205216
0.020629
0.0207127
0.0207719
0.0208063
0.0208159
0.020801
0.0207628
0.0207026
0.0206225
0.0205251
0.0204093
0.0202789
0.0201363
0.0199838
0.0198235
0.0196559
0.0194795
0.0192911
0.0190861
0.0188593
0.0186059
0.0183228
0.018009
0.0176657
0.0172963
0.0169063
0.0165023
0.0160923
0.0156849
0.0152901
0.0149191
0.0145846
0.0143013
0.0140848
0.0139532
0.0139345
0.0140809
0.0144789
0.0152011
0.0162013
0.0172461
0.0179736
0.0180364
0.0172265
0.0155208
0.0130517
0.0100318
0.00655484
0.00263881
0.0135573
0.00548981
0.00265866
0.00230178
0.00391546
0.00556384
0.00635278
0.00594488
0.00459352
0.00315958
0.00243772
0.00226087
0.00221734
0.00217182
0.0021096
0.00202745
0.00192285
0.00183316
0.00191973
0.00245015
0.00347297
0.00457217
0.00573341
0.00694106
0.00815514
0.00933974
0.0104652
0.0115099
0.0124614
0.0133154
0.0140743
0.0147452
0.0153374
0.0158613
0.0163273
0.0167448
0.0171221
0.0174661
0.0177822
0.0180749
0.0183471
0.0186012
0.0188385
0.0190597
0.0192653
0.019455
0.0196283
0.0197847
0.019923
0.0200422
0.0201411
0.0202183
0.0202724
0.0203025
0.0203078
0.0202879
0.0202432
0.0201747
0.0200839
0.0199736
0.0198454
0.0196985
0.0195377
0.0193666
0.0191877
0.0190046
0.0188193
0.0186321
0.0184414
0.0182434
0.0180333
0.0178059
0.0175569
0.0172837
0.0169859
0.0166654
0.0163259
0.0159731
0.0156136
0.0152547
0.0149049
0.0145729
0.0142681
0.0140004
0.0137791
0.0136149
0.0135252
0.0135523
0.0137832
0.0143317
0.0152426
0.0163733
0.0173849
0.017877
0.0175536
0.0163107
0.0142307
0.0115217
0.00834709
0.00472151
0.0142315
0.00617589
0.00320562
0.002391
0.00384042
0.00561109
0.00653339
0.00619092
0.00481081
0.00330284
0.00255454
0.0023678
0.00231606
0.00226462
0.00218445
0.00206203
0.001914
0.00186548
0.00224438
0.00325729
0.00445824
0.0056418
0.00687521
0.00813127
0.0093744
0.0105685
0.011682
0.0126927
0.0135887
0.0143685
0.0150378
0.0156077
0.0160914
0.0165029
0.0168556
0.0171616
0.017431
0.0176723
0.0178921
0.0180955
0.0182859
0.0184658
0.0186364
0.0187981
0.0189507
0.0190936
0.0192256
0.0193453
0.0194511
0.0195411
0.0196134
0.0196661
0.0196973
0.0197054
0.0196892
0.0196479
0.0195818
0.0194915
0.0193789
0.0192472
0.019094
0.018925
0.0187427
0.0185505
0.0183531
0.0181546
0.0179584
0.0177661
0.0175771
0.0173885
0.0171959
0.0169938
0.0167771
0.016542
0.0162867
0.0160118
0.0157197
0.0154147
0.0151022
0.0147884
0.0144798
0.0141833
0.0139052
0.0136517
0.0134283
0.0132405
0.0131001
0.0130408
0.013142
0.0135322
0.0143187
0.015453
0.0166549
0.0175074
0.0176473
0.0169009
0.0153086
0.013077
0.0104138
0.00723934
0.0149209
0.00688357
0.00379477
0.00252665
0.00370623
0.00560586
0.00668183
0.00642168
0.00501277
0.00341312
0.00264409
0.00246485
0.0024131
0.00234528
0.00222207
0.00204048
0.00188537
0.00203836
0.00293373
0.0043081
0.00552002
0.00676363
0.00803745
0.00931854
0.010572
0.0117589
0.0128446
0.0138054
0.0146306
0.0153213
0.0158874
0.0163441
0.0167089
0.0169993
0.0172317
0.0174204
0.0175776
0.017713
0.0178341
0.0179465
0.018054
0.018159
0.0182624
0.0183645
0.0184646
0.0185613
0.0186529
0.0187374
0.0188124
0.0188756
0.0189245
0.0189565
0.0189695
0.0189611
0.0189299
0.0188746
0.0187949
0.0186915
0.018566
0.0184214
0.0182535
0.01807
0.0178743
0.0176704
0.0174638
0.0172594
0.0170616
0.0168726
0.0166927
0.0165194
0.0163483
0.0161736
0.0159898
0.015792
0.0155774
0.0153455
0.0150977
0.0148372
0.0145684
0.0142961
0.0140256
0.0137616
0.0135083
0.013269
0.0130458
0.0128412
0.012663
0.0125391
0.0125414
0.0128013
0.0134654
0.0145676
0.015903
0.0170662
0.0176472
0.0174117
0.0163594
0.0146849
0.012594
0.00983528
0.0156149
0.00758347
0.00438678
0.00268784
0.00348285
0.00552507
0.0067724
0.00660971
0.00517367
0.00346496
0.00268567
0.00252965
0.00247816
0.0023795
0.00220171
0.00199561
0.00198149
0.0025569
0.00403995
0.00537517
0.00663337
0.00790436
0.009193
0.010479
0.0117253
0.0128883
0.0139296
0.0148243
0.0155633
0.016151
0.0166019
0.0169357
0.0171739
0.0173378
0.0174463
0.0175159
0.0175601
0.0175894
0.0176122
0.0176341
0.0176591
0.0176895
0.0177259
0.0177683
0.0178153
0.0178652
0.0179157
0.0179643
0.0180082
0.0180445
0.0180706
0.0180835
0.0180805
0.0180593
0.0180177
0.0179542
0.0178679
0.0177591
0.0176296
0.0174788
0.0173058
0.017118
0.0169196
0.0167147
0.0165098
0.0163108
0.0161224
0.0159475
0.0157863
0.0156365
0.0154934
0.0153507
0.0152023
0.0150427
0.0148683
0.0146778
0.0144719
0.0142531
0.0140249
0.0137913
0.0135563
0.013323
0.0130936
0.0128691
0.0126491
0.0124333
0.0122267
0.0120526
0.0119776
0.0121338
0.0126946
0.0137606
0.0152036
0.016645
0.0176428
0.0179094
0.0174008
0.0162806
0.014706
0.0122221
0.0162963
0.00824047
0.00494153
0.0028541
0.00313518
0.00534882
0.00677767
0.00672329
0.0052647
0.00342991
0.00265638
0.00253783
0.00248319
0.00234744
0.00214289
0.00203748
0.00239052
0.00357222
0.00518194
0.00649337
0.00776377
0.00903602
0.0103185
0.0115914
0.0128133
0.0139352
0.0149152
0.0157276
0.0163657
0.0168381
0.0171641
0.0173684
0.0174765
0.0175128
0.0174983
0.0174511
0.0173853
0.0173122
0.01724
0.0171744
0.0171192
0.0170764
0.0170464
0.0170287
0.0170215
0.0170228
0.0170299
0.0170399
0.01705
0.0170571
0.0170585
0.0170512
0.0170324
0.0169994
0.01695
0.0168821
0.0167944
0.0166865
0.0165606
0.0164096
0.0162426
0.0160616
0.015871
0.0156768
0.0154862
0.0153054
0.0151393
0.0149909
0.01486
0.0147439
0.014637
0.0145325
0.0144236
0.0143042
0.0141705
0.0140207
0.0138551
0.0136757
0.0134858
0.0132885
0.013087
0.0128833
0.012678
0.0124699
0.0122566
0.0120353
0.0118079
0.0115944
0.0114572
0.0115305
0.0120105
0.0130534
0.0145987
0.0162975
0.0176834
0.0184207
0.01842
0.0177992
0.0166418
0.0142951
0.0169436
0.00881811
0.00540801
0.00298968
0.00262614
0.00507383
0.00667655
0.00673087
0.00525596
0.00327945
0.0025395
0.00247386
0.00241519
0.00225903
0.00211852
0.00230796
0.00319334
0.00485379
0.00631611
0.00762608
0.00888294
0.0101344
0.0113925
0.0126354
0.013816
0.0148795
0.015781
0.0164954
0.0170192
0.0173664
0.0175617
0.0176341
0.0176132
0.0175256
0.0173939
0.0172367
0.0170684
0.0168999
0.016739
0.0165911
0.0164595
0.0163458
0.0162503
0.0161718
0.0161088
0.0160587
0.0160188
0.0159863
0.0159584
0.0159322
0.0159051
0.0158744
0.0158375
0.0157918
0.0157347
0.015664
0.015578
0.0154759
0.0153587
0.0152181
0.0150643
0.0148995
0.0147283
0.0145577
0.0143949
0.0142463
0.0141168
0.0140086
0.0139208
0.0138493
0.0137877
0.0137282
0.0136634
0.0135871
0.0134951
0.0133857
0.0132592
0.0131176
0.012964
0.0128013
0.0126321
0.0124575
0.012277
0.0120877
0.0118852
0.0116642
0.011424
0.0111805
0.0109931
0.0109993
0.0114186
0.0124569
0.0141095
0.0160497
0.0177885
0.018948
0.0193959
0.0191993
0.0183608
0.016051
0.0175308
0.00928761
0.00572769
0.00303935
0.00195249
0.0047362
0.00646657
0.00660375
0.00511636
0.00298395
0.00233264
0.00233919
0.00228462
0.00216244
0.00223633
0.00287671
0.00438832
0.00606595
0.0074708
0.00874852
0.00996737
0.0111783
0.0123955
0.0135925
0.0147151
0.0157028
0.0165089
0.0171106
0.0175094
0.0177251
0.0177878
0.0177312
0.0175875
0.017385
0.0171465
0.0168904
0.0166303
0.0163762
0.016135
0.0159114
0.0157082
0.0155265
0.0153664
0.0152268
0.0151059
0.0150015
0.0149109
0.0148316
0.0147611
0.0146969
0.0146369
0.0145787
0.0145201
0.0144585
0.0143916
0.0143172
0.0142332
0.014139
0.0140332
0.0139091
0.0137767
0.0136384
0.0134986
0.0133648
0.0132443
0.013143
0.0130651
0.0130114
0.0129795
0.0129637
0.0129561
0.0129482
0.012932
0.0129013
0.012852
0.0127828
0.0126944
0.0125892
0.0124703
0.0123408
0.012203
0.0120576
0.0119031
0.0117355
0.0115484
0.0113344
0.0110897
0.0108265
0.0106006
0.0105531
0.010928
0.0119785
0.0137442
0.0159083
0.0179581
0.0194815
0.0203094
0.0204597
0.0198561
0.0175156
0.0180212
0.00963726
0.00585097
0.00283385
0.00135459
0.00444109
0.00617534
0.00632843
0.00481098
0.00251652
0.00206476
0.00215833
0.00212693
0.00213784
0.00257307
0.0037453
0.00567991
0.00725781
0.00861757
0.00983732
0.0109955
0.012149
0.0133107
0.0144468
0.0154948
0.0163894
0.0170842
0.0175607
0.0178269
0.0179089
0.0178425
0.0176648
0.0174099
0.017106
0.0167752
0.0164343
0.0160954
0.015767
0.0154548
0.0151626
0.0148927
0.0146461
0.0144229
0.0142221
0.0140422
0.0138813
0.0137373
0.0136081
0.0134916
0.0133859
0.0132891
0.0131994
0.0131147
0.013033
0.0129522
0.0128703
0.0127857
0.0126982
0.0126036
0.0125006
0.0123964
0.0122935
0.0121967
0.0121135
0.0120501
0.0120117
0.0120003
0.0120149
0.0120508
0.0121002
0.0121539
0.0122027
0.0122382
0.0122545
0.0122483
0.0122188
0.0121675
0.0120973
0.0120117
0.0119144
0.0118075
0.0116917
0.0115648
0.0114219
0.0112553
0.0110555
0.010816
0.0105449
0.010294
0.0102068
0.0105502
0.0116237
0.013502
0.015866
0.0181794
0.0200046
0.0211445
0.0215716
0.021135
0.0187237
0.018314
0.00995248
0.00576874
0.00227474
0.00155877
0.00435807
0.00586694
0.00592036
0.00430397
0.00189209
0.00182957
0.00197883
0.00199566
0.00226348
0.00312174
0.00489792
0.00688689
0.00843334
0.00972974
0.0108693
0.0119484
0.013031
0.0141249
0.0151861
0.016143
0.0169276
0.0174965
0.0178382
0.0179683
0.0179198
0.0177331
0.0174476
0.0170973
0.016709
0.0163025
0.0158923
0.0154882
0.0150967
0.0147225
0.0143685
0.014037
0.0137289
0.0134448
0.013184
0.0129457
0.0127285
0.012531
0.0123514
0.012188
0.0120394
0.0119037
0.0117794
0.0116646
0.0115577
0.0114569
0.0113612
0.0112699
0.0111847
0.0110983
0.011019
0.0109478
0.0108882
0.0108458
0.0108266
0.0108353
0.0108745
0.0109435
0.0110381
0.0111511
0.0112725
0.0113921
0.0114998
0.0115881
0.0116514
0.0116875
0.0116966
0.011681
0.0116443
0.011591
0.0115249
0.0114488
0.0113631
0.0112657
0.011151
0.0110104
0.0108328
0.0106091
0.0103438
0.010084
0.00997289
0.0102963
0.0113954
0.0133745
0.015906
0.0184321
0.020499
0.0218894
0.022534
0.0222134
0.0197135
0.0180957
0.0101539
0.00561965
0.00229247
0.00263665
0.00469579
0.00571476
0.00540567
0.00359831
0.0013202
0.00178834
0.00184341
0.0019534
0.00257977
0.00384658
0.00612076
0.00805846
0.00957483
0.010786
0.0118252
0.012812
0.0138142
0.0148302
0.0158024
0.0166516
0.01731
0.0177408
0.0179419
0.0179376
0.0177674
0.0174745
0.0170986
0.0166719
0.0162177
0.0157526
0.0152878
0.014831
0.0143867
0.0139584
0.0135491
0.0131612
0.0127961
0.0124549
0.0121377
0.0118442
0.0115737
0.0113255
0.0110981
0.01089
0.0106996
0.010525
0.0103644
0.010216
0.0100781
0.00994977
0.00983144
0.00972469
0.0096333
0.00955328
0.00949493
0.00945991
0.00945202
0.00947568
0.00953423
0.00962902
0.00975876
0.00991891
0.0101017
0.0102969
0.0104929
0.0106787
0.0108447
0.0109839
0.0110923
0.0111686
0.0112142
0.0112326
0.0112283
0.0112063
0.011171
0.0111256
0.0110711
0.0110052
0.0109225
0.0108135
0.0106664
0.01047
0.0102256
0.00997507
0.00985843
0.010172
0.011291
0.0133469
0.0160053
0.0186927
0.0209473
0.0225367
0.0233523
0.023113
0.0205253
0.0171796
0.0100009
0.00561548
0.00341487
0.00418016
0.00537985
0.00570032
0.00484459
0.00249156
0.00177515
0.00183955
0.00177331
0.00205182
0.00307134
0.00475577
0.00726506
0.0091962
0.0106623
0.0117682
0.0126923
0.0135791
0.0144952
0.0154237
0.0162924
0.0170169
0.0175343
0.0178184
0.0178782
0.0177469
0.0174689
0.0170883
0.0166423
0.0161591
0.0156571
0.0151487
0.0146423
0.0141431
0.0136545
0.0131796
0.0127216
0.0122836
0.0118677
0.0114755
0.0111078
0.0107651
0.0104474
0.010154
0.00988399
0.00963544
0.00940627
0.00919416
0.0089966
0.00881112
0.00863601
0.00847136
0.00831978
0.00818653
0.0080797
0.00800031
0.00796239
0.0079684
0.00802166
0.00812361
0.00827289
0.0084656
0.00869514
0.00895223
0.00922541
0.00950209
0.0097699
0.0100179
0.0102376
0.0104234
0.0105728
0.010686
0.0107657
0.0108163
0.0108431
0.0108517
0.0108472
0.0108331
0.010811
0.0107791
0.0107321
0.0106607
0.0105526
0.0103952
0.010187
0.00996472
0.00986176
0.0101749
0.0113009
0.0133992
0.0161384
0.0189385
0.0213353
0.0230837
0.0240368
0.0238586
0.0211976
0.015458
0.00937869
0.00597172
0.00516879
0.0057924
0.00611799
0.00563777
0.00400552
0.000356488
0.00228749
0.0019512
0.00175631
0.00230658
0.00369168
0.00574812
0.00834007
0.010292
0.0116845
0.0126657
0.0134655
0.0142502
0.0150766
0.0159073
0.0166563
0.0172394
0.0176037
0.0177372
0.017661
0.0174161
0.0170493
0.016602
0.0161066
0.0155854
0.015051
0.0145119
0.0139741
0.0134413
0.0129161
0.0124019
0.0119029
0.0114228
0.0109644
0.0105297
0.01012
0.00973628
0.00937885
0.00904739
0.00874057
0.00845621
0.00819156
0.00794342
0.00770818
0.00748229
0.00726368
0.00705356
0.00685774
0.00668683
0.00655537
0.00647274
0.00645808
0.0065137
0.00664019
0.00683321
0.00708418
0.00738209
0.0077142
0.00806659
0.00842499
0.00877575
0.00910682
0.00940852
0.0096741
0.00989981
0.0100848
0.0102309
0.0103418
0.0104227
0.0104796
0.0105185
0.010545
0.0105632
0.0105752
0.0105799
0.0105729
0.0105452
0.0104844
0.0103772
0.0102195
0.010043
0.00997162
0.0102922
0.0114086
0.0135085
0.0162807
0.0191501
0.021654
0.0235329
0.0246016
0.0244761
0.0217645
0.0129032
0.00845244
0.00675687
0.00688379
0.00700976
0.00642607
0.00516529
0.00114681
0.00251255
0.00270334
0.00210695
0.00183376
0.00271188
0.00440466
0.00673273
0.00935393
0.0113335
0.0126341
0.0134748
0.0141476
0.014832
0.0155652
0.0162854
0.0168972
0.0173237
0.0175274
0.0175128
0.0173126
0.0169727
0.0165388
0.0160462
0.0155203
0.0149764
0.0144215
0.0138611
0.0133
0.0127415
0.0121875
0.0116426
0.0111121
0.0106002
0.0101098
0.00964296
0.00920114
0.00878535
0.00839608
0.00803286
0.00769404
0.00737703
0.00707859
0.00679464
0.00652019
0.00625027
0.00598229
0.00571882
0.00546964
0.00525255
0.00509107
0.00500727
0.00502468
0.00514331
0.00535742
0.00565288
0.00601132
0.00641377
0.00684189
0.00727872
0.00770907
0.00811995
0.00850093
0.00884445
0.0091459
0.00940351
0.0096181
0.00979262
0.0099317
0.0100411
0.0101271
0.0101962
0.0102543
0.010306
0.0103542
0.0103988
0.0104363
0.0104584
0.0104528
0.0104054
0.0103102
0.0101937
0.0101682
0.0105023
0.0115918
0.0136522
0.0164113
0.019314
0.0218996
0.0238908
0.0250629
0.0249895
0.0222531
0.0095174
0.00748152
0.00748186
0.00769114
0.00705422
0.00532406
0.00185024
0.0027044
0.00340395
0.00298474
0.00218497
0.00200193
0.00323344
0.00517153
0.00765808
0.0103118
0.0123198
0.0135092
0.014198
0.0147467
0.0153349
0.0159687
0.0165628
0.01702
0.0172786
0.0173208
0.0171681
0.0168621
0.0164495
0.0159708
0.015452
0.0149103
0.014355
0.0137879
0.0132136
0.0126368
0.0120608
0.0114874
0.0109224
0.0103722
0.00984068
0.00933045
0.00884315
0.00837983
0.00794118
0.00752733
0.00713741
0.00676948
0.00642076
0.00608785
0.00576607
0.00544919
0.00513094
0.00480832
0.00448545
0.00417689
0.003909
0.00371916
0.00364367
0.00370899
0.00390953
0.00422638
0.00463052
0.00509266
0.00558744
0.00609393
0.00659509
0.00707719
0.00752949
0.00794409
0.00831584
0.00864229
0.00892341
0.00916131
0.00935982
0.00952409
0.00966013
0.00977447
0.00987373
0.00996418
0.0100512
0.0101385
0.0102271
0.0103141
0.0103919
0.0104481
0.010468
0.0104435
0.0103961
0.0104258
0.0107769
0.011825
0.0138095
0.0165154
0.0194228
0.0220736
0.024167
0.0254368
0.025419
0.0226817
0.00495747
0.00603663
0.00672688
0.00610572
0.00430421
0.00254364
0.0031671
0.0039625
0.00388586
0.00312918
0.00219563
0.00226279
0.00382425
0.00594749
0.00850458
0.01122
0.0132546
0.014311
0.0148416
0.0152736
0.0157687
0.0162931
0.0167436
0.0170316
0.0171177
0.0170058
0.0167327
0.0163437
0.0158817
0.0153781
0.0148475
0.0143005
0.0137414
0.0131685
0.0125872
0.012003
0.0114195
0.0108383
0.0102661
0.00971012
0.00917319
0.00865687
0.00816204
0.00768895
0.00723743
0.00680686
0.00639572
0.00600173
0.00562203
0.00525328
0.00489047
0.00452676
0.00415497
0.00377167
0.00338179
0.00300524
0.00267941
0.00246386
0.00241255
0.00255306
0.0028631
0.00329588
0.00380413
0.004352
0.00491388
0.0054712
0.00601006
0.00652001
0.00699333
0.00742475
0.00781132
0.00815232
0.00844901
0.0087043
0.00892251
0.009109
0.00926988
0.00941179
0.00954159
0.009666
0.00979106
0.00992127
0.0100583
0.0102
0.0103385
0.0104612
0.0105524
0.0106022
0.0106275
0.010716
0.0110853
0.0120823
0.0139638
0.0165847
0.0194759
0.0221823
0.0243731
0.0257378
0.0257785
0.0230589
0.00200926
0.00407617
0.00476168
0.00411378
0.00329539
0.00369779
0.00454306
0.0046846
0.00417315
0.00317068
0.00217903
0.00259933
0.00443512
0.00669256
0.00927888
0.0120845
0.0141403
0.0150411
0.0154126
0.0157382
0.0161397
0.016541
0.0168313
0.0169416
0.0168598
0.01661
0.0162402
0.0157929
0.0153025
0.0147894
0.0142565
0.013711
0.013154
0.0125815
0.0120015
0.0114203
0.0108416
0.0102666
0.00970245
0.00915683
0.00863033
0.00812351
0.00763626
0.00716776
0.0067167
0.00628137
0.00585945
0.00544818
0.00504433
0.00464437
0.00424313
0.00383378
0.00340845
0.00296139
0.00249242
0.00201837
0.00159153
0.00132101
0.00131118
0.0015895
0.00205244
0.00260349
0.00319216
0.00379175
0.00438537
0.00496095
0.00550923
0.0060235
0.00649879
0.00693191
0.00732146
0.00766785
0.00797307
0.00824047
0.00847453
0.00868068
0.00886509
0.00903455
0.00919619
0.00935715
0.00952397
0.00970153
0.00989175
0.0100921
0.0102944
0.0104849
0.010647
0.0107694
0.0108654
0.0110111
0.0113979
0.0123394
0.0141025
0.0166171
0.0194786
0.0222356
0.0245213
0.0259772
0.0260749
0.0233838
0.00298467
0.00232137
0.00337451
0.00373854
0.00429734
0.00502756
0.00540139
0.00513753
0.00432812
0.00312371
0.00216523
0.00298112
0.00502268
0.00738086
0.00999966
0.0129064
0.0149748
0.0156994
0.0159173
0.0161468
0.0164496
0.016712
0.0168303
0.0167635
0.0165284
0.0161647
0.015725
0.0152423
0.0147399
0.0142275
0.0136981
0.0131594
0.0126104
0.0120466
0.0114787
0.0109133
0.0103536
0.00980102
0.00926091
0.00874323
0.00824459
0.00776497
0.00730339
0.00685808
0.00642666
0.00600639
0.0055942
0.00518681
0.00478056
0.00437153
0.00395507
0.00352506
0.00307423
0.00259519
0.00207891
0.00150546
0.000898793
0.000305534
0.00039979
0.000981343
0.00158944
0.00220129
0.00280951
0.00340862
0.00399117
0.00455104
0.00508211
0.00557986
0.00604089
0.00646309
0.00684571
0.00718983
0.00749775
0.00777293
0.00801989
0.00824409
0.00845176
0.00864984
0.00884565
0.00904649
0.0092589
0.00948755
0.00973377
0.00999409
0.0102592
0.0105143
0.0107419
0.0109299
0.0110893
0.0112867
0.0116888
0.0125759
0.0142174
0.0166165
0.0194413
0.0222464
0.0246227
0.0261612
0.0263063
0.0236467
0.00417364
0.0012378
0.00331295
0.00447837
0.00533806
0.00588625
0.00594058
0.00540817
0.00436901
0.0029999
0.00216521
0.00336595
0.00555486
0.00800053
0.010681
0.0136836
0.0157507
0.0162847
0.0163598
0.0165007
0.0166951
0.0168048
0.016747
0.0165148
0.0161501
0.0157008
0.0152173
0.0147173
0.0142143
0.0137089
0.0131877
0.0126619
0.0121288
0.0115839
0.0110406
0.0105055
0.00998021
0.00946676
0.0089664
0.00849482
0.00804297
0.00761044
0.00719554
0.00679578
0.00640818
0.00602952
0.00565641
0.00528539
0.00491303
0.00453592
0.00415078
0.00375353
0.00334061
0.00290965
0.00246043
0.0019962
0.00153952
0.00116555
0.00105116
0.00130178
0.00171376
0.00220114
0.00271662
0.00324066
0.00376221
0.00427026
0.00475425
0.00521263
0.00564209
0.00604017
0.00640622
0.00674098
0.00704636
0.00732564
0.00758326
0.00782455
0.00805567
0.00828355
0.00851536
0.00875805
0.00901757
0.00929765
0.00959837
0.00991479
0.0102362
0.0105469
0.0108292
0.0110713
0.011283
0.0115234
0.0119383
0.0127767
0.0143055
0.016592
0.0193793
0.0222292
0.0246859
0.0262894
0.0264625
0.0238319
0.00485716
0.00103708
0.00381126
0.00517295
0.00603183
0.00642512
0.00627355
0.00554433
0.0043123
0.0028062
0.00217827
0.00371573
0.00601314
0.0085463
0.0113283
0.014405
0.0164575
0.0167943
0.0167411
0.0167963
0.0168702
0.0168189
0.0165916
0.0162159
0.0157509
0.0152449
0.0147394
0.0142351
0.0137389
0.0132452
0.0127378
0.012233
0.0117253
0.0112109
0.0107051
0.0102156
0.0097411