/*--------------------------------*- C++ -*----------------------------------*\
| =========                 |                                                 |
| \\      /  F ield         | OpenFOAM: The Open Source CFD Toolbox           |
|  \\    /   O peration     | Version:  4.1                                   |
|   \\  /    A nd           | Web:      www.OpenFOAM.org                      |
|    \\/     M anipulation  |                                                 |
\*---------------------------------------------------------------------------*/
FoamFile
{
    version     2.0;
    format      ascii;
    class       volScalarField;
    location    "1520";
    object      p;
}
// * * * * * * * * * * * * * * * * * * * * * * * * * * * * * * * * * * * * * //

dimensions      [0 2 -2 0 0 0 0];

internalField   nonuniform List<scalar> 
5000
(
0
-1.41185e-06
1.45449e-06
4.81524e-06
7.92714e-06
9.69902e-06
9.50806e-06
6.14029e-06
6.5016e-07
-5.26437e-06
-1.00898e-05
-1.33141e-05
-1.50859e-05
-1.57296e-05
-1.55665e-05
-1.47158e-05
-1.33045e-05
-1.14164e-05
-9.11381e-06
-6.45347e-06
-3.51486e-06
-3.74105e-07
2.88929e-06
6.16817e-06
9.33784e-06
1.22553e-05
1.47638e-05
1.67015e-05
1.79099e-05
1.82434e-05
1.75784e-05
1.58218e-05
1.29156e-05
8.84045e-06
3.61437e-06
-2.71016e-06
-1.00517e-05
-1.83062e-05
-2.73542e-05
-3.70675e-05
-4.73153e-05
-5.79692e-05
-6.89073e-05
-8.00169e-05
-9.1196e-05
-0.000102354
-0.000113413
-0.000124304
-0.000134968
-0.000145356
-0.000155424
-0.000165132
-0.000174447
-0.000183334
-0.000191764
-0.00019971
-0.000207146
-0.000214057
-0.000220415
-0.000226166
-0.000231287
-0.000235785
-0.000239681
-0.000242997
-0.000245764
-0.000248021
-0.000249818
-0.000251217
-0.000252287
-0.0002531
-0.00025373
-0.000254248
-0.00025472
-0.000255205
-0.000255752
-0.000256399
-0.000257172
-0.000258083
-0.000259127
-0.000260287
-0.000261533
-0.000262815
-0.000263996
-0.000264641
-0.000263641
-0.000258467
-0.000256487
-0.000271022
-0.000281598
-0.000272346
-0.000266203
-0.000259458
-0.000252727
-0.000246965
-0.000241605
-0.000236644
-0.000233636
-0.00023468
-0.00024071
-0.000244657
-0.0984133
-0.098418
-0.0984181
-0.0984175
-0.0984166
-0.0984167
-0.0984183
-0.0984211
-0.0984249
-0.0984287
-0.0984314
-0.0984326
-0.0984324
-0.0984313
-0.0984294
-0.098427
-0.0984243
-0.0984212
-0.0984178
-0.0984144
-0.0984109
-0.0984073
-0.0984039
-0.0984007
-0.0983977
-0.0983951
-0.098393
-0.0983915
-0.0983908
-0.0983909
-0.0983921
-0.0983943
-0.0983976
-0.098402
-0.0984076
-0.0984142
-0.0984217
-0.0984301
-0.0984392
-0.098449
-0.0984592
-0.0984698
-0.0984806
-0.0984916
-0.0985025
-0.0985135
-0.0985243
-0.0985348
-0.0985452
-0.0985552
-0.0985648
-0.098574
-0.0985828
-0.098591
-0.0985988
-0.0986059
-0.0986124
-0.0986183
-0.0986234
-0.0986279
-0.0986316
-0.0986345
-0.0986368
-0.0986383
-0.0986391
-0.0986393
-0.0986389
-0.0986379
-0.0986365
-0.0986346
-0.0986325
-0.0986301
-0.0986275
-0.0986249
-0.0986222
-0.0986195
-0.0986169
-0.0986143
-0.0986118
-0.0986093
-0.0986067
-0.098604
-0.0986012
-0.098598
-0.0985952
-0.0985976
-0.0986233
-0.0986532
-0.0986658
-0.0986726
-0.098676
-0.0986682
-0.0986607
-0.0986565
-0.0986529
-0.0986498
-0.0986479
-0.0986495
-0.0986555
-0.0986518
-0.196845
-0.19685
-0.196851
-0.196851
-0.196851
-0.196852
-0.196854
-0.196857
-0.19686
-0.196863
-0.196865
-0.196866
-0.196865
-0.196864
-0.196862
-0.196859
-0.196856
-0.196853
-0.196849
-0.196846
-0.196842
-0.196839
-0.196835
-0.196832
-0.196829
-0.196826
-0.196824
-0.196822
-0.196821
-0.196822
-0.196823
-0.196825
-0.196829
-0.196834
-0.196839
-0.196846
-0.196854
-0.196862
-0.196872
-0.196881
-0.196892
-0.196902
-0.196913
-0.196924
-0.196935
-0.196946
-0.196957
-0.196968
-0.196978
-0.196988
-0.196998
-0.197007
-0.197015
-0.197024
-0.197031
-0.197038
-0.197045
-0.197051
-0.197056
-0.19706
-0.197064
-0.197066
-0.197068
-0.197069
-0.197069
-0.197068
-0.197066
-0.197064
-0.197061
-0.197057
-0.197053
-0.197049
-0.197044
-0.197039
-0.197034
-0.197029
-0.197024
-0.197019
-0.197013
-0.197008
-0.197003
-0.196997
-0.196991
-0.196986
-0.196982
-0.196985
-0.197004
-0.19703
-0.197055
-0.197082
-0.197083
-0.19708
-0.197078
-0.197074
-0.19707
-0.197068
-0.197066
-0.197066
-0.197066
-0.197055
-0.295279
-0.295283
-0.295285
-0.295285
-0.295286
-0.295287
-0.295289
-0.295292
-0.295295
-0.295298
-0.295299
-0.295299
-0.295298
-0.295296
-0.295294
-0.295291
-0.295288
-0.295284
-0.295281
-0.295277
-0.295273
-0.29527
-0.295266
-0.295262
-0.295259
-0.295257
-0.295254
-0.295253
-0.295252
-0.295253
-0.295254
-0.295257
-0.295261
-0.295266
-0.295272
-0.295279
-0.295287
-0.295296
-0.295305
-0.295315
-0.295326
-0.295337
-0.295348
-0.295359
-0.29537
-0.295381
-0.295391
-0.295402
-0.295412
-0.295422
-0.295432
-0.295441
-0.295449
-0.295458
-0.295465
-0.295472
-0.295479
-0.295484
-0.295489
-0.295494
-0.295497
-0.2955
-0.295501
-0.295502
-0.295502
-0.295501
-0.295499
-0.295496
-0.295493
-0.295489
-0.295484
-0.295478
-0.295473
-0.295467
-0.29546
-0.295454
-0.295447
-0.29544
-0.295434
-0.295427
-0.29542
-0.295413
-0.295406
-0.295399
-0.295395
-0.295394
-0.295404
-0.295422
-0.295444
-0.295466
-0.295479
-0.295489
-0.295487
-0.295484
-0.295485
-0.295484
-0.295483
-0.295479
-0.295471
-0.29546
-0.393713
-0.393717
-0.393718
-0.393719
-0.39372
-0.393721
-0.393724
-0.393727
-0.39373
-0.393731
-0.393732
-0.393731
-0.39373
-0.393728
-0.393725
-0.393722
-0.393719
-0.393715
-0.393712
-0.393708
-0.393705
-0.393701
-0.393697
-0.393694
-0.39369
-0.393688
-0.393686
-0.393685
-0.393684
-0.393685
-0.393687
-0.39369
-0.393694
-0.393699
-0.393706
-0.393713
-0.393721
-0.393731
-0.39374
-0.393751
-0.393761
-0.393772
-0.393783
-0.393795
-0.393806
-0.393817
-0.393828
-0.393838
-0.393848
-0.393858
-0.393868
-0.393877
-0.393885
-0.393893
-0.393901
-0.393907
-0.393914
-0.393919
-0.393924
-0.393928
-0.393932
-0.393934
-0.393936
-0.393937
-0.393937
-0.393936
-0.393934
-0.393931
-0.393927
-0.393923
-0.393917
-0.393912
-0.393906
-0.393899
-0.393892
-0.393885
-0.393878
-0.39387
-0.393862
-0.393855
-0.393847
-0.393839
-0.393832
-0.393825
-0.393819
-0.393816
-0.393819
-0.393829
-0.393843
-0.39386
-0.393874
-0.393885
-0.393891
-0.393896
-0.393897
-0.393899
-0.393902
-0.393896
-0.393886
-0.393876
-0.492147
-0.49215
-0.492151
-0.492152
-0.492154
-0.492155
-0.492158
-0.492161
-0.492163
-0.492164
-0.492164
-0.492163
-0.492161
-0.492159
-0.492156
-0.492153
-0.49215
-0.492147
-0.492143
-0.49214
-0.492136
-0.492132
-0.492129
-0.492125
-0.492122
-0.49212
-0.492118
-0.492117
-0.492117
-0.492118
-0.49212
-0.492124
-0.492129
-0.492134
-0.492141
-0.492149
-0.492158
-0.492167
-0.492178
-0.492188
-0.492199
-0.49221
-0.492221
-0.492233
-0.492244
-0.492255
-0.492266
-0.492276
-0.492286
-0.492296
-0.492305
-0.492314
-0.492323
-0.49233
-0.492338
-0.492344
-0.492351
-0.492356
-0.492361
-0.492365
-0.492368
-0.49237
-0.492372
-0.492372
-0.492372
-0.492371
-0.492369
-0.492366
-0.492362
-0.492358
-0.492353
-0.492347
-0.49234
-0.492333
-0.492326
-0.492319
-0.492311
-0.492303
-0.492295
-0.492288
-0.49228
-0.492272
-0.492264
-0.492257
-0.492251
-0.492246
-0.492244
-0.492248
-0.492255
-0.492266
-0.492277
-0.492287
-0.492295
-0.492303
-0.492308
-0.492313
-0.492312
-0.49231
-0.492303
-0.492292
-0.590581
-0.590584
-0.590585
-0.590586
-0.590587
-0.590589
-0.590592
-0.590594
-0.590596
-0.590596
-0.590596
-0.590594
-0.590592
-0.59059
-0.590587
-0.590584
-0.590581
-0.590578
-0.590575
-0.590571
-0.590568
-0.590565
-0.590561
-0.590558
-0.590555
-0.590553
-0.590552
-0.590551
-0.590551
-0.590553
-0.590556
-0.59056
-0.590565
-0.590571
-0.590579
-0.590587
-0.590596
-0.590606
-0.590617
-0.590627
-0.590639
-0.59065
-0.590661
-0.590673
-0.590684
-0.590695
-0.590705
-0.590716
-0.590726
-0.590736
-0.590745
-0.590754
-0.590762
-0.590769
-0.590777
-0.590783
-0.590789
-0.590794
-0.590799
-0.590802
-0.590805
-0.590808
-0.590809
-0.59081
-0.590809
-0.590808
-0.590806
-0.590803
-0.590799
-0.590794
-0.590789
-0.590783
-0.590776
-0.590769
-0.590762
-0.590754
-0.590746
-0.590739
-0.590731
-0.590723
-0.590715
-0.590707
-0.590699
-0.590692
-0.590686
-0.59068
-0.590676
-0.590676
-0.590678
-0.590683
-0.59069
-0.590697
-0.590703
-0.590709
-0.590715
-0.590718
-0.590717
-0.590713
-0.590704
-0.590694
-0.689015
-0.689017
-0.689018
-0.689019
-0.689021
-0.689023
-0.689025
-0.689027
-0.689028
-0.689028
-0.689027
-0.689026
-0.689023
-0.689021
-0.689019
-0.689016
-0.689013
-0.68901
-0.689007
-0.689004
-0.689
-0.688997
-0.688994
-0.688992
-0.688989
-0.688987
-0.688986
-0.688986
-0.688987
-0.688989
-0.688993
-0.688997
-0.689003
-0.68901
-0.689018
-0.689027
-0.689037
-0.689047
-0.689058
-0.689069
-0.68908
-0.689091
-0.689103
-0.689114
-0.689125
-0.689136
-0.689147
-0.689157
-0.689167
-0.689177
-0.689186
-0.689195
-0.689203
-0.68921
-0.689217
-0.689223
-0.689229
-0.689234
-0.689238
-0.689242
-0.689244
-0.689246
-0.689247
-0.689248
-0.689247
-0.689246
-0.689244
-0.68924
-0.689236
-0.689231
-0.689226
-0.68922
-0.689213
-0.689206
-0.689198
-0.689191
-0.689183
-0.689175
-0.689167
-0.689159
-0.689151
-0.689144
-0.689136
-0.689129
-0.689123
-0.689117
-0.689112
-0.689109
-0.689107
-0.689108
-0.68911
-0.689113
-0.689116
-0.689119
-0.68912
-0.689119
-0.689114
-0.689107
-0.689097
-0.689085
-0.787449
-0.787451
-0.787452
-0.787453
-0.787455
-0.787457
-0.787458
-0.78746
-0.78746
-0.78746
-0.787459
-0.787457
-0.787455
-0.787452
-0.78745
-0.787447
-0.787445
-0.787442
-0.787439
-0.787436
-0.787433
-0.787431
-0.787428
-0.787426
-0.787424
-0.787423
-0.787422
-0.787423
-0.787424
-0.787427
-0.787431
-0.787436
-0.787443
-0.787451
-0.787459
-0.787468
-0.787479
-0.787489
-0.7875
-0.787512
-0.787523
-0.787535
-0.787546
-0.787558
-0.787569
-0.78758
-0.78759
-0.787601
-0.78761
-0.78762
-0.787629
-0.787637
-0.787645
-0.787652
-0.787659
-0.787665
-0.78767
-0.787675
-0.787679
-0.787682
-0.787685
-0.787686
-0.787687
-0.787687
-0.787686
-0.787685
-0.787682
-0.787679
-0.787675
-0.78767
-0.787664
-0.787657
-0.78765
-0.787643
-0.787636
-0.787628
-0.78762
-0.787612
-0.787604
-0.787596
-0.787589
-0.787581
-0.787574
-0.787567
-0.78756
-0.787554
-0.787549
-0.787544
-0.787541
-0.787539
-0.787537
-0.787536
-0.787535
-0.787533
-0.787529
-0.787522
-0.787513
-0.787501
-0.787489
-0.787476
-0.885884
-0.885886
-0.885887
-0.885888
-0.885889
-0.885891
-0.885892
-0.885892
-0.885892
-0.885891
-0.88589
-0.885888
-0.885886
-0.885884
-0.885881
-0.885879
-0.885877
-0.885874
-0.885871
-0.885869
-0.885867
-0.885864
-0.885862
-0.885861
-0.88586
-0.885859
-0.885859
-0.88586
-0.885863
-0.885866
-0.885871
-0.885877
-0.885884
-0.885893
-0.885902
-0.885912
-0.885922
-0.885933
-0.885945
-0.885956
-0.885968
-0.88598
-0.885991
-0.886003
-0.886014
-0.886025
-0.886035
-0.886045
-0.886055
-0.886064
-0.886073
-0.886081
-0.886089
-0.886096
-0.886102
-0.886108
-0.886113
-0.886118
-0.886121
-0.886124
-0.886126
-0.886127
-0.886128
-0.886128
-0.886127
-0.886125
-0.886122
-0.886118
-0.886114
-0.886108
-0.886102
-0.886096
-0.886089
-0.886081
-0.886073
-0.886065
-0.886058
-0.88605
-0.886042
-0.886034
-0.886026
-0.886019
-0.886012
-0.886005
-0.885998
-0.885992
-0.885987
-0.885981
-0.885977
-0.885973
-0.885969
-0.885965
-0.88596
-0.885953
-0.885944
-0.885932
-0.885918
-0.885903
-0.885888
-0.885874
-0.984319
-0.984321
-0.984322
-0.984324
-0.984325
-0.984325
-0.984325
-0.984325
-0.984324
-0.984323
-0.984321
-0.984319
-0.984317
-0.984315
-0.984313
-0.984311
-0.984308
-0.984306
-0.984304
-0.984302
-0.9843
-0.984299
-0.984297
-0.984296
-0.984296
-0.984296
-0.984297
-0.984299
-0.984302
-0.984307
-0.984312
-0.984319
-0.984327
-0.984336
-0.984346
-0.984356
-0.984367
-0.984379
-0.98439
-0.984402
-0.984414
-0.984426
-0.984437
-0.984449
-0.98446
-0.984471
-0.984481
-0.984491
-0.984501
-0.98451
-0.984518
-0.984526
-0.984534
-0.984541
-0.984547
-0.984552
-0.984557
-0.984561
-0.984564
-0.984567
-0.984569
-0.98457
-0.98457
-0.984569
-0.984568
-0.984566
-0.984562
-0.984558
-0.984553
-0.984548
-0.984542
-0.984535
-0.984527
-0.98452
-0.984512
-0.984504
-0.984495
-0.984487
-0.984479
-0.984472
-0.984464
-0.984457
-0.98445
-0.984443
-0.984436
-0.98443
-0.984424
-0.984419
-0.984414
-0.984409
-0.984403
-0.984397
-0.984389
-0.984379
-0.984366
-0.98435
-0.984332
-0.984314
-0.984297
-0.984283
-1.08276
-1.08276
-1.08276
-1.08276
-1.08276
-1.08276
-1.08276
-1.08276
-1.08276
-1.08275
-1.08275
-1.08275
-1.08275
-1.08275
-1.08274
-1.08274
-1.08274
-1.08274
-1.08274
-1.08273
-1.08273
-1.08273
-1.08273
-1.08273
-1.08273
-1.08273
-1.08274
-1.08274
-1.08274
-1.08275
-1.08275
-1.08276
-1.08277
-1.08278
-1.08279
-1.0828
-1.08281
-1.08283
-1.08284
-1.08285
-1.08286
-1.08287
-1.08288
-1.0829
-1.08291
-1.08292
-1.08293
-1.08294
-1.08295
-1.08296
-1.08296
-1.08297
-1.08298
-1.08299
-1.08299
-1.083
-1.083
-1.08301
-1.08301
-1.08301
-1.08301
-1.08301
-1.08301
-1.08301
-1.08301
-1.08301
-1.083
-1.083
-1.08299
-1.08299
-1.08298
-1.08297
-1.08297
-1.08296
-1.08295
-1.08294
-1.08293
-1.08293
-1.08292
-1.08291
-1.0829
-1.08289
-1.08289
-1.08288
-1.08287
-1.08287
-1.08286
-1.08286
-1.08285
-1.08285
-1.08284
-1.08283
-1.08282
-1.08281
-1.08279
-1.08278
-1.08276
-1.08274
-1.08272
-1.0827
-1.18119
-1.1812
-1.1812
-1.1812
-1.1812
-1.1812
-1.18119
-1.18119
-1.18119
-1.18119
-1.18118
-1.18118
-1.18118
-1.18118
-1.18118
-1.18117
-1.18117
-1.18117
-1.18117
-1.18117
-1.18117
-1.18117
-1.18117
-1.18117
-1.18117
-1.18117
-1.18117
-1.18118
-1.18118
-1.18119
-1.1812
-1.18121
-1.18122
-1.18123
-1.18124
-1.18125
-1.18126
-1.18127
-1.18129
-1.1813
-1.18131
-1.18132
-1.18133
-1.18134
-1.18135
-1.18137
-1.18138
-1.18139
-1.18139
-1.1814
-1.18141
-1.18142
-1.18143
-1.18143
-1.18144
-1.18144
-1.18145
-1.18145
-1.18145
-1.18146
-1.18146
-1.18146
-1.18146
-1.18145
-1.18145
-1.18145
-1.18144
-1.18144
-1.18143
-1.18143
-1.18142
-1.18141
-1.18141
-1.1814
-1.18139
-1.18138
-1.18137
-1.18136
-1.18136
-1.18135
-1.18134
-1.18133
-1.18132
-1.18132
-1.18131
-1.18131
-1.1813
-1.18129
-1.18129
-1.18128
-1.18128
-1.18127
-1.18126
-1.18125
-1.18123
-1.18121
-1.18119
-1.18117
-1.18115
-1.18113
-1.27963
-1.27963
-1.27964
-1.27964
-1.27964
-1.27963
-1.27963
-1.27962
-1.27962
-1.27962
-1.27961
-1.27961
-1.27961
-1.27961
-1.27961
-1.2796
-1.2796
-1.2796
-1.2796
-1.2796
-1.2796
-1.2796
-1.2796
-1.27961
-1.27961
-1.27961
-1.27961
-1.27962
-1.27963
-1.27963
-1.27964
-1.27965
-1.27966
-1.27967
-1.27968
-1.2797
-1.27971
-1.27972
-1.27973
-1.27975
-1.27976
-1.27977
-1.27978
-1.27979
-1.2798
-1.27981
-1.27982
-1.27983
-1.27984
-1.27985
-1.27986
-1.27987
-1.27987
-1.27988
-1.27988
-1.27989
-1.27989
-1.2799
-1.2799
-1.2799
-1.2799
-1.2799
-1.2799
-1.2799
-1.2799
-1.27989
-1.27989
-1.27988
-1.27988
-1.27987
-1.27986
-1.27985
-1.27984
-1.27984
-1.27983
-1.27982
-1.27981
-1.2798
-1.27979
-1.27978
-1.27978
-1.27977
-1.27976
-1.27976
-1.27975
-1.27974
-1.27974
-1.27973
-1.27973
-1.27972
-1.27971
-1.27971
-1.2797
-1.27968
-1.27967
-1.27965
-1.27962
-1.2796
-1.27959
-1.27957
-1.37807
-1.37807
-1.37807
-1.37808
-1.37807
-1.37807
-1.37806
-1.37806
-1.37805
-1.37805
-1.37805
-1.37804
-1.37804
-1.37804
-1.37804
-1.37804
-1.37803
-1.37803
-1.37803
-1.37803
-1.37803
-1.37804
-1.37804
-1.37804
-1.37805
-1.37805
-1.37805
-1.37806
-1.37807
-1.37808
-1.37809
-1.3781
-1.37811
-1.37812
-1.37813
-1.37814
-1.37816
-1.37817
-1.37818
-1.37819
-1.37821
-1.37822
-1.37823
-1.37824
-1.37825
-1.37826
-1.37827
-1.37828
-1.37829
-1.3783
-1.37831
-1.37831
-1.37832
-1.37833
-1.37833
-1.37834
-1.37834
-1.37834
-1.37834
-1.37835
-1.37835
-1.37835
-1.37834
-1.37834
-1.37834
-1.37833
-1.37833
-1.37832
-1.37832
-1.37831
-1.3783
-1.37829
-1.37828
-1.37827
-1.37827
-1.37826
-1.37825
-1.37824
-1.37823
-1.37822
-1.37821
-1.37821
-1.3782
-1.37819
-1.37819
-1.37818
-1.37817
-1.37817
-1.37816
-1.37816
-1.37815
-1.37815
-1.37814
-1.37812
-1.37811
-1.37809
-1.37807
-1.37805
-1.37803
-1.37802
-1.47651
-1.47651
-1.47651
-1.47651
-1.47651
-1.47651
-1.4765
-1.47649
-1.47648
-1.47648
-1.47648
-1.47647
-1.47647
-1.47647
-1.47647
-1.47647
-1.47646
-1.47646
-1.47646
-1.47647
-1.47647
-1.47647
-1.47647
-1.47648
-1.47648
-1.47649
-1.47649
-1.4765
-1.47651
-1.47652
-1.47653
-1.47654
-1.47655
-1.47657
-1.47658
-1.47659
-1.4766
-1.47662
-1.47663
-1.47664
-1.47665
-1.47667
-1.47668
-1.47669
-1.4767
-1.47671
-1.47672
-1.47673
-1.47674
-1.47675
-1.47675
-1.47676
-1.47677
-1.47677
-1.47678
-1.47678
-1.47679
-1.47679
-1.47679
-1.47679
-1.47679
-1.47679
-1.47679
-1.47678
-1.47678
-1.47678
-1.47677
-1.47676
-1.47676
-1.47675
-1.47674
-1.47673
-1.47672
-1.47671
-1.4767
-1.47669
-1.47669
-1.47668
-1.47667
-1.47666
-1.47665
-1.47664
-1.47664
-1.47663
-1.47662
-1.47662
-1.47661
-1.4766
-1.4766
-1.47659
-1.47659
-1.47658
-1.47658
-1.47656
-1.47655
-1.47653
-1.47651
-1.47649
-1.47648
-1.47647
-1.57495
-1.57495
-1.57495
-1.57495
-1.57495
-1.57494
-1.57493
-1.57492
-1.57491
-1.57491
-1.57491
-1.5749
-1.5749
-1.5749
-1.5749
-1.5749
-1.5749
-1.5749
-1.5749
-1.5749
-1.5749
-1.57491
-1.57491
-1.57492
-1.57492
-1.57493
-1.57494
-1.57494
-1.57495
-1.57496
-1.57498
-1.57499
-1.575
-1.57501
-1.57503
-1.57504
-1.57505
-1.57506
-1.57508
-1.57509
-1.5751
-1.57511
-1.57513
-1.57514
-1.57515
-1.57516
-1.57517
-1.57518
-1.57518
-1.57519
-1.5752
-1.57521
-1.57521
-1.57522
-1.57522
-1.57523
-1.57523
-1.57523
-1.57524
-1.57524
-1.57524
-1.57523
-1.57523
-1.57523
-1.57522
-1.57522
-1.57521
-1.57521
-1.5752
-1.57519
-1.57518
-1.57517
-1.57516
-1.57515
-1.57514
-1.57513
-1.57512
-1.57511
-1.5751
-1.5751
-1.57509
-1.57508
-1.57507
-1.57506
-1.57506
-1.57505
-1.57505
-1.57504
-1.57503
-1.57503
-1.57503
-1.57502
-1.57501
-1.575
-1.57499
-1.57497
-1.57495
-1.57494
-1.57492
-1.57492
-1.67339
-1.67339
-1.67339
-1.67339
-1.67339
-1.67338
-1.67336
-1.67335
-1.67334
-1.67334
-1.67334
-1.67333
-1.67333
-1.67333
-1.67333
-1.67333
-1.67333
-1.67333
-1.67333
-1.67333
-1.67334
-1.67334
-1.67335
-1.67335
-1.67336
-1.67337
-1.67338
-1.67339
-1.6734
-1.67341
-1.67342
-1.67343
-1.67345
-1.67346
-1.67347
-1.67349
-1.6735
-1.67351
-1.67352
-1.67354
-1.67355
-1.67356
-1.67357
-1.67358
-1.67359
-1.6736
-1.67361
-1.67362
-1.67363
-1.67364
-1.67365
-1.67365
-1.67366
-1.67366
-1.67367
-1.67367
-1.67368
-1.67368
-1.67368
-1.67368
-1.67368
-1.67368
-1.67367
-1.67367
-1.67367
-1.67366
-1.67365
-1.67365
-1.67364
-1.67363
-1.67362
-1.67361
-1.6736
-1.67359
-1.67358
-1.67357
-1.67356
-1.67355
-1.67354
-1.67353
-1.67352
-1.67352
-1.67351
-1.6735
-1.67349
-1.67349
-1.67348
-1.67348
-1.67347
-1.67347
-1.67346
-1.67346
-1.67345
-1.67344
-1.67343
-1.67341
-1.6734
-1.67338
-1.67337
-1.67336
-1.77182
-1.77182
-1.77182
-1.77182
-1.77182
-1.77181
-1.77179
-1.77178
-1.77177
-1.77177
-1.77176
-1.77176
-1.77176
-1.77176
-1.77176
-1.77176
-1.77176
-1.77176
-1.77176
-1.77176
-1.77177
-1.77178
-1.77178
-1.77179
-1.7718
-1.77181
-1.77182
-1.77183
-1.77184
-1.77185
-1.77186
-1.77188
-1.77189
-1.7719
-1.77192
-1.77193
-1.77194
-1.77196
-1.77197
-1.77198
-1.772
-1.77201
-1.77202
-1.77203
-1.77204
-1.77205
-1.77206
-1.77207
-1.77208
-1.77208
-1.77209
-1.7721
-1.7721
-1.77211
-1.77211
-1.77212
-1.77212
-1.77212
-1.77212
-1.77212
-1.77212
-1.77212
-1.77212
-1.77211
-1.77211
-1.7721
-1.77209
-1.77209
-1.77208
-1.77207
-1.77206
-1.77205
-1.77204
-1.77203
-1.77202
-1.77201
-1.772
-1.77199
-1.77198
-1.77197
-1.77196
-1.77195
-1.77194
-1.77194
-1.77193
-1.77192
-1.77192
-1.77191
-1.77191
-1.7719
-1.7719
-1.77189
-1.77189
-1.77188
-1.77187
-1.77185
-1.77184
-1.77183
-1.77181
-1.77181
-1.87025
-1.87026
-1.87026
-1.87025
-1.87025
-1.87023
-1.87022
-1.87021
-1.8702
-1.87019
-1.87019
-1.87019
-1.87019
-1.87019
-1.87019
-1.87019
-1.87019
-1.87019
-1.87019
-1.8702
-1.8702
-1.87021
-1.87022
-1.87023
-1.87024
-1.87025
-1.87026
-1.87027
-1.87028
-1.87029
-1.87031
-1.87032
-1.87034
-1.87035
-1.87036
-1.87038
-1.87039
-1.8704
-1.87042
-1.87043
-1.87044
-1.87045
-1.87046
-1.87047
-1.87048
-1.87049
-1.8705
-1.87051
-1.87052
-1.87053
-1.87053
-1.87054
-1.87055
-1.87055
-1.87056
-1.87056
-1.87056
-1.87057
-1.87057
-1.87057
-1.87057
-1.87056
-1.87056
-1.87055
-1.87055
-1.87054
-1.87053
-1.87053
-1.87052
-1.87051
-1.8705
-1.87049
-1.87047
-1.87046
-1.87045
-1.87044
-1.87043
-1.87042
-1.87041
-1.8704
-1.8704
-1.87039
-1.87038
-1.87037
-1.87036
-1.87036
-1.87035
-1.87035
-1.87034
-1.87034
-1.87033
-1.87033
-1.87032
-1.87032
-1.87031
-1.87029
-1.87028
-1.87027
-1.87026
-1.87025
-1.96867
-1.96868
-1.96868
-1.96868
-1.96867
-1.96866
-1.96864
-1.96863
-1.96862
-1.96862
-1.96862
-1.96862
-1.96862
-1.96862
-1.96862
-1.96862
-1.96862
-1.96862
-1.96863
-1.96863
-1.96864
-1.96865
-1.96866
-1.96866
-1.96867
-1.96869
-1.9687
-1.96871
-1.96872
-1.96874
-1.96875
-1.96876
-1.96878
-1.96879
-1.96881
-1.96882
-1.96883
-1.96885
-1.96886
-1.96887
-1.96888
-1.9689
-1.96891
-1.96892
-1.96893
-1.96894
-1.96895
-1.96895
-1.96896
-1.96897
-1.96898
-1.96898
-1.96899
-1.96899
-1.969
-1.969
-1.96901
-1.96901
-1.96901
-1.96901
-1.96901
-1.969
-1.969
-1.96899
-1.96899
-1.96898
-1.96897
-1.96896
-1.96895
-1.96894
-1.96893
-1.96892
-1.96891
-1.9689
-1.96889
-1.96888
-1.96887
-1.96886
-1.96885
-1.96884
-1.96883
-1.96882
-1.96881
-1.96881
-1.9688
-1.96879
-1.96879
-1.96878
-1.96877
-1.96877
-1.96877
-1.96876
-1.96876
-1.96875
-1.96874
-1.96873
-1.96872
-1.96871
-1.9687
-1.96869
-2.06708
-2.06709
-2.0671
-2.0671
-2.06709
-2.06708
-2.06706
-2.06706
-2.06705
-2.06705
-2.06705
-2.06705
-2.06705
-2.06705
-2.06705
-2.06705
-2.06705
-2.06706
-2.06706
-2.06707
-2.06708
-2.06708
-2.06709
-2.0671
-2.06711
-2.06713
-2.06714
-2.06715
-2.06717
-2.06718
-2.06719
-2.06721
-2.06722
-2.06724
-2.06725
-2.06726
-2.06728
-2.06729
-2.0673
-2.06732
-2.06733
-2.06734
-2.06735
-2.06736
-2.06737
-2.06738
-2.06739
-2.0674
-2.0674
-2.06741
-2.06742
-2.06743
-2.06743
-2.06744
-2.06744
-2.06744
-2.06745
-2.06745
-2.06745
-2.06745
-2.06745
-2.06744
-2.06744
-2.06743
-2.06743
-2.06742
-2.06741
-2.0674
-2.06739
-2.06738
-2.06737
-2.06736
-2.06735
-2.06734
-2.06733
-2.06732
-2.06731
-2.0673
-2.06729
-2.06728
-2.06727
-2.06726
-2.06725
-2.06724
-2.06723
-2.06723
-2.06722
-2.06721
-2.06721
-2.0672
-2.0672
-2.0672
-2.06719
-2.06718
-2.06718
-2.06717
-2.06715
-2.06714
-2.06714
-2.06713
-2.16548
-2.1655
-2.1655
-2.16551
-2.1655
-2.16549
-2.16549
-2.16548
-2.16548
-2.16548
-2.16548
-2.16548
-2.16548
-2.16548
-2.16548
-2.16548
-2.16549
-2.16549
-2.1655
-2.1655
-2.16551
-2.16552
-2.16553
-2.16554
-2.16555
-2.16557
-2.16558
-2.16559
-2.16561
-2.16562
-2.16564
-2.16565
-2.16566
-2.16568
-2.16569
-2.16571
-2.16572
-2.16573
-2.16575
-2.16576
-2.16577
-2.16578
-2.16579
-2.1658
-2.16581
-2.16582
-2.16583
-2.16584
-2.16585
-2.16585
-2.16586
-2.16587
-2.16587
-2.16588
-2.16588
-2.16588
-2.16589
-2.16589
-2.16589
-2.16589
-2.16589
-2.16588
-2.16588
-2.16587
-2.16586
-2.16586
-2.16585
-2.16584
-2.16583
-2.16582
-2.16581
-2.1658
-2.16578
-2.16577
-2.16576
-2.16575
-2.16574
-2.16573
-2.16572
-2.16571
-2.1657
-2.16569
-2.16569
-2.16568
-2.16567
-2.16566
-2.16565
-2.16565
-2.16564
-2.16564
-2.16563
-2.16563
-2.16562
-2.16562
-2.16561
-2.1656
-2.16559
-2.16558
-2.16557
-2.16557
-2.26389
-2.2639
-2.26391
-2.26392
-2.26392
-2.26391
-2.26391
-2.26391
-2.26391
-2.26391
-2.26391
-2.26391
-2.26391
-2.26391
-2.26392
-2.26392
-2.26392
-2.26393
-2.26393
-2.26394
-2.26395
-2.26396
-2.26397
-2.26398
-2.26399
-2.26401
-2.26402
-2.26403
-2.26405
-2.26406
-2.26408
-2.26409
-2.26411
-2.26412
-2.26413
-2.26415
-2.26416
-2.26417
-2.26419
-2.2642
-2.26421
-2.26422
-2.26423
-2.26424
-2.26425
-2.26426
-2.26427
-2.26428
-2.26429
-2.26429
-2.2643
-2.26431
-2.26431
-2.26432
-2.26432
-2.26432
-2.26433
-2.26433
-2.26433
-2.26433
-2.26432
-2.26432
-2.26431
-2.26431
-2.2643
-2.26429
-2.26428
-2.26428
-2.26426
-2.26425
-2.26424
-2.26423
-2.26422
-2.26421
-2.2642
-2.26419
-2.26418
-2.26417
-2.26416
-2.26415
-2.26414
-2.26413
-2.26412
-2.26411
-2.2641
-2.2641
-2.26409
-2.26408
-2.26407
-2.26407
-2.26406
-2.26406
-2.26405
-2.26405
-2.26404
-2.26403
-2.26402
-2.26401
-2.26401
-2.264
-2.3623
-2.36232
-2.36233
-2.36234
-2.36234
-2.36234
-2.36234
-2.36234
-2.36234
-2.36235
-2.36235
-2.36235
-2.36235
-2.36235
-2.36235
-2.36235
-2.36236
-2.36236
-2.36237
-2.36238
-2.36239
-2.3624
-2.36241
-2.36242
-2.36243
-2.36245
-2.36246
-2.36247
-2.36249
-2.3625
-2.36252
-2.36253
-2.36255
-2.36256
-2.36257
-2.36259
-2.3626
-2.36261
-2.36263
-2.36264
-2.36265
-2.36266
-2.36267
-2.36268
-2.36269
-2.3627
-2.36271
-2.36272
-2.36273
-2.36273
-2.36274
-2.36275
-2.36275
-2.36276
-2.36276
-2.36276
-2.36276
-2.36277
-2.36277
-2.36276
-2.36276
-2.36276
-2.36275
-2.36275
-2.36274
-2.36273
-2.36272
-2.36271
-2.3627
-2.36269
-2.36268
-2.36267
-2.36266
-2.36265
-2.36263
-2.36262
-2.36261
-2.3626
-2.36259
-2.36258
-2.36257
-2.36256
-2.36256
-2.36255
-2.36254
-2.36253
-2.36252
-2.36251
-2.36251
-2.3625
-2.3625
-2.36249
-2.36249
-2.36248
-2.36247
-2.36246
-2.36245
-2.36245
-2.36244
-2.36244
-2.46074
-2.46075
-2.46077
-2.46077
-2.46077
-2.46077
-2.46077
-2.46078
-2.46078
-2.46078
-2.46078
-2.46078
-2.46078
-2.46078
-2.46078
-2.46079
-2.46079
-2.4608
-2.46081
-2.46081
-2.46082
-2.46083
-2.46085
-2.46086
-2.46087
-2.46088
-2.4609
-2.46091
-2.46093
-2.46094
-2.46096
-2.46097
-2.46098
-2.461
-2.46101
-2.46103
-2.46104
-2.46105
-2.46106
-2.46108
-2.46109
-2.4611
-2.46111
-2.46112
-2.46113
-2.46114
-2.46115
-2.46116
-2.46117
-2.46117
-2.46118
-2.46119
-2.46119
-2.4612
-2.4612
-2.4612
-2.4612
-2.4612
-2.4612
-2.4612
-2.4612
-2.46119
-2.46119
-2.46118
-2.46117
-2.46117
-2.46116
-2.46115
-2.46114
-2.46113
-2.46112
-2.4611
-2.46109
-2.46108
-2.46107
-2.46106
-2.46105
-2.46104
-2.46103
-2.46102
-2.46101
-2.461
-2.46099
-2.46098
-2.46097
-2.46096
-2.46096
-2.46095
-2.46094
-2.46093
-2.46093
-2.46092
-2.46092
-2.46091
-2.4609
-2.46089
-2.46089
-2.46088
-2.46087
-2.46087
-2.55919
-2.5592
-2.5592
-2.5592
-2.5592
-2.55921
-2.55921
-2.55921
-2.55921
-2.55921
-2.55921
-2.55921
-2.55922
-2.55922
-2.55922
-2.55922
-2.55923
-2.55924
-2.55924
-2.55925
-2.55926
-2.55927
-2.55928
-2.5593
-2.55931
-2.55932
-2.55934
-2.55935
-2.55937
-2.55938
-2.55939
-2.55941
-2.55942
-2.55944
-2.55945
-2.55946
-2.55948
-2.55949
-2.5595
-2.55951
-2.55953
-2.55954
-2.55955
-2.55956
-2.55957
-2.55958
-2.55959
-2.5596
-2.5596
-2.55961
-2.55962
-2.55962
-2.55963
-2.55963
-2.55964
-2.55964
-2.55964
-2.55964
-2.55964
-2.55964
-2.55964
-2.55963
-2.55963
-2.55962
-2.55961
-2.5596
-2.55959
-2.55958
-2.55957
-2.55956
-2.55955
-2.55954
-2.55953
-2.55952
-2.55951
-2.5595
-2.55949
-2.55948
-2.55947
-2.55946
-2.55945
-2.55944
-2.55943
-2.55942
-2.55941
-2.5594
-2.55939
-2.55938
-2.55937
-2.55937
-2.55936
-2.55935
-2.55935
-2.55934
-2.55933
-2.55932
-2.55932
-2.55931
-2.5593
-2.5593
-2.65763
-2.65763
-2.65764
-2.65764
-2.65764
-2.65764
-2.65764
-2.65764
-2.65765
-2.65765
-2.65765
-2.65765
-2.65765
-2.65765
-2.65766
-2.65766
-2.65766
-2.65767
-2.65768
-2.65769
-2.6577
-2.65771
-2.65772
-2.65774
-2.65775
-2.65776
-2.65778
-2.65779
-2.6578
-2.65782
-2.65783
-2.65785
-2.65786
-2.65787
-2.65789
-2.6579
-2.65791
-2.65793
-2.65794
-2.65795
-2.65796
-2.65797
-2.65798
-2.65799
-2.658
-2.65801
-2.65802
-2.65803
-2.65804
-2.65805
-2.65805
-2.65806
-2.65807
-2.65807
-2.65808
-2.65808
-2.65808
-2.65808
-2.65808
-2.65808
-2.65807
-2.65807
-2.65806
-2.65806
-2.65805
-2.65804
-2.65803
-2.65802
-2.65801
-2.658
-2.65799
-2.65798
-2.65797
-2.65796
-2.65795
-2.65793
-2.65792
-2.65791
-2.6579
-2.65789
-2.65788
-2.65787
-2.65786
-2.65785
-2.65784
-2.65783
-2.65782
-2.65781
-2.6578
-2.6578
-2.65779
-2.65778
-2.65778
-2.65777
-2.65776
-2.65775
-2.65774
-2.65774
-2.65773
-2.65773
-2.75606
-2.75607
-2.75607
-2.75607
-2.75607
-2.75607
-2.75608
-2.75608
-2.75608
-2.75608
-2.75608
-2.75609
-2.75609
-2.75609
-2.75609
-2.7561
-2.7561
-2.75611
-2.75612
-2.75613
-2.75614
-2.75615
-2.75616
-2.75617
-2.75619
-2.7562
-2.75621
-2.75623
-2.75624
-2.75625
-2.75627
-2.75628
-2.7563
-2.75631
-2.75632
-2.75634
-2.75635
-2.75636
-2.75637
-2.75639
-2.7564
-2.75641
-2.75642
-2.75643
-2.75644
-2.75645
-2.75646
-2.75647
-2.75648
-2.75648
-2.75649
-2.7565
-2.7565
-2.75651
-2.75651
-2.75651
-2.75652
-2.75652
-2.75652
-2.75651
-2.75651
-2.75651
-2.7565
-2.75649
-2.75649
-2.75648
-2.75647
-2.75646
-2.75645
-2.75644
-2.75643
-2.75642
-2.7564
-2.75639
-2.75638
-2.75637
-2.75636
-2.75635
-2.75634
-2.75633
-2.75632
-2.75631
-2.75629
-2.75628
-2.75627
-2.75626
-2.75625
-2.75624
-2.75624
-2.75623
-2.75622
-2.75621
-2.7562
-2.7562
-2.75619
-2.75618
-2.75617
-2.75616
-2.75616
-2.75615
-2.8545
-2.8545
-2.8545
-2.8545
-2.8545
-2.85451
-2.85451
-2.85451
-2.85452
-2.85452
-2.85452
-2.85452
-2.85452
-2.85453
-2.85453
-2.85453
-2.85454
-2.85455
-2.85455
-2.85456
-2.85457
-2.85458
-2.8546
-2.85461
-2.85462
-2.85463
-2.85465
-2.85466
-2.85468
-2.85469
-2.8547
-2.85472
-2.85473
-2.85474
-2.85476
-2.85477
-2.85478
-2.8548
-2.85481
-2.85482
-2.85483
-2.85484
-2.85485
-2.85486
-2.85487
-2.85488
-2.85489
-2.8549
-2.85491
-2.85492
-2.85493
-2.85493
-2.85494
-2.85494
-2.85495
-2.85495
-2.85495
-2.85495
-2.85495
-2.85495
-2.85495
-2.85494
-2.85494
-2.85493
-2.85492
-2.85491
-2.85491
-2.8549
-2.85489
-2.85488
-2.85486
-2.85485
-2.85484
-2.85483
-2.85482
-2.85481
-2.8548
-2.85478
-2.85477
-2.85476
-2.85475
-2.85474
-2.85473
-2.85472
-2.85471
-2.8547
-2.85468
-2.85467
-2.85467
-2.85466
-2.85465
-2.85464
-2.85463
-2.85462
-2.85462
-2.85461
-2.8546
-2.85459
-2.85458
-2.85458
-2.95293
-2.95293
-2.95293
-2.95293
-2.95293
-2.95294
-2.95294
-2.95295
-2.95295
-2.95295
-2.95296
-2.95296
-2.95296
-2.95296
-2.95297
-2.95297
-2.95297
-2.95298
-2.95299
-2.953
-2.95301
-2.95302
-2.95303
-2.95304
-2.95306
-2.95307
-2.95308
-2.9531
-2.95311
-2.95312
-2.95314
-2.95315
-2.95316
-2.95318
-2.95319
-2.9532
-2.95322
-2.95323
-2.95324
-2.95325
-2.95326
-2.95328
-2.95329
-2.9533
-2.95331
-2.95332
-2.95333
-2.95334
-2.95334
-2.95335
-2.95336
-2.95337
-2.95337
-2.95338
-2.95338
-2.95338
-2.95339
-2.95339
-2.95339
-2.95338
-2.95338
-2.95338
-2.95337
-2.95337
-2.95336
-2.95335
-2.95334
-2.95333
-2.95332
-2.95331
-2.9533
-2.95329
-2.95328
-2.95327
-2.95326
-2.95324
-2.95323
-2.95322
-2.95321
-2.9532
-2.95318
-2.95317
-2.95316
-2.95315
-2.95314
-2.95313
-2.95312
-2.9531
-2.95309
-2.95309
-2.95308
-2.95307
-2.95306
-2.95305
-2.95304
-2.95303
-2.95302
-2.95301
-2.953
-2.953
-3.05136
-3.05136
-3.05136
-3.05136
-3.05137
-3.05137
-3.05138
-3.05138
-3.05139
-3.05139
-3.05139