/*--------------------------------*- C++ -*----------------------------------*\
| =========                 |                                                 |
| \\      /  F ield         | OpenFOAM: The Open Source CFD Toolbox           |
|  \\    /   O peration     | Version:  4.1                                   |
|   \\  /    A nd           | Web:      www.OpenFOAM.org                      |
|    \\/     M anipulation  |                                                 |
\*---------------------------------------------------------------------------*/
FoamFile
{
    version     2.0;
    format      ascii;
    class       volScalarField;
    location    "1520";
    object      T;
}
// * * * * * * * * * * * * * * * * * * * * * * * * * * * * * * * * * * * * * //

dimensions      [0 0 0 1 0 0 0];

internalField   nonuniform List<scalar> 
5000
(
286.111
285.773
285.48
285.27
285.125
285.009
284.9
284.982
285.101
285.236
285.378
285.524
285.67
285.815
285.954
286.082
286.2
286.306
286.399
286.474
286.525
286.55
286.555
286.542
286.515
286.479
286.438
286.394
286.35
286.309
286.272
286.238
286.21
286.187
286.168
286.155
286.146
286.141
286.141
286.144
286.15
286.16
286.172
286.187
286.205
286.226
286.25
286.277
286.307
286.341
286.38
286.424
286.474
286.531
286.597
286.672
286.757
286.851
286.949
287.048
287.15
287.253
287.359
287.468
287.58
287.696
287.815
287.939
288.068
288.201
288.34
288.483
288.633
288.787
288.947
289.112
289.283
289.458
289.638
289.822
290.01
290.203
290.4
290.605
290.822
291.002
287.888
286.604
286.374
286.189
286.187
286.041
285.899
285.757
285.632
285.531
285.458
285.407
285.536
285.879
285.441
284.498
284.146
284.151
284.161
284.172
284.185
284.2
284.208
284.212
284.214
284.215
284.216
284.216
284.218
284.224
284.23
284.232
284.229
284.224
284.223
284.225
284.227
284.23
284.233
284.236
284.239
284.242
284.245
284.247
284.248
284.249
284.25
284.251
284.251
284.251
284.25
284.25
284.25
284.249
284.249
284.248
284.248
284.247
284.247
284.246
284.246
284.246
284.245
284.245
284.245
284.245
284.244
284.244
284.244
284.244
284.244
284.246
284.255
284.274
284.302
284.341
284.391
284.451
284.521
284.601
284.691
284.79
284.897
285.012
285.134
285.262
285.396
285.535
285.68
285.83
285.984
286.144
286.308
286.477
286.658
286.867
287.136
287.516
288.102
289.045
288.607
287.933
287.15
284.748
284.737
284.743
284.754
284.801
284.869
284.933
284.982
285.011
285.028
285.59
285.179
284.29
284.134
284.148
284.164
284.181
284.196
284.213
284.225
284.232
284.235
284.236
284.236
284.236
284.236
284.236
284.236
284.238
284.239
284.242
284.246
284.25
284.254
284.258
284.261
284.264
284.266
284.266
284.266
284.265
284.263
284.26
284.258
284.255
284.251
284.248
284.245
284.243
284.24
284.238
284.235
284.233
284.232
284.23
284.229
284.228
284.227
284.226
284.226
284.225
284.225
284.225
284.226
284.226
284.227
284.228
284.23
284.231
284.233
284.234
284.236
284.239
284.244
284.252
284.263
284.279
284.3
284.327
284.361
284.402
284.451
284.507
284.57
284.64
284.718
284.802
284.894
284.992
285.098
285.212
285.34
285.495
285.704
286.009
286.493
287.307
287.71
287.72
287.401
286.628
285.954
284.91
284.768
284.858
284.946
285.018
285.063
285.094
285.162
285.442
285.029
284.219
284.133
284.152
284.173
284.192
284.208
284.226
284.243
284.253
284.259
284.262
284.263
284.265
284.266
284.268
284.27
284.273
284.276
284.279
284.282
284.285
284.286
284.286
284.284
284.281
284.277
284.272
284.266
284.259
284.252
284.245
284.238
284.231
284.224
284.218
284.213
284.208
284.203
284.199
284.196
284.192
284.19
284.187
284.185
284.184
284.183
284.182
284.181
284.181
284.181
284.182
284.183
284.185
284.187
284.19
284.193
284.197
284.202
284.207
284.212
284.218
284.222
284.227
284.232
284.237
284.244
284.251
284.261
284.274
284.29
284.311
284.336
284.365
284.4
284.441
284.487
284.539
284.598
284.665
284.744
284.842
284.978
285.18
285.5
286.051
286.589
286.935
287.019
286.788
286.381
285.829
285.295
284.919
284.997
285.072
285.105
285.116
285.133
285.201
284.928
284.186
284.133
284.156
284.182
284.203
284.22
284.237
284.258
284.272
284.28
284.284
284.286
284.289
284.291
284.293
284.296
284.298
284.299
284.299
284.298
284.296
284.292
284.286
284.279
284.271
284.262
284.252
284.241
284.23
284.219
284.209
284.198
284.189
284.18
284.172
284.164
284.158
284.152
284.147
284.142
284.138
284.135
284.132
284.129
284.127
284.126
284.124
284.124
284.123
284.124
284.124
284.126
284.128
284.13
284.134
284.139
284.144
284.151
284.158
284.166
284.175
284.184
284.193
284.202
284.21
284.217
284.225
284.231
284.238
284.246
284.255
284.265
284.277
284.291
284.308
284.329
284.354
284.383
284.418
284.461
284.518
284.598
284.717
284.907
285.236
285.66
286.063
286.345
286.426
286.315
286.031
285.64
285.272
285.055
285.107
285.139
285.141
285.115
285.078
284.855
284.168
284.133
284.162
284.192
284.214
284.23
284.249
284.27
284.288
284.297
284.302
284.305
284.307
284.308
284.309
284.308
284.307
284.304
284.301
284.296
284.29
284.283
284.274
284.263
284.251
284.238
284.224
284.209
284.195
284.18
284.167
284.154
284.142
284.131
284.121
284.112
284.105
284.098
284.092
284.086
284.082
284.078
284.075
284.072
284.07
284.068
284.067
284.066
284.066
284.066
284.067
284.068
284.07
284.073
284.077
284.082
284.088
284.095
284.104
284.113
284.125
284.136
284.149
284.162
284.174
284.186
284.197
284.207
284.216
284.224
284.231
284.238
284.245
284.251
284.259
284.267
284.278
284.29
284.306
284.327
284.356
284.398
284.463
284.567
284.746
285.015
285.341
285.657
285.885
285.98
285.92
285.723
285.459
285.233
285.139
285.158
285.209
285.199
285.14
284.797
284.157
284.135
284.169
284.202
284.224
284.24
284.259
284.281
284.3
284.31
284.314
284.316
284.316
284.315
284.312
284.309
284.306
284.301
284.297
284.291
284.283
284.272
284.26
284.245
284.228
284.211
284.193
284.175
284.157
284.14
284.124
284.109
284.095
284.082
284.071
284.061
284.052
284.044
284.037
284.032
284.027
284.023
284.02
284.017
284.015
284.013
284.012
284.011
284.011
284.011
284.012
284.014
284.016
284.019
284.023
284.028
284.035
284.042
284.051
284.062
284.074
284.088
284.103
284.118
284.134
284.15
284.166
284.18
284.193
284.204
284.214
284.222
284.229
284.234
284.239
284.243
284.247
284.251
284.257
284.265
284.277
284.297
284.328
284.38
284.47
284.619
284.834
285.096
285.355
285.556
285.65
285.619
285.491
285.335
285.224
285.197
285.234
285.272
285.204
284.748
284.15
284.138
284.178
284.213
284.235
284.249
284.268
284.29
284.309
284.319
284.322
284.322
284.32
284.317
284.313
284.309
284.305
284.301
284.296
284.288
284.276
284.261
284.244
284.225
284.204
284.183
284.162
284.14
284.12
284.1
284.082
284.064
284.049
284.035
284.022
284.011
284.001
283.993
283.986
283.98
283.975
283.971
283.967
283.965
283.963
283.961
283.961
283.96
283.96
283.961
283.962
283.963
283.966
283.969
283.973
283.979
283.985
283.994
284.003
284.014
284.027
284.042
284.058
284.076
284.094
284.113
284.132
284.151
284.168
284.183
284.197
284.208
284.217
284.224
284.229
284.232
284.234
284.235
284.236
284.238
284.241
284.247
284.26
284.283
284.324
284.398
284.52
284.702
284.926
285.152
285.328
285.414
285.406
285.337
285.265
285.233
285.256
285.3
285.257
284.707
284.145
284.143
284.188
284.226
284.246
284.258
284.275
284.298
284.317
284.326
284.328
284.327
284.324
284.32
284.317
284.313
284.309
284.304
284.296
284.284
284.267
284.247
284.226
284.204
284.18
284.156
284.132
284.108
284.085
284.063
284.042
284.023
284.006
283.991
283.977
283.965
283.954
283.945
283.938
283.932
283.927
283.922
283.919
283.917
283.915
283.914
283.913
283.913
283.913
283.914
283.916
283.918
283.92
283.924
283.928
283.934
283.941
283.949
283.959
283.971
283.985
284
284.017
284.036
284.057
284.078
284.1
284.122
284.143
284.162
284.179
284.194
284.206
284.216
284.222
284.227
284.229
284.23
284.229
284.228
284.226
284.226
284.228
284.235
284.251
284.283
284.346
284.455
284.621
284.824
285.026
285.178
285.256
285.268
285.249
285.24
285.264
285.314
285.287
284.672
284.142
284.148
284.199
284.24
284.258
284.266
284.281
284.304
284.324
284.333
284.335
284.333
284.33
284.327
284.324
284.32
284.315
284.307
284.295
284.277
284.255
284.233
284.209
284.184
284.158
284.132
284.105
284.079
284.054
284.03
284.007
283.987
283.968
283.951
283.936
283.923
283.912
283.903
283.895
283.889
283.883
283.879
283.876
283.874
283.872
283.871
283.871
283.871
283.872
283.873
283.875
283.877
283.88
283.884
283.889
283.894
283.902
283.91
283.921
283.933
283.946
283.962
283.981
284.001
284.023
284.046
284.071
284.095
284.119
284.141
284.162
284.18
284.195
284.208
284.217
284.224
284.227
284.229
284.228
284.226
284.223
284.219
284.216
284.216
284.219
284.229
284.257
284.317
284.426
284.587
284.777
284.956
285.088
285.162
285.196
285.219
285.259
285.317
285.303
284.641
284.141
284.155
284.212
284.255
284.271
284.275
284.286
284.31
284.332
284.341
284.343
284.341
284.338
284.336
284.332
284.327
284.32
284.308
284.29
284.266
284.244
284.22
284.195
284.168
284.14
284.111
284.082
284.054
284.026
284
283.976
283.954
283.934
283.916
283.9
283.887
283.875
283.866
283.858
283.851
283.846
283.842
283.839
283.837
283.836
283.835
283.835
283.835
283.836
283.837
283.839
283.842
283.845
283.849
283.854
283.86
283.868
283.876
283.887
283.899
283.913
283.93
283.949
283.97
283.993
284.018
284.044
284.071
284.097
284.123
284.146
284.167
284.186
284.201
284.213
284.221
284.227
284.23
284.23
284.228
284.224
284.22
284.215
284.21
284.207
284.208
284.217
284.247
284.314
284.431
284.593
284.772
284.93
285.048
285.125
285.183
285.245
285.315
285.307
284.614
284.14
284.163
284.228
284.274
284.286
284.284
284.292
284.315
284.339
284.35
284.352
284.351
284.348
284.345
284.341
284.334
284.323
284.305
284.281
284.257
284.234
284.209
284.183
284.154
284.124
284.093
284.062
284.031
284.001
283.973
283.947
283.924
283.903
283.884
283.868
283.855
283.843
283.834
283.826
283.819
283.814
283.811
283.808
283.806
283.805
283.805
283.805
283.806
283.807
283.808
283.811
283.813
283.817
283.821
283.826
283.832
283.84
283.848
283.859
283.871
283.886
283.902
283.922
283.944
283.968
283.994
284.022
284.05
284.079
284.107
284.133
284.156
284.177
284.195
284.209
284.22
284.227
284.231
284.233
284.232
284.229
284.224
284.218
284.212
284.206
284.202
284.203
284.216
284.255
284.338
284.469
284.633
284.8
284.944
285.055
285.145
285.23
285.313
285.302
284.591
284.14
284.172
284.247
284.296
284.304
284.295
284.297
284.32
284.347
284.36
284.362
284.361
284.358
284.354
284.347
284.337
284.322
284.298
284.272
284.249
284.226
284.201
284.173
284.142
284.11
284.076
284.042
284.009
283.977
283.948
283.921
283.896
283.875
283.856
283.84
283.827
283.816
283.806
283.799
283.793
283.789
283.785
283.783
283.782
283.781
283.781
283.782
283.783
283.784
283.786
283.789
283.792
283.795
283.8
283.805
283.811
283.818
283.827
283.837
283.849
283.864
283.881
283.9
283.923
283.948
283.975
284.004
284.034
284.064
284.094
284.122
284.148
284.171
284.19
284.207
284.219
284.228
284.234
284.236
284.236
284.234
284.23
284.224
284.217
284.211
284.204
284.2
284.205
284.228
284.286
284.39
284.536
284.701
284.859
284.995
285.11
285.217
285.311
285.294
284.571
284.14
284.18
284.267
284.322
284.326
284.307
284.302
284.324
284.355
284.37
284.372
284.37
284.367
284.36
284.351
284.337
284.318
284.288
284.265
284.242
284.219
284.192
284.163
284.13
284.095
284.059
284.023
283.987
283.954
283.923
283.896
283.871
283.85
283.831
283.816
283.803
283.793
283.784
283.778
283.773
283.769
283.766
283.765
283.764
283.764
283.765
283.766
283.767
283.769
283.771
283.774
283.777
283.781
283.785
283.79
283.796
283.803
283.811
283.821
283.833
283.848
283.865
283.885
283.908
283.933
283.961
283.991
284.022
284.054
284.085
284.114
284.142
284.166
284.188
284.205
284.219
284.23
284.236
284.24
284.241
284.24
284.236
284.231
284.224
284.217
284.21
284.204
284.204
284.219
284.261
284.345
284.474
284.632
284.797
284.949
285.085
285.209
285.311
285.284
284.556
284.14
284.189
284.29
284.352
284.35
284.321
284.307
284.327
284.362
284.379
284.382
284.379
284.373
284.364
284.351
284.333
284.308
284.279
284.257
284.234
284.21
284.183
284.151
284.116
284.079
284.04
284.002
283.965
283.931
283.9
283.872
283.848
283.827
283.81
283.795
283.784
283.774
283.767
283.761
283.758
283.755
283.753
283.753
283.753
283.754
283.755
283.757
283.759
283.761
283.764
283.767
283.77
283.774
283.778
283.783
283.789
283.795
283.803
283.813
283.824
283.838
283.855
283.875
283.898
283.924
283.952
283.983
284.015
284.047
284.079
284.11
284.138
284.164
284.186
284.205
284.22
284.231
284.239
284.244
284.246
284.245
284.242
284.237
284.231
284.224
284.216
284.209
284.207
284.217
284.251
284.322
284.438
284.589
284.755
284.918
285.069
285.206
285.311
285.272
284.543
284.139
284.197
284.315
284.386
284.376
284.337
284.312
284.328
284.369
284.388
284.39
284.385
284.377
284.364
284.347
284.324
284.293
284.268
284.246
284.223
284.199
284.17
284.137
284.1
284.061
284.02
283.981
283.943
283.908
283.877
283.85
283.827
283.808
283.791
283.778
283.768
283.76
283.755
283.751
283.748
283.747
283.747
283.747
283.748
283.75
283.752
283.754
283.757
283.76
283.763
283.766
283.77
283.774
283.778
283.783
283.788
283.794
283.801
283.81
283.821
283.835
283.852
283.871
283.894
283.92
283.949
283.979
284.012
284.044
284.077
284.108
284.137
284.163
284.186
284.205
284.221
284.233
284.241
284.247
284.249
284.249
284.247
284.243
284.237
284.23
284.222
284.215
284.211
284.218
284.248
284.312
284.419
284.565
284.732
284.901
285.061
285.206
285.311
285.258
284.535
284.139
284.203
284.34
284.419
284.403
284.354
284.319
284.329
284.376
284.397
284.397
284.39
284.378
284.361
284.34
284.308
284.278
284.253
284.231
284.209
284.184
284.155
284.12
284.081
284.04
283.998
283.958
283.92
283.886
283.856
283.83
283.809
283.791
283.777
283.766
283.757
283.751
283.747
283.745
283.744
283.744
283.745
283.747
283.749
283.752
283.755
283.758
283.761
283.764
283.768
283.772
283.776
283.78
283.784
283.788
283.793
283.799
283.806
283.814
283.825
283.838
283.854
283.873
283.895
283.921
283.949
283.98
284.012
284.045
284.078
284.109
284.138
284.164
284.187
284.206
284.222
284.234
284.243
284.248
284.251
284.252
284.25
284.246
284.241
284.235
284.227
284.22
284.215
284.221
284.248
284.309
284.413
284.555
284.721
284.895
285.061
285.21
285.31
285.242
284.535
284.141
284.208
284.365
284.445
284.425
284.37
284.326
284.331
284.382
284.405
284.402
284.391
284.375
284.354
284.326
284.287
284.258
284.234
284.213
284.191
284.166
284.136
284.1
284.06
284.017
283.975
283.935
283.898
283.865
283.837
283.813
283.793
283.778
283.766
283.757
283.751
283.747
283.745
283.744
283.745
283.747
283.749
283.752
283.755
283.759
283.762
283.766
283.77
283.774
283.778
283.782
283.786
283.79
283.794
283.798
283.803
283.809
283.815
283.823
283.833
283.845
283.861
283.88
283.902
283.927
283.955
283.985
284.016
284.049
284.08
284.111
284.139
284.165
284.187
284.206
284.222
284.234
284.242
284.248
284.251
284.252
284.251
284.248
284.243
284.237
284.23
284.223
284.218
284.222
284.248
284.309
284.412
284.554
284.72
284.896
285.065
285.215
285.308
285.225
284.544
284.161
284.225
284.387
284.457
284.438
284.382
284.335
284.333
284.389
284.411
284.405
284.39
284.369
284.344
284.304
284.263
284.234
284.211
284.191
284.17
284.145
284.114
284.077
284.036
283.993
283.951
283.912
283.876
283.845
283.82
283.798
283.781
283.768
283.759
283.752
283.748
283.746
283.746
283.748
283.75
283.753
283.757
283.761
283.765
283.769
283.774
283.778
283.782
283.786
283.79
283.794
283.798
283.802
283.807
283.812
283.817
283.822
283.828
283.836
283.845
283.857
283.872
283.89
283.912
283.936
283.963
283.992
284.023
284.054
284.085
284.114
284.141
284.166
284.187
284.205
284.219
284.231
284.239
284.245
284.248
284.249
284.248
284.246
284.242
284.237
284.231
284.224
284.219
284.223
284.248
284.31
284.415
284.557
284.725
284.901
285.071
285.219
285.302
285.206
284.555
284.222
284.277
284.413
284.469
284.442
284.385
284.34
284.338
284.398
284.416
284.404
284.385
284.359
284.327
284.275
284.235
284.206
284.185
284.167
284.148
284.123
284.091
284.053
284.011
283.968
283.927
283.889
283.856
283.828
283.805
283.787
283.773
283.762
283.755
283.751
283.75
283.75
283.752
283.755
283.759
283.763
283.768
283.773
283.778
283.783
283.787
283.791
283.795
283.799
283.802
283.806
283.811
283.815
283.82
283.826
283.831
283.837
283.844
283.851
283.861
283.872
283.887
283.904
283.924
283.948
283.974
284.002
284.031
284.06
284.089
284.117
284.142
284.165
284.184
284.201
284.214
284.225
284.232
284.238
284.241
284.242
284.243
284.241
284.239
284.235
284.229
284.223
284.218
284.222
284.247
284.309
284.417
284.562
284.731
284.907
285.077
285.221
285.294
285.185
284.568
284.319
284.365
284.463
284.481
284.436
284.377
284.34
284.351
284.424
284.417
284.401
284.375
284.343
284.302
284.244
284.203
284.176
284.158
284.143
284.125
284.1
284.066
284.027
283.985
283.943
283.903
283.868
283.838
283.813
283.794
283.778
283.767
283.76
283.755
283.754
283.754
283.756
283.76
283.765
283.77
283.776
283.781
283.787
283.792
283.797
283.801
283.805
283.808
283.811
283.814
283.818
283.822
283.827
283.832
283.839
283.846
283.853
283.86
283.868
283.877
283.889
283.903
283.919
283.939
283.961
283.985
284.011
284.038
284.066
284.092
284.117
284.14
284.161
284.178
284.193
284.205
284.214
284.221
284.226
284.23
284.232
284.233
284.233
284.232
284.229
284.225
284.22
284.216
284.219
284.244
284.307
284.416
284.565
284.735
284.912
285.08
285.219
285.281
285.163
284.587
284.433
284.469
284.509
284.475
284.411
284.355
284.338
284.392
284.427
284.415
284.392
284.36
284.321
284.27
284.212
284.172
284.148
284.134
284.122
284.103
284.076
284.041
284.001
283.959
283.919
283.882
283.85
283.823
283.802
283.786
283.774
283.765
283.76
283.759
283.759
283.761
283.766
283.771
283.777
283.783
283.79
283.796
283.802
283.807
283.811
283.815
283.818
283.82
283.822
283.824
283.827
283.83
283.835
283.842
283.849
283.858
283.867
283.876
283.884
283.894
283.905
283.919
283.934
283.953
283.973
283.996
284.02
284.044
284.069
284.092
284.115
284.135
284.153
284.168
284.181
284.191
284.199
284.205
284.21
284.214
284.217
284.219
284.221
284.221
284.221
284.219
284.216
284.213
284.216
284.239
284.301
284.412
284.563
284.736
284.913
285.079
285.213
285.266
285.141
284.608
284.53
284.527
284.49
284.418
284.358
284.327
284.369
284.423
284.426
284.408
284.378
284.339
284.292
284.236
284.181
284.143
284.124
284.114
284.103
284.083
284.054
284.017
283.975
283.934
283.896
283.862
283.834
283.811
283.794
283.781
283.772
283.766
283.764
283.764
283.767
283.771
283.777
283.783
283.791
283.798
283.805
283.811
283.817
283.822
283.826
283.829
283.831
283.832
283.832
283.833
283.834
283.837
283.841
283.847
283.856
283.867
283.878
283.888
283.898
283.908
283.919
283.932
283.947
283.964
283.983
284.003
284.024
284.046
284.067
284.088
284.107
284.124
284.139
284.152
284.163
284.172
284.179
284.185
284.189
284.194
284.198
284.202
284.205
284.208
284.211
284.211
284.21
284.208
284.212
284.234
284.294
284.404
284.556
284.731
284.908
285.072
285.202
285.246
285.119
284.58
284.515
284.449
284.372
284.321
284.307
284.365
284.418
284.43
284.421
284.396
284.358
284.31
284.258
284.204
284.154
284.119
284.105
284.098
284.086
284.064
284.031
283.992
283.951
283.911
283.876
283.846
283.822
283.803
283.789
283.779
283.773
283.77
283.77
283.772
283.776
283.782
283.789
283.797
283.805
283.813
283.821
283.827
283.833
283.837
283.841
283.843
283.844
283.843
283.843
283.842
283.841
283.841
283.844
283.849
283.858
283.869
283.882
283.894
283.905
283.916
283.927
283.94
283.954
283.97
283.987
284.005
284.023
284.042
284.06
284.077
284.093
284.108
284.12
284.131
284.14
284.147
284.154
284.159
284.165
284.17
284.176
284.182
284.188
284.194
284.199
284.202
284.203
284.203
284.207
284.228
284.284
284.391
284.543
284.718
284.896
285.06
285.186
285.224
285.096
284.377
284.34
284.308
284.299
284.324
284.367
284.414
284.433
284.43
284.412
284.38
284.332
284.277
284.225
284.178
284.134
284.1
284.091
284.086
284.073
284.046
284.01
283.969
283.928
283.891
283.859
283.833
283.813
283.798
283.787
283.78
283.776
283.776
283.777
283.781
283.787
283.795
283.803
283.812
283.821
283.829
283.837
283.843
283.849
283.853
283.856
283.858
283.858
283.857
283.855
283.852
283.849
283.847
283.846
283.848
283.854
283.865
283.878
283.891
283.903
283.915
283.927
283.94
283.953
283.968
283.983
283.998
284.014
284.03
284.045
284.06
284.073
284.085
284.095
284.104
284.112
284.119
284.125
284.131
284.138
284.144
284.152
284.161
284.169
284.178
284.186
284.192
284.195
284.197
284.202
284.221
284.273
284.375
284.525
284.7
284.879
285.043
285.166
285.198
285.073
284.202
284.263
284.302
284.337
284.373
284.409
284.434
284.438
284.426
284.399
284.358
284.301
284.245
284.199
284.162
284.12
284.087
284.082
284.078
284.06
284.029
283.989
283.947
283.908
283.873
283.845
283.824
283.807
283.796
283.788
283.783
283.782
283.783
283.786
283.792
283.799
283.808
283.817
283.827
283.836
283.845
283.853
283.86
283.866
283.87
283.873
283.874
283.874
283.873
283.87
283.866
283.862
283.857
283.853
283.85
283.85
283.856
283.866
283.879
283.892
283.905
283.917
283.93
283.943
283.956
283.97
283.984
283.997
284.011
284.024
284.036
284.047
284.057
284.066
284.074
284.081
284.088
284.095
284.102
284.11
284.119
284.129
284.14
284.151
284.163
284.173
284.182
284.188
284.191
284.197
284.214
284.261
284.357
284.501
284.675
284.855
285.02
285.142
285.171
285.05
284.195
284.304
284.356
284.385
284.411
284.432
284.443
284.437
284.417
284.381
284.33
284.27
284.217
284.182
284.154
284.113
284.078
284.077
284.072
284.05
284.013
283.97
283.928
283.89
283.86
283.836
283.818
283.805
283.796
283.791
283.789
283.789
283.792
283.797
283.804
283.812
283.822
283.832
283.842
283.852
283.861
283.87
283.877
283.883
283.888
283.891
283.893
283.893
283.892
283.89
283.886
283.881
283.875
283.868
283.861
283.854
283.852
283.855
283.866
283.877
283.89
283.902
283.914
283.926
283.939
283.951
283.963
283.975
283.987
283.998
284.008
284.018
284.027
284.035
284.043
284.051
284.058
284.066
284.075
284.084
284.095
284.107
284.121
284.135
284.148
284.161
284.172
284.18
284.185
284.192
284.207
284.25
284.337
284.474
284.646
284.827
284.994
285.116
285.142
285.028
284.188
284.353
284.4
284.418
284.434
284.445
284.446
284.433
284.404
284.36
284.301
284.242
284.2
284.176
284.154
284.11
284.072
284.074
284.067
284.04
283.998
283.953
283.912
283.877
283.85
283.83
283.816
283.806
283.799
283.796
283.795
283.797
283.801
283.808
283.816
283.825
283.835
283.846
283.857
283.868
283.878
283.887
283.894
283.901
283.907
283.911
283.914
283.916
283.916
283.915
283.912
283.907
283.902
283.894
283.885
283.876
283.867
283.861
283.863
283.872
283.881
283.89
283.901
283.911
283.922
283.933
283.943
283.954
283.964
283.973
283.983
283.992
284
284.008
284.016
284.024
284.033
284.042
284.052
284.063
284.076
284.09
284.105
284.121
284.136
284.151
284.163
284.173
284.18
284.186
284.201
284.238
284.317
284.446
284.614
284.797
284.966
285.088
285.112
285.006
284.177
284.383
284.426
284.439
284.449
284.453
284.447
284.426
284.389
284.337
284.274
284.222
284.193
284.18
284.16
284.11
284.069
284.074
284.064
284.031
283.985
283.939
283.899
283.867
283.843
283.827
283.816
283.808
283.804
283.802
283.803
283.806
283.811
283.819
283.828
283.838
283.849
283.86
283.872
283.883
283.893
283.903
283.912
283.92
283.927
283.932
283.937
283.94
283.942
283.943
283.942
283.939
283.935
283.93
283.923
283.914
283.904
283.894
283.887
283.888
283.891
283.895
283.901
283.908
283.916
283.924
283.932
283.941
283.949
283.957
283.965
283.973
283.981
283.989
283.997
284.006
284.015
284.024
284.035
284.048
284.061
284.077
284.093
284.11
284.127
284.143
284.156
284.167
284.174
284.181
284.195
284.228
284.298
284.419
284.583
284.767
284.938
285.059
285.081
284.985
284.162
284.396
284.442
284.453
284.459
284.458
284.445
284.417
284.374
284.315
284.253
284.212
284.196
284.191
284.17
284.112
284.067
284.076
284.063
284.024
283.975
283.928
283.889
283.86
283.841
283.827
283.818
283.813
283.81
283.809
283.811
283.815
283.822
283.83
283.839
283.85
283.862
283.874
283.886
283.897
283.909
283.919
283.929
283.939
283.947
283.954
283.96
283.966
283.97
283.972
283.974
283.974
283.972
283.969
283.964
283.958
283.95
283.94
283.931
283.924
283.921
283.92
283.921
283.923
283.927
283.931
283.936
283.942
283.947
283.954
283.96
283.966
283.973
283.98
283.988
283.996
284.005
284.015
284.026
284.039
284.053
284.068
284.085
284.103
284.12
284.136
284.15
284.161
284.169
284.177
284.189
284.219
284.283
284.396
284.556
284.74
284.911
285.03
285.05
284.966
284.144
284.399
284.452
284.463
284.467
284.461
284.442
284.408
284.358
284.296
284.239
284.21
284.206
284.208
284.183
284.115
284.067
284.079
284.062
284.018
283.967
283.92
283.883
283.858
283.841
283.83
283.823
283.818
283.817
283.817
283.82
283.825
283.832
283.84
283.85
283.861
283.873
283.886
283.898
283.911
283.923
283.935
283.946
283.956
283.966
283.976
283.984
283.991
283.997
284.002
284.006
284.008
284.009
284.007
284.004
284
283.993
283.985
283.977
283.968
283.962
283.958
283.955
283.953
283.952
283.953
283.954
283.957
283.96
283.963
283.967
283.972
283.977
283.982
283.988
283.996
284.004
284.013
284.024
284.036
284.05
284.065
284.081
284.099
284.116
284.132
284.146
284.157
284.165
284.173
284.185
284.212
284.272
284.381
284.537
284.718
284.886
285.001
285.019
284.948
284.127
284.394
284.459
284.472
284.473
284.463
284.44
284.4
284.344
284.281
284.232
284.215
284.222
284.228
284.199
284.119
284.069
284.084
284.063
284.015
283.962
283.916
283.881
283.858
283.843
283.834
283.828
283.825
283.824
283.825
283.829
283.834
283.841
283.85
283.86
283.871
283.884
283.896
283.909
283.923
283.936
283.949
283.961
283.973
283.985
283.997
284.007
284.017
284.026
284.034
284.04
284.045
284.047
284.048
284.046
284.042
284.036
284.028
284.019
284.011
284.004
283.999
283.995
283.991
283.988
283.986
283.984
283.984
283.983
283.984
283.985
283.987
283.99
283.994
283.998
284.003
284.01
284.018
284.027
284.038
284.051
284.066
284.081
284.098
284.114
284.129
284.142
284.153
284.162
284.17
284.183
284.21
284.27
284.377
284.529
284.704
284.864
284.971
284.989
284.933
284.11
284.383
284.463
284.479
284.478
284.465
284.438
284.393
284.334
284.271
284.23
284.224
284.24
284.251
284.217
284.123
284.072
284.09
284.066
284.015
283.96
283.915
283.882
283.861
283.848
283.84
283.835
283.832
283.832
283.833
283.837
283.842
283.85
283.859
283.869
283.88
283.893
283.906
283.919
283.933
283.947
283.961
283.975
283.989
284.004
284.017
284.031
284.044
284.057
284.068
284.078
284.087
284.093
284.097
284.099
284.097
284.093
284.086
284.076
284.067
284.059
284.053
284.047
284.041
284.036
284.031
284.027
284.023
284.019
284.016
284.014
284.013
284.013
284.014
284.015
284.018
284.023
284.029
284.037
284.046
284.057
284.07
284.084
284.099
284.114
284.128
284.14
284.151
284.16
284.169
284.184
284.215
284.278
284.385
284.532
284.697
284.845
284.943
284.959
284.919
284.094
284.368
284.462
284.484
284.484
284.469
284.438
284.39
284.327
284.266
284.232
284.235
284.26
284.275
284.237
284.128
284.076
284.097
284.071
284.017
283.963
283.918
283.887
283.867
283.854
283.847
283.842
283.84
283.84
283.841
283.845
283.85
283.858
283.866
283.876
283.888
283.9
283.913
283.927
283.942
283.957
283.972
283.988
284.005
284.021
284.038
284.056
284.073
284.09
284.106
284.121
284.134
284.146
284.155
284.162
284.165
284.166
284.163
284.156
284.147
284.137
284.128
284.118
284.109
284.1
284.091
284.082
284.074
284.066
284.059
284.053
284.048
284.044
284.041
284.04
284.04
284.041
284.045
284.05
284.058
284.067
284.078
284.09
284.103
284.116
284.129
284.141
284.151
284.161
284.173
284.193
284.231
284.299
284.405
284.544
284.695
284.829
284.915
284.931
284.908
284.079
284.351
284.458
284.488
284.489
284.474
284.441
284.389
284.325
284.265
284.237
284.246
284.278
284.299
284.258
284.133
284.081
284.106
284.078
284.024
283.97
283.926
283.895
283.875
283.863
283.855
283.85
283.848
283.848
283.85
283.853
283.858
283.865
283.873
283.883
283.894
283.906
283.919
283.934
283.949
283.965
283.982
284
284.019
284.039
284.059
284.08
284.101
284.122
284.143
284.163
284.182
284.198
284.213
284.224
284.233
284.238
284.239
284.236
284.23
284.221
284.209
284.197
284.185
284.171
284.158
284.145
284.132
284.119
284.108
284.097
284.088
284.08
284.073
284.068
284.065
284.064
284.064
284.067
284.072
284.079
284.088
284.098
284.11
284.121
284.133
284.144
284.155
284.168
284.185
284.212
284.259
284.332
284.436
284.564
284.698
284.815
284.889
284.905
284.898
284.066
284.332
284.45
284.489
284.494
284.48
284.447
284.394
284.327
284.267
284.242
284.256
284.295
284.321
284.28
284.139
284.087
284.116
284.089
284.035
283.981
283.937
283.906
283.885
283.873
283.865
283.86
283.858
283.857
283.858
283.861
283.865
283.872
283.879
283.888
283.899
283.911
283.924
283.939
283.955
283.972
283.99
284.01
284.032
284.054
284.078
284.102
284.127
284.152
284.177
284.201
284.223
284.244
284.262
284.277
284.288
284.296
284.3
284.3
284.296
284.288
284.277
284.264
284.25
284.235
284.219
284.203
284.186
284.171
284.155
284.141
284.128
284.117
284.107
284.098
284.092
284.088
284.086
284.087
284.09
284.094
284.101
284.11
284.12
284.13
284.142
284.154
284.168
284.185
284.21
284.246
284.3
284.376
284.474
284.588
284.704
284.802
284.865
284.881
284.892
284.054
284.308
284.436
284.486
284.497
284.486
284.454
284.402
284.336
284.276
284.25
284.267
284.309
284.34
284.301
284.144
284.093
284.129
284.103
284.05
283.996
283.952
283.92
283.899
283.885
283.877
283.871
283.868
283.867
283.867
283.87
283.873
283.878
283.885
283.894
283.904
283.915
283.928
283.943
283.959
283.977
283.997
284.018
284.042
284.067
284.093
284.12
284.149
284.177
284.205
284.232
284.257
284.28
284.3
284.316
284.329
284.338
284.343
284.344
284.341
284.334
284.324
284.312
284.298
284.282
284.265
284.248
284.23
284.213
284.195
284.179
284.164
284.15
284.138
284.128
284.119
284.113
284.109
284.108
284.109
284.112
284.118
284.126
284.135
284.146
284.159
284.174
284.192
284.217
284.249
284.293
284.351
284.426
284.516
284.614
284.71
284.79