/*--------------------------------*- C++ -*----------------------------------*\
| =========                 |                                                 |
| \\      /  F ield         | OpenFOAM: The Open Source CFD Toolbox           |
|  \\    /   O peration     | Version:  4.1                                   |
|   \\  /    A nd           | Web:      www.OpenFOAM.org                      |
|    \\/     M anipulation  |                                                 |
\*---------------------------------------------------------------------------*/
FoamFile
{
    version     2.0;
    format      ascii;
    class       volScalarField;
    location    "360";
    object      mag(U);
}
// * * * * * * * * * * * * * * * * * * * * * * * * * * * * * * * * * * * * * //

dimensions      [0 1 -1 0 0 0 0];

internalField   nonuniform List<scalar> 
5000
(
0.00483877
0.00469716
0.00418702
0.00287261
0.00171803
0.00260872
0.00414212
0.00559084
0.00665295
0.00724622
0.00740117
0.00716835
0.00661097
0.00579059
0.00474857
0.00349551
0.00240253
0.00430136
0.00826926
0.0098685
0.0107433
0.0114327
0.0121779
0.0129444
0.0136306
0.0141856
0.0146143
0.0149473
0.0152144
0.0154331
0.0156089
0.0157393
0.0158185
0.0158404
0.0157996
0.0156892
0.0155063
0.0152507
0.014924
0.014529
0.0140697
0.0135506
0.0129764
0.0123521
0.0116828
0.0109731
0.0102273
0.00944895
0.00864073
0.00780407
0.00693903
0.00604425
0.00511684
0.00415278
0.00315002
0.00212224
0.0011446
0.000886505
0.00219798
0.00343155
0.00470739
0.00595201
0.00713339
0.00824508
0.00928606
0.0102548
0.011149
0.0119667
0.0127072
0.0133708
0.0139595
0.0144758
0.0149232
0.0153052
0.0156256
0.0158872
0.0160924
0.0162426
0.0163383
0.0163795
0.0163685
0.0163043
0.0161844
0.0160049
0.0157612
0.0154476
0.015058
0.0145852
0.0140225
0.0133646
0.0126107
0.011768
0.0108557
0.00990357
0.00891254
0.00774716
0.00611748
0.00160702
0.00191497
0.000615866
0.00620889
0.00303893
0.00319338
0.00316031
0.00351238
0.00415568
0.00500402
0.00593179
0.00664846
0.0070064
0.00697346
0.00656135
0.00582508
0.00483512
0.00370207
0.0029751
0.00603771
0.0094909
0.0109208
0.0117419
0.0125687
0.0132494
0.0138493
0.0144165
0.0149504
0.015438
0.0158683
0.0162352
0.0165362
0.01677
0.0169347
0.0170273
0.0170442
0.0169818
0.0168391
0.0166205
0.0163278
0.0159631
0.0155295
0.0150306
0.0144706
0.0138539
0.0131852
0.012469
0.0117101
0.0109129
0.0100815
0.00921957
0.00833028
0.00741601
0.00647863
0.00551998
0.00454319
0.00355972
0.00262324
0.00193686
0.00198776
0.00284915
0.00381075
0.00481694
0.00590864
0.00703796
0.00815903
0.00924514
0.0102814
0.0112582
0.0121684
0.0130072
0.0137715
0.0144604
0.0150743
0.015615
0.016085
0.0164877
0.0168266
0.0171051
0.0173264
0.0174929
0.0176064
0.0176681
0.017674
0.0176203
0.0175034
0.0173192
0.0170638
0.016734
0.0163276
0.0158436
0.0152822
0.0146457
0.0139383
0.0131671
0.0123404
0.0114647
0.0105436
0.00963883
0.00892628
0.00737438
0.0046255
0.000412589
0.00813725
0.00207339
0.00312973
0.00455757
0.00552601
0.00585781
0.00614138
0.00644928
0.00667994
0.00672694
0.00650622
0.00596577
0.00517138
0.0043248
0.00398946
0.00645526
0.0110337
0.012752
0.0124321
0.0122674
0.0127918
0.0134371
0.0139864
0.014446
0.0148631
0.0152626
0.0156414
0.0159819
0.0162647
0.0164761
0.0166085
0.0166589
0.0166257
0.0165088
0.0163146
0.0160464
0.0157084
0.0153041
0.0148369
0.01431
0.0137271
0.0130917
0.0124082
0.0116809
0.0109143
0.0101135
0.00928344
0.00842948
0.00755753
0.00667471
0.005791
0.00492243
0.00410054
0.00340171
0.00299403
0.00309583
0.00367593
0.0043699
0.00517957
0.00607193
0.00703262
0.00803416
0.00904309
0.0100328
0.0109848
0.0118863
0.0127279
0.0135029
0.0142067
0.0148369
0.0153927
0.0158744
0.0162841
0.0166241
0.0168979
0.017109
0.017261
0.017357
0.0173994
0.0173894
0.0173249
0.0172049
0.0170274
0.0167902
0.0164915
0.0161309
0.0157093
0.0152295
0.0146953
0.0141112
0.0134812
0.0128066
0.0120857
0.0113176
0.0105393
0.00996464
0.00994015
0.00948172
0.00748463
0.00308571
0.00963103
0.0016686
0.00367562
0.00618702
0.00717948
0.00729713
0.00709482
0.00677136
0.00643095
0.00613373
0.00580043
0.00540304
0.00504499
0.00503875
0.00669653
0.0112235
0.0146171
0.0149502
0.0134789
0.012702
0.0129648
0.0134939
0.013976
0.0143817
0.0147435
0.0150829
0.015398
0.0156725
0.0158887
0.0160342
0.0161027
0.0160924
0.0160038
0.0158418
0.0156122
0.0153172
0.0149599
0.0145425
0.0140672
0.0135365
0.0129531
0.0123206
0.0116429
0.0109248
0.0101717
0.00938996
0.00858695
0.00777176
0.00695625
0.00615714
0.00539963
0.00472444
0.00420343
0.00395176
0.00408253
0.00455541
0.00511352
0.00576327
0.0065083
0.00732265
0.0081864
0.00907966
0.00997963
0.0108652
0.0117195
0.0125297
0.0132862
0.0139817
0.0146109
0.0151702
0.0156577
0.016073
0.0164166
0.0166902
0.0168965
0.0170385
0.0171199
0.0171443
0.0171152
0.0170336
0.0169004
0.0167159
0.0164793
0.0161894
0.0158457
0.0154486
0.0150004
0.0145056
0.0139701
0.0134001
0.0128002
0.012171
0.0115095
0.0108169
0.0101428
0.00974622
0.0101007
0.0104905
0.00943716
0.00610346
0.010692
0.00131972
0.00463501
0.00766895
0.00853314
0.00841471
0.00772146
0.00671767
0.00570033
0.0050237
0.00475657
0.00488632
0.00551192
0.00742544
0.0110402
0.0150781
0.017214
0.0163994
0.0142292
0.0131144
0.0131537
0.0135297
0.0139178
0.0142613
0.0145662
0.0148403
0.0150806
0.0152762
0.0154155
0.0154905
0.0154982
0.0154383
0.015312
0.0151269
0.0148835
0.0145829
0.014226
0.0138138
0.0133476
0.0128291
0.0122612
0.0116474
0.0109925
0.0103021
0.00958341
0.00884528
0.00809888
0.00735903
0.00664608
0.00598878
0.00542834
0.00502498
0.00485928
0.00499898
0.00541269
0.00590648
0.00646912
0.00711159
0.00781964
0.00857371
0.00935682
0.0101537
0.0109485
0.0117263
0.0124739
0.0131809
0.013839
0.0144415
0.0149834
0.0154609
0.0158714
0.0162137
0.0164874
0.0166932
0.0168328
0.0169088
0.0169244
0.0168833
0.0167899
0.0166435
0.0164488
0.0162073
0.01592
0.0155877
0.015211
0.0147909
0.0143298
0.0138317
0.0133022
0.012747
0.0121708
0.0115749
0.010958
0.0103252
0.00973262
0.00946473
0.0101178
0.0112704
0.0112822
0.00893984
0.0114642
0.000912191
0.00578658
0.00881894
0.00954453
0.00913028
0.00790556
0.00615664
0.00436954
0.00321942
0.00331233
0.00549711
0.00813124
0.0111936
0.0149115
0.0180573
0.0190149
0.0173233
0.0147655
0.0134589
0.0132996
0.013512
0.0137881
0.0140526
0.0142897
0.014495
0.0146632
0.0147871
0.0148604
0.0148796
0.0148442
0.0147551
0.0146122
0.0144227
0.0141826
0.0138914
0.0135489
0.013155
0.0127109
0.0122184
0.0116808
0.0111025
0.0104894
0.00984877
0.00919008
0.00852532
0.00787011
0.0072452
0.00667824
0.00620573
0.00587621
0.00575073
0.0058785
0.0062395
0.00668544
0.00719804
0.00778097
0.00842105
0.00910072
0.00980301
0.0105136
0.0112206
0.0119131
0.0125815
0.0132171
0.0138128
0.0143628
0.0148623
0.0153071
0.015694
0.0160204
0.0162845
0.0164852
0.0166224
0.0166967
0.0167101
0.0166651
0.0165658
0.0164133
0.0162113
0.0159641
0.0156749
0.0153468
0.0149824
0.014584
0.0141537
0.0136941
0.0132083
0.0127005
0.0121752
0.011636
0.0110848
0.0105229
0.00996104
0.00946572
0.00934501
0.010287
0.0121061
0.0130786
0.0115597
0.0120232
0.000416937
0.00679754
0.00963453
0.010151
0.00937473
0.00757196
0.0050159
0.00221321
0.00193019
0.00547722
0.00830963
0.0113856
0.0146829
0.0179832
0.0201851
0.0201479
0.0178401
0.0150928
0.0136737
0.0133431
0.0134023
0.0135662
0.0137474
0.0139148
0.0140553
0.0141614
0.0142282
0.0142529
0.0142351
0.0141755
0.014074
0.0139327
0.0137512
0.0135253
0.0132537
0.0129353
0.0125703
0.0121602
0.0117076
0.0112166
0.0106929
0.0101435
0.00957769
0.00900693
0.00844598
0.0079137
0.00743406
0.00703669
0.00675884
0.00664892
0.00675009
0.00705576
0.00744959
0.00791602
0.00845634
0.0090537
0.0096876
0.0103388
0.0109909
0.0116313
0.0122504
0.0128415
0.013399
0.0139189
0.0143981
0.0148337
0.0152234
0.0155647
0.0158554
0.0160932
0.0162761
0.0164026
0.0164716
0.0164832
0.0164382
0.0163387
0.0161887
0.0159851
0.0157363
0.0154464
0.01512
0.0147618
0.0143763
0.0139678
0.0135394
0.0130943
0.0126352
0.0121648
0.011686
0.0112013
0.0107132
0.0102259
0.00975684
0.00938423
0.00943538
0.0106527
0.0130196
0.0147694
0.0138387
0.0124227
0.000187907
0.00751207
0.0100771
0.010302
0.00910501
0.00671858
0.00353101
0.00226345
0.00535628
0.00823915
0.0111731
0.0143042
0.0174509
0.0201695
0.0215217
0.0207085
0.0179994
0.0151884
0.0137057
0.0132397
0.0131727
0.0132405
0.0133476
0.0134535
0.0135392
0.0135964
0.0136217
0.0136146
0.0135763
0.0135075
0.0134068
0.0132755
0.0131091
0.012904
0.0126586
0.0123722
0.0120459
0.011682
0.0112842
0.0108576
0.010409
0.00994635
0.00948001
0.0090226
0.00858992
0.00820131
0.00787963
0.00765192
0.00755421
0.00762739
0.00787828
0.00821909
0.00863024
0.00912446
0.00968447
0.0102862
0.0109062
0.0115235
0.0121216
0.0126889
0.0132181
0.0137055
0.0141497
0.0145509
0.0149097
0.0152269
0.0155029
0.0157373
0.015929
0.0160766
0.0161781
0.0162315
0.0162352
0.0161882
0.0160904
0.015944
0.0157469
0.0155036
0.0152187
0.0148971
0.0145449
0.0141685
0.0137744
0.0133681
0.0129544
0.0125367
0.0121175
0.0116983
0.0112806
0.010866
0.0104576
0.0100626
0.00970424
0.00947103
0.00970366
0.0111714
0.0139739
0.0163187
0.0157718
0.0127261
0.000720151
0.00787051
0.0101092
0.00998054
0.00834533
0.00574813
0.00385394
0.00532468
0.00796435
0.0106962
0.0135854
0.0165761
0.0193961
0.021524
0.0221676
0.0207777
0.0178368
0.0150363
0.0135249
0.012965
0.0128086
0.0128068
0.0128584
0.012917
0.0129615
0.0129835
0.0129811
0.0129553
0.012908
0.0128392
0.0127456
0.0126276
0.0124797
0.0122992
0.0120853
0.0118385
0.0115611
0.0112566
0.0109298
0.0105864
0.0102335
0.00987926
0.0095337
0.00920884
0.00891921
0.0086817
0.00851527
0.00844432
0.00850303
0.00870943
0.0090079
0.00935959
0.00979809
0.0103135
0.0108821
0.011477
0.0120725
0.0126465
0.0131824
0.0136696
0.014103
0.0144819
0.0148088
0.0150877
0.0153233
0.0155197
0.0156802
0.0158066
0.0158994
0.0159578
0.0159802
0.0159641
0.0159074
0.0158081
0.0156652
0.0154805
0.0152464
0.0149723
0.0146618
0.0143204
0.0139552
0.0135738
0.013184
0.0127931
0.0124067
0.0120288
0.0116612
0.0113044
0.0109587
0.0106251
0.0103074
0.0100153
0.00977628
0.00968714
0.0100978
0.0117891
0.0149392
0.0177329
0.0174075
0.0129936
0.00106659
0.00788419
0.00973187
0.00929842
0.00752057
0.00540979
0.00523604
0.00742111
0.00995982
0.0126347
0.015399
0.0181468
0.020574
0.0221579
0.0222327
0.0204412
0.0173898
0.01464
0.0131266
0.0125147
0.0123089
0.012268
0.0122864
0.0123147
0.0123316
0.0123302
0.0123104
0.0122743
0.0122239
0.0121584
0.0120733
0.011969
0.0118409
0.011688
0.0115111
0.0113125
0.0110959
0.0108658
0.0106273
0.0103862
0.0101486
0.00992137
0.00971254
0.00953173
0.00939025
0.00930088
0.00927899
0.00934855
0.00953301
0.00980823
0.0101123
0.0104923
0.0109549
0.0114823
0.0120482
0.0126238
0.0131821
0.0137002
0.0141622
0.0145588
0.0148876
0.015151
0.0153553
0.0155083
0.0156183
0.0156928
0.0157378
0.0157574
0.0157534
0.015726
0.0156736
0.0155937
0.0154832
0.0153393
0.015161
0.0149436
0.0146866
0.0143946
0.0140713
0.0137232
0.013358
0.0129849
0.0126129
0.0122503
0.0119035
0.0115762
0.0112697
0.0109832
0.010716
0.0104689
0.0102463
0.0100599
0.0099405
0.00999133
0.0105704
0.0124642
0.0158996
0.0190297
0.0187971
0.013273
0.00116403
0.00756608
0.00906895
0.00847495
0.00683948
0.00559258
0.00656602
0.00888341
0.0114194
0.0140136
0.0166033
0.0190622
0.0210894
0.0221987
0.0218373
0.0197846
0.0167052
0.0140241
0.0125285
0.0119024
0.0116848
0.0116347
0.0116415
0.0116549
0.0116554
0.011639
0.0116076
0.0115646
0.011512
0.011449
0.0113706
0.0112792
0.0111721
0.0110508
0.0109184
0.0107791
0.0106378
0.0104991
0.0103675
0.010247
0.0101415
0.0100552
0.00999257
0.00995961
0.00996357
0.0100133
0.0101232
0.0103149
0.0105865
0.0108765
0.0112081
0.011618
0.0120983
0.0126283
0.0131799
0.0137228
0.0142291
0.0146764
0.01505
0.0153432
0.0155566
0.0156963
0.0157722
0.0157958
0.0157788
0.0157318
0.0156631
0.0155787
0.015482
0.0153736
0.0152525
0.0151158
0.0149598
0.0147805
0.0145768
0.0143364
0.0140668
0.0137688
0.0134464
0.0131059
0.0127558
0.0124059
0.012066
0.0117448
0.0114488
0.0111814
0.0109425
0.0107305
0.0105438
0.0103834
0.0102547
0.010171
0.0101656
0.0103479
0.0110855
0.0131688
0.0168482
0.0202257
0.0199748
0.0136057
0.000994349
0.00697362
0.008242
0.0076478
0.00638281
0.00600917
0.00754903
0.00990656
0.0124161
0.0148933
0.0172725
0.0194261
0.0210737
0.0217839
0.0210996
0.0188954
0.0158409
0.0132326
0.0117677
0.0111582
0.01096
0.0109249
0.0109371
0.0109468
0.0109379
0.01091
0.0108681
0.0108169
0.0107596
0.0106957
0.0106211
0.0105422
0.010459
0.0103764
0.0102999
0.0102351
0.0101867
0.0101579
0.0101509
0.0101667
0.0102057
0.0102679
0.0103539
0.0104658
0.010607
0.0107844
0.0110129
0.0113027
0.011615
0.0119263
0.0122958
0.0127322
0.0132237
0.013747
0.0142721
0.0147677
0.0152057
0.0155653
0.0158345
0.0160102
0.0160968
0.0161045
0.0160467
0.0159385
0.0157947
0.0156282
0.0154494
0.0152659
0.0150819
0.0148991
0.0147162
0.0145305
0.0143376
0.0141335
0.0139157
0.0136675
0.0133983
0.0131082
0.0128003
0.0124814
0.0121601
0.0118467
0.0115511
0.0112821
0.0110456
0.0108438
0.0106755
0.0105381
0.0104299
0.0103525
0.0103125
0.0103247
0.0104248
0.0107289
0.0116178
0.0138861
0.0177834
0.0213325
0.0209579
0.0140262
0.000682426
0.00619745
0.00735378
0.00690511
0.00613571
0.00644398
0.00822831
0.0105922
0.0130373
0.0153693
0.0175185
0.0193667
0.0206664
0.0210466
0.0201331
0.01786
0.0148654
0.0123279
0.0108995
0.0103268
0.0101691
0.0101644
0.0101917
0.0102025
0.0101853
0.0101444
0.0100881
0.0100239
0.0099564
0.00988687
0.00981454
0.00975013
0.00969803
0.00966641
0.00966252
0.00969149
0.00975575
0.00985516
0.00998768
0.0101501
0.0103388
0.0105498
0.0107801
0.0110281
0.011295
0.011588
0.0119191
0.0122759
0.0126085
0.0129627
0.0133697
0.0138287
0.0143246
0.0148315
0.015317
0.0157491
0.016101
0.0163551
0.0165036
0.0165478
0.0164971
0.0163656
0.0161708
0.0159308
0.0156625
0.015381
0.015098
0.0148219
0.0145578
0.0143074
0.0140702
0.0138429
0.0136212
0.0134019
0.0131706
0.0129305
0.0126778
0.0124117
0.012135
0.0118535
0.011576
0.0113123
0.0110724
0.0108644
0.0106932
0.0105594
0.0104611
0.0103951
0.0103602
0.0103594
0.0104008
0.0105005
0.0106967
0.0111142
0.0121516
0.0146084
0.0187077
0.0223557
0.0217491
0.0145583
0.000849912
0.00532445
0.00648147
0.0062893
0.00603863
0.0068175
0.00868001
0.0110082
0.0133619
0.0155361
0.0174532
0.0190095
0.0199973
0.0201083
0.0190396
0.0167606
0.013853
0.0113857
0.00999453
0.00946674
0.00935685
0.00938627
0.00942856
0.00943757
0.00940672
0.00934563
0.00926699
0.00918165
0.00909715
0.00901765
0.00894942
0.00890662
0.008899
0.0089372
0.00902797
0.00917307
0.0093696
0.0096117
0.00989218
0.0102038
0.0105394
0.0108921
0.0112563
0.0116279
0.0120078
0.012403
0.0128167
0.0132066
0.0135792
0.0139811
0.014423
0.0149
0.0153932
0.0158727
0.016304
0.0166551
0.0169025
0.0170332
0.0170451
0.0169457
0.0167493
0.0164748
0.0161429
0.0157741
0.0153872
0.0149981
0.0146191
0.0142588
0.0139225
0.0136122
0.0133274
0.0130656
0.0128223
0.0125959
0.0123672
0.0121431
0.0119174
0.0116882
0.0114566
0.0112274
0.0110076
0.010806
0.0106314
0.0104908
0.0103875
0.0103212
0.0102892
0.010289
0.0103206
0.0103889
0.0105037
0.0106822
0.0109656
0.0114903
0.012679
0.0153356
0.0196269
0.023293
0.0223382
0.0152109
0.00165783
0.00443897
0.00568271
0.00581186
0.00603171
0.00708667
0.00894907
0.0112048
0.0134531
0.0154727
0.0171719
0.0184617
0.0191767
0.0190704
0.0179041
0.0156684
0.0128761
0.0104884
0.0091345
0.00864629
0.00857551
0.00862901
0.00867561
0.00867136
0.00861491
0.00852149
0.00840883
0.00829247
0.00818473
0.00809424
0.00803454
0.00802733
0.00808524
0.00821884
0.00843028
0.00871357
0.0090575
0.00944927
0.00987719
0.0103315
0.0108034
0.0112848
0.0117682
0.0122491
0.0127281
0.0132107
0.0136773
0.0141009
0.0145269
0.0149746
0.0154481
0.0159379
0.0164199
0.0168593
0.01722
0.0174717
0.0175959
0.0175863
0.0174483
0.0171963
0.0168502
0.0164331
0.0159685
0.0154786
0.0149827
0.0144965
0.0140322
0.0135977
0.0131979
0.0128347
0.0125081
0.0122166
0.0119575
0.0117306
0.0115142
0.0113171
0.0111309
0.0109514
0.0107782
0.0106137
0.0104629
0.0103326
0.0102297
0.0101593
0.0101234
0.0101209
0.0101495
0.010208
0.0102988
0.0104287
0.0106089
0.0108579
0.0112207
0.0118502
0.0131998
0.0160754
0.0205496
0.0241297
0.0227031
0.0159781
0.00270739
0.00364145
0.00500683
0.00547032
0.00606449
0.00726719
0.00907658
0.0112256
0.013359
0.0152374
0.0167464
0.0178058
0.0182898
0.018012
0.0167929
0.0146402
0.0119967
0.00971382
0.00840208
0.00793663
0.00788017
0.00793377
0.00796322
0.00792625
0.00782604
0.00768327
0.00752133
0.00736192
0.00722453
0.00712518
0.00708863
0.00713909
0.00729163
0.00755108
0.00790894
0.00834714
0.00884466
0.00938296
0.00994834
0.0105312
0.0111231
0.011716
0.012302
0.0128768
0.0134415
0.0139907
0.0144889
0.0149668
0.0154461
0.0159363
0.0164373
0.0169335
0.0173937
0.0177783
0.0180502
0.0181835
0.0181666
0.0180024
0.0177052
0.0172966
0.0168024
0.0162492
0.015662
0.0150633
0.0144718
0.0139022
0.013365
0.012867
0.012412
0.0120018
0.0116371
0.0113182
0.0110461
0.0108194
0.0106236
0.010463
0.0103278
0.0102113
0.0101095
0.0100214
0.00994898
0.00989624
0.00986782
0.00986702
0.00989483
0.00995033
0.0100325
0.0101426
0.0102854
0.0104698
0.0107082
0.01102
0.0114562
0.0121927
0.0137222
0.0168456
0.021481
0.0248244
0.0228243
0.0168411
0.00386217
0.00306966
0.00449466
0.00525097
0.00610457
0.00736765
0.00909271
0.0111078
0.0131157
0.0148681
0.0162228
0.0170967
0.0173959
0.016989
0.0157535
0.0137163
0.0112592
0.00912135
0.00786493
0.00739914
0.00732028
0.00733896
0.00732133
0.00722593
0.00705899
0.00684604
0.00661697
0.00640207
0.00623154
0.00613106
0.00613698
0.00627736
0.00656009
0.00697602
0.00749965
0.0080988
0.00874453
0.00941625
0.0101017
0.0107941
0.0114866
0.0121722
0.0128443
0.0134995
0.0141334
0.0147176
0.0152673
0.0158015
0.0163304
0.0168594
0.0173827
0.017877
0.0183025
0.018615
0.0187788
0.0187745
0.0186011
0.0182722
0.0178122
0.0172501
0.0166166
0.0159402
0.0152461
0.0145555
0.013885
0.013247
0.01265
0.0120987
0.0115955
0.011142
0.01074
0.0103925
0.0101068
0.00987129
0.00970147
0.00958662
0.00951535
0.00947614
0.00945941
0.00945887
0.00947223
0.00950049
0.00954613
0.00961131
0.00969696
0.0098034
0.00993194
0.0100866
0.010275
0.0105076
0.0107972
0.0111646
0.0116707
0.012524
0.014266
0.017676
0.0224358
0.0252889
0.0226898
0.0177758
0.00507064
0.00289694
0.00414466
0.00511045
0.00612116
0.00740379
0.0090274
0.0108876
0.0127546
0.0143894
0.0156243
0.016362
0.0165272
0.0160348
0.0148152
0.0129206
0.0106863
0.00873808
0.00755592
0.0070685
0.00692813
0.00687307
0.00677516
0.00659309
0.0063341
0.00602743
0.00571029
0.00542491
0.00521806
0.00513023
0.00521187
0.00548323
0.00593373
0.00652966
0.00722548
0.00797784
0.00875543
0.00954034
0.0103247
0.0111058
0.0118791
0.0126407
0.013384
0.0141046
0.0147752
0.0154071
0.0160126
0.0165993
0.0171737
0.0177369
0.0182763
0.0187578
0.0191328
0.0193537
0.0193891
0.0192301
0.0188885
0.0183912
0.0177723
0.017068
0.0163115
0.0155314
0.0147509
0.0139879
0.0132559
0.0125642
0.0119186
0.0113217
0.0107746
0.0102784
0.00983733
0.00945849
0.00915672
0.00892311
0.00877914
0.0087145
0.0087154
0.00876417
0.00884289
0.00893766
0.00904075
0.00914985
0.00926591
0.00939098
0.0095272
0.0096772
0.00984531
0.0100386
0.0102669
0.0105415
0.0108753
0.0112913
0.0118676
0.0128602
0.0148715
0.01866
0.0233372
0.0254363
0.0222857
0.0187615
0.00629206
0.00318848
0.00400515
0.00503765
0.0061293
0.00740348
0.00891236
0.0106016
0.0123084
0.0138217
0.0149606
0.0156078
0.0156917
0.0151596
0.0139888
0.0122602
0.0102763
0.00855169
0.00746072
0.0069393
0.00670807
0.00654728
0.00634058
0.00604687
0.00567227
0.00524796
0.00481904
0.00444487
0.00419969
0.00414813
0.00435034
0.00480139
0.00545081
0.00623447
0.00709184
0.00797676
0.00886248
0.00973721
0.010599
0.01145
0.0122882
0.0131093
0.0139102
0.0146626
0.0153785
0.0160629
0.01672
0.0173546
0.0179701
0.0185624
0.0191093
0.0195646
0.0198703
0.0199782
0.0198654
0.0195376
0.0190226
0.018361
0.0175967
0.0167699
0.0159139
0.0150544
0.0142099
0.0133937
0.0126154
0.0118813
0.0111945
0.0105556
0.00996425
0.00942238
0.00893725
0.00852259
0.00820276
0.00797196
0.00786099
0.00785845
0.00794526
0.00809462
0.00827793
0.00847248
0.00866506
0.00885093
0.00903076
0.00920789
0.00938689
0.00957352
0.00977538
0.0100022
0.0102652
0.0105755
0.0109452
0.0114034
0.0120593
0.0132428
0.0156793
0.0198408
0.0239739
0.0252359
0.0216091
0.0197818
0.00751334
0.00378431
0.0041048
0.00506831
0.00616474
0.0073933
0.00877516
0.0102841
0.0118125
0.0131898
0.0142399
0.0148293
0.0148793
0.0143542
0.0132665
0.0117244
0.0100047
0.00851586
0.00752418
0.00696751
0.00663415
0.00635176
0.00602052
0.00560036
0.00509411
0.00453172
0.00396452
0.00347464
0.0031853
0.00320938
0.00360009
0.00427851
0.00513846
0.00609501
0.00708677
0.0080749
0.00904339
0.00998581
0.0109081
0.0118116
0.0127018
0.0135644
0.0143912
0.0151862
0.0159487
0.0166805
0.0173843
0.0180623
0.0187141
0.019329
0.0198727
0.0202848
0.0204995
0.0204721
0.0201935
0.0196884
0.0190031
0.0181917
0.0173048
0.0163833
0.0154562
0.0145427
0.0136548
0.0128006
0.0119857
0.0112142
0.0104876
0.00980458
0.00916386
0.00856877
0.00803181
0.00757714
0.00724052
0.00701734
0.00695317
0.00703291
0.00722601
0.00749109
0.0077865
0.0080812
0.0083584
0.00861309
0.00884758
0.00906801
0.00928231
0.00949974
0.00973076
0.00998683
0.0102791
0.0106172
0.0110136
0.0115116
0.012291
0.013852
0.0168634
0.0209133
0.0242566
0.0246776
0.0206756
0.0208203
0.0087202
0.00452537
0.00438113
0.00520575
0.00624362
0.00739071
0.00863619
0.00996269
0.0113014
0.0125248
0.0134781
0.0140242
0.0140745
0.0135972
0.0126257
0.0112859
0.00982853
0.00856622
0.00767234
0.00708787
0.00665938
0.0062588
0.00580468
0.00525898
0.00461933
0.00390931
0.00317878
0.00253235
0.00218635
0.00236271
0.0030279
0.00395702
0.00500595
0.00609893
0.00718785
0.00824944
0.00927704
0.0102673
0.0112377
0.0121787
0.0130917
0.0139809
0.0148439
0.0156772
0.0164806
0.0172549
0.0180009
0.0187176
0.0194003
0.0200297
0.0205564
0.0209051
0.0210046
0.0208199
0.0203624
0.01968
0.0188382
0.0179022
0.0169245
0.0159408
0.0149715
0.0140262
0.0131094
0.0122245
0.0113751
0.0105643
0.0097926
0.00905737
0.00835643
0.00769575
0.00709564
0.00659838
0.00623097
0.00604393
0.0060609
0.0062593
0.00658808
0.00698494
0.00739562
0.00778477
0.00813643
0.00844846
0.00872696
0.00898198
0.00922525
0.00946918
0.00972598
0.010007
0.0103217
0.0106776
0.0110965
0.0116815
0.0127887
0.0149048
0.0181497
0.0217158
0.0241431
0.0237588
0.0195206
0.0218616
0.00990262
0.00532036
0.00477007
0.00542149
0.00636343
0.00740566
0.0085094
0.00965689
0.0108034
0.0118593
0.0127005
0.0132009
0.0132676
0.0128661
0.0120358
0.0109064
0.00969669
0.00863774
0.00783464
0.00723499
0.00673119
0.00623185
0.00567322
0.00502042
0.00426534
0.00342018
0.00251784
0.00165449
0.00121418
0.00171398
0.00271886
0.00386192
0.00504534
0.00622443
0.00737061
0.00848128
0.00954718
0.010568
0.0115556
0.012517
0.013456
0.0143722
0.0152638
0.0161296
0.0169691
0.0177819
0.0185656
0.0193161
0.0200234
0.0206569
0.0211496
0.0214108
0.0213696
0.0210085
0.0203664
0.0195176
0.0185453
0.0175199
0.0164888
0.0154757
0.0144882
0.0135252
0.012585
0.0116681
0.0107783
0.0099195
0.00909192
0.00829074
0.00751294
0.00676919
0.00609306
0.0055528
0.00516684
0.00505293
0.00521051
0.00558251
0.00607949
0.0066171
0.00713613
0.00760539
0.00801589
0.00837126
0.00868279
0.0089648
0.00923223
0.00949944
0.00977901
0.0100808
0.0104123
0.0107921
0.011301
0.012162
0.0137477
0.0162476
0.0193243
0.0221539
0.023594
0.0224853
0.0182083
0.0228941
0.0110575
0.00612956
0.00522733
0.00569587
0.00652179
0.00744498
0.00840419
0.00937863
0.0103376
0.0112205
0.0119356
0.012378
0.0124606
0.0121456
0.011468
0.0105459
0.00956018
0.00867667
0.00795657
0.00735699
0.00680442
0.00623575
0.00560329
0.00487705
0.00404591
0.00311248
0.00208695
0.000989977
0.00035342
0.00149208
0.00273712
0.00399758
0.00524035
0.00644889
0.00761479
0.00873578
0.00981387
0.0108529
0.0118593
0.012838
0.0137938
0.014729
0.0156439
0.0165381
0.0174103
0.0182576
0.0190747
0.0198536
0.0205776
0.0212024
0.0216401
0.0217867
0.0215795
0.0210286
0.0202068
0.0192158
0.0181508
0.0170784
0.0160312
0.0150157
0.0140246
0.0130481
0.0120805
0.0111229
0.0101815
0.00926209
0.00836362
0.00747743
0.00659883
0.00574713
0.00498142
0.00440708
0.00405193
0.00409516
0.0044858
0.00508947
0.00576872
0.00643358
0.00703692
0.00756166
0.0080102
0.00839412
0.00872944
0.00903363
0.00932439
0.00961744
0.0099218
0.0102459
0.0106133
0.0110914
0.0118479
0.0131387
0.0151264
0.0176515
0.0202284
0.022149
0.0225985
0.0208609
0.0168397
0.0239107
0.0121869
0.00693899
0.00572914
0.00601833
0.00671812
0.00751345
0.0083264
0.00913372
0.00991326
0.0106251
0.011206
0.0115767
0.0116638
0.01143
0.0109002
0.0101704
0.00938033
0.008646
0.00800354
0.00742082
0.00684873
0.00624534
0.00557609
0.00481887
0.00396504
0.00301966
0.00200362
0.0010031
0.000811211
0.00185205
0.00306901
0.00429976
0.00551833
0.0067135
0.0078765
0.00900156
0.0100859
0.0111313
0.0121434
0.0131292
0.0140949
0.0150443
0.0159792
0.0168989
0.0178007
0.0186789
0.0195246
0.0203254
0.0210568
0.0216568
0.0220143
0.0220171
0.0216217
0.0208767
0.0198942
0.0187993
0.0176886
0.0166123
0.01558
0.0145782
0.0135873
0.0125923
0.0115877
0.0105772
0.00957137
0.00857795
0.00759238
0.00659862
0.00558645
0.00458714
0.00371274
0.00311754
0.00291969
0.00330975
0.00404518
0.00489034
0.00571775
0.00646544
0.00711349
0.00766343
0.00813588
0.00853697
0.00889028
0.00921725
0.00953514
0.00985646
0.0101931
0.0105731
0.0110614
0.0117875
0.0129283
0.0145941
0.0166897
0.0188922
0.0207337
0.0216762
0.0211681
0.0188745
0.0155519
0.0249093
0.0132966
0.00774885
0.00626751
0.00638562
0.00695319
0.00761399
0.00827869
0.00892323
0.00953154
0.0100784
0.0105232
0.0108113
0.0108872
0.0107181
0.0103181
0.00975636
0.00913254
0.00852422
0.00795748
0.00740842
0.00684579
0.00624147
0.00557394
0.00483056
0.00401223
0.00314133
0.00228358
0.00164623
0.0017084
0.0024931
0.00355307
0.00469716
0.00586319
0.00702464
0.00816549
0.00927545
0.0103495
0.011388
0.0123964
0.0133821
0.0143525
0.015313
0.0162656
0.017209
0.0181378
0.019043
0.0199118
0.0207269
0.0214541
0.0220095
0.0222578
0.0220871
0.0214876
0.0205578
0.0194499
0.0183018
0.0171953
0.0161516
0.0151531
0.0141694
0.013174
0.0121516
0.011099
0.0100246
0.00894427
0.00786693
0.00678315
0.00566591
0.00448889
0.00328639
0.00225012
0.00158158
0.00202345
0.00303064
0.00409102
0.00511035
0.0059708
0.00672018
0.00736319
0.00791173
0.00838854
0.00880332
0.00918025
0.00953899
0.00989574
0.0102672
0.0106846
0.0112119
0.0119516
0.013024
0.0144923
0.0162815
0.0181588
0.0197852
0.020776
0.0207439
0.0193414
0.0165018
0.0144919
0.0258935
0.0143975
0.00856923
0.00684668
0.00680076
0.00722928
0.00774825
0.00826136
0.00874493
0.0091881
0.00957645
0.0098866
0.010085
0.0101342
0.0100082
0.00971238
0.00929014
0.00880439
0.00830579
0.00781623
0.00731885
0.00679301
0.00622229
0.00559508
0.0049088
0.00417645
0.00343916
0.00279098
0.00242246
0.00257232
0.00321216
0.0041232
0.0051605
0.00625211
0.00736025
0.00846169
0.00954163
0.0105925
0.0116135
0.0126098
0.0135897
0.0145616
0.0155314
0.0165008
0.0174664
0.0184196
0.0193472
0.0202324
0.0210527
0.0217616
0.0222484
0.0223552
0.0219836
0.0211752
0.0200874
0.0189056
0.0177617
0.0167037
0.015716
0.0147572
0.0137877
0.0127809
0.0117235
0.0106156
0.00947156
0.00831417
0.00715172
0.00597488
0.00474915
0.00343009
0.00205055
0.000721961
0.00111559
0.00249871
0.00363515
0.00466814
0.00561131
0.00642034
0.00712936
0.00774825
0.00829086
0.00877613
0.00921499
0.00962975
0.0100397
0.0104667
0.0109451
0.0115335
0.0123127
0.0133604
0.0147034
0.0162717
0.0178892
0.0193018
0.0202155
0.0203291
0.0193783
0.0171812
0.0137558
0.0137601
0.0268742
0.0155063
0.00941836
0.00747919
0.00727075
0.00754982
0.00791721
0.0082733
0.00859495
0.00887577
0.00910985
0.00928701
0.0093906
0.00939901
0.00929453
0.00907616
0.00876598
0.00839442
0.00799626
0.00758896
0.00716097
0.00669862
0.006193
0.00564021
0.00504627
0.00443391
0.00385371
0.00339772
0.00320107
0.00339015
0.00393536
0.00472276
0.00565325
0.00666059
0.00770262
0.00875134
0.00978863
0.0108051
0.0117995
0.0127772
0.0137472
0.0147189
0.0156978
0.0166839
0.0176704
0.0186445
0.0195889
0.0204824
0.0212971
0.0219704
0.0223601
0.022291
0.0216976
0.020692
0.0194929
0.0183011
0.0172161
0.0162369
0.0153136
0.0143917
0.0134316
0.0124105
0.0113165
0.0101517
0.00893933
0.00771036
0.00647865
0.00525723
0.00401937
0.00278409
0.00184351
0.00198083
0.00282396
0.00367455
0.00458745
0.00545955
0.00627296
0.00700148
0.00766007
0.0082569
0.00880304
0.00931189
0.00979521
0.010275
0.0107765
0.0113352
0.0120017
0.0128359
0.0138827
0.0151415
0.0165433
0.0179482
0.0191631
0.0199644
0.0201166
0.0193876
0.0176004
0.0147199
0.0108402
0.0133733
0.027869
0.0166478
0.0103208
0.00818062
0.00780255
0.00791768
0.00812172
0.00831329
0.0084695
0.00858731
0.00866767
0.00871097
0.00871416
0.00866932
0.00856703
0.00840324
0.00818206
0.00790752
0.00760715
0.00729184
0.00695255
0.00657924
0.00616689
0.00571668
0.00524008
0.00476422
0.00433857
0.00403832
0.0039532
0.00416053
0.00463574
0.00532096
0.00615073
0.00706971
0.00803667
0.00902191
0.0100059
0.0109786
0.011939
0.0128936
0.0138521
0.0148237
0.0158127
0.0168154
0.0178208
0.0188113
0.0197649
0.020657
0.0214531
0.0220703
0.0223299
0.0220512
0.021227
0.0200571
0.0188128
0.0176782
0.0166932
0.0158059
0.0149455
0.014056
0.0131053
0.0120735
0.0109451
0.00972936
0.00845868
0.00717238
0.00591281
0.004777
0.00385036
0.00330834
0.0033079
0.00373101
0.00422306
0.00486822
0.00558033
0.0062985
0.00699734
0.00765788
0.00828359
0.00887898
0.00945143
0.0100114
0.010574
0.0111653
0.011819
0.0125761
0.0134762
0.0145386
0.0157418
0.0170152
0.018242
0.0192723
0.0199367
0.0200566
0.0194512
0.0179454
0.0154085
0.0117758
0.00834689
0.0132801
0.0288975
0.0178551
0.0113034
0.00896148
0.00839666
0.00833128
0.00836083
0.00838065
0.0083666
0.00831792
0.00824111
0.00814555
0.00804003
0.00792924
0.00781277
0.00768661
0.00753692
0.00735257
0.00715429
0.00694568
0.00671655
0.00645637
0.00616102
0.00583381
0.00548803
0.00515017
0.00486272
0.00468289
0.0046723
0.0048835
0.00530172
0.00589973
0.0066349
0.00746354
0.00834867