/*--------------------------------*- C++ -*----------------------------------*\
| =========                 |                                                 |
| \\      /  F ield         | OpenFOAM: The Open Source CFD Toolbox           |
|  \\    /   O peration     | Version:  4.1                                   |
|   \\  /    A nd           | Web:      www.OpenFOAM.org                      |
|    \\/     M anipulation  |                                                 |
\*---------------------------------------------------------------------------*/
FoamFile
{
    version     2.0;
    format      ascii;
    class       surfaceScalarField;
    location    "360";
    object      phi;
}
// * * * * * * * * * * * * * * * * * * * * * * * * * * * * * * * * * * * * * //

dimensions      [0 3 -1 0 0 0 0];

internalField   nonuniform List<scalar> 
9850
(
-4.16812e-06
4.16812e-06
-4.70065e-06
5.32532e-07
-3.48126e-06
-1.21939e-06
-1.5535e-06
-1.92776e-06
7.95299e-07
-2.3488e-06
3.03678e-06
-2.24148e-06
4.85197e-06
-1.81519e-06
6.17673e-06
-1.32477e-06
6.99705e-06
-8.20316e-07
7.33964e-06
-3.42591e-07
7.27402e-06
6.56232e-08
6.85554e-06
4.18482e-07
6.14881e-06
7.0673e-07
5.20044e-06
9.48365e-07
4.02669e-06
1.17375e-06
2.56119e-06
1.4655e-06
-5.46676e-07
3.10787e-06
-5.25474e-06
4.70807e-06
-8.71732e-06
3.46258e-06
-1.02963e-05
1.57895e-06
-1.10886e-05
7.92285e-07
-1.17923e-05
7.03762e-07
-1.25513e-05
7.58967e-07
-1.32845e-05
7.33256e-07
-1.39095e-05
6.24954e-07
-1.44023e-05
4.92806e-07
-1.47821e-05
3.79805e-07
-1.50808e-05
2.9872e-07
-1.5323e-05
2.42193e-07
-1.55201e-05
1.97068e-07
-1.56732e-05
1.53088e-07
-1.57781e-05
1.04964e-07
-1.58291e-05
5.10096e-08
-1.58203e-05
-8.81516e-09
-1.57451e-05
-7.52314e-08
-1.55988e-05
-1.46343e-07
-1.53796e-05
-2.19144e-07
-1.50884e-05
-2.91243e-07
-1.47273e-05
-3.61022e-07
-1.43e-05
-4.27399e-07
-1.38103e-05
-4.89635e-07
-1.32631e-05
-5.47246e-07
-1.26631e-05
-5.99957e-07
-1.20154e-05
-6.47699e-07
-1.13248e-05
-6.90605e-07
-1.05958e-05
-7.29022e-07
-9.83225e-06
-7.63532e-07
-9.03729e-06
-7.94965e-07
-8.21288e-06
-8.2441e-07
-7.35968e-06
-8.53202e-07
-6.47681e-06
-8.82865e-07
-5.56183e-06
-9.1498e-07
-4.6109e-06
-9.50929e-07
-3.61926e-06
-9.91648e-07
-2.58155e-06
-1.03771e-06
-1.48801e-06
-1.09354e-06
-2.86647e-07
-1.20137e-06
1.06878e-06
-1.35543e-06
2.58168e-06
-1.5129e-06
3.98563e-06
-1.40396e-06
5.29034e-06
-1.30471e-06
6.51537e-06
-1.22503e-06
7.66858e-06
-1.15321e-06
8.75091e-06
-1.08232e-06
9.76061e-06
-1.0097e-06
1.06954e-05
-9.34833e-07
1.15536e-05
-8.58126e-07
1.2334e-05
-7.80459e-07
1.3037e-05
-7.02939e-07
1.36637e-05
-6.26716e-07
1.42165e-05
-5.5282e-07
1.46985e-05
-4.82032e-07
1.51133e-05
-4.14802e-07
1.54645e-05
-3.51205e-07
1.57555e-05
-2.90934e-07
1.59888e-05
-2.33347e-07
1.61664e-05
-1.7758e-07
1.62892e-05
-1.2276e-07
1.63576e-05
-6.84004e-08
1.63726e-05
-1.50273e-08
1.63348e-05
3.78135e-08
1.62425e-05
9.2241e-08
1.60926e-05
1.49904e-07
1.58808e-05
2.11828e-07
1.56019e-05
2.78863e-07
1.52501e-05
3.51875e-07
1.48185e-05
4.31606e-07
1.43001e-05
5.18339e-07
1.36889e-05
6.11225e-07
1.29816e-05
7.07302e-07
1.21812e-05
8.00349e-07
1.13012e-05
8.80062e-07
1.03671e-05
9.34107e-07
9.39971e-06
9.67372e-07
8.30631e-06
1.0934e-06
6.55596e-06
1.75035e-06
3.14202e-06
3.41394e-06
-2.5038e-08
3.16706e-06
-4.80276e-07
4.55238e-07
-4.80276e-07
-2.68613e-06
6.85425e-06
-3.13524e-06
9.81634e-07
-2.17373e-06
-2.18089e-06
-4.42494e-07
-3.659e-06
1.56881e-06
-4.36011e-06
3.43482e-06
-4.10749e-06
5.01519e-06
-3.39556e-06
6.17008e-06
-2.47965e-06
6.83327e-06
-1.48351e-06
7.00688e-06
-5.16196e-07
6.73536e-06
3.37138e-07
6.08104e-06
1.07281e-06
5.09969e-06
1.68808e-06
3.83325e-06
2.2148e-06
2.2466e-06
2.7604e-06
-6.46051e-07
4.35815e-06
-5.03135e-06
7.49316e-06
-8.43645e-06
8.11318e-06
-1.06093e-05
5.63542e-06
-1.19827e-05
2.95237e-06
-1.28512e-05
1.6608e-06
-1.35081e-05
1.36061e-06
-1.40966e-05
1.34749e-06
-1.46542e-05
1.29086e-06
-1.51738e-05
1.14451e-06
-1.564e-05
9.59018e-07
-1.60433e-05
7.83084e-07
-1.63801e-05
6.35518e-07
-1.66494e-05
5.11519e-07
-1.685e-05
3.97716e-07
-1.69797e-05
2.82708e-07
-1.7035e-05
1.60311e-07
-1.70126e-05
2.86521e-08
-1.69101e-05
-1.11334e-07
-1.67292e-05
-2.56182e-07
-1.64723e-05
-4.03257e-07
-1.61413e-05
-5.501e-07
-1.5739e-05
-6.93527e-07
-1.52689e-05
-8.31189e-07
-1.47348e-05
-9.61494e-07
-1.4141e-05
-1.08337e-06
-1.34922e-05
-1.19611e-06
-1.27928e-05
-1.29936e-06
-1.20474e-05
-1.39308e-06
-1.12604e-05
-1.47755e-06
-1.0436e-05
-1.55348e-06
-9.57752e-06
-1.62199e-06
-8.68776e-06
-1.68472e-06
-7.76831e-06
-1.74387e-06
-6.81928e-06
-1.80223e-06
-5.83897e-06
-1.86318e-06
-4.82343e-06
-1.93052e-06
-3.76631e-06
-2.00805e-06
-2.65814e-06
-2.09982e-06
-1.48044e-06
-2.21541e-06
-1.85622e-07
-2.38835e-06
1.20716e-06
-2.59415e-06
2.55406e-06
-2.70233e-06
3.74975e-06
-2.70859e-06
4.98081e-06
-2.63502e-06
6.20578e-06
-2.52968e-06
7.39953e-06
-2.41878e-06
8.54888e-06
-2.30256e-06
9.64409e-06
-2.17753e-06
1.06771e-05
-2.04268e-06
1.16413e-05
-1.89909e-06
1.25322e-05
-1.74896e-06
1.33466e-05
-1.59493e-06
1.40835e-05
-1.43978e-06
1.47429e-05
-1.28615e-06
1.53264e-05
-1.13636e-06
1.58366e-05
-9.92206e-07
1.62767e-05
-8.54859e-07
1.66502e-05
-7.24784e-07
1.6961e-05
-6.01734e-07
1.72125e-05
-4.84805e-07
1.74075e-05
-3.72595e-07
1.75482e-05
-2.63482e-07
1.76359e-05
-1.56024e-07
1.76697e-05
-4.88764e-08
1.76457e-05
6.18111e-08
1.75598e-05
1.78173e-07
1.74079e-05
3.01755e-07
1.71862e-05
4.33593e-07
1.68908e-05
5.7421e-07
1.6519e-05
7.23746e-07
1.60686e-05
8.8197e-07
1.5539e-05
1.04792e-06
1.49311e-05
1.21909e-06
1.42483e-05
1.39017e-06
1.34966e-05
1.552e-06
1.26848e-05
1.69189e-06
1.18189e-05
1.80003e-06
1.08868e-05
1.89948e-06
9.828e-06
2.15217e-06
8.54961e-06
3.02874e-06
7.17777e-06
4.78578e-06
4.87958e-06
5.46524e-06
1.34264e-06
3.99217e-06
8.62365e-07
-1.79179e-06
8.64604e-06
-2.00791e-06
1.19776e-06
-1.14988e-06
-3.03893e-06
5.11266e-07
-5.32014e-06
2.23599e-06
-6.08483e-06
3.82769e-06
-5.69919e-06
5.17754e-06
-4.7454e-06
6.14148e-06
-3.4436e-06
6.63045e-06
-1.97249e-06
6.62427e-06
-5.10009e-07
6.13206e-06
8.29341e-07
5.17861e-06
2.02626e-06
3.83738e-06
3.02931e-06
2.16388e-06
3.8883e-06
-2.5032e-07
5.17461e-06
-4.05146e-06
8.15929e-06
-7.48407e-06
1.09258e-05
-9.68918e-06
1.03183e-05
-1.11138e-05
7.06009e-06
-1.21465e-05
3.98507e-06
-1.29709e-05
2.48519e-06
-1.36198e-05
2.00944e-06
-1.41353e-05
1.86306e-06
-1.45842e-05
1.73972e-06
-1.50076e-05
1.56794e-06
-1.54123e-05
1.36374e-06
-1.57848e-05
1.15553e-06
-1.61059e-05
9.56641e-07
-1.63599e-05
7.65466e-07
-1.65366e-05
5.74483e-07
-1.66312e-05
3.77248e-07
-1.66414e-05
1.70509e-07
-1.65668e-05
-4.59168e-08
-1.64102e-05
-2.67961e-07
-1.61751e-05
-4.91211e-07
-1.58656e-05
-7.12803e-07
-1.54857e-05
-9.30027e-07
-1.50389e-05
-1.14031e-06
-1.45285e-05
-1.34152e-06
-1.39581e-05
-1.53197e-06
-1.3331e-05
-1.71039e-06
-1.26513e-05
-1.87585e-06
-1.19229e-05
-2.02777e-06
-1.115e-05
-2.16601e-06
-1.03366e-05
-2.29089e-06
-9.48678e-06
-2.40331e-06
-8.60395e-06
-2.50483e-06
-7.69087e-06
-2.5978e-06
-6.74924e-06
-2.6855e-06
-5.77921e-06
-2.77226e-06
-4.77882e-06
-2.86357e-06
-3.74344e-06
-2.96589e-06
-2.66507e-06
-3.08643e-06
-1.52849e-06
-3.2364e-06
-3.03087e-07
-3.44081e-06
9.92964e-07
-3.6844e-06
2.23864e-06
-3.83983e-06
3.41169e-06
-3.87538e-06
4.56114e-06
-3.85804e-06
5.71877e-06
-3.79264e-06
6.8778e-06
-3.68871e-06
8.01732e-06
-3.55829e-06
9.12026e-06
-3.4055e-06
1.01739e-05
-3.23116e-06
1.11681e-05
-3.03693e-06
1.20951e-05
-2.82603e-06
1.29488e-05
-2.60265e-06
1.37252e-05
-2.3714e-06
1.44223e-05
-2.13684e-06
1.50394e-05
-1.90322e-06
1.55773e-05
-1.67426e-06
1.6038e-05
-1.45295e-06
1.64245e-05
-1.24138e-06
1.67404e-05
-1.04067e-06
1.69897e-05
-8.50966e-07
1.71762e-05
-6.71398e-07
1.73039e-05
-5.00263e-07
1.73757e-05
-3.35226e-07
1.73933e-05
-1.73643e-07
1.73564e-05
-1.20211e-08
1.72634e-05
1.54825e-07
1.71125e-05
3.2908e-07
1.69012e-05
5.1308e-07
1.66271e-05
7.07632e-07
1.62889e-05
9.12489e-07
1.58861e-05
1.12653e-06
1.54201e-05
1.34799e-06
1.48936e-05
1.57441e-06
1.43105e-05
1.80215e-06
1.36753e-05
2.02542e-06
1.29917e-05
2.23559e-06
1.22612e-05
2.42237e-06
1.14801e-05
2.58108e-06
1.06396e-05
2.73998e-06
9.74164e-06
3.05017e-06
8.81479e-06
3.95559e-06
7.78413e-06
5.81645e-06
5.98821e-06
7.26115e-06
3.13874e-06
6.84164e-06
4.00111e-06
-1.32609e-06
9.97213e-06
-1.31396e-06
1.18563e-06
-3.03502e-07
-4.04939e-06
1.22428e-06
-6.84793e-06
2.67626e-06
-7.53681e-06
4.02895e-06
-7.05188e-06
5.13692e-06
-5.85337e-06
5.86808e-06
-4.17476e-06
6.14011e-06
-2.24451e-06
5.93523e-06
-3.05132e-07
5.22313e-06
1.54144e-06
4.02355e-06
3.22584e-06
2.42457e-06
4.62828e-06
1.84782e-07
6.12809e-06
-3.10756e-06
8.46695e-06
-6.62582e-06
1.16776e-05
-9.03564e-06
1.33356e-05
-1.04871e-05
1.17698e-05
-1.14282e-05
8.0012e-06
-1.22339e-05
4.79078e-06
-1.29622e-05
3.21347e-06
-1.35595e-05
2.60667e-06
-1.40367e-05
2.34033e-06
-1.44443e-05
2.14733e-06
-1.48193e-05
1.94289e-06
-1.51702e-05
1.71465e-06
-1.54858e-05
1.47107e-06
-1.57481e-05
1.21904e-06
-1.59423e-05
9.5964e-07
-1.6059e-05
6.91151e-07
-1.6094e-05
4.12293e-07
-1.60472e-05
1.23657e-07
-1.59211e-05
-1.71998e-07
-1.57199e-05
-4.6918e-07
-1.54473e-05
-7.63839e-07
-1.51062e-05
-1.05388e-06
-1.46992e-05
-1.33701e-06
-1.42285e-05
-1.61096e-06
-1.36965e-05
-1.87358e-06
-1.31055e-05
-2.12295e-06
-1.24585e-05
-2.3574e-06
-1.17588e-05
-2.57556e-06
-1.10101e-05
-2.77648e-06
-1.02164e-05
-2.9597e-06
-9.38187e-06
-3.12541e-06
-8.51061e-06
-3.27457e-06
-7.6064e-06
-3.40904e-06
-6.67241e-06
-3.53178e-06
-5.71081e-06
-3.6471e-06
-4.72216e-06
-3.76091e-06
-3.70465e-06
-3.88108e-06
-2.65301e-06
-4.01753e-06
-1.556e-06
-4.18344e-06
-3.92807e-07
-4.39959e-06
8.2586e-07
-4.65947e-06
2.00134e-06
-4.85989e-06
3.112e-06
-4.95048e-06
4.21757e-06
-4.98094e-06
5.32547e-06
-4.96594e-06
6.43716e-06
-4.90434e-06
7.54498e-06
-4.79653e-06
8.63341e-06
-4.64673e-06
9.68688e-06
-4.45897e-06
1.06924e-05
-4.2367e-06
1.16396e-05
-3.98411e-06
1.25201e-05
-3.70655e-06
1.33277e-05
-3.4102e-06
1.40578e-05
-3.10152e-06
1.47078e-05
-2.78681e-06
1.52764e-05
-2.47189e-06
1.5764e-05
-2.16184e-06
1.61719e-05
-1.86085e-06
1.65026e-05
-1.57203e-06
1.67593e-05
-1.29736e-06
1.69458e-05
-1.03755e-06
1.70665e-05
-7.92109e-07
1.71256e-05
-5.59351e-07
1.7127e-05
-3.3658e-07
1.70736e-05
-1.20215e-07
1.69658e-05
9.57811e-08
1.68043e-05
3.16314e-07
1.65881e-05
5.45221e-07
1.63159e-05
7.85277e-07
1.59861e-05
1.03746e-06
1.55978e-05
1.30081e-06
1.51516e-05
1.57272e-06
1.46502e-05
1.84942e-06
1.40981e-05
2.12652e-06
1.35011e-05
2.39914e-06
1.28649e-05
2.66162e-06
1.21931e-05
2.9073e-06
1.14857e-05
3.12979e-06
1.07377e-05
3.32908e-06
9.94369e-06
3.53401e-06
9.11319e-06
3.88067e-06
8.27354e-06
4.79524e-06
7.32952e-06
6.76047e-06
5.77476e-06
8.81591e-06
3.30938e-06
9.30702e-06
7.31049e-06
-9.82937e-07
1.09551e-05
-7.85376e-07
9.88069e-07
3.55622e-07
-5.19039e-06
1.64499e-06
-8.13729e-06
2.83893e-06
-8.73075e-06
3.90915e-06
-8.1221e-06
4.71861e-06
-6.66283e-06
5.15287e-06
-4.60903e-06
5.15001e-06
-2.24165e-06
4.72362e-06
1.21258e-07
3.81878e-06
2.44629e-06
2.30132e-06
4.7433e-06
1.72428e-07
6.75717e-06
-2.67646e-06
8.97698e-06
-5.92798e-06
1.17185e-05
-8.57827e-06
1.43278e-05
-1.0234e-05
1.49913e-05
-1.11113e-05
1.26471e-05
-1.17146e-05
8.60448e-06
-1.23361e-05
5.4123e-06
-1.29387e-05
3.81612e-06
-1.34517e-05
3.11966e-06
-1.38761e-05
2.76471e-06
-1.42404e-05
2.5116e-06
-1.45657e-05
2.26825e-06
-1.48566e-05
2.00554e-06
-1.51049e-05
1.71939e-06
-1.52983e-05
1.41242e-06
-1.54262e-05
1.08751e-06
-1.54823e-05
7.4725e-07
-1.54644e-05
3.94415e-07
-1.53737e-05
3.29921e-08
-1.52136e-05
-3.32162e-07
-1.49868e-05
-6.95953e-07
-1.46946e-05
-1.05604e-06
-1.43378e-05
-1.41066e-06
-1.39172e-05
-1.75762e-06
-1.34336e-05
-2.09454e-06
-1.28883e-05
-2.41887e-06
-1.22832e-05
-2.72813e-06
-1.16206e-05
-3.01996e-06
-1.09038e-05
-3.29236e-06
-1.01365e-05
-3.54379e-06
-9.3228e-06
-3.77339e-06
-8.46711e-06
-3.9811e-06
-7.57384e-06
-4.16784e-06
-6.6472e-06
-4.33567e-06
-5.69091e-06
-4.48808e-06
-4.70772e-06
-4.63029e-06
-3.69878e-06
-4.76985e-06
-2.66229e-06
-4.91757e-06
-1.59102e-06
-5.0888e-06
-4.70311e-07
-5.30415e-06
6.93707e-07
-5.56361e-06
1.82159e-06
-5.78736e-06
2.88695e-06
-5.92525e-06
3.9447e-06
-6.00823e-06
5.01007e-06
-6.04631e-06
6.08081e-06
-6.03668e-06
7.15067e-06
-5.97419e-06
8.21008e-06
-5.85595e-06
9.24623e-06
-5.68287e-06
1.02457e-05
-5.45842e-06
1.11965e-05
-5.1875e-06
1.20887e-05
-4.87631e-06
1.29143e-05
-4.5322e-06
1.36673e-05
-4.1632e-06
1.43433e-05
-3.77749e-06
1.49394e-05
-3.38295e-06
1.54543e-05
-2.9868e-06
1.58879e-05
-2.59536e-06
1.6241e-05
-2.21394e-06
1.65156e-05
-1.84667e-06
1.67146e-05
-1.4964e-06
1.68417e-05
-1.16461e-06
1.69009e-05
-8.51359e-07
1.68969e-05
-5.55323e-07
1.68343e-05
-2.73915e-07
1.67156e-05
-1.53161e-09
1.65428e-05
2.68568e-07
1.63182e-05
5.4093e-07
1.60426e-05
8.20825e-07
1.57159e-05
1.11191e-06
1.53377e-05
1.41568e-06
1.49076e-05
1.73097e-06
1.44261e-05
2.05413e-06
1.38959e-05
2.37969e-06
1.3321e-05
2.70136e-06
1.27072e-05
3.01293e-06
1.206e-05
3.30884e-06
1.13829e-05
3.58447e-06
1.06753e-05
3.83734e-06
9.93235e-06
4.07203e-06
9.14763e-06
4.31873e-06
8.32454e-06
4.70376e-06
7.48424e-06
5.63555e-06
6.55838e-06
7.68633e-06
5.14226e-06
1.0232e-05
2.91371e-06
1.15356e-05
1.02242e-05
-7.06361e-07
1.16614e-05
-3.37822e-07
6.1953e-07
7.61483e-07
-6.28969e-06
1.75586e-06
-9.13166e-06
2.64395e-06
-9.61884e-06
3.35492e-06
-8.83307e-06
3.76904e-06
-7.07695e-06
3.8056e-06
-4.64559e-06
3.5769e-06
-2.01295e-06
2.62216e-06
1.076e-06
1.0965e-06
3.97195e-06
-8.24145e-07
6.66394e-06
-3.12805e-06
9.06107e-06
-5.72452e-06
1.15735e-05
-8.27911e-06
1.42731e-05
-1.01662e-05
1.6215e-05
-1.118e-05
1.6005e-05
-1.16185e-05
1.30856e-05
-1.1966e-05
8.95201e-06
-1.24125e-05
5.85876e-06
-1.28725e-05
4.27608e-06
-1.32804e-05
3.52762e-06
-1.36321e-05
3.11644e-06
-1.39393e-05
2.81874e-06
-1.42093e-05
2.53829e-06
-1.44414e-05
2.23763e-06
-1.46288e-05
1.90675e-06
-1.4763e-05
1.54665e-06
-1.48375e-05
1.16197e-06
-1.48487e-05
7.58499e-07
-1.47961e-05
3.41801e-07
-1.46804e-05
-8.26833e-08
-1.45038e-05
-5.08742e-07
-1.42664e-05
-9.33364e-07
-1.39668e-05
-1.35564e-06
-1.36039e-05
-1.77357e-06
-1.31769e-05
-2.1846e-06
-1.26858e-05
-2.58569e-06
-1.21312e-05
-2.9735e-06
-1.15147e-05
-3.34462e-06
-1.08388e-05
-3.69582e-06
-1.01069e-05
-4.02431e-06
-9.32272e-06
-4.32794e-06
-8.49071e-06
-4.60539e-06
-7.61549e-06
-4.85632e-06
-6.70175e-06
-5.08158e-06
-5.75401e-06
-5.28341e-06
-4.77634e-06
-5.46574e-06
-3.77205e-06
-5.63458e-06
-2.74259e-06
-5.7993e-06
-1.68481e-06
-5.97536e-06
-5.88861e-07
-6.18474e-06
5.42886e-07
-6.4359e-06
1.64398e-06
-6.6647e-06
2.68565e-06
-6.82903e-06
3.71314e-06
-6.95275e-06
4.74493e-06
-7.04002e-06
5.78229e-06
-7.08367e-06
6.81994e-06
-7.07433e-06
7.84966e-06
-7.00391e-06
8.86144e-06
-6.86773e-06
9.84394e-06
-6.66537e-06
1.07856e-05
-6.40013e-06
1.16761e-05
-6.07797e-06
1.25065e-05
-5.70674e-06
1.32699e-05
-5.29558e-06
1.39609e-05
-4.85419e-06
1.45757e-05
-4.39226e-06
1.51117e-05
-3.919e-06
1.55677e-05
-3.44281e-06
1.59435e-05
-2.97107e-06
1.62395e-05
-2.51002e-06
1.64575e-05
-2.06469e-06
1.66e-05
-1.63881e-06
1.667e-05
-1.23468e-06
1.66717e-05
-8.53066e-07
1.66095e-05
-4.9314e-07
1.64879e-05
-1.52262e-07
1.63094e-05
1.76969e-07
1.60781e-05
4.99897e-07
1.57968e-05
8.22188e-07
1.5468e-05
1.14964e-06
1.50931e-05
1.4868e-06
1.46729e-05
1.83589e-06
1.42079e-05
2.19597e-06
1.36991e-05
2.56291e-06
1.31487e-05
2.93013e-06
1.256e-05
3.29e-06
1.19376e-05
3.63536e-06
1.12856e-05
3.9608e-06
1.06065e-05
4.26358e-06
9.89913e-06
4.54474e-06
9.15814e-06
4.81302e-06
8.37623e-06
5.10064e-06
7.55239e-06
5.5276e-06
6.70135e-06
6.48659e-06
5.77432e-06
8.61335e-06
4.45646e-06
1.15499e-05
2.47414e-06
1.35179e-05
1.26983e-05
-4.96789e-07
1.21582e-05
2.32894e-08
9.94516e-08
8.89027e-07
-7.15543e-06
1.55208e-06
-9.79472e-06
2.04539e-06
-1.01122e-05
2.28762e-06
-9.0753e-06
2.17292e-06
-6.96224e-06
1.60993e-06
-4.0826e-06
5.12216e-07
-9.15237e-07
-1.08624e-06
2.67445e-06
-2.74754e-06
5.63325e-06
-4.34886e-06
8.26526e-06
-6.24741e-06
1.09596e-05
-8.33568e-06
1.36617e-05
-1.01821e-05
1.61195e-05
-1.13851e-05
1.7418e-05
-1.18774e-05
1.64974e-05
-1.19878e-05
1.3196e-05
-1.2132e-05
9.09616e-06
-1.24117e-05
6.13848e-06
-1.27273e-05
4.59171e-06
-1.30249e-05
3.82518e-06
-1.32963e-05
3.38782e-06
-1.35413e-05
3.06374e-06
-1.37572e-05
2.75421e-06
-1.39384e-05
2.41881e-06
-1.40778e-05
2.04614e-06
-1.4169e-05
1.6379e-06
-1.42078e-05
1.20079e-06
-1.41921e-05
7.42766e-07
-1.41215e-05
2.71176e-07
-1.39965e-05
-2.07684e-07
-1.38159e-05
-6.89307e-07
-1.35768e-05
-1.17252e-06
-1.3276e-05
-1.65641e-06
-1.29111e-05
-2.13842e-06
-1.24806e-05
-2.61511e-06
-1.1984e-05
-3.08234e-06
-1.14219e-05
-3.53561e-06
-1.07961e-05
-3.97042e-06
-1.01093e-05
-4.38258e-06
-9.36509e-06
-4.76852e-06
-8.56754e-06
-5.12549e-06
-7.72115e-06
-5.45178e-06
-6.83067e-06
-5.7468e-06
-5.90086e-06
-6.0114e-06
-4.9363e-06
-6.24798e-06
-3.94122e-06
-6.46082e-06
-2.91913e-06
-6.65667e-06
-1.87074e-06
-6.84769e-06
-7.90245e-07
-7.05585e-06
3.24262e-07
-7.29925e-06
1.41509e-06
-7.52672e-06
2.45048e-06
-7.70009e-06
3.46728e-06
-7.84583e-06
4.4829e-06
-7.96836e-06
5.50044e-06
-8.05756e-06
6.5166e-06
-8.09983e-06
7.52452e-06
-8.08225e-06
8.51539e-06
-7.99478e-06
9.47948e-06
-7.83182e-06
1.04067e-05
-7.59259e-06
1.12873e-05
-7.28076e-06
1.21127e-05
-6.90338e-06
1.28758e-05
-6.46981e-06
1.3571e-05
-5.99072e-06
1.4194e-05
-5.47727e-06
1.47422e-05
-4.9404e-06
1.52135e-05
-4.39035e-06
1.56071e-05
-3.83637e-06
1.59226e-05
-3.2866e-06
1.61606e-05
-2.74802e-06
1.63223e-05
-2.22639e-06
1.64097e-05
-1.72623e-06
1.64258e-05
-1.25069e-06
1.63741e-05
-8.01436e-07
1.62595e-05
-3.7854e-07
1.60845e-05
2.27778e-08
1.58526e-05
4.08863e-07
1.55691e-05
7.83412e-07
1.5238e-05
1.15325e-06
1.48629e-05
1.52479e-06
1.44464e-05
1.90332e-06
1.39905e-05
2.29172e-06
1.3497e-05
2.68946e-06
1.29676e-05
3.09239e-06
1.24043e-05
3.49343e-06
1.181e-05
3.88427e-06
1.11879e-05
4.25741e-06
1.05408e-05
4.60795e-06
9.86941e-06
4.93496e-06
9.1716e-06
5.24255e-06
8.44168e-06
5.54294e-06
7.672e-06
5.87032e-06
6.8585e-06
6.3411e-06
6.00817e-06
7.33692e-06
5.0843e-06
9.53722e-06
3.85169e-06
1.27825e-05
2.09592e-06
1.52737e-05
1.47943e-05
-3.59708e-07
1.25179e-05
1.77216e-07
-4.37473e-07
7.39957e-07
-7.71817e-06
1.03032e-06
-1.00851e-05
1.04674e-06
-1.01286e-05
6.87266e-07
-8.71583e-06
-1.35667e-07
-6.13931e-06
-1.41325e-06
-2.80502e-06
-3.15133e-06
8.22841e-07
-4.55805e-06
4.08118e-06
-5.83895e-06
6.91415e-06
-7.25971e-06
9.68602e-06
-8.80442e-06
1.25043e-05
-1.03426e-05
1.52e-05
-1.15539e-05
1.73307e-05
-1.21945e-05
1.80586e-05
-1.22916e-05
1.65945e-05
-1.21676e-05
1.3072e-05
-1.21534e-05
9.08191e-06
-1.22864e-05
6.27148e-06
-1.24726e-05
4.77791e-06
-1.26697e-05
4.02231e-06
-1.28667e-05
3.58484e-06
-1.30551e-05
3.25215e-06
-1.32251e-05
2.92417e-06
-1.3367e-05
2.56077e-06
-1.34731e-05
2.15218e-06
-1.35375e-05
1.70232e-06
-1.35568e-05
1.22011e-06
-1.35292e-05
7.15133e-07
-1.34536e-05
1.95568e-07
-1.33283e-05
-3.32993e-07
-1.31493e-05
-8.68242e-07
-1.29118e-05
-1.41009e-06
-1.26115e-05
-1.95673e-06
-1.22453e-05
-2.50456e-06
-1.18116e-05
-3.04881e-06
-1.131e-05
-3.58391e-06
-1.07417e-05
-4.10399e-06
-1.01087e-05
-4.60341e-06
-9.41416e-06
-5.07709e-06
-8.66187e-06
-5.52081e-06
-7.85598e-06
-5.93138e-06
-7.00099e-06
-6.30676e-06
-6.10155e-06
-6.64625e-06
-5.16226e-06
-6.95069e-06
-4.18752e-06
-7.22271e-06
-3.18146e-06
-7.46688e-06
-2.14711e-06
-7.69103e-06
-1.08251e-06
-7.91229e-06
1.68829e-08
-8.15524e-06
1.10499e-06
-8.38736e-06
2.14432e-06
-8.56604e-06
3.16287e-06
-8.71864e-06
4.17729e-06
-8.86025e-06
5.19027e-06
-8.98134e-06
6.19891e-06
-9.06621e-06
7.19713e-06
-9.09805e-06
8.17679e-06
-9.06191e-06
9.12883e-06
-8.94682e-06
1.0044e-05
-8.747e-06
1.09136e-05
-8.46217e-06
1.17297e-05
-8.0969e-06
1.24859e-05
-7.65954e-06
1.31769e-05
-7.16088e-06
1.37992e-05
-6.61299e-06
1.43501e-05
-6.02819e-06
1.48281e-05
-5.41834e-06
1.52321e-05
-4.79434e-06
1.55616e-05
-4.16591e-06
1.58166e-05
-3.54159e-06
1.59973e-05
-2.92876e-06
1.61047e-05
-2.33372e-06
1.61401e-05
-1.76168e-06
1.6106e-05
-1.21662e-06
1.60056e-05
-7.01055e-07
1.58427e-05
-2.1555e-07
1.56194e-05
2.46067e-07
1.53413e-05
6.86948e-07
1.50129e-05
1.11178e-06
1.46393e-05
1.5269e-06
1.4225e-05
1.93906e-06
1.37741e-05
2.35425e-06
1.32898e-05
2.77603e-06
1.27748e-05
3.20441e-06
1.22317e-05
3.63551e-06
1.16629e-05
4.06227e-06
1.10708e-05
4.47634e-06
1.04577e-05
4.87047e-06
9.82491e-06
5.24076e-06
9.17169e-06
5.58818e-06
8.49467e-06
5.91957e-06
7.78759e-06
6.25002e-06
7.04244e-06
6.61548e-06
6.25261e-06
7.13093e-06
5.41752e-06
8.17201e-06
4.50677e-06
1.0448e-05
3.34699e-06
1.39423e-05
1.78102e-06
1.68396e-05
1.65753e-05
-2.97736e-07
1.28157e-05
1.75627e-07
-9.10836e-07
3.60615e-07
-7.90316e-06
2.15311e-07
-9.93978e-06
-2.74568e-07
-9.6387e-06
-1.19615e-06
-7.79424e-06
-2.56108e-06
-4.77438e-06
-4.18351e-06
-1.18259e-06
-5.70666e-06
2.346e-06
-6.96049e-06
5.335e-06
-8.1631e-06
8.11675e-06
-9.39435e-06
1.09173e-05
-1.06055e-05
1.37155e-05
-1.16619e-05
1.62564e-05
-1.23567e-05
1.80255e-05
-1.25678e-05
1.82697e-05
-1.23871e-05
1.64137e-05
-1.21104e-05
1.27953e-05
-1.19828e-05
8.95431e-06
-1.20013e-05
6.29002e-06
-1.2086e-05
4.86261e-06
-1.22045e-05
4.1408e-06
-1.23434e-05
3.72375e-06
-1.24886e-05
3.39728e-06
-1.26253e-05
3.06092e-06
-1.27414e-05
2.67687e-06
-1.2828e-05
2.23871e-06
-1.28791e-05
1.75343e-06
-1.28911e-05
1.23215e-06
-1.28614e-05
6.85473e-07
-1.27875e-05
1.21636e-07
-1.26652e-05
-4.55282e-07
-1.24887e-05
-1.04475e-06
-1.22521e-05
-1.64668e-06
-1.19509e-05
-2.25799e-06
-1.15819e-05
-2.8735e-06
-1.1144e-05
-3.48672e-06
-1.06375e-05
-4.09043e-06
-1.00641e-05
-4.67738e-06
-9.42661e-06
-5.24091e-06
-8.72841e-06
-5.77529e-06
-7.97332e-06
-6.2759e-06
-7.16542e-06
-6.73928e-06
-6.30896e-06
-7.16322e-06
-5.40827e-06
-7.54693e-06
-4.4676e-06
-7.89136e-06
-3.49103e-06
-8.19928e-06
-2.48222e-06
-8.47569e-06
-1.44192e-06
-8.73133e-06
-3.66758e-07
-8.98745e-06
7.16237e-07
-9.23824e-06
1.76125e-06
-9.43237e-06
2.78275e-06
-9.58754e-06
3.80184e-06
-9.73774e-06
4.8196e-06
-9.87801e-06
5.83206e-06
-9.9938e-06
6.83253e-06
-1.00667e-05
7.81251e-06
-1.0078e-05
8.76262e-06
-1.0012e-05
9.67357e-06
-9.85777e-06
1.05368e-05
-9.61026e-06
1.13451e-05
-9.27048e-06
1.20927e-05
-8.8445e-06
1.27754e-05
-8.3422e-06
1.33904e-05
-7.77585e-06
1.39361e-05
-7.15872e-06
1.44119e-05
-6.50402e-06
1.48177e-05
-5.8241e-06
1.51535e-05
-5.1301e-06
1.54193e-05
-4.43175e-06
1.56153e-05
-3.73754e-06
1.57414e-05
-3.0549e-06
1.57981e-05
-2.39039e-06
1.57862e-05
-1.74976e-06
1.57074e-05
-1.13786e-06
1.55648e-05
-5.58448e-07
1.53595e-05
-1.02428e-08
1.50946e-05
5.10986e-07
1.47762e-05
1.00534e-06
1.44098e-05
1.47811e-06
1.40012e-05
1.93554e-06
1.35556e-05
2.38463e-06
1.30781e-05
2.83178e-06
1.2573e-05
3.28114e-06
1.20441e-05
3.73332e-06
1.14947e-05
4.18492e-06
1.09276e-05
4.6293e-06
1.03453e-05
5.05865e-06
9.74919e-06
5.46661e-06
9.1392e-06
5.85075e-06
8.51321e-06
6.21416e-06
7.8666e-06
6.56618e-06
7.19237e-06
6.92425e-06
6.48199e-06
7.32586e-06
5.72645e-06
7.88647e-06
4.91798e-06
8.98048e-06
4.02766e-06
1.13383e-05
2.92806e-06
1.50419e-05
1.51622e-06
1.82515e-05
1.80915e-05
-2.82817e-07
1.30985e-05
-4.31641e-08
-1.15049e-06
-1.99418e-07
-7.7469e-06
-7.55907e-07
-9.38329e-06
-1.66751e-06
-8.72709e-06
-2.92426e-06
-6.53749e-06
-4.43212e-06
-3.26652e-06
-5.99015e-06
3.75434e-07
-7.34661e-06
3.70246e-06
-8.55168e-06
6.54007e-06
-9.68685e-06
9.25192e-06
-1.07393e-05
1.19697e-05
-1.16482e-05
1.46245e-05
-1.23092e-05
1.69174e-05
-1.26056e-05
1.83218e-05
-1.2508e-05
1.81721e-05
-1.21499e-05
1.60557e-05
-1.17882e-05
1.24337e-05
-1.15927e-05
8.75883e-06
-1.15368e-05
6.23409e-06
-1.15558e-05
4.88163e-06
-1.16245e-05
4.2095e-06
-1.17275e-05
3.82669e-06
-1.18467e-05
3.51651e-06
-1.19648e-05
3.17903e-06
-1.2068e-05
2.78004e-06
-1.21466e-05
2.31729e-06
-1.21942e-05
1.80107e-06
-1.22064e-05
1.24441e-06
-1.21794e-05
6.58395e-07
-1.21087e-05
5.09162e-08
-1.19885e-05
-5.75455e-07
-1.1812e-05
-1.22123e-06
-1.15732e-05
-1.88548e-06
-1.12678e-05
-2.56337e-06
-1.08936e-05
-3.24777e-06
-1.04501e-05
-3.93021e-06
-9.93876e-06
-4.60174e-06
-9.36224e-06
-5.2539e-06
-8.72382e-06
-5.87934e-06
-8.02706e-06
-6.47205e-06
-7.27561e-06
-7.02735e-06
-6.47314e-06
-7.54176e-06
-5.62339e-06
-8.01297e-06
-4.73016e-06
-8.44016e-06
-3.79721e-06
-8.82431e-06
-2.82818e-06
-9.16831e-06
-1.82559e-06
-9.47828e-06
-7.88165e-07
-9.76876e-06
2.76984e-07
-1.00526e-05
1.32019e-06
-1.02814e-05
2.33706e-06
-1.04492e-05
3.35659e-06
-1.06071e-05
4.37889e-06
-1.076e-05
5.39879e-06
-1.08979e-05
6.40826e-06
-1.10033e-05
7.39733e-06
-1.10557e-05
8.3552e-06
-1.10359e-05
9.27129e-06
-1.09281e-05
1.01362e-05
-1.07227e-05
1.09424e-05
-1.04164e-05
1.16843e-05
-1.00124e-05
1.23584e-05
-9.51864e-06
1.29632e-05
-8.94694e-06
1.34983e-05
-8.31101e-06
1.39647e-05
-7.62512e-06
1.43637e-05
-6.90302e-06
1.46968e-05
-6.15716e-06
1.49651e-05
-5.39838e-06
1.51693e-05
-4.63593e-06
1.53094e-05
-3.87773e-06
1.53853e-05
-3.13081e-06
1.53966e-05
-2.40167e-06
1.53433e-05
-1.69641e-06
1.52261e-05
-1.02068e-06
1.5047e-05
-3.79351e-07
1.48062e-05
2.30522e-07
1.45085e-05
8.08756e-07
1.41583e-05
1.35546e-06
1.3762e-05
1.87445e-06
1.3326e-05
2.37154e-06
1.28568e-05
2.85387e-06
1.23603e-05
3.32821e-06
1.18422e-05
3.7993e-06
1.13071e-05
4.26844e-06
1.0759e-05
4.73295e-06
1.02013e-05
5.187e-06
9.63613e-06
5.62385e-06
9.06415e-06
6.03859e-06
8.48413e-06
6.43077e-06
7.89255e-06
6.80575e-06
7.28354e-06
7.17519e-06
6.64935e-06
7.55843e-06
5.98084e-06
7.99438e-06
5.26662e-06
8.60068e-06
4.49171e-06
9.75539e-06
3.62506e-06
1.22049e-05
2.5741e-06
1.60928e-05
1.28842e-06
1.95371e-05
1.93799e-05
-3.14537e-07
1.3413e-05
-3.61886e-07
-1.10314e-06
-8.66943e-07
-7.24185e-06
-1.74161e-06
-8.50862e-06
-2.90012e-06
-7.56858e-06
-4.27445e-06
-5.16317e-06
-5.7308e-06
-1.81017e-06
-7.11536e-06
1.76e-06
-8.32276e-06
4.90987e-06
-9.45675e-06
7.67405e-06
-1.04896e-05
1.02848e-05
-1.13635e-05
1.28436e-05
-1.20096e-05
1.52706e-05
-1.23565e-05
1.72642e-05
-1.23571e-05
1.83224e-05
-1.20499e-05
1.78649e-05
-1.15919e-05
1.55977e-05
-1.11985e-05
1.20402e-05
-1.09777e-05
8.53807e-06
-1.08894e-05
6.14578e-06
-1.08812e-05
4.87347e-06
-1.09315e-05
4.25972e-06
-1.10223e-05
3.91753e-06
-1.11336e-05
3.62785e-06
-1.1247e-05
3.29241e-06
-1.13482e-05
2.88122e-06
-1.14272e-05
2.39634e-06
-1.14773e-05
1.8511e-06
-1.14929e-05
1.26003e-06
-1.14688e-05
6.3426e-07
-1.13992e-05
-1.87e-08
-1.12774e-05
-6.97215e-07
-1.10965e-05
-1.4021e-06
-1.08511e-05
-2.13087e-06
-1.05379e-05
-2.87658e-06
-1.01559e-05
-3.62983e-06
-9.70604e-06
-4.38003e-06
-9.19111e-06
-5.11667e-06
-8.61457e-06
-5.83044e-06
-7.98014e-06
-6.51378e-06
-7.29123e-06
-7.16095e-06
-6.55096e-06
-7.76762e-06
-5.76227e-06
-8.33045e-06
-4.92813e-06
-8.84711e-06
-4.05164e-06
-9.31665e-06
-3.13597e-06
-9.73998e-06
-2.18401e-06
-1.01203e-05
-1.19608e-06
-1.04662e-05
-1.71599e-07
-1.07932e-05
8.53085e-07
-1.10773e-05
1.85542e-06
-1.12838e-05
2.86326e-06
-1.14571e-05
3.88073e-06
-1.16246e-05
4.90258e-06
-1.17819e-05
5.91961e-06
-1.19149e-05
6.92015e-06
-1.20038e-05
7.89118e-06
-1.20268e-05
8.81974e-06
-1.19645e-05
9.69428e-06
-1.18027e-05
1.05056e-05
-1.15341e-05
1.12475e-05
-1.11583e-05
1.19165e-05
-1.06813e-05
1.25116e-05
-1.01137e-05
1.30339e-05
-9.46931e-06
1.34861e-05
-8.76315e-06
1.38713e-05
-8.01033e-06
1.4193e-05
-7.22473e-06
1.44543e-05
-6.41842e-06
1.46573e-05
-5.60144e-06
1.48034e-05
-4.78196e-06
1.48924e-05
-3.96682e-06
1.49238e-05
-3.16217e-06
1.48962e-05
-2.37406e-06
1.48085e-05
-1.60873e-06
1.46603e-05
-8.72477e-07
1.44512e-05
-1.70269e-07
1.41817e-05
5.00051e-07
1.3857e-05
1.13343e-06
1.34824e-05
1.7301e-06
1.30643e-05
2.29255e-06
1.26098e-05
2.82608e-06
1.21259e-05
3.33769e-06
1.16197e-05
3.83443e-06
1.10974e-05
4.32158e-06
1.05647e-05
4.80117e-06
1.00262e-05
5.27145e-06
9.48542e-06
5.72778e-06
8.94429e-06
6.16497e-06
8.40274e-06
6.58014e-06
7.85837e-06
6.97514e-06
7.30631e-06
7.3578e-06
6.73963e-06
7.74187e-06
6.14993e-06
8.14813e-06
5.52745e-06
8.61686e-06
4.85833e-06
9.2698e-06
4.12001e-06
1.04937e-05
3.27688e-06
1.30481e-05
2.26416e-06
1.71056e-05
1.08436e-06
2.07169e-05
2.04643e-05
-3.82738e-07
1.37958e-05
-7.43275e-07
-7.42603e-07
-1.53277e-06
-6.45236e-06
-2.61413e-06
-7.42726e-06
-3.88043e-06
-6.30228e-06
-5.2289e-06
-3.81469e-06
-6.53218e-06
-5.06896e-07
-7.70697e-06
2.93479e-06
-8.77822e-06
5.98112e-06
-9.79385e-06
8.68968e-06
-1.06897e-05
1.11806e-05
-1.13844e-05
1.35383e-05
-1.18062e-05
1.56925e-05
-1.19095e-05
1.73675e-05
-1.16971e-05
1.811e-05
-1.12544e-05
1.74222e-05
-1.07505e-05
1.50939e-05
-1.03629e-05
1.16526e-05
-1.0153e-05
8.32814e-06
-1.00717e-05
6.06446e-06
-1.0073e-05
4.87479e-06
-1.01343e-05
4.32102e-06
-1.02351e-05
4.01827e-06
-1.03544e-05
3.74719e-06
-1.04744e-05
3.41241e-06
-1.05815e-05
2.98831e-06
-1.0666e-05
2.48083e-06
-1.07207e-05
1.9058e-06
-1.07393e-05
1.27871e-06
-1.07156e-05
6.10516e-07
-1.06427e-05
-9.15798e-08
-1.05142e-05
-8.2575e-07
-1.03239e-05
-1.59243e-06
-1.00676e-05
-2.38717e-06
-9.74353e-06
-3.20061e-06
-9.35247e-06
-4.02089e-06
-8.8971e-06
-4.8354e-06
-8.38137e-06
-5.6324e-06
-7.80953e-06
-6.40227e-06
-7.18536e-06
-7.13795e-06
-6.51177e-06
-7.83454e-06
-5.79095e-06
-8.48843e-06
-5.02481e-06
-9.09659e-06
-4.21535e-06
-9.65657e-06
-3.36483e-06
-1.01672e-05
-2.47572e-06
-1.06291e-05
-1.5495e-06
-1.10465e-05
-5.85265e-07
-1.14304e-05
4.02834e-07
-1.17813e-05
1.37884e-06
-1.20533e-05
2.35642e-06
-1.22614e-05
3.35327e-06
-1.24539e-05
4.36391e-06
-1.26352e-05
5.37889e-06
-1.27969e-05
6.38548e-06
-1.29215e-05
7.36849e-06
-1.29868e-05
8.31199e-06
-1.29703e-05
9.2012e-06
-1.28537e-05
1.00241e-05
-1.26256e-05
1.07723e-05
-1.22822e-05
1.14412e-05
-1.18272e-05
1.20299e-05
-1.127e-05
1.25403e-05
-1.06241e-05
1.29763e-05
-9.90538e-06
1.33433e-05
-9.13012e-06
1.36468e-05
-8.31386e-06
1.38923e-05
-7.4702e-06
1.40842e-05
-6.61035e-06
1.42258e-05
-5.74298e-06
1.43185e-05
-4.87465e-06
1.43622e-05
-4.01055e-06
1.43555e-05
-3.15547e-06
1.42961e-05
-2.31467e-06
1.41818e-05
-1.49445e-06
1.40117e-05
-7.02408e-07
1.3782e-05
5.95229e-08
1.34928e-05
7.89211e-07
1.31494e-05
1.47678e-06
1.2758e-05
2.12154e-06
1.23255e-05
2.72502e-06
1.18598e-05
3.29181e-06