/*--------------------------------*- C++ -*----------------------------------*\
| =========                 |                                                 |
| \\      /  F ield         | OpenFOAM: The Open Source CFD Toolbox           |
|  \\    /   O peration     | Version:  4.1                                   |
|   \\  /    A nd           | Web:      www.OpenFOAM.org                      |
|    \\/     M anipulation  |                                                 |
\*---------------------------------------------------------------------------*/
FoamFile
{
    version     2.0;
    format      ascii;
    class       volScalarField;
    location    "440";
    object      p;
}
// * * * * * * * * * * * * * * * * * * * * * * * * * * * * * * * * * * * * * //

dimensions      [0 2 -2 0 0 0 0];

internalField   nonuniform List<scalar> 
5000
(
0
-1.64572e-05
-2.47919e-05
-3.05772e-05
-3.58573e-05
-4.09767e-05
-4.59394e-05
-5.06413e-05
-5.50189e-05
-5.90557e-05
-6.27626e-05
-6.61599e-05
-6.92764e-05
-7.21441e-05
-7.47903e-05
-7.72372e-05
-7.95045e-05
-8.16069e-05
-8.35493e-05
-8.53243e-05
-8.69154e-05
-8.8302e-05
-8.94629e-05
-9.03781e-05
-9.10289e-05
-9.13986e-05
-9.14723e-05
-9.12369e-05
-9.06811e-05
-8.9794e-05
-8.85656e-05
-8.69898e-05
-8.50732e-05
-8.28538e-05
-8.04332e-05
-7.80057e-05
-7.58152e-05
-7.39759e-05
-7.23041e-05
-7.05637e-05
-6.88421e-05
-6.72426e-05
-6.5865e-05
-6.4746e-05
-6.35448e-05
-6.2154e-05
-6.03905e-05
-5.82089e-05
-5.57421e-05
-5.32978e-05
-5.11007e-05
-4.92518e-05
-4.77589e-05
-4.65745e-05
-4.56381e-05
-4.4913e-05
-4.43917e-05
-4.40857e-05
-4.40166e-05
-4.4208e-05
-4.46794e-05
-4.54421e-05
-4.6497e-05
-4.78332e-05
-4.94288e-05
-5.12527e-05
-5.32659e-05
-5.54237e-05
-5.76783e-05
-5.99797e-05
-6.22768e-05
-6.45188e-05
-6.66549e-05
-6.86352e-05
-7.04102e-05
-7.19308e-05
-7.31491e-05
-7.40187e-05
-7.44965e-05
-7.45449e-05
-7.41348e-05
-7.32415e-05
-7.18315e-05
-6.98869e-05
-6.74184e-05
-6.44451e-05
-6.09908e-05
-5.70888e-05
-5.27822e-05
-4.81218e-05
-4.31613e-05
-3.79535e-05
-3.2546e-05
-2.69773e-05
-2.12745e-05
-1.54478e-05
-9.46911e-06
-3.17203e-06
4.09766e-06
1.52618e-05
-0.0984384
-0.0984619
-0.0984747
-0.0984842
-0.0984922
-0.0984994
-0.098506
-0.0985123
-0.0985182
-0.0985239
-0.0985291
-0.098534
-0.0985385
-0.0985426
-0.0985463
-0.0985497
-0.0985527
-0.0985554
-0.0985578
-0.0985598
-0.0985616
-0.098563
-0.0985641
-0.0985649
-0.0985653
-0.0985654
-0.0985651
-0.0985645
-0.0985636
-0.0985623
-0.0985608
-0.0985591
-0.0985572
-0.0985552
-0.0985532
-0.0985512
-0.0985491
-0.0985468
-0.0985442
-0.0985415
-0.0985389
-0.0985363
-0.0985336
-0.0985308
-0.0985278
-0.098525
-0.0985225
-0.0985205
-0.0985189
-0.0985177
-0.0985167
-0.0985159
-0.0985152
-0.0985147
-0.0985142
-0.0985138
-0.0985136
-0.0985135
-0.0985136
-0.098514
-0.0985147
-0.0985157
-0.0985169
-0.0985184
-0.0985202
-0.0985221
-0.0985242
-0.0985265
-0.0985288
-0.0985311
-0.0985334
-0.0985355
-0.0985375
-0.0985393
-0.0985408
-0.098542
-0.0985427
-0.0985431
-0.0985429
-0.0985421
-0.0985407
-0.0985387
-0.098536
-0.0985326
-0.0985286
-0.0985239
-0.0985186
-0.0985127
-0.0985063
-0.0984993
-0.0984919
-0.0984841
-0.098476
-0.0984676
-0.0984589
-0.0984498
-0.0984401
-0.0984294
-0.098417
-0.0983985
-0.196926
-0.196952
-0.196967
-0.196978
-0.196987
-0.196995
-0.197001
-0.197008
-0.197014
-0.19702
-0.197025
-0.19703
-0.197034
-0.197038
-0.197042
-0.197045
-0.197048
-0.197051
-0.197053
-0.197056
-0.197057
-0.197059
-0.19706
-0.197061
-0.197061
-0.197061
-0.197061
-0.19706
-0.197059
-0.197058
-0.197057
-0.197055
-0.197053
-0.197051
-0.197049
-0.197047
-0.197045
-0.197043
-0.19704
-0.197037
-0.197035
-0.197032
-0.197029
-0.197027
-0.197024
-0.197021
-0.197019
-0.197017
-0.197015
-0.197014
-0.197013
-0.197012
-0.197011
-0.197011
-0.19701
-0.19701
-0.19701
-0.19701
-0.19701
-0.19701
-0.197011
-0.197012
-0.197013
-0.197015
-0.197016
-0.197018
-0.197021
-0.197023
-0.197025
-0.197028
-0.19703
-0.197032
-0.197034
-0.197036
-0.197038
-0.197039
-0.19704
-0.19704
-0.19704
-0.197039
-0.197038
-0.197036
-0.197033
-0.19703
-0.197025
-0.19702
-0.197014
-0.197007
-0.196999
-0.196991
-0.196982
-0.196972
-0.196962
-0.196952
-0.196941
-0.196929
-0.196917
-0.196903
-0.196888
-0.196865
-0.295431
-0.295453
-0.295466
-0.295476
-0.295484
-0.295491
-0.295498
-0.295505
-0.29551
-0.295516
-0.295521
-0.295526
-0.29553
-0.295534
-0.295538
-0.295541
-0.295544
-0.295547
-0.295549
-0.295551
-0.295553
-0.295555
-0.295556
-0.295556
-0.295557
-0.295557
-0.295556
-0.295556
-0.295555
-0.295554
-0.295552
-0.295551
-0.295549
-0.295547
-0.295545
-0.295543
-0.29554
-0.295538
-0.295536
-0.295533
-0.29553
-0.295528
-0.295525
-0.295522
-0.29552
-0.295517
-0.295514
-0.295512
-0.295511
-0.295509
-0.295508
-0.295508
-0.295507
-0.295506
-0.295506
-0.295506
-0.295505
-0.295505
-0.295505
-0.295506
-0.295506
-0.295507
-0.295509
-0.29551
-0.295512
-0.295514
-0.295517
-0.295519
-0.295522
-0.295524
-0.295527
-0.295529
-0.295531
-0.295533
-0.295535
-0.295536
-0.295537
-0.295537
-0.295537
-0.295537
-0.295536
-0.295534
-0.295531
-0.295527
-0.295523
-0.295518
-0.295512
-0.295505
-0.295497
-0.295488
-0.295479
-0.295469
-0.295458
-0.295447
-0.295435
-0.295423
-0.29541
-0.295395
-0.295381
-0.29536
-0.393939
-0.393957
-0.393966
-0.393975
-0.393982
-0.393989
-0.393996
-0.394002
-0.394007
-0.394013
-0.394018
-0.394022
-0.394026
-0.39403
-0.394034
-0.394037
-0.39404
-0.394043
-0.394045
-0.394047
-0.394049
-0.39405
-0.394051
-0.394052
-0.394052
-0.394052
-0.394052
-0.394051
-0.39405
-0.394049
-0.394048
-0.394046
-0.394044
-0.394042
-0.39404
-0.394038
-0.394036
-0.394033
-0.394031
-0.394028
-0.394026
-0.394023
-0.39402
-0.394018
-0.394015
-0.394012
-0.39401
-0.394008
-0.394006
-0.394004
-0.394003
-0.394003
-0.394002
-0.394002
-0.394001
-0.394001
-0.394
-0.394
-0.394
-0.394001
-0.394001
-0.394002
-0.394004
-0.394006
-0.394008
-0.39401
-0.394013
-0.394015
-0.394018
-0.394021
-0.394023
-0.394026
-0.394028
-0.39403
-0.394032
-0.394033
-0.394034
-0.394035
-0.394035
-0.394034
-0.394033
-0.394031
-0.394029
-0.394026
-0.394021
-0.394016
-0.39401
-0.394004
-0.393996
-0.393987
-0.393978
-0.393968
-0.393957
-0.393946
-0.393934
-0.393922
-0.393909
-0.393896
-0.393883
-0.393865
-0.492446
-0.492461
-0.492468
-0.492476
-0.492482
-0.492488
-0.492493
-0.492499
-0.492504
-0.492509
-0.492514
-0.492519
-0.492523
-0.492527
-0.49253
-0.492533
-0.492536
-0.492539
-0.492541
-0.492543
-0.492545
-0.492546
-0.492547
-0.492548
-0.492548
-0.492548
-0.492548
-0.492547
-0.492546
-0.492545
-0.492543
-0.492541
-0.492539
-0.492537
-0.492535
-0.492533
-0.492531
-0.492528
-0.492526
-0.492523
-0.492521
-0.492518
-0.492516
-0.492513
-0.49251
-0.492508
-0.492505
-0.492503
-0.492501
-0.492499
-0.492498
-0.492497
-0.492497
-0.492496
-0.492496
-0.492495
-0.492495
-0.492495
-0.492495
-0.492495
-0.492496
-0.492497
-0.492499
-0.492501
-0.492503
-0.492506
-0.492509
-0.492512
-0.492514
-0.492517
-0.49252
-0.492523
-0.492525
-0.492528
-0.49253
-0.492531
-0.492532
-0.492533
-0.492533
-0.492533
-0.492532
-0.49253
-0.492527
-0.492524
-0.49252
-0.492515
-0.49251
-0.492503
-0.492496
-0.492487
-0.492478
-0.492468
-0.492458
-0.492447
-0.492436
-0.492424
-0.492412
-0.492401
-0.49239
-0.492374
-0.590952
-0.590965
-0.590971
-0.590977
-0.590982
-0.590987
-0.590992
-0.590997
-0.591002
-0.591007
-0.591011
-0.591015
-0.591019
-0.591023
-0.591027
-0.59103
-0.591033
-0.591035
-0.591038
-0.59104
-0.591041
-0.591043
-0.591043
-0.591044
-0.591044
-0.591044
-0.591043
-0.591043
-0.591041
-0.59104
-0.591038
-0.591037
-0.591035
-0.591032
-0.59103
-0.591028
-0.591026
-0.591024
-0.591021
-0.591019
-0.591016
-0.591014
-0.591011
-0.591009
-0.591006
-0.591003
-0.591001
-0.590999
-0.590997
-0.590995
-0.590993
-0.590992
-0.590992
-0.590991
-0.590991
-0.59099
-0.590989
-0.590989
-0.590989
-0.59099
-0.590991
-0.590992
-0.590994
-0.590996
-0.590999
-0.591002
-0.591005
-0.591008
-0.591011
-0.591015
-0.591018
-0.591021
-0.591023
-0.591026
-0.591028
-0.59103
-0.591031
-0.591032
-0.591032
-0.591031
-0.59103
-0.591029
-0.591026
-0.591023
-0.59102
-0.591015
-0.591009
-0.591003
-0.590996
-0.590988
-0.590979
-0.59097
-0.59096
-0.590949
-0.590939
-0.590928
-0.590918
-0.590907
-0.590898
-0.590884
-0.689459
-0.68947
-0.689474
-0.689479
-0.689483
-0.689487
-0.689491
-0.689495
-0.6895
-0.689504
-0.689508
-0.689512
-0.689516
-0.68952
-0.689523
-0.689526
-0.689529
-0.689532
-0.689534
-0.689536
-0.689538
-0.689539
-0.68954
-0.68954
-0.68954
-0.68954
-0.689539
-0.689538
-0.689537
-0.689536
-0.689534
-0.689532
-0.68953
-0.689528
-0.689526
-0.689523
-0.689521
-0.689519
-0.689517
-0.689514
-0.689512
-0.68951
-0.689507
-0.689505
-0.689502
-0.6895
-0.689497
-0.689495
-0.689493
-0.689491
-0.689489
-0.689488
-0.689487
-0.689486
-0.689485
-0.689485
-0.689484
-0.689484
-0.689484
-0.689485
-0.689486
-0.689488
-0.68949
-0.689492
-0.689495
-0.689499
-0.689502
-0.689505
-0.689509
-0.689512
-0.689516
-0.689519
-0.689522
-0.689525
-0.689527
-0.689529
-0.68953
-0.689531
-0.689531
-0.689531
-0.68953
-0.689528
-0.689526
-0.689523
-0.68952
-0.689515
-0.68951
-0.689504
-0.689497
-0.689489
-0.689481
-0.689472
-0.689463
-0.689453
-0.689443
-0.689433
-0.689424
-0.689415
-0.689407
-0.689395
-0.787965
-0.787975
-0.787978
-0.787981
-0.787984
-0.787987
-0.78799
-0.787994
-0.787998
-0.788002
-0.788006
-0.78801
-0.788014
-0.788017
-0.78802
-0.788024
-0.788026
-0.788029
-0.788031
-0.788033
-0.788035
-0.788036
-0.788037
-0.788037
-0.788037
-0.788037
-0.788036
-0.788035
-0.788033
-0.788032
-0.78803
-0.788028
-0.788026
-0.788023
-0.788021
-0.788019
-0.788017
-0.788015
-0.788012
-0.78801
-0.788008
-0.788006
-0.788004
-0.788001
-0.787999
-0.787997
-0.787995
-0.787992
-0.78799
-0.787988
-0.787986
-0.787984
-0.787983
-0.787982
-0.787981
-0.78798
-0.787979
-0.787979
-0.787979
-0.78798
-0.787982
-0.787984
-0.787986
-0.787989
-0.787992
-0.787996
-0.788
-0.788004
-0.788007
-0.788011
-0.788015
-0.788018
-0.788021
-0.788024
-0.788027
-0.788029
-0.78803
-0.788031
-0.788031
-0.788031
-0.78803
-0.788029
-0.788027
-0.788024
-0.78802
-0.788016
-0.788011
-0.788005
-0.787999
-0.787991
-0.787984
-0.787975
-0.787966
-0.787957
-0.787948
-0.78794
-0.787931
-0.787923
-0.787917
-0.787906
-0.886472
-0.88648
-0.886481
-0.886483
-0.886485
-0.886487
-0.88649
-0.886493
-0.886496
-0.8865
-0.886504
-0.886507
-0.886511
-0.886515
-0.886518
-0.886521
-0.886524
-0.886526
-0.886529
-0.88653
-0.886532
-0.886533
-0.886534
-0.886534
-0.886534
-0.886533
-0.886533
-0.886531
-0.88653
-0.886528
-0.886526
-0.886524
-0.886522
-0.886519
-0.886517
-0.886515
-0.886513
-0.886511
-0.886509
-0.886507
-0.886505
-0.886503
-0.886501
-0.886499
-0.886497
-0.886495
-0.886493
-0.88649
-0.886488
-0.886486
-0.886483
-0.886481
-0.88648
-0.886478
-0.886477
-0.886476
-0.886475
-0.886475
-0.886475
-0.886476
-0.886478
-0.886481
-0.886483
-0.886487
-0.88649
-0.886494
-0.886499
-0.886503
-0.886507
-0.886511
-0.886515
-0.886518
-0.886522
-0.886525
-0.886527
-0.886529
-0.886531
-0.886532
-0.886533
-0.886532
-0.886532
-0.88653
-0.886528
-0.886525
-0.886522
-0.886518
-0.886513
-0.886508
-0.886501
-0.886494
-0.886487
-0.886479
-0.886471
-0.886463
-0.886454
-0.886446
-0.886439
-0.886432
-0.886426
-0.886417
-0.984978
-0.984984
-0.984985
-0.984986
-0.984986
-0.984988
-0.98499
-0.984992
-0.984995
-0.984998
-0.985002
-0.985005
-0.985009
-0.985012
-0.985016
-0.985019
-0.985022
-0.985024
-0.985026
-0.985028
-0.98503
-0.985031
-0.985032
-0.985032
-0.985032
-0.985031
-0.98503
-0.985028
-0.985027
-0.985025
-0.985022
-0.98502
-0.985018
-0.985015
-0.985013
-0.985011
-0.985009
-0.985007
-0.985005
-0.985004
-0.985002
-0.985
-0.984999
-0.984997
-0.984995
-0.984994
-0.984992
-0.984989
-0.984987
-0.984985
-0.984982
-0.98498
-0.984978
-0.984976
-0.984974
-0.984973
-0.984972
-0.984972
-0.984973
-0.984974
-0.984976
-0.984979
-0.984982
-0.984986
-0.98499
-0.984994
-0.984998
-0.985003
-0.985007
-0.985012
-0.985016
-0.98502
-0.985023
-0.985026
-0.985029
-0.985031
-0.985033
-0.985034
-0.985035
-0.985034
-0.985034
-0.985032
-0.98503
-0.985028
-0.985024
-0.98502
-0.985016
-0.98501
-0.985004
-0.984998
-0.984991
-0.984984
-0.984976
-0.984968
-0.984961
-0.984954
-0.984947
-0.98494
-0.984936
-0.984928
-1.08348
-1.08349
-1.08349
-1.08349
-1.08349
-1.08349
-1.08349
-1.08349
-1.08349
-1.0835
-1.0835
-1.0835
-1.08351
-1.08351
-1.08351
-1.08352
-1.08352
-1.08352
-1.08352
-1.08353
-1.08353
-1.08353
-1.08353
-1.08353
-1.08353
-1.08353
-1.08353
-1.08353
-1.08352
-1.08352
-1.08352
-1.08352
-1.08351
-1.08351
-1.08351
-1.08351
-1.08351
-1.0835
-1.0835
-1.0835
-1.0835
-1.0835
-1.0835
-1.0835
-1.08349
-1.08349
-1.08349
-1.08349
-1.08349
-1.08348
-1.08348
-1.08348
-1.08348
-1.08347
-1.08347
-1.08347
-1.08347
-1.08347
-1.08347
-1.08347
-1.08347
-1.08348
-1.08348
-1.08349
-1.08349
-1.08349
-1.0835
-1.0835
-1.08351
-1.08351
-1.08352
-1.08352
-1.08353
-1.08353
-1.08353
-1.08353
-1.08354
-1.08354
-1.08354
-1.08354
-1.08354
-1.08354
-1.08353
-1.08353
-1.08353
-1.08352
-1.08352
-1.08351
-1.08351
-1.0835
-1.0835
-1.08349
-1.08348
-1.08347
-1.08347
-1.08346
-1.08346
-1.08345
-1.08345
-1.08344
-1.18199
-1.18199
-1.18199
-1.18199
-1.18199
-1.18199
-1.18199
-1.18199
-1.18199
-1.182
-1.182
-1.182
-1.18201
-1.18201
-1.18201
-1.18202
-1.18202
-1.18202
-1.18202
-1.18203
-1.18203
-1.18203
-1.18203
-1.18203
-1.18203
-1.18203
-1.18203
-1.18202
-1.18202
-1.18202
-1.18202
-1.18201
-1.18201
-1.18201
-1.18201
-1.182
-1.182
-1.182
-1.182
-1.182
-1.182
-1.182
-1.18199
-1.18199
-1.18199
-1.18199
-1.18199
-1.18199
-1.18199
-1.18199
-1.18198
-1.18198
-1.18198
-1.18197
-1.18197
-1.18197
-1.18197
-1.18197
-1.18197
-1.18197
-1.18197
-1.18198
-1.18198
-1.18199
-1.18199
-1.182
-1.182
-1.18201
-1.18201
-1.18202
-1.18202
-1.18202
-1.18203
-1.18203
-1.18204
-1.18204
-1.18204
-1.18204
-1.18204
-1.18204
-1.18204
-1.18204
-1.18204
-1.18203
-1.18203
-1.18203
-1.18202
-1.18202
-1.18201
-1.18201
-1.182
-1.18199
-1.18199
-1.18198
-1.18198
-1.18197
-1.18196
-1.18196
-1.18196
-1.18195
-1.28049
-1.28049
-1.28049
-1.28049
-1.28049
-1.28049
-1.28049
-1.28049
-1.28049
-1.28049
-1.2805
-1.2805
-1.2805
-1.28051
-1.28051
-1.28051
-1.28052
-1.28052
-1.28052
-1.28052
-1.28053
-1.28053
-1.28053
-1.28053
-1.28053
-1.28053
-1.28052
-1.28052
-1.28052
-1.28052
-1.28051
-1.28051
-1.28051
-1.2805
-1.2805
-1.2805
-1.2805
-1.2805
-1.28049
-1.28049
-1.28049
-1.28049
-1.28049
-1.28049
-1.28049
-1.28049
-1.28049
-1.28049
-1.28049
-1.28049
-1.28048
-1.28048
-1.28048
-1.28047
-1.28047
-1.28047
-1.28047
-1.28047
-1.28047
-1.28047
-1.28048
-1.28048
-1.28048
-1.28049
-1.28049
-1.2805
-1.2805
-1.28051
-1.28051
-1.28052
-1.28052
-1.28053
-1.28053
-1.28054
-1.28054
-1.28054
-1.28054
-1.28054
-1.28055
-1.28055
-1.28054
-1.28054
-1.28054
-1.28054
-1.28054
-1.28053
-1.28053
-1.28052
-1.28052
-1.28051
-1.28051
-1.2805
-1.28049
-1.28049
-1.28048
-1.28048
-1.28047
-1.28047
-1.28047
-1.28046
-1.37899
-1.379
-1.37899
-1.37899
-1.37899
-1.37899
-1.37899
-1.37899
-1.37899
-1.37899
-1.379
-1.379
-1.379
-1.37901
-1.37901
-1.37901
-1.37902
-1.37902
-1.37902
-1.37902
-1.37903
-1.37903
-1.37903
-1.37903
-1.37903
-1.37902
-1.37902
-1.37902
-1.37902
-1.37901
-1.37901
-1.37901
-1.379
-1.379
-1.379
-1.379
-1.37899
-1.37899
-1.37899
-1.37899
-1.37899
-1.37899
-1.37899
-1.37899
-1.37899
-1.37899
-1.37899
-1.37899
-1.37899
-1.37899
-1.37898
-1.37898
-1.37898
-1.37898
-1.37897
-1.37897
-1.37897
-1.37897
-1.37897
-1.37898
-1.37898
-1.37898
-1.37899
-1.37899
-1.379
-1.379
-1.37901
-1.37901
-1.37902
-1.37902
-1.37903
-1.37903
-1.37904
-1.37904
-1.37904
-1.37905
-1.37905
-1.37905
-1.37905
-1.37905
-1.37905
-1.37905
-1.37905
-1.37904
-1.37904
-1.37904
-1.37903
-1.37903
-1.37902
-1.37902
-1.37901
-1.37901
-1.379
-1.379
-1.37899
-1.37899
-1.37898
-1.37898
-1.37897
-1.37897
-1.47749
-1.4775
-1.47749
-1.47749
-1.47749
-1.47749
-1.47749
-1.47749
-1.47749
-1.47749
-1.4775
-1.4775
-1.4775
-1.47751
-1.47751
-1.47751
-1.47752
-1.47752
-1.47752
-1.47752
-1.47753
-1.47753
-1.47753
-1.47753
-1.47752
-1.47752
-1.47752
-1.47752
-1.47751
-1.47751
-1.47751
-1.4775
-1.4775
-1.4775
-1.47749
-1.47749
-1.47749
-1.47749
-1.47749
-1.47749
-1.47748
-1.47748
-1.47748
-1.47748
-1.47749
-1.47749
-1.47749
-1.47749
-1.47749
-1.47749
-1.47748
-1.47748
-1.47748
-1.47748
-1.47748
-1.47747
-1.47747
-1.47747
-1.47748
-1.47748
-1.47748
-1.47748
-1.47749
-1.47749
-1.4775
-1.47751
-1.47751
-1.47752
-1.47752
-1.47753
-1.47753
-1.47754
-1.47754
-1.47755
-1.47755
-1.47755
-1.47755
-1.47755
-1.47756
-1.47756
-1.47755
-1.47755
-1.47755
-1.47755
-1.47755
-1.47754
-1.47754
-1.47753
-1.47753
-1.47752
-1.47752
-1.47751
-1.47751
-1.4775
-1.4775
-1.47749
-1.47749
-1.47749
-1.47748
-1.47748
-1.57599
-1.57599
-1.57599
-1.57599
-1.57599
-1.57598
-1.57598
-1.57599
-1.57599
-1.57599
-1.57599
-1.576
-1.576
-1.57601
-1.57601
-1.57601
-1.57602
-1.57602
-1.57602
-1.57602
-1.57603
-1.57603
-1.57603
-1.57603
-1.57602
-1.57602
-1.57602
-1.57602
-1.57601
-1.57601
-1.57601
-1.576
-1.576
-1.57599
-1.57599
-1.57599
-1.57599
-1.57598
-1.57598
-1.57598
-1.57598
-1.57598
-1.57598
-1.57598
-1.57598
-1.57598
-1.57598
-1.57598
-1.57598
-1.57598
-1.57598
-1.57598
-1.57598
-1.57598
-1.57598
-1.57598
-1.57598
-1.57598
-1.57598
-1.57598
-1.57598
-1.57599
-1.57599
-1.576
-1.576
-1.57601
-1.57602
-1.57602
-1.57603
-1.57603
-1.57604
-1.57604
-1.57605
-1.57605
-1.57605
-1.57606
-1.57606
-1.57606
-1.57606
-1.57606
-1.57606
-1.57606
-1.57606
-1.57605
-1.57605
-1.57605
-1.57604
-1.57604
-1.57603
-1.57603
-1.57602
-1.57602
-1.57601
-1.57601
-1.576
-1.576
-1.576
-1.57599
-1.57599
-1.57599
-1.67449
-1.67449
-1.67449
-1.67449
-1.67448
-1.67448
-1.67448
-1.67448
-1.67449
-1.67449
-1.67449
-1.6745
-1.6745
-1.6745
-1.67451
-1.67451
-1.67452
-1.67452
-1.67452
-1.67452
-1.67453
-1.67453
-1.67453
-1.67453
-1.67453
-1.67452
-1.67452
-1.67452
-1.67451
-1.67451
-1.6745
-1.6745
-1.67449
-1.67449
-1.67449
-1.67448
-1.67448
-1.67448
-1.67448
-1.67448
-1.67448
-1.67448
-1.67448
-1.67448
-1.67448
-1.67448
-1.67448
-1.67448
-1.67448
-1.67448
-1.67448
-1.67448
-1.67448
-1.67448
-1.67448
-1.67448
-1.67448
-1.67448
-1.67448
-1.67448
-1.67449
-1.67449
-1.6745
-1.6745
-1.67451
-1.67451
-1.67452
-1.67453
-1.67453
-1.67454
-1.67454
-1.67455
-1.67455
-1.67456
-1.67456
-1.67456
-1.67456
-1.67457
-1.67457
-1.67457
-1.67457
-1.67456
-1.67456
-1.67456
-1.67456
-1.67455
-1.67455
-1.67454
-1.67454
-1.67454
-1.67453
-1.67453
-1.67452
-1.67452
-1.67451
-1.67451
-1.67451
-1.6745
-1.6745
-1.6745
-1.77299
-1.77299
-1.77298
-1.77298
-1.77298
-1.77298
-1.77298
-1.77298
-1.77298
-1.77299
-1.77299
-1.773
-1.773
-1.773
-1.77301
-1.77301
-1.77302
-1.77302
-1.77302
-1.77303
-1.77303
-1.77303
-1.77303
-1.77303
-1.77303
-1.77302
-1.77302
-1.77302
-1.77301
-1.77301
-1.773
-1.773
-1.77299
-1.77299
-1.77298
-1.77298
-1.77298
-1.77298
-1.77297
-1.77297
-1.77297
-1.77297
-1.77297
-1.77297
-1.77297
-1.77297
-1.77298
-1.77298
-1.77298
-1.77298
-1.77298
-1.77298
-1.77298
-1.77298
-1.77298
-1.77298
-1.77298
-1.77298
-1.77298
-1.77299
-1.77299
-1.77299
-1.773
-1.773
-1.77301
-1.77302
-1.77302
-1.77303
-1.77303
-1.77304
-1.77305
-1.77305
-1.77306
-1.77306
-1.77306
-1.77307
-1.77307
-1.77307
-1.77307
-1.77307
-1.77307
-1.77307
-1.77307
-1.77307
-1.77306
-1.77306
-1.77305
-1.77305
-1.77305
-1.77304
-1.77304
-1.77303
-1.77303
-1.77302
-1.77302
-1.77301
-1.77301
-1.77301
-1.77301
-1.77301
-1.87148
-1.87148
-1.87148
-1.87148
-1.87148
-1.87148
-1.87148
-1.87148
-1.87148
-1.87149
-1.87149
-1.87149
-1.8715
-1.8715
-1.87151
-1.87151
-1.87152
-1.87152
-1.87152
-1.87153
-1.87153
-1.87153
-1.87153
-1.87153
-1.87153
-1.87153
-1.87152
-1.87152
-1.87151
-1.87151
-1.8715
-1.8715
-1.87149
-1.87149
-1.87148
-1.87148
-1.87148
-1.87147
-1.87147
-1.87147
-1.87147
-1.87147
-1.87147
-1.87147
-1.87147
-1.87147
-1.87147
-1.87147
-1.87148
-1.87148
-1.87148
-1.87148
-1.87148
-1.87148
-1.87148
-1.87148
-1.87148
-1.87148
-1.87148
-1.87149
-1.87149
-1.8715
-1.8715
-1.87151
-1.87151
-1.87152
-1.87153
-1.87153
-1.87154
-1.87154
-1.87155
-1.87156
-1.87156
-1.87156
-1.87157
-1.87157
-1.87157
-1.87158
-1.87158
-1.87158
-1.87158
-1.87158
-1.87157
-1.87157
-1.87157
-1.87156
-1.87156
-1.87156
-1.87155
-1.87155
-1.87154
-1.87154
-1.87153
-1.87153
-1.87152
-1.87152
-1.87152
-1.87152
-1.87152
-1.87151
-1.96997
-1.96997
-1.96997
-1.96997
-1.96997
-1.96997
-1.96997
-1.96998
-1.96998
-1.96998
-1.96999
-1.96999
-1.97
-1.97
-1.97001
-1.97001
-1.97002
-1.97002
-1.97003
-1.97003
-1.97003
-1.97003
-1.97003
-1.97003
-1.97003
-1.97003
-1.97003
-1.97002
-1.97002
-1.97001
-1.97
-1.97
-1.96999
-1.96999
-1.96998
-1.96998
-1.96997
-1.96997
-1.96997
-1.96997
-1.96996
-1.96996
-1.96996
-1.96996
-1.96997
-1.96997
-1.96997
-1.96997
-1.96997
-1.96997
-1.96998
-1.96998
-1.96998
-1.96998
-1.96998
-1.96998
-1.96998
-1.96998
-1.96999
-1.96999
-1.96999
-1.97
-1.97
-1.97001
-1.97002
-1.97002
-1.97003
-1.97003
-1.97004
-1.97005
-1.97005
-1.97006
-1.97006
-1.97007
-1.97007
-1.97008
-1.97008
-1.97008
-1.97008
-1.97008
-1.97008
-1.97008
-1.97008
-1.97008
-1.97007
-1.97007
-1.97006
-1.97006
-1.97006
-1.97005
-1.97005
-1.97004
-1.97004
-1.97003
-1.97003
-1.97003
-1.97002
-1.97002
-1.97002
-1.97002
-2.06847
-2.06847
-2.06847
-2.06847
-2.06847
-2.06847
-2.06847
-2.06847
-2.06848
-2.06848
-2.06849
-2.06849
-2.0685
-2.0685
-2.06851
-2.06851
-2.06852
-2.06852
-2.06853
-2.06853
-2.06853
-2.06854
-2.06854
-2.06854
-2.06854
-2.06853
-2.06853
-2.06852
-2.06852
-2.06851
-2.06851
-2.0685
-2.06849
-2.06849
-2.06848
-2.06848
-2.06847
-2.06847
-2.06847
-2.06846
-2.06846
-2.06846
-2.06846
-2.06846
-2.06846
-2.06846
-2.06846
-2.06847
-2.06847
-2.06847
-2.06847
-2.06847
-2.06848
-2.06848
-2.06848
-2.06848
-2.06848
-2.06848
-2.06849
-2.06849
-2.06849
-2.0685
-2.06851
-2.06851
-2.06852
-2.06852
-2.06853
-2.06854
-2.06854
-2.06855
-2.06856
-2.06856
-2.06857
-2.06857
-2.06858
-2.06858
-2.06858
-2.06858
-2.06859
-2.06859
-2.06859
-2.06858
-2.06858
-2.06858
-2.06858
-2.06857
-2.06857
-2.06856
-2.06856
-2.06855
-2.06855
-2.06855
-2.06854
-2.06854
-2.06853
-2.06853
-2.06853
-2.06853
-2.06853
-2.06852
-2.16696
-2.16696
-2.16696
-2.16696
-2.16696
-2.16696
-2.16697
-2.16697
-2.16697
-2.16698
-2.16698
-2.16699
-2.16699
-2.167
-2.16701
-2.16701
-2.16702
-2.16702
-2.16703
-2.16703
-2.16704
-2.16704
-2.16704
-2.16704
-2.16704
-2.16704
-2.16703
-2.16703
-2.16702
-2.16701
-2.16701
-2.167
-2.16699
-2.16698
-2.16698
-2.16697
-2.16697
-2.16697
-2.16696
-2.16696
-2.16696
-2.16696
-2.16696
-2.16696
-2.16696
-2.16696
-2.16696
-2.16696
-2.16696
-2.16697
-2.16697
-2.16697
-2.16697
-2.16698
-2.16698
-2.16698
-2.16698
-2.16698
-2.16699
-2.16699
-2.167
-2.167
-2.16701
-2.16701
-2.16702
-2.16702
-2.16703
-2.16704
-2.16704
-2.16705
-2.16706
-2.16706
-2.16707
-2.16707
-2.16708
-2.16708
-2.16709
-2.16709
-2.16709
-2.16709
-2.16709
-2.16709
-2.16709
-2.16708
-2.16708
-2.16708
-2.16707
-2.16707
-2.16706
-2.16706
-2.16705
-2.16705
-2.16704
-2.16704
-2.16704
-2.16703
-2.16703
-2.16703
-2.16703
-2.16703
-2.26546
-2.26545
-2.26546
-2.26546
-2.26546
-2.26546
-2.26546
-2.26546
-2.26547
-2.26547
-2.26548
-2.26549
-2.26549
-2.2655
-2.26551
-2.26551
-2.26552
-2.26552
-2.26553
-2.26554
-2.26554
-2.26554
-2.26554
-2.26555
-2.26554
-2.26554
-2.26554
-2.26553
-2.26552
-2.26552
-2.26551
-2.2655
-2.26549
-2.26548
-2.26548
-2.26547
-2.26547
-2.26546
-2.26546
-2.26546
-2.26545
-2.26545
-2.26545
-2.26545
-2.26545
-2.26545
-2.26546
-2.26546
-2.26546
-2.26546
-2.26546
-2.26547
-2.26547
-2.26547
-2.26547
-2.26548
-2.26548
-2.26548
-2.26549
-2.26549
-2.26549
-2.2655
-2.26551
-2.26551
-2.26552
-2.26553
-2.26553
-2.26554
-2.26555
-2.26555
-2.26556
-2.26557
-2.26557
-2.26558
-2.26558
-2.26559
-2.26559
-2.26559
-2.26559
-2.26559
-2.26559
-2.26559
-2.26559
-2.26559
-2.26558
-2.26558
-2.26558
-2.26557
-2.26557
-2.26556
-2.26555
-2.26555
-2.26555
-2.26554
-2.26554
-2.26554
-2.26553
-2.26553
-2.26553
-2.26553
-2.36395
-2.36395
-2.36395
-2.36395
-2.36395
-2.36395
-2.36396
-2.36396
-2.36396
-2.36397
-2.36398
-2.36398
-2.36399
-2.364
-2.364
-2.36401
-2.36402
-2.36403
-2.36403
-2.36404
-2.36404
-2.36405
-2.36405
-2.36405
-2.36405
-2.36404
-2.36404
-2.36403
-2.36403
-2.36402
-2.36401
-2.364
-2.36399
-2.36398
-2.36398
-2.36397
-2.36397
-2.36396
-2.36396
-2.36395
-2.36395
-2.36395
-2.36395
-2.36395
-2.36395
-2.36395
-2.36395
-2.36395
-2.36396
-2.36396
-2.36396
-2.36396
-2.36397
-2.36397
-2.36397
-2.36397
-2.36398
-2.36398
-2.36398
-2.36399
-2.36399
-2.364
-2.364
-2.36401
-2.36402
-2.36402
-2.36403
-2.36404
-2.36405
-2.36405
-2.36406
-2.36407
-2.36407
-2.36408
-2.36408
-2.36409
-2.36409
-2.36409
-2.36409
-2.3641
-2.3641
-2.36409
-2.36409
-2.36409
-2.36409
-2.36408
-2.36408
-2.36407
-2.36407
-2.36406
-2.36406
-2.36405
-2.36405
-2.36404
-2.36404
-2.36404
-2.36403
-2.36403
-2.36403
-2.36403
-2.46245
-2.46244
-2.46244
-2.46244
-2.46245
-2.46245
-2.46245
-2.46245
-2.46246
-2.46246
-2.46247
-2.46248
-2.46249
-2.46249
-2.4625
-2.46251
-2.46252
-2.46252
-2.46253
-2.46254
-2.46254
-2.46255
-2.46255
-2.46255
-2.46255
-2.46255
-2.46254
-2.46254
-2.46253
-2.46252
-2.46251
-2.4625
-2.46249
-2.46248
-2.46248
-2.46247
-2.46246
-2.46246
-2.46245
-2.46245
-2.46245
-2.46245
-2.46244
-2.46244
-2.46244
-2.46245
-2.46245
-2.46245
-2.46245
-2.46245
-2.46246
-2.46246
-2.46246
-2.46246
-2.46247
-2.46247
-2.46247
-2.46248
-2.46248
-2.46249
-2.46249
-2.4625
-2.4625
-2.46251
-2.46252
-2.46252
-2.46253
-2.46254
-2.46254
-2.46255
-2.46256
-2.46257
-2.46257
-2.46258
-2.46258
-2.46259
-2.46259
-2.46259
-2.4626
-2.4626
-2.4626
-2.4626
-2.46259
-2.46259
-2.46259
-2.46258
-2.46258
-2.46257
-2.46257
-2.46256
-2.46255
-2.46255
-2.46254
-2.46254
-2.46254
-2.46253
-2.46253
-2.46253
-2.46253
-2.46253
-2.56094
-2.56094
-2.56094
-2.56094
-2.56094
-2.56094
-2.56094
-2.56095
-2.56095
-2.56096
-2.56097
-2.56097
-2.56098
-2.56099
-2.561
-2.56101
-2.56101
-2.56102
-2.56103
-2.56104
-2.56104
-2.56105
-2.56105
-2.56105
-2.56105
-2.56105
-2.56104
-2.56103
-2.56103
-2.56102
-2.56101
-2.561
-2.56099
-2.56098
-2.56097
-2.56097
-2.56096
-2.56095
-2.56095
-2.56095
-2.56094
-2.56094
-2.56094
-2.56094
-2.56094
-2.56094
-2.56094
-2.56094
-2.56095
-2.56095
-2.56095
-2.56095
-2.56096
-2.56096
-2.56096
-2.56097
-2.56097
-2.56097
-2.56098
-2.56098
-2.56099
-2.56099
-2.561
-2.56101
-2.56101
-2.56102
-2.56103
-2.56104
-2.56104
-2.56105
-2.56106
-2.56106
-2.56107
-2.56108
-2.56108
-2.56109
-2.56109
-2.56109
-2.5611
-2.5611
-2.5611
-2.5611
-2.56109
-2.56109
-2.56109
-2.56108
-2.56108
-2.56107
-2.56106
-2.56106
-2.56105
-2.56105
-2.56104
-2.56104
-2.56103
-2.56103
-2.56103
-2.56103
-2.56103
-2.56103
-2.65943
-2.65943
-2.65943
-2.65943
-2.65943
-2.65943
-2.65944
-2.65944
-2.65945
-2.65945
-2.65946
-2.65947
-2.65948
-2.65948
-2.65949
-2.6595
-2.65951
-2.65952
-2.65953
-2.65954
-2.65954
-2.65955
-2.65955
-2.65955
-2.65955
-2.65954
-2.65954
-2.65953
-2.65952
-2.65952
-2.65951
-2.6595
-2.65949
-2.65948
-2.65947
-2.65946
-2.65946
-2.65945
-2.65945
-2.65944
-2.65944
-2.65944
-2.65944
-2.65944
-2.65944
-2.65944
-2.65944
-2.65944
-2.65944
-2.65944
-2.65945
-2.65945
-2.65945
-2.65946
-2.65946
-2.65946
-2.65947
-2.65947
-2.65947
-2.65948
-2.65949
-2.65949
-2.6595
-2.6595
-2.65951
-2.65952
-2.65953
-2.65953
-2.65954
-2.65955
-2.65956
-2.65956
-2.65957
-2.65958
-2.65958
-2.65959
-2.65959
-2.65959
-2.65959
-2.6596
-2.6596
-2.65959
-2.65959
-2.65959
-2.65958
-2.65958
-2.65957
-2.65957
-2.65956
-2.65956
-2.65955
-2.65954
-2.65954
-2.65953
-2.65953
-2.65953
-2.65953
-2.65953
-2.65953
-2.65953
-2.75792
-2.75792
-2.75792
-2.75792
-2.75792
-2.75793
-2.75793
-2.75793
-2.75794
-2.75794
-2.75795
-2.75796
-2.75797
-2.75798
-2.75799
-2.758
-2.75801
-2.75802
-2.75802
-2.75803
-2.75804
-2.75804
-2.75805
-2.75805
-2.75804
-2.75804
-2.75804
-2.75803
-2.75802
-2.75801
-2.758
-2.75799
-2.75798
-2.75797
-2.75797
-2.75796
-2.75795
-2.75795
-2.75794
-2.75794
-2.75793
-2.75793
-2.75793
-2.75793
-2.75793
-2.75793
-2.75793
-2.75794
-2.75794
-2.75794
-2.75794
-2.75794
-2.75795
-2.75795
-2.75795
-2.75796
-2.75796
-2.75797
-2.75797
-2.75798
-2.75798
-2.75799
-2.75799
-2.758
-2.75801
-2.75801
-2.75802
-2.75803
-2.75804
-2.75804
-2.75805
-2.75806
-2.75807
-2.75807
-2.75808
-2.75808
-2.75809
-2.75809
-2.75809
-2.75809
-2.75809
-2.75809
-2.75809
-2.75808
-2.75808
-2.75808
-2.75807
-2.75806
-2.75806
-2.75805
-2.75804
-2.75804
-2.75803
-2.75803
-2.75803
-2.75802
-2.75802
-2.75802
-2.75802
-2.75802
-2.85641
-2.85641
-2.85641
-2.85642
-2.85642
-2.85642
-2.85642
-2.85643
-2.85643
-2.85644
-2.85644
-2.85645
-2.85646
-2.85647
-2.85648
-2.85649
-2.8565
-2.85651
-2.85652
-2.85653
-2.85653
-2.85654
-2.85654
-2.85654
-2.85654
-2.85653
-2.85653
-2.85652
-2.85652
-2.85651
-2.8565
-2.85649
-2.85648
-2.85647
-2.85646
-2.85645
-2.85645
-2.85644
-2.85644
-2.85643
-2.85643
-2.85643
-2.85643
-2.85643
-2.85643
-2.85643
-2.85643
-2.85643
-2.85643
-2.85643
-2.85644
-2.85644
-2.85644
-2.85645
-2.85645
-2.85645
-2.85646
-2.85646
-2.85647
-2.85647
-2.85648
-2.85648
-2.85649
-2.8565
-2.8565
-2.85651
-2.85652
-2.85653
-2.85653
-2.85654
-2.85655
-2.85656
-2.85656
-2.85657
-2.85657
-2.85658
-2.85658
-2.85659
-2.85659
-2.85659
-2.85659
-2.85659
-2.85658
-2.85658
-2.85658
-2.85657
-2.85656
-2.85656
-2.85655
-2.85654
-2.85654
-2.85653
-2.85653
-2.85652
-2.85652
-2.85652
-2.85651
-2.85651
-2.85651
-2.85651
-2.9549
-2.95491
-2.95491
-2.95491
-2.95491
-2.95491
-2.95491
-2.95492
-2.95492
-2.95493
-2.95494
-2.95494
-2.95495
-2.95496
-2.95497
-2.95498
-2.95499
-2.955
-2.95501
-2.95502
-2.95502
-2.95503
-2.95503
-2.95503
-2.95503
-2.95503
-2.95502
-2.95502
-2.95501
-2.955
-2.95499
-2.95498
-2.95497
-2.95496
-2.95495
-2.95495
-2.95494
-2.95493
-2.95493
-2.95492
-2.95492
-2.95492
-2.95492
-2.95492
-2.95492
-2.95492
-2.95492
-2.95492
-2.95493
-2.95493
-2.95493
-2.95493
-2.95494
-2.95494
-2.95495
-2.95495
-2.95495
-2.95496
-2.95496
-2.95497
-2.95497
-2.95498
-2.95498
-2.95499
-2.955
-2.95501
-2.95501
-2.95502
-2.95503
-2.95504
-2.95504
-2.95505
-2.95506
-2.95506
-2.95507
-2.95507
-2.95508
-2.95508
-2.95508
-2.95508
-2.95508
-2.95508
-2.95508
-2.95507
-2.95507
-2.95506
-2.95506
-2.95505
-2.95504
-2.95504
-2.95503
-2.95502
-2.95502
-2.95501
-2.95501
-2.95501
-2.95501
-2.95501
-2.95501
-2.95501
-3.0534
-3.0534
-3.0534
-3.0534
-3.0534
-3.0534
-3.0534
-3.05341
-3.05341
-3.05342
-3.05343
-3.05343
-3.05344