/*--------------------------------*- C++ -*----------------------------------*\
| =========                 |                                                 |
| \\      /  F ield         | OpenFOAM: The Open Source CFD Toolbox           |
|  \\    /   O peration     | Version:  4.1                                   |
|   \\  /    A nd           | Web:      www.OpenFOAM.org                      |
|    \\/     M anipulation  |                                                 |
\*---------------------------------------------------------------------------*/
FoamFile
{
    version     2.0;
    format      ascii;
    class       volScalarField;
    location    "440";
    object      p_rgh;
}
// * * * * * * * * * * * * * * * * * * * * * * * * * * * * * * * * * * * * * //

dimensions      [0 2 -2 0 0 0 0];

internalField   nonuniform List<scalar> 
5000
(
0.0492007
0.0491879
0.0491817
0.0491778
0.0491742
0.0491706
0.0491668
0.0491634
0.0491604
0.0491579
0.0491557
0.0491538
0.0491521
0.0491505
0.0491489
0.0491474
0.0491458
0.0491443
0.0491428
0.0491413
0.0491398
0.0491385
0.0491373
0.0491362
0.0491353
0.0491346
0.0491342
0.0491341
0.0491342
0.0491347
0.0491356
0.049137
0.0491389
0.0491414
0.0491443
0.0491473
0.0491497
0.0491511
0.0491515
0.0491523
0.0491532
0.0491539
0.049154
0.0491534
0.0491526
0.0491522
0.0491531
0.0491556
0.0491593
0.0491631
0.0491666
0.0491694
0.0491716
0.0491733
0.0491747
0.0491757
0.0491765
0.0491771
0.0491774
0.0491774
0.0491771
0.0491765
0.0491756
0.0491744
0.049173
0.0491712
0.0491693
0.0491672
0.0491649
0.0491626
0.0491603
0.0491579
0.0491556
0.0491534
0.0491514
0.0491495
0.0491478
0.0491463
0.0491452
0.0491443
0.0491437
0.0491436
0.049144
0.0491449
0.0491463
0.0491482
0.0491505
0.0491533
0.0491565
0.04916
0.0491637
0.0491676
0.0491717
0.0491759
0.0491801
0.0491843
0.0491886
0.049193
0.0491981
0.0492059
0.049201
0.0492276
0.0492455
0.0492498
0.0492466
0.0492408
0.0492351
0.0492295
0.049224
0.0492186
0.0492135
0.0492086
0.0492041
0.0491999
0.0491961
0.0491927
0.0491896
0.0491869
0.0491845
0.0491824
0.0491806
0.0491792
0.0491781
0.0491774
0.049177
0.049177
0.0491773
0.049178
0.049179
0.0491802
0.0491818
0.0491836
0.0491855
0.0491876
0.0491896
0.0491917
0.0491939
0.0491963
0.049199
0.0492018
0.0492045
0.0492071
0.0492099
0.0492127
0.0492157
0.0492185
0.049221
0.049223
0.0492246
0.0492258
0.0492268
0.0492277
0.0492284
0.049229
0.0492295
0.0492299
0.0492301
0.0492302
0.0492301
0.0492297
0.049229
0.0492281
0.0492268
0.0492253
0.0492236
0.0492216
0.0492195
0.0492173
0.049215
0.0492127
0.0492104
0.0492083
0.0492063
0.0492045
0.0492031
0.0492019
0.0492012
0.0492009
0.0492011
0.0492019
0.0492033
0.0492052
0.0492073
0.0492097
0.0492123
0.0492152
0.0492182
0.0492215
0.049225
0.0492287
0.0492326
0.0492366
0.0492407
0.0492448
0.0492489
0.0492527
0.0492555
0.0492547
0.0492437
0.0492167
0.0491653
0.0492299
0.049255
0.049256
0.0492505
0.049244
0.0492374
0.0492309
0.0492247
0.0492187
0.0492132
0.049208
0.0492033
0.0491989
0.049195
0.0491915
0.0491884
0.0491856
0.0491832
0.0491811
0.0491793
0.0491779
0.0491768
0.0491761
0.0491757
0.0491757
0.0491761
0.0491768
0.0491778
0.0491791
0.0491807
0.0491825
0.0491844
0.0491864
0.0491885
0.0491906
0.0491928
0.0491952
0.0491978
0.0492004
0.0492031
0.0492058
0.0492085
0.0492113
0.0492142
0.0492168
0.0492192
0.0492212
0.0492228
0.049224
0.049225
0.0492259
0.0492265
0.0492271
0.0492276
0.0492281
0.0492283
0.0492285
0.0492283
0.049228
0.0492273
0.0492263
0.0492251
0.0492235
0.0492217
0.0492197
0.0492176
0.0492153
0.049213
0.0492107
0.0492084
0.0492063
0.0492043
0.0492026
0.0492011
0.0492
0.0491993
0.0491991
0.0491994
0.0492002
0.0492017
0.049204
0.0492069
0.0492107
0.0492152
0.0492203
0.0492261
0.0492323
0.049239
0.0492459
0.049253
0.04926
0.049267
0.0492738
0.0492801
0.0492855
0.0492885
0.049285
0.0492612
0.0491946
0.049116
0.0492186
0.049252
0.0492542
0.0492492
0.0492427
0.0492359
0.0492292
0.0492227
0.0492166
0.0492109
0.0492057
0.049201
0.0491966
0.0491927
0.0491892
0.0491861
0.0491833
0.0491808
0.0491786
0.0491768
0.0491754
0.0491743
0.0491736
0.0491732
0.0491732
0.0491735
0.0491742
0.0491752
0.0491765
0.049178
0.0491797
0.0491816
0.0491835
0.0491855
0.0491876
0.0491898
0.0491921
0.0491945
0.049197
0.0491995
0.0492021
0.0492047
0.0492074
0.0492101
0.0492126
0.0492149
0.0492169
0.0492186
0.0492199
0.0492209
0.0492218
0.0492225
0.0492231
0.0492237
0.0492243
0.0492247
0.0492249
0.0492248
0.0492245
0.0492239
0.0492229
0.0492217
0.0492202
0.0492184
0.0492164
0.0492142
0.0492119
0.0492096
0.0492073
0.0492051
0.049203
0.049201
0.0491994
0.049198
0.0491969
0.0491962
0.049196
0.0491963
0.0491972
0.0491987
0.0492009
0.0492038
0.0492075
0.0492121
0.0492176
0.049224
0.0492311
0.0492389
0.0492473
0.0492562
0.0492653
0.0492743
0.0492832
0.0492914
0.0492983
0.0493018
0.0492961
0.0492603
0.0491524
0.0490662
0.0492031
0.0492448
0.0492499
0.0492464
0.0492403
0.0492336
0.0492268
0.0492202
0.049214
0.0492083
0.0492031
0.0491983
0.049194
0.0491901
0.0491866
0.0491834
0.0491806
0.0491781
0.0491759
0.049174
0.0491725
0.0491714
0.0491706
0.0491702
0.0491701
0.0491704
0.0491711
0.049172
0.0491732
0.0491747
0.0491763
0.0491781
0.04918
0.0491819
0.049184
0.0491861
0.0491883
0.0491906
0.049193
0.0491954
0.0491979
0.0492004
0.049203
0.0492055
0.049208
0.0492103
0.0492123
0.049214
0.0492154
0.0492165
0.0492173
0.049218
0.0492187
0.0492194
0.04922
0.0492206
0.0492209
0.049221
0.0492208
0.0492202
0.0492194
0.0492182
0.0492167
0.0492149
0.0492129
0.0492108
0.0492086
0.0492063
0.049204
0.0492018
0.0491998
0.0491979
0.0491963
0.049195
0.049194
0.0491934
0.0491932
0.0491936
0.0491945
0.049196
0.0491981
0.049201
0.0492046
0.049209
0.0492144
0.0492206
0.0492278
0.0492358
0.0492446
0.049254
0.0492639
0.049274
0.049284
0.0492933
0.0493009
0.0493044
0.0492966
0.0492505
0.0491036
0.0490175
0.0491855
0.0492354
0.0492443
0.0492426
0.0492372
0.0492306
0.0492238
0.0492173
0.0492111
0.0492054
0.0492001
0.0491954
0.0491911
0.0491872
0.0491836
0.0491804
0.0491776
0.049175
0.0491728
0.0491709
0.0491693
0.0491681
0.0491673
0.0491668
0.0491667
0.049167
0.0491676
0.0491685
0.0491697
0.049171
0.0491726
0.0491744
0.0491762
0.0491781
0.0491801
0.0491822
0.0491843
0.0491866
0.0491889
0.0491912
0.0491936
0.0491961
0.0491986
0.0492011
0.0492036
0.0492059
0.0492079
0.0492097
0.0492112
0.0492123
0.049213
0.0492135
0.049214
0.0492148
0.0492156
0.0492163
0.0492168
0.0492171
0.0492171
0.0492167
0.0492159
0.0492148
0.0492134
0.0492117
0.0492097
0.0492076
0.0492054
0.0492031
0.0492009
0.0491987
0.0491967
0.0491949
0.0491934
0.0491921
0.0491912
0.0491907
0.0491906
0.0491911
0.049192
0.0491935
0.0491957
0.0491984
0.0492019
0.0492062
0.0492113
0.0492173
0.0492242
0.049232
0.0492406
0.04925
0.04926
0.0492704
0.0492806
0.0492902
0.049298
0.0493012
0.0492915
0.0492367
0.0490536
0.0489684
0.0491657
0.0492244
0.0492377
0.0492381
0.0492334
0.0492271
0.0492204
0.0492139
0.0492077
0.049202
0.0491969
0.0491921
0.0491878
0.0491839
0.0491804
0.0491772
0.0491743
0.0491717
0.0491694
0.0491675
0.0491659
0.0491646
0.0491638
0.0491633
0.0491632
0.0491634
0.049164
0.0491649
0.0491661
0.0491675
0.0491691
0.0491708
0.0491726
0.0491746
0.0491766
0.0491786
0.0491808
0.049183
0.0491852
0.0491876
0.0491899
0.0491924
0.0491949
0.0491973
0.0491998
0.0492021
0.0492042
0.0492061
0.0492077
0.0492088
0.0492094
0.0492096
0.0492095
0.0492105
0.0492115
0.0492124
0.0492132
0.0492138
0.049214
0.0492138
0.0492132
0.0492122
0.0492108
0.0492091
0.0492072
0.049205
0.0492027
0.0492004
0.0491982
0.049196
0.049194
0.0491922
0.0491907
0.0491895
0.0491886
0.0491882
0.0491882
0.0491886
0.0491896
0.0491912
0.0491933
0.049196
0.0491994
0.0492035
0.0492084
0.0492141
0.0492206
0.049228
0.0492362
0.0492453
0.0492549
0.049265
0.0492751
0.0492845
0.0492921
0.0492946
0.049283
0.0492207
0.0490035
0.0489183
0.0491439
0.0492122
0.0492307
0.0492332
0.0492293
0.0492232
0.0492166
0.0492101
0.049204
0.0491983
0.0491932
0.0491885
0.0491842
0.0491803
0.0491768
0.0491736
0.0491707
0.0491681
0.0491658
0.0491638
0.0491622
0.049161
0.0491602
0.0491598
0.0491597
0.04916
0.0491607
0.0491616
0.0491629
0.0491643
0.049166
0.0491678
0.0491697
0.0491717
0.0491738
0.0491759
0.049178
0.0491802
0.0491825
0.0491848
0.0491871
0.0491895
0.0491919
0.0491943
0.0491968
0.0491991
0.0492014
0.0492034
0.0492051
0.0492063
0.049207
0.0492069
0.0492059
0.049207
0.0492083
0.0492096
0.0492108
0.0492117
0.0492122
0.0492122
0.0492118
0.0492108
0.0492094
0.0492077
0.0492056
0.0492033
0.0492009
0.0491985
0.0491961
0.0491938
0.0491917
0.0491899
0.0491883
0.049187
0.0491862
0.0491857
0.0491857
0.0491862
0.0491872
0.0491887
0.0491908
0.0491935
0.0491968
0.0492008
0.0492054
0.0492108
0.0492169
0.0492238
0.0492315
0.04924
0.049249
0.0492586
0.0492682
0.0492771
0.0492842
0.0492859
0.0492726
0.0492032
0.0489537
0.048867
0.0491203
0.0491992
0.0492233
0.0492282
0.049225
0.049219
0.0492124
0.0492059
0.0491999
0.0491943
0.0491892
0.0491845
0.0491803
0.0491764
0.0491729
0.0491697
0.0491668
0.0491642
0.0491619
0.04916
0.0491585
0.0491573
0.0491566
0.0491563
0.0491563
0.0491568
0.0491576
0.0491587
0.0491601
0.0491617
0.0491635
0.0491655
0.0491675
0.0491696
0.0491717
0.0491739
0.049176
0.0491782
0.0491804
0.0491826
0.0491848
0.0491871
0.0491894
0.0491917
0.0491941
0.0491965
0.0491988
0.049201
0.0492029
0.0492044
0.0492052
0.049205
0.0492034
0.0492047
0.0492064
0.0492082
0.0492099
0.0492113
0.0492121
0.0492123
0.0492119
0.0492109
0.0492094
0.0492075
0.0492052
0.0492027
0.0492
0.0491974
0.0491947
0.0491922
0.0491899
0.0491879
0.0491862
0.0491848
0.0491838
0.0491833
0.0491832
0.0491837
0.0491847
0.0491862
0.0491882
0.0491909
0.0491941
0.0491979
0.0492023
0.0492073
0.049213
0.0492194
0.0492265
0.0492343
0.0492426
0.0492514
0.0492603
0.0492687
0.049275
0.0492759
0.0492607
0.0491849
0.0489043
0.0488143
0.0490951
0.0491858
0.0492161
0.0492233
0.0492207
0.0492147
0.049208
0.0492015
0.0491954
0.0491899
0.0491848
0.0491802
0.049176
0.0491722
0.0491687
0.0491655
0.0491626
0.04916
0.0491578
0.0491559
0.0491545
0.0491534
0.0491528
0.0491527
0.0491529
0.0491536
0.0491546
0.049156
0.0491576
0.0491594
0.0491614
0.0491635
0.0491657
0.0491679
0.04917
0.0491722
0.0491743
0.0491764
0.0491784
0.0491804
0.0491824
0.0491845
0.0491865
0.0491887
0.0491909
0.0491932
0.0491956
0.0491979
0.0492002
0.0492021
0.0492034
0.0492035
0.0492017
0.0492033
0.0492058
0.0492082
0.0492105
0.0492122
0.0492133
0.0492137
0.0492133
0.0492122
0.0492105
0.0492082
0.0492056
0.0492028
0.0491998
0.0491968
0.0491938
0.049191
0.0491885
0.0491862
0.0491842
0.0491826
0.0491815
0.0491808
0.0491807
0.049181
0.0491819
0.0491834
0.0491854
0.049188
0.0491911
0.0491947
0.0491989
0.0492036
0.0492089
0.0492147
0.0492211
0.0492282
0.0492357
0.0492437
0.0492518
0.0492594
0.049265
0.0492649
0.0492479
0.0491658
0.0488554
0.0487601
0.0490688
0.0491723
0.0492093
0.0492188
0.0492165
0.0492105
0.0492036
0.0491969
0.0491908
0.0491852
0.0491801
0.0491755
0.0491714
0.0491675
0.0491641
0.0491609
0.049158
0.0491554
0.0491532
0.0491514
0.0491501
0.0491491
0.0491487
0.0491487
0.0491492
0.0491501
0.0491513
0.0491529
0.0491548
0.0491569
0.049159
0.0491613
0.0491636
0.0491658
0.049168
0.0491701
0.049172
0.0491739
0.0491757
0.0491775
0.0491792
0.0491809
0.0491827
0.0491845
0.0491865
0.0491886
0.049191
0.0491935
0.0491961
0.0491986
0.0492006
0.0492014
0.0492001
0.0492024
0.0492057
0.0492089
0.0492117
0.0492139
0.0492153
0.0492158
0.0492153
0.049214
0.049212
0.0492094
0.0492064
0.0492032
0.0491998
0.0491964
0.0491931
0.0491899
0.049187
0.0491844
0.0491822
0.0491804
0.049179
0.0491782
0.0491779
0.0491781
0.0491789
0.0491803
0.0491822
0.0491847
0.0491877
0.0491912
0.0491951
0.0491995
0.0492044
0.0492097
0.0492154
0.0492217
0.0492284
0.0492355
0.0492428
0.0492496
0.0492544
0.0492533
0.0492344
0.0491461
0.0488068
0.0487047
0.0490418
0.0491595
0.0492033
0.0492148
0.0492128
0.0492065
0.0491993
0.0491923
0.0491859
0.0491802
0.0491751
0.0491705
0.0491663
0.0491625
0.049159
0.0491558
0.0491529
0.0491504
0.0491482
0.0491464
0.0491451
0.0491443
0.049144
0.0491442
0.0491448
0.0491459
0.0491474
0.0491493
0.0491513
0.0491536
0.0491559
0.0491583
0.0491606
0.0491629
0.049165
0.0491669
0.0491687
0.0491704
0.0491719
0.0491733
0.0491747
0.049176
0.0491774
0.0491789
0.0491805
0.0491824
0.0491846
0.0491872
0.0491901
0.0491932
0.049196
0.0491979
0.0491977
0.049201
0.0492051
0.0492092
0.0492127
0.0492154
0.0492171
0.0492177
0.0492171
0.0492156
0.0492133
0.0492104
0.049207
0.0492033
0.0491995
0.0491957
0.049192
0.0491885
0.0491852
0.0491823
0.0491798
0.0491777
0.0491762
0.0491751
0.0491746
0.0491748
0.0491755
0.0491767
0.0491786
0.049181
0.0491839
0.0491872
0.0491909
0.049195
0.0491995
0.0492043
0.0492094
0.0492149
0.0492208
0.049227
0.0492334
0.0492393
0.0492434
0.0492413
0.0492204
0.0491259
0.0487584
0.0486482
0.0490149
0.049148
0.0491984
0.0492116
0.0492096
0.0492028
0.0491951
0.0491877
0.0491811
0.0491752
0.0491699
0.0491653
0.0491611
0.0491572
0.0491537
0.0491504
0.0491475
0.0491449
0.0491427
0.049141
0.0491397
0.049139
0.0491388
0.0491391
0.04914
0.0491413
0.049143
0.049145
0.0491473
0.0491497
0.0491521
0.0491545
0.0491569
0.049159
0.049161
0.0491628
0.0491644
0.0491657
0.0491669
0.049168
0.0491689
0.0491699
0.0491708
0.0491718
0.0491731
0.0491746
0.0491766
0.0491791
0.0491821
0.0491857
0.0491895
0.0491926
0.0491938
0.0491982
0.0492033
0.0492083
0.0492127
0.049216
0.0492181
0.0492188
0.0492182
0.0492165
0.0492139
0.0492106
0.0492068
0.0492028
0.0491986
0.0491944
0.0491903
0.0491864
0.0491828
0.0491796
0.0491768
0.0491745
0.0491727
0.0491715
0.0491709
0.0491709
0.0491715
0.0491727
0.0491746
0.0491769
0.0491796
0.0491828
0.0491863
0.0491901
0.0491942
0.0491985
0.049203
0.0492077
0.0492128
0.0492181
0.0492237
0.0492288
0.0492321
0.049229
0.0492059
0.0491052
0.0487102
0.0485911
0.0489888
0.0491385
0.0491951
0.0492094
0.049207
0.0491996
0.0491912
0.0491833
0.0491762
0.0491701
0.0491647
0.0491599
0.0491556
0.0491517
0.0491481
0.0491448
0.0491419
0.0491393
0.0491371
0.0491355
0.0491343
0.0491337
0.0491337
0.0491342
0.0491353
0.0491369
0.0491388
0.0491411
0.0491435
0.049146
0.0491485
0.0491508
0.0491531
0.0491551
0.0491568
0.0491583
0.0491595
0.0491605
0.0491613
0.049162
0.0491625
0.0491629
0.0491634
0.0491639
0.0491647
0.0491657
0.0491673
0.0491695
0.0491724
0.0491763
0.0491809
0.0491852
0.0491881
0.0491936
0.0491997
0.0492058
0.0492111
0.0492152
0.0492178
0.0492188
0.0492182
0.0492164
0.0492135
0.0492098
0.0492057
0.0492012
0.0491966
0.0491921
0.0491876
0.0491835
0.0491796
0.0491761
0.0491731
0.0491706
0.0491687
0.0491673
0.0491666
0.0491665
0.0491671
0.0491683
0.04917
0.0491722
0.0491749
0.0491779
0.0491813
0.0491848
0.0491885
0.0491924
0.0491963
0.0492003
0.0492046
0.0492091
0.0492138
0.0492182
0.0492207
0.0492165
0.0491912
0.0490841
0.0486619
0.0485339
0.0489645
0.0491319
0.0491934
0.0492082
0.0492053
0.049197
0.0491878
0.0491791
0.0491716
0.049165
0.0491594
0.0491545
0.0491501
0.0491462
0.0491426
0.0491393
0.0491364
0.049134
0.0491319
0.0491305
0.0491296
0.0491293
0.0491297
0.0491307
0.0491322
0.0491341
0.0491364
0.0491389
0.0491414
0.049144
0.0491464
0.0491486
0.0491506
0.0491522
0.0491535
0.0491545
0.0491553
0.0491557
0.0491559
0.049156
0.049156
0.0491558
0.0491558
0.0491557
0.0491559
0.0491564
0.0491574
0.049159
0.0491617
0.0491655
0.0491705
0.0491759
0.0491805
0.049187
0.0491942
0.0492014
0.0492079
0.049213
0.0492163
0.0492176
0.0492171
0.0492151
0.0492119
0.049208
0.0492034
0.0491986
0.0491937
0.0491888
0.0491841
0.0491796
0.0491755
0.0491718
0.0491686
0.049166
0.049164
0.0491625
0.0491618
0.0491617
0.0491622
0.0491634
0.049165
0.0491672
0.0491698
0.0491727
0.0491758
0.0491792
0.0491826
0.049186
0.0491893
0.0491927
0.0491962
0.0491999
0.0492038
0.0492075
0.0492093
0.049204
0.0491763
0.0490625
0.0486134
0.0484773
0.0489431
0.0491287
0.0491936
0.0492082
0.0492044
0.049195
0.0491848
0.0491753
0.0491671
0.0491601
0.0491542
0.0491491
0.0491447
0.0491408
0.0491373
0.0491343
0.0491316
0.0491294
0.0491278
0.0491268
0.0491265
0.0491269
0.049128
0.0491297
0.0491318
0.0491344
0.0491371
0.0491399
0.0491426
0.0491452
0.0491474
0.0491493
0.0491507
0.0491518
0.0491524
0.0491527
0.0491526
0.0491523
0.0491517
0.0491511
0.0491503
0.0491495
0.0491487
0.049148
0.0491476
0.0491474
0.0491476
0.0491486
0.0491505
0.0491539
0.049159
0.049165
0.0491711
0.0491785
0.0491868
0.0491955
0.0492034
0.0492096
0.0492137
0.0492154
0.049215
0.0492128
0.0492094
0.0492051
0.0492002
0.0491951
0.0491898
0.0491847
0.0491797
0.049175
0.0491707
0.0491669
0.0491636
0.0491609
0.0491588
0.0491573
0.0491565
0.0491564
0.0491569
0.0491581
0.0491597
0.0491618
0.0491643
0.0491671
0.0491701
0.0491732
0.0491764
0.0491794
0.0491822
0.049185
0.0491878
0.0491908
0.0491939
0.0491968
0.0491979
0.0491916
0.0491614
0.0490406
0.0485647
0.0484217
0.0489256
0.0491294
0.0491957
0.0492093
0.0492043
0.0491938
0.0491824
0.0491719
0.0491629
0.0491554
0.0491492
0.049144
0.0491396
0.0491358
0.0491326
0.0491299
0.0491277
0.0491262
0.0491253
0.0491252
0.0491258
0.0491272
0.0491294
0.0491321
0.0491351
0.0491384
0.0491416
0.0491448
0.0491476
0.04915
0.0491519
0.0491532
0.049154
0.0491542
0.0491539
0.0491532
0.0491522
0.0491509
0.0491494
0.0491477
0.0491461
0.0491444
0.0491429
0.0491414
0.0491402
0.0491392
0.0491387
0.0491388
0.0491398
0.0491424
0.049147
0.0491532
0.0491602
0.0491686
0.0491782
0.0491883
0.0491977
0.0492053
0.0492102
0.0492124
0.0492121
0.0492098
0.0492061
0.0492014
0.0491962
0.0491907
0.0491852
0.0491798
0.0491746
0.0491698
0.0491654
0.0491615
0.0491581
0.0491554
0.0491533
0.0491518
0.049151
0.0491509
0.0491515
0.0491526
0.0491543
0.0491563
0.0491587
0.0491614
0.0491643
0.0491672
0.04917
0.0491727
0.0491751
0.0491773
0.0491794
0.0491817
0.0491841
0.0491864
0.0491868
0.0491794
0.0491466
0.0490183
0.0485158
0.0483676
0.0489132
0.0491342
0.0491995
0.0492114
0.0492051
0.0491932
0.0491806
0.049169
0.0491592
0.049151
0.0491445
0.0491391
0.0491348
0.0491313
0.0491285
0.0491265
0.0491251
0.0491245
0.0491247
0.0491258
0.0491277
0.0491305
0.049134
0.0491378
0.0491418
0.0491458
0.0491496
0.0491529
0.0491557
0.0491579
0.0491593
0.0491599
0.0491597
0.0491589
0.0491575
0.0491558
0.0491536
0.0491513
0.0491487
0.0491461
0.0491435
0.0491409
0.0491385
0.0491362
0.0491341
0.0491323
0.0491308
0.0491299
0.04913
0.0491315
0.0491352
0.0491411
0.0491487
0.0491578
0.0491686
0.0491803
0.0491914
0.0492004
0.0492063
0.0492089
0.0492087
0.0492062
0.0492022
0.0491972
0.0491917
0.0491859
0.0491801
0.0491745
0.0491692
0.0491643
0.0491598
0.0491559
0.0491525
0.0491498
0.0491478
0.0491464
0.0491456
0.0491456
0.0491462
0.0491473
0.0491489
0.0491509
0.0491532
0.0491558
0.0491585
0.0491612
0.0491637
0.049166
0.049168
0.0491697
0.0491712
0.0491728
0.0491746
0.0491763
0.0491761
0.0491676
0.049132
0.048996
0.0484666
0.0483155
0.0489068
0.0491427
0.0492047
0.0492145
0.0492066
0.0491934
0.0491794
0.0491667
0.0491559
0.049147
0.04914
0.0491346
0.0491304
0.0491273
0.0491251
0.0491239
0.0491236
0.0491243
0.049126
0.0491286
0.0491322
0.0491363
0.0491412
0.0491461
0.049151
0.0491555
0.0491596
0.049163
0.0491656
0.0491673
0.0491679
0.0491676
0.0491664
0.0491645
0.049162
0.0491591
0.0491559
0.0491525
0.049149
0.0491455
0.0491421
0.0491388
0.0491356
0.0491324
0.0491294
0.0491266
0.0491242
0.0491223
0.0491213
0.0491217
0.0491243
0.0491295
0.0491371
0.049147
0.0491589
0.0491721
0.0491849
0.0491953
0.0492021
0.0492052
0.049205
0.0492023
0.049198
0.0491927
0.0491868
0.0491808
0.0491749
0.0491691
0.0491637
0.0491588
0.0491543
0.0491504
0.0491471
0.0491445
0.0491425
0.0491412
0.0491406
0.0491405
0.0491411
0.0491422
0.0491437
0.0491456
0.0491479
0.0491503
0.0491528
0.0491553
0.0491575
0.0491595
0.0491611
0.0491622
0.0491632
0.0491642
0.0491655
0.0491667
0.0491659
0.0491563
0.0491178
0.0489735
0.0484171
0.0482659
0.0489075
0.0491538
0.0492109
0.0492184
0.049209
0.0491943
0.049179
0.049165
0.0491531
0.0491435
0.049136
0.0491304
0.0491264
0.0491237
0.0491223
0.0491221
0.0491231
0.0491254
0.0491288
0.0491333
0.0491385
0.0491442
0.04915
0.0491558
0.0491612
0.049166
0.0491701
0.0491733
0.0491755
0.0491766
0.0491764
0.049175
0.0491726
0.0491694
0.0491657
0.0491617
0.0491575
0.0491533
0.0491491
0.0491451
0.0491412
0.0491374
0.0491335
0.0491296
0.0491258
0.0491222
0.0491188
0.0491159
0.0491139
0.0491131
0.0491146
0.0491189
0.0491263
0.0491365
0.0491495
0.0491641
0.0491785
0.0491903
0.0491981
0.0492016
0.0492013
0.0491984
0.0491937
0.0491881
0.049182
0.0491758
0.0491697
0.0491639
0.0491585
0.0491535
0.0491491
0.0491453
0.0491422
0.0491397
0.0491378
0.0491366
0.049136
0.049136
0.0491366
0.0491376
0.0491391
0.0491408
0.0491429
0.0491451
0.0491474
0.0491496
0.0491516
0.0491533
0.0491544
0.0491552
0.0491556
0.0491562
0.0491569
0.0491577
0.0491564
0.0491457
0.0491042
0.0489512
0.0483674
0.0482187
0.0489169
0.0491659
0.0492176
0.0492232
0.0492121
0.0491961
0.0491793
0.0491639
0.0491509
0.0491404
0.0491324
0.0491266
0.0491227
0.0491206
0.04912
0.049121
0.0491234
0.0491274
0.0491326
0.0491389
0.0491457
0.0491526
0.0491593
0.0491656
0.0491711
0.0491758
0.0491796
0.0491825
0.0491842
0.0491846
0.0491835
0.0491809
0.0491772
0.0491727
0.0491677
0.0491625
0.0491574
0.0491526
0.0491482
0.0491441
0.04914
0.0491358
0.0491316
0.0491272
0.0491228
0.0491185
0.0491144
0.0491107
0.0491076
0.0491058
0.0491062
0.0491096
0.0491166
0.049127
0.0491408
0.0491568
0.0491727
0.0491859
0.0491945
0.0491982
0.0491978
0.0491945
0.0491896
0.0491837
0.0491774
0.0491711
0.0491649
0.049159
0.0491536
0.0491487
0.0491445
0.0491408
0.0491378
0.0491355
0.0491338
0.0491327
0.0491322
0.0491322
0.0491327
0.0491337
0.049135
0.0491366
0.0491384
0.0491404
0.0491424
0.0491444
0.0491461
0.0491474
0.0491482
0.0491485
0.0491486
0.0491486
0.049149
0.0491494
0.0491476
0.0491359
0.0490914
0.0489291
0.0483174
0.0481739
0.0489345
0.0491788
0.0492254
0.0492285
0.0492161
0.0491986
0.0491804
0.0491637
0.0491494
0.0491379
0.0491292
0.0491232
0.0491195
0.0491178
0.0491181
0.0491202
0.0491241
0.0491297
0.0491367
0.0491447
0.0491529
0.0491609
0.0491681
0.0491744
0.0491796
0.0491837
0.0491871
0.0491896
0.0491909
0.0491907
0.0491887
0.0491849
0.0491797
0.0491737
0.0491673
0.049161
0.0491551
0.0491501
0.0491457
0.0491416
0.0491375
0.0491334
0.0491291
0.0491246
0.0491199
0.0491152
0.0491106
0.0491062
0.0491023
0.0490996
0.049099
0.0491016
0.0491081
0.0491188
0.0491332
0.0491504
0.0491677
0.049182
0.0491912
0.0491951
0.0491946
0.049191
0.0491858
0.0491797
0.0491733
0.0491669
0.0491607
0.0491548
0.0491494
0.0491446
0.0491405
0.049137
0.0491342
0.0491321
0.0491305
0.0491295
0.0491291
0.0491291
0.0491296
0.0491304
0.0491315
0.0491329
0.0491344
0.0491362
0.0491379
0.0491396
0.0491411
0.0491421
0.0491425
0.0491425
0.0491421
0.0491418
0.0491419
0.049142
0.0491398
0.0491271
0.0490795
0.0489075
0.0482673
0.0481314
0.0489585
0.0491928
0.049234
0.0492345
0.0492208
0.0492022
0.0491825
0.0491644
0.0491487
0.0491361
0.0491266
0.0491202
0.0491165
0.0491153
0.0491163
0.0491195
0.0491248
0.049132
0.0491406
0.0491501
0.0491596
0.0491684
0.0491757
0.0491814
0.0491857
0.049189
0.0491918
0.0491941
0.0491953
0.0491947
0.0491918
0.0491868
0.0491801
0.0491724
0.0491645
0.0491571
0.0491509
0.0491458
0.0491413
0.0491372
0.0491334
0.0491296
0.0491255
0.0491213
0.0491167
0.0491119
0.049107
0.0491022
0.0490977
0.0490943
0.0490929
0.0490948
0.049101
0.0491118
0.049127
0.0491451
0.0491635
0.0491788
0.0491885
0.0491925
0.0491917
0.0491879
0.0491825
0.0491763
0.0491698
0.0491633
0.0491571
0.0491512
0.0491459
0.0491412
0.0491373
0.049134
0.0491314
0.0491294
0.049128
0.0491271
0.0491267
0.0491268
0.0491272
0.0491278
0.0491287
0.0491298
0.0491311
0.0491325
0.049134
0.0491354
0.0491366
0.0491373
0.0491374
0.0491371
0.0491364
0.0491358
0.0491357
0.0491356
0.0491331
0.0491194
0.0490687
0.0488867
0.0482171
0.0480912
0.0489869
0.0492076
0.0492432
0.049241
0.0492262
0.0492066
0.0491858
0.0491661
0.049149
0.0491351
0.0491247
0.0491177
0.0491139
0.049113
0.0491146
0.0491188
0.0491252
0.0491337
0.0491438
0.0491546
0.0491652
0.0491744
0.0491815
0.0491862
0.0491891
0.0491912
0.0491934
0.0491958
0.0491973
0.0491967
0.0491931
0.049187
0.0491786
0.0491691
0.0491597
0.0491517
0.0491449
0.0491393
0.0491347
0.0491309
0.0491275
0.0491243
0.0491208
0.0491171
0.0491129
0.0491083
0.0491034
0.0490984
0.0490936
0.0490896
0.0490876
0.0490891
0.0490952
0.0491063
0.049122
0.049141
0.0491603
0.0491762
0.0491863
0.0491901
0.0491891
0.0491852
0.0491797
0.0491735
0.049167
0.0491606
0.0491543
0.0491485
0.0491432
0.0491386
0.0491348
0.0491317
0.0491293
0.0491275
0.0491262
0.0491254
0.0491249
0.049125
0.0491253
0.0491258
0.0491264
0.0491272
0.0491282
0.0491294
0.0491306
0.0491318
0.0491328
0.0491332
0.0491331
0.0491325
0.0491316
0.0491308
0.0491306
0.0491304
0.0491276
0.0491131
0.0490593
0.0488667
0.0481671
0.048053
0.0490176
0.0492229
0.0492529
0.0492481
0.0492322
0.0492118
0.0491901
0.0491691
0.0491506
0.0491351
0.0491235
0.0491158
0.0491117
0.0491109
0.049113
0.0491178
0.0491251
0.0491347
0.049146
0.0491579
0.0491694
0.0491791
0.0491856
0.0491887
0.0491895
0.0491901
0.049192
0.049195
0.0491973
0.049197
0.049193
0.0491856
0.0491755
0.0491643
0.049154
0.0491447
0.049137
0.0491309
0.0491263
0.0491229
0.0491202
0.0491177
0.0491151
0.049112
0.0491085
0.0491043
0.0490997
0.0490947
0.0490897
0.0490855
0.0490831
0.0490844
0.0490906
0.049102
0.0491183
0.049138
0.0491579
0.0491743
0.0491844
0.0491881
0.0491869
0.0491829
0.0491774
0.0491714
0.049165
0.0491586
0.0491523
0.0491465
0.0491413
0.0491368
0.0491331
0.0491302
0.0491279
0.0491262
0.049125
0.0491241
0.0491237
0.0491237
0.0491238
0.049124
0.0491244
0.049125
0.0491258
0.0491268
0.0491279
0.0491289
0.0491296
0.0491299
0.0491296
0.0491287
0.0491277
0.0491269
0.0491266
0.0491264
0.0491235
0.0491081
0.0490515
0.0488481
0.0481173
0.0480169
0.0490479
0.0492381
0.0492629
0.0492558
0.0492389
0.0492178
0.0491953
0.0491734
0.0491535
0.0491366
0.0491236
0.0491147
0.04911
0.0491091
0.0491114
0.0491166
0.0491245
0.0491348
0.0491469
0.0491598
0.0491722
0.0491824
0.0491885
0.0491894
0.0491873
0.0491861
0.049188
0.0491922
0.0491958
0.0491962
0.0491917
0.0491832
0.0491715
0.0491593
0.0491472
0.0491365
0.0491277
0.0491211
0.0491166
0.0491138
0.0491118
0.0491103
0.0491086
0.0491065
0.0491037
0.0491001
0.0490959
0.0490911
0.0490861
0.0490817
0.0490792
0.0490806
0.0490871
0.049099
0.0491158
0.0491359
0.0491561
0.0491726
0.0491827
0.0491861
0.0491848
0.0491809
0.0491758
0.04917
0.0491638
0.0491575
0.0491512
0.0491453
0.0491401
0.0491356
0.0491321
0.0491292
0.0491271
0.0491255
0.0491242
0.0491233
0.0491227
0.0491226
0.0491225
0.0491225
0.0491228
0.0491232
0.0491239
0.0491248
0.0491258
0.0491267
0.0491273
0.0491274
0.0491269
0.0491259
0.0491248
0.0491241
0.0491239
0.0491238
0.0491209
0.0491048
0.0490453
0.0488309
0.0480678
0.0479843
0.0490741
0.0492528
0.0492732
0.0492642
0.0492464
0.0492248
0.0492017
0.0491788
0.0491577
0.0491395
0.049125
0.0491147
0.049109
0.0491075
0.0491098
0.0491151
0.0491233
0.0491339
0.0491465
0.0491601
0.0491734
0.0491846
0.0491908
0.0491887
0.0491828
0.0491801
0.0491826
0.0491884
0.0491936
0.0491948
0.0491899
0.0491805
0.0491678
0.0491536
0.0491396
0.0491272
0.0491174
0.0491104
0.0491062
0.049104
0.0491031
0.0491026
0.049102
0.0491008
0.0490988
0.0490958
0.049092
0.0490875
0.0490826
0.0490782
0.0490759
0.0490776
0.0490846
0.0490971
0.0491143
0.0491345
0.0491547
0.049171
0.0491808
0.049184
0.0491828
0.0491792
0.0491746
0.0491693
0.0491634
0.0491571
0.0491507
0.0491448
0.0491396
0.0491352
0.0491316
0.0491289
0.0491268
0.0491251
0.0491238
0.0491227
0.049122
0.0491216
0.0491213
0.0491213
0.0491215
0.049122
0.0491226
0.0491235
0.0491244
0.0491253
0.0491258
0.0491258
0.0491252
0.0491242
0.0491232
0.0491225
0.0491226
0.0491227
0.0491198
0.049103
0.0490411
0.0488155
0.0480189
0.0479576
0.049094
0.049267
0.0492839
0.0492734
0.0492548
0.0492327
0.0492091
0.0491855
0.0491634
0.0491439
0.0491279
0.0491163
0.0491092
0.0491068
0.0491085
0.0491134
0.0491213
0.0491319
0.0491447
0.0491585
0.0491725
0.0491854
0.0491927
0.0491858
0.0491767
0.0491733
0.0491769
0.0491846
0.0491915
0.0491934
0.0491888
0.0491783
0.0491638
0.0491475
0.0491315
0.0491174
0.0491065
0.0490993
0.0490955
0.0490943
0.0490946
0.0490953
0.0490957
0.0490955
0.0490942
0.0490918
0.0490884
0.0490842
0.0490794
0.0490751
0.0490731
0.0490754
0.0490831
0.0490961
0.0491134
0.0491334
0.0491532
0.049169
0.0491783
0.0491814
0.0491805
0.0491776
0.0491739
0.0491692
0.0491636
0.0491574
0.049151
0.049145
0.0491397
0.0491353
0.0491317
0.049129
0.0491268
0.0491251
0.0491236
0.0491224
0.0491215
0.0491208
0.0491204
0.0491204
0.0491207
0.0491212
0.049122
0.0491229
0.0491238
0.0491246
0.0491251
0.049125
0.0491245
0.0491236
0.0491227
0.0491224
0.0491228
0.0491231
0.0491202
0.049103
0.049039
0.0488022
0.0479705
0.0479367
0.0491105
0.0492808
0.0492952
0.0492833
0.049264
0.0492416
0.0492176
0.0491935
0.0491706
0.0491499
0.0491326
0.0491194
0.0491109
0.0491072
0.0491079
0.0491122
0.0491196
0.0491296
0.0491415
0.0491546
0.0491678
0.04918
0.0491868
0.049178
0.0491696
0.0491674
0.0491726
0.0491821
0.0491906
0.0491933
0.0491883
0.0491764
0.0491599
0.0491413
0.0491231
0.0491074
0.0490956
0.0490883
0.0490853
0.0490852
0.0490869
0.0490889
0.0490904
0.049091
0.0490903
0.0490884
0.0490852
0.0490811
0.0490764
0.0490723
0.0490709
0.049074
0.0490826
0.0490958
0.0491127
0.0491321
0.0491511
0.0491662
0.049175
0.0491781
0.0491778
0.049176
0.0491733
0.0491695
0.0491644
0.0491584
0.049152
0.0491459
0.0491405
0.049136
0.0491323
0.0491295
0.0491272
0.0491253
0.0491236
0.0491222
0.0491211
0.0491203
0.0491199
0.04912
0.0491203
0.049121
0.0491219
0.0491229
0.0491239
0.0491247
0.0491252
0.0491252
0.0491248
0.0491241
0.0491236
0.0491236
0.0491244
0.0491249
0.0491219
0.0491045
0.0490391
0.0487912
0.0479229
0.0479214
0.0491253
0.0492945
0.0493069
0.049294
0.0492741
0.0492514
0.0492272
0.0492028
0.0491791
0.0491575
0.0491389
0.0491243
0.0491142
0.049109
0.0491084
0.0491117
0.0491181
0.0491271
0.0491378
0.0491494
0.0491607
0.0491696
0.0491709
0.0491662
0.0491617
0.0491625
0.0491701
0.0491817
0.0491916
0.0491945
0.0491887
0.0491751
0.0491563
0.0491353
0.0491149
0.0490976
0.049085
0.0490779
0.0490759
0.0490774
0.0490805
0.0490839
0.0490864
0.0490876
0.0490874