/*--------------------------------*- C++ -*----------------------------------*\
| =========                 |                                                 |
| \\      /  F ield         | OpenFOAM: The Open Source CFD Toolbox           |
|  \\    /   O peration     | Version:  4.1                                   |
|   \\  /    A nd           | Web:      www.OpenFOAM.org                      |
|    \\/     M anipulation  |                                                 |
\*---------------------------------------------------------------------------*/
FoamFile
{
    version     2.0;
    format      ascii;
    class       volScalarField;
    location    "960";
    object      mag(U);
}
// * * * * * * * * * * * * * * * * * * * * * * * * * * * * * * * * * * * * * //

dimensions      [0 1 -1 0 0 0 0];

internalField   nonuniform List<scalar> 
5000
(
0.00360697
0.0029405
0.00232572
0.00230766
0.00329216
0.00427668
0.00474917
0.00419829
0.00281897
0.00208078
0.00530444
0.00791876
0.00864055
0.00836416
0.0077323
0.00707528
0.00659159
0.00639006
0.00646109
0.00661167
0.00660817
0.00636823
0.00594162
0.00541819
0.00487127
0.004337
0.00382002
0.00330592
0.00277276
0.00219366
0.00153554
0.000943609
0.00111519
0.00190891
0.0028425
0.00376686
0.00466078
0.00552264
0.00634822
0.00713047
0.00786134
0.00853257
0.00913593
0.00966353
0.0101082
0.0104641
0.0107271
0.0108954
0.0109697
0.0109558
0.0108582
0.0106809
0.010428
0.0101042
0.00971362
0.00925948
0.00874405
0.00817076
0.00755242
0.0069213
0.0062908
0.00543494
0.00492043
0.00413732
0.00588489
0.00628436
0.00622258
0.00596496
0.00582675
0.00590968
0.00615077
0.00645522
0.00676375
0.00703966
0.00726153
0.00741796
0.00750228
0.00750977
0.00743163
0.00725795
0.00698228
0.00659739
0.00609614
0.0054719
0.0047188
0.00383175
0.00281306
0.00172048
0.000937181
0.00168933
0.00309242
0.00454475
0.00591142
0.00704569
0.00781015
0.00813433
0.00796732
0.00727729
0.00586566
0.00489326
0.00494426
0.00230933
0.0032193
0.00261905
0.00216166
0.00200614
0.00196455
0.00246084
0.00317834
0.00455532
0.00677816
0.00797986
0.00877773
0.00922914
0.00922449
0.00899363
0.00860971
0.00810052
0.00750108
0.0068865
0.00632503
0.00583754
0.00539779
0.00495549
0.0044726
0.00393831
0.00335696
0.00273861
0.00210251
0.00151977
0.0012621
0.00180888
0.00220709
0.0028324
0.00362587
0.00447071
0.00531614
0.00614297
0.00694039
0.0076994
0.00841173
0.00906957
0.00966547
0.0101924
0.0106437
0.011014
0.0112989
0.0114962
0.0116066
0.0116288
0.0115638
0.0114145
0.0111849
0.0108793
0.0105018
0.0100564
0.00954677
0.008976
0.00834709
0.00766164
0.00691272
0.00610128
0.0068753
0.00695002
0.00571857
0.00625091
0.00700596
0.00734891
0.00757302
0.00776886
0.00796953
0.00817614
0.00836928
0.00853191
0.00864978
0.00871186
0.00871056
0.00863958
0.00849025
0.00825872
0.007937
0.00751854
0.00699795
0.00637175
0.00563996
0.00480966
0.00390779
0.00302447
0.002404
0.00237415
0.00306761
0.00408378
0.00517679
0.0061388
0.00679995
0.00706297
0.00682411
0.00616887
0.0053379
0.00668106
0.00656653
0.00269805
0.00417738
0.0035921
0.00277065
0.00199433
0.00141216
0.00224537
0.00410331
0.00714273
0.00918891
0.00844487
0.00807638
0.00851911
0.00881306
0.00873842
0.00841834
0.00794136
0.0073706
0.00676978
0.00620403
0.00569129
0.00520359
0.00471017
0.00419257
0.00364692
0.00308416
0.00253615
0.00208718
0.00192505
0.00227084
0.00283106
0.00327939
0.00383785
0.00450084
0.00521647
0.00594623
0.00666774
0.00736675
0.00803272
0.0086571
0.00923258
0.00975263
0.0102112
0.0106026
0.0109218
0.0111643
0.0113263
0.0114045
0.0113968
0.011304
0.0111294
0.0108772
0.0105525
0.0101601
0.00970497
0.00919118
0.00861973
0.0079823
0.00725588
0.00646213
0.00605265
0.00846764
0.010987
0.00712058
0.00535595
0.00604847
0.00684832
0.007438
0.00787963
0.0082259
0.00850606
0.00873672
0.00892227
0.00905953
0.00914239
0.00916398
0.00911725
0.00899661
0.00879803
0.00851838
0.00815465
0.00770523
0.00717144
0.00655979
0.0058864
0.00518653
0.00453176
0.0040433
0.00384129
0.00393952
0.00429006
0.00477332
0.00526976
0.00564918
0.00584052
0.00566736
0.00536359
0.00578512
0.0091602
0.00772351
0.00342682
0.0050481
0.00439639
0.00323623
0.00200658
0.00158317
0.00280051
0.0055307
0.00959809
0.0112683
0.00944345
0.0080147
0.00812952
0.00838696
0.00833075
0.00802756
0.00757667
0.00704657
0.0064861
0.00593309
0.00540147
0.00488512
0.00437429
0.00386639
0.00337322
0.00293009
0.00261377
0.00254944
0.00284806
0.00337552
0.00387777
0.00436276
0.00489446
0.00548053
0.00609916
0.00672655
0.00734464
0.00794027
0.00850355
0.00902682
0.00950407
0.00993031
0.0103012
0.0106129
0.0108616
0.0110436
0.0111556
0.0111945
0.0111573
0.011043
0.0108522
0.0105878
0.0102536
0.00985432
0.0093949
0.00887975
0.00831113
0.00768604
0.00700028
0.006332
0.00633665
0.00967757
0.0140896
0.00984959
0.00573872
0.00558739
0.00641067
0.00715666
0.00774926
0.00821986
0.00859563
0.00889647
0.00913329
0.00930962
0.00942511
0.00947815
0.00946644
0.00938716
0.0092389
0.00902077
0.00873279
0.00837689
0.00795826
0.00748725
0.00698218
0.00647336
0.00600623
0.00563637
0.00540587
0.00529563
0.00520809
0.00505613
0.0048236
0.00460714
0.00468444
0.00486297
0.00522548
0.00669302
0.0112652
0.00853732
0.00431681
0.00576307
0.0049797
0.0034772
0.00175884
0.00144872
0.00402052
0.00790625
0.0116213
0.0128013
0.010414
0.0082388
0.00791025
0.00800599
0.00789911
0.00758138
0.00713295
0.00662068
0.00608481
0.00555116
0.00503407
0.00454003
0.00407599
0.00365828
0.0033218
0.00312822
0.00315703
0.00346284
0.00393608
0.00444087
0.00494155
0.00544159
0.00595817
0.00649521
0.00704242
0.0075854
0.00811117
0.0086093
0.00907174
0.00949247
0.00986714
0.0101927
0.010467
0.0106883
0.0108549
0.0109651
0.0110168
0.011008
0.0109355
0.0107979
0.0105946
0.0103268
0.00999733
0.00960995
0.00916937
0.00868095
0.00815055
0.00758543
0.00700497
0.00652412
0.00682979
0.0105707
0.0163176
0.0127017
0.00695367
0.00570334
0.00624431
0.0069843
0.00763534
0.00817438
0.00861325
0.00896727
0.00924785
0.00946163
0.00961218
0.00970159
0.0097303
0.00969912
0.0096087
0.00946082
0.0092584
0.00900636
0.00871254
0.00838878
0.00805172
0.007723
0.00742665
0.00718099
0.00698396
0.00679503
0.00651797
0.00598963
0.00506799
0.0038729
0.00344674
0.00422877
0.00535744
0.00752089
0.0128649
0.00909355
0.00513507
0.00623095
0.00525404
0.00336916
0.000884663
0.00282234
0.00630731
0.00996637
0.0131583
0.0138395
0.0111491
0.00846672
0.00769258
0.00759326
0.00742886
0.00710388
0.00665984
0.0061696
0.00567117
0.00518528
0.00472906
0.00431923
0.00397708
0.00373506
0.00363972
0.00374097
0.00406228
0.0045057
0.00499089
0.00549618
0.0060043
0.00650887
0.00701123
0.00751046
0.00800006
0.00847092
0.00891411
0.00932213
0.00968912
0.0100109
0.0102849
0.01051
0.0106861
0.0108136
0.0108935
0.0109263
0.0109119
0.0108499
0.0107379
0.0105752
0.0103606
0.0100949
0.00977997
0.00941927
0.00901771
0.0085822
0.00812266
0.00765519
0.00721551
0.00693525
0.00746786
0.0113556
0.0180348
0.0153287
0.00852954
0.00630589
0.00638961
0.00699022
0.00761312
0.00816185
0.00862368
0.00900434
0.00931207
0.00955352
0.00973368
0.00985652
0.00992428
0.00994074
0.00990878
0.00983269
0.00971791
0.00957169
0.00940351
0.00922525
0.00905049
0.00889257
0.00876007
0.00864886
0.00853106
0.00834348
0.00797805
0.00727922
0.00605891
0.00394656
0.00203124
0.00368178
0.00550883
0.00813487
0.0140707
0.00941625
0.00565648
0.00634743
0.00512252
0.00284532
0.0014602
0.00472277
0.00808688
0.0114769
0.014166
0.014444
0.0115916
0.00853412
0.00734342
0.00708234
0.00692087
0.00662901
0.00621005
0.00576767
0.0053407
0.00494713
0.00460648
0.00434132
0.00418015
0.00415789
0.00430705
0.0046353
0.00505731
0.00552771
0.00602908
0.00654499
0.00705961
0.00756242
0.00804799
0.00851213
0.00894959
0.00935433
0.00972065
0.0100438
0.0103202
0.0105477
0.0107253
0.0108537
0.0109345
0.0109703
0.0109642
0.0109192
0.0108378
0.010721
0.0105687
0.0103808
0.0101572
0.00989845
0.00960618
0.00928374
0.00893656
0.00857312
0.00820662
0.00785914
0.00757618
0.00749611
0.00822768
0.0121683
0.0195066
0.0176781
0.0102202
0.00722164
0.00680906
0.00718334
0.00770709
0.00821202
0.0086571
0.00903544
0.00934956
0.00960385
0.00980295
0.00995129
0.0100525
0.0101118
0.0101345
0.0101268
0.0100963
0.010052
0.0100041
0.00996399
0.00994206
0.00994517
0.00997152
0.0100034
0.00999778
0.00987682
0.00951835
0.00875054
0.00735883
0.00510633
0.00157204
0.00340875
0.00560553
0.00850389
0.0149619
0.00953143
0.00575998
0.00605947
0.00465518
0.00266758
0.00323609
0.00616505
0.0093357
0.0124175
0.0146758
0.0146641
0.0117368
0.00835914
0.00676651
0.00642614
0.0063931
0.0061901
0.00583108
0.00547959
0.00516958
0.00491476
0.00473272
0.00464599
0.00468117
0.00486094
0.00518382
0.00558508
0.00604086
0.00653765
0.00705899
0.00758721
0.00810569
0.00860146
0.00906582
0.00949289
0.00987813
0.0102178
0.010509
0.0107495
0.0109383
0.0110752
0.0111611
0.0111978
0.0111888
0.0111382
0.011051
0.0109324
0.0107875
0.0106186
0.0104286
0.0102189
0.00999033
0.00974397
0.00948152
0.00920633
0.00892428
0.00864502
0.00838389
0.00816675
0.00804527
0.0081619
0.00908767
0.0130686
0.0208906
0.0197574
0.0119058
0.0083004
0.00743037
0.00754149
0.00791813
0.00833652
0.00872959
0.00907733
0.00937542
0.0096248
0.00982868
0.00999107
0.0101164
0.0102103
0.0102801
0.0103337
0.01038
0.0104291
0.0104916
0.0105777
0.0106955
0.0108473
0.011025
0.0112032
0.0113313
0.011324
0.0110521
0.010335
0.00894036
0.0066095
0.00316832
0.00209863
0.00561145
0.00862187
0.0155742
0.00952975
0.00538308
0.00547934
0.00414142
0.00306212
0.00448556
0.0071785
0.010111
0.0128653
0.0147541
0.0145509
0.0116161
0.00793198
0.00590848
0.00562256
0.00589491
0.00581545
0.00556229
0.00535024
0.00519708
0.0051093
0.00510065
0.00519103
0.00539694
0.00571091
0.00609011
0.00652845
0.00701721
0.00754167
0.00808335
0.0086225
0.00914081
0.00962358
0.0100606
0.0104455
0.0107749
0.0110471
0.0112618
0.0114197
0.0115222
0.0115712
0.0115692
0.0115199
0.0114275
0.0112978
0.0111371
0.0109525
0.0107511
0.0105369
0.0103152
0.0100895
0.00986201
0.00963422
0.00940797
0.00918665
0.00897638
0.00878751
0.00863679
0.00855295
0.0085933
0.0089058
0.010035
0.0140871
0.0222815
0.0215926
0.0135224
0.00944265
0.00817922
0.00802612
0.00823012
0.00853173
0.00884392
0.00913542
0.00939549
0.00962136
0.00981434
0.00997756
0.0101158
0.010234
0.0103413
0.0104464
0.0105592
0.0106899
0.0108492
0.0110462
0.011287
0.0115712
0.0118875
0.0122076
0.0124787
0.0126145
0.0124855
0.0119111
0.0106592
0.00847492
0.00518001
0.00170741
0.00505801
0.0085087
0.0159359
0.00951926
0.00459309
0.00470009
0.00377121
0.00367617
0.00537227
0.00784035
0.0104932
0.0129064
0.0144704
0.0141534
0.0112841
0.00731818
0.00477623
0.00474138
0.0054746
0.00551974
0.0054261
0.00539141
0.00541398
0.00549631
0.00565211
0.00589378
0.00620869
0.00657128
0.00699101
0.00746736
0.0079902
0.00854253
0.00910299
0.00964925
0.0101612
0.0106233
0.0110248
0.0113601
0.0116274
0.0118273
0.0119624
0.0120361
0.0120523
0.0120152
0.0119293
0.0117993
0.0116309
0.0114306
0.0112059
0.0109655
0.0107176
0.0104669
0.0102223
0.00998919
0.00977035
0.00956778
0.00938333
0.00922032
0.00908504
0.00898842
0.00894871
0.00899827
0.00920175
0.00971616
0.0110707
0.0152681
0.0237629
0.0231809
0.0150289
0.010586
0.00899412
0.00859483
0.00861828
0.00878505
0.00899508
0.00920904
0.00941124
0.00959575
0.00976198
0.00991195
0.0100505
0.0101825
0.0103164
0.010462
0.0106291
0.0108277
0.0110677
0.0113574
0.0117012
0.0120975
0.012534
0.0129828
0.0133931
0.0136833
0.0137304
0.0133613
0.0123502
0.0104408
0.00741845
0.00351797
0.00405478
0.00819137
0.015906
0.00957498
0.00351091
0.00386625
0.00362602
0.00432075
0.00601053
0.00823457
0.0105677
0.0126277
0.0138918
0.0135096
0.0107904
0.00663765
0.00344262
0.00397238
0.0051316
0.00530949
0.00542108
0.00557947
0.0057744
0.00601517
0.00631388
0.00665302
0.00701609
0.00742433
0.0078877
0.00840454
0.00896271
0.00954177
0.010117
0.0106635
0.0111602
0.0115912
0.0119468
0.0122229
0.0124199
0.0125412
0.0125923
0.0125793
0.012509
0.0123876
0.0122215
0.0120169
0.0117802
0.0115188
0.0112409
0.0109563
0.0106729
0.0103981
0.010142
0.00991145
0.00970994
0.00953931
0.00940124
0.00929902
0.00923935
0.00923427
0.00930459
0.00948843
0.00986076
0.010591
0.0122008
0.0166609
0.0253929
0.0245107
0.0163951
0.0116884
0.00982803
0.00920841
0.00905504
0.00907905
0.00917308
0.00929326
0.00942095
0.00954822
0.00967306
0.00979664
0.00992315
0.0100581
0.0102077
0.0103823
0.0105907
0.0108424
0.011146
0.0115085
0.0119334
0.0124183
0.0129513
0.0135068
0.0140394
0.0144763
0.0147071
0.0145745
0.0138682
0.0123348
0.00972062
0.00594565
0.00347561
0.00770674
0.0152963
0.00975332
0.00228613
0.00315319
0.0037102
0.00486366
0.00649219
0.00844257
0.0104245
0.0121168
0.0130834
0.0126455
0.010145
0.00598942
0.0020367
0.00357642
0.00482674
0.00518775
0.00552324
0.00586915
0.00622223
0.00660538
0.00700216
0.00739605
0.00781225
0.00827131
0.00878285
0.00934343
0.00993711
0.0105392
0.0111217
0.0116582
0.0121271
0.0125139
0.0128108
0.0130162
0.0131334
0.0131687
0.0131307
0.0130286
0.0128714
0.0126679
0.0124261
0.0121534
0.0118572
0.0115452
0.0112262
0.0109105
0.0106037
0.0103181
0.0100635
0.00984676
0.0096714
0.00953895
0.00945078
0.00941039
0.00942557
0.0095107
0.00969122
0.010014
0.0105671
0.0115333
0.013442
0.0185497
0.0269848
0.025595
0.0176066
0.0127231
0.0106465
0.00983374
0.00951377
0.00939454
0.00936539
0.00938093
0.00942168
0.00947906
0.00955036
0.00963617
0.00973996
0.0098673
0.0100222
0.0102145
0.0104514
0.0107412
0.011091
0.0115064
0.0119899
0.0125383
0.0131408
0.013775
0.0144018
0.0149591
0.0153534
0.0154499
0.0150642
0.0139612
0.0118736
0.00857882
0.00479287
0.00682767
0.0139909
0.0100812
0.00120648
0.00274372
0.0039553
0.00532321
0.00686876
0.00853548
0.0101493
0.0114598
0.0121145
0.0115892
0.00931639
0.00535846
0.00069443
0.00342371
0.00454907
0.00514646
0.00569695
0.00621403
0.00671008
0.00719897
0.00766562
0.0081233
0.00859933
0.0091158
0.00968112
0.0102877
0.0109144
0.0115322
0.0121104
0.0126222
0.0130476
0.0133743
0.0135976
0.0137193
0.0137459
0.0136874
0.0135553
0.0133616
0.0131181
0.0128354
0.0125232
0.01219
0.0118439
0.011493
0.0111465
0.0108131
0.0104976
0.0102148
0.00997502
0.00978357
0.00964311
0.00955432
0.00951838
0.00953974
0.0096286
0.00980375
0.0100982
0.010571
0.0113257
0.0125587
0.0148616
0.0209449
0.0284252
0.0264487
0.0186554
0.013672
0.0114245
0.0104443
0.00997101
0.00971316
0.00955925
0.00946458
0.00941064
0.00938945
0.00939834
0.00943757
0.00950992
0.00962053
0.00977149
0.00997089
0.0102243
0.010538
0.0109175
0.0113669
0.0118873
0.0124751
0.0131203
0.0138029
0.0144898
0.0151292
0.0156442
0.0159245
0.0158166
0.0151157
0.0135633
0.0108634
0.00699807
0.00567096
0.0119373
0.0105687
0.00146928
0.00285584
0.00428895
0.00572859
0.00716253
0.00855887
0.00981164
0.0107369
0.0110606
0.0103894
0.00827605
0.00461344
0.000438931
0.00316258
0.00432184
0.00516773
0.00591082
0.00658053
0.00718224
0.00776357
0.00831039
0.00883883
0.00938263
0.00996427
0.0105881
0.01124
0.011893
0.0125141
0.0130717
0.0135404
0.013903
0.0141512
0.0142844
0.0143085
0.0142338
0.0140737
0.013843
0.0135563
0.0132276
0.0128697
0.0124935
0.0121086
0.0117235
0.0113463
0.0109869
0.0106478
0.0103407
0.010077
0.00986517
0.00970982
0.00961188
0.00957092
0.00958833
0.00967072
0.00983284
0.0101009
0.0105193
0.0111626
0.0121521
0.0137079
0.0166921
0.023624
0.0296603
0.0270838
0.0195349
0.0145203
0.0121427
0.0110191
0.0104074
0.0100191
0.00974351
0.00953807
0.00938646
0.00928221
0.00922336
0.0092102
0.00924482
0.00933162
0.00947096
0.0096685
0.00992764
0.0102526
0.0106469
0.0111132
0.0116512
0.0122569
0.0129206
0.0136243
0.014339
0.0150208
0.0156061
0.0160052
0.0160945
0.0157092
0.0146314
0.0125734
0.00919568
0.00528798
0.0091431
0.0112112
0.00257202
0.00340125
0.00474485
0.00610522
0.00738512
0.00852953
0.0094506
0.0100084
0.00999481
0.00912059
0.00705765
0.00366275
0.000833476
0.00287135
0.00418043
0.0052413
0.00614598
0.00692511
0.00762581
0.00831024
0.00894314
0.00955048
0.0101709
0.0108245
0.0115084
0.0122004
0.0128673
0.0134739
0.0139898
0.014393
0.0146712
0.014821
0.014847
0.0147595
0.0145732
0.0143048
0.0139719
0.0135919
0.0131808
0.0127528
0.0123202
0.0118934
0.0114812
0.011092
0.0107347
0.0104046
0.0101208
0.00989158
0.00972155
0.00961267
0.00956368
0.00957311
0.00964365
0.00978618
0.0100233
0.0103928
0.0109545
0.0118031
0.0130794
0.0150767
0.019247
0.0261662
0.0306643
0.0275152
0.0202414
0.0152559
0.0127858
0.0115419
0.0108077
0.0102997
0.00990917
0.00959664
0.00934868
0.009161
0.00903286
0.00896485
0.00895842
0.00901678
0.00913895
0.00932747
0.00958344
0.00990881
0.0103054
0.0107739
0.0113134
0.0119193
0.0125819
0.013285
0.0140025
0.0146959
0.0153103
0.0157696
0.0159705
0.0157779
0.015015
0.0134302
0.0106573
0.00650075
0.00618928
0.0119693
0.00377026
0.00418017
0.0052882
0.00646274
0.00754553
0.00844799
0.00907428
0.00930347
0.00897325
0.0078742
0.00578964
0.00269459
0.000746569
0.00269545
0.0041597
0.00536401
0.00638153
0.00725278
0.00805492
0.00884947
0.0095749
0.0102696
0.0109745
0.0117037
0.0124441
0.0131645
0.0138267
0.0143956
0.0148445
0.0151571
0.0153274
0.0153586
0.0152609
0.0150493
0.0147426
0.0143609
0.0139245
0.0134527
0.0129632
0.0124715
0.0119911
0.0115328
0.0111058
0.0107198
0.0103744
0.0100754
0.00983282
0.00965242
0.00953617
0.00948205
0.00948588
0.0095457
0.00966741
0.0098696
0.0101876
0.0106756
0.0114149
0.0125256
0.0141856
0.0169357
0.0222544
0.0284053
0.0314155
0.02776
0.020776
0.0158705
0.0133427
0.012001
0.0111608
0.0105455
0.0100495
0.00963699
0.00929774
0.00903006
0.00883471
0.00871274
0.00866488
0.00869278
0.00879443
0.0089689
0.00921504
0.00953253
0.00992134
0.0103809
0.0109093
0.0115016
0.0121488
0.0128361
0.0135403
0.0142275
0.0148497
0.0153401
0.0156083
0.015536
0.014968
0.0136871
0.0113896
0.00779442
0.00335019
0.0127897
0.0049096
0.00501913
0.00586966
0.00680943
0.00766243
0.00832217
0.00868302
0.00863068
0.00803301
0.00674424
0.00465715
0.00190601
0.000757617
0.00270265
0.00424391
0.00553359
0.00662585
0.00757503
0.00848379
0.0093953
0.0102194
0.0110082
0.0118026
0.0126062
0.0133932
0.0141232
0.0147555
0.0152583
0.0156116
0.015807
0.0158466
0.0157403
0.0155044
0.015159
0.0147263
0.0142294
0.0136907
0.0131308
0.0125686
0.0120208
0.0115015
0.0110226
0.0105933
0.0102249
0.00990501
0.00965241
0.00946845
0.00935299
0.00930242
0.00930959
0.00936721
0.00947451
0.00964376
0.0099071
0.0103192
0.0109572
0.0119322
0.013401
0.0156341
0.0195949
0.0251658
0.030257
0.0319045
0.0278319
0.021143
0.0163599
0.013806
0.0123886
0.0114593
0.0107503
0.0101602
0.00965725
0.00923472
0.00889354
0.00863605
0.00846378
0.0083766
0.00837434
0.00845425
0.00861191
0.00884404
0.00914821
0.00952265
0.0099656
0.0104743
0.011044
0.0116664
0.0123285
0.0130105
0.0136837
0.0143076
0.0148257
0.0151608
0.0152096
0.0148307
0.0138238
0.0119284
0.00895282
0.00501571
0.0136306
0.00596133
0.00584013
0.00645522
0.0071524
0.00776169
0.00817702
0.00829301
0.0080035
0.00720265
0.00580242
0.00379909
0.0014712
0.00114825
0.00289156
0.00442399
0.00574768
0.0068849
0.00790532
0.00892806
0.00996228
0.0108898
0.0117771
0.0126618
0.0135326
0.0143484
0.0150614
0.0156326
0.0160373
0.0162652
0.0163176
0.0162055
0.0159465
0.0155625
0.0150779
0.0145182
0.0139084
0.013272
0.0126305
0.0120031
0.0114073
0.010858
0.0103684
0.00994992
0.00961319
0.00933868
0.00914806
0.00903752
0.00899937
0.00902227
0.00909243
0.00919994
0.00934772
0.00955972
0.00989116
0.0104243
0.0112691
0.0125822
0.0145862
0.0178379
0.0225775
0.0277397
0.031676
0.0321353
0.0277422
0.02135
0.0167237
0.0141728
0.0127008
0.0116991
0.0109105
0.0102388
0.00965657
0.00916062
0.00875444
0.00844182
0.00822464
0.00810193
0.00807164
0.00813028
0.00827051
0.00848711
0.00877565
0.00913277
0.00955559
0.0100408
0.0105837
0.011177
0.0118098
0.0124662
0.0131232
0.0137492
0.0143001
0.0147159
0.0149154
0.0147855
0.0141685
0.0128638
0.0106891
0.00741154
0.0144631
0.00692273
0.00661285
0.0070241
0.00749436
0.0078658
0.00804382
0.00793401
0.00744556
0.00650126
0.0050654
0.00321531
0.00138453
0.00164774
0.00320181
0.00468417
0.00599523
0.00716539
0.00825708
0.00940093
0.0105629
0.0115968
0.0125836
0.0135547
0.0144782
0.0152967
0.0159591
0.0164334
0.0167063
0.0167798
0.0166668
0.0163873
0.0159662
0.0154305
0.014808
0.0141263
0.0134111
0.012686
0.0119722
0.0112886
0.0106528
0.0100811
0.00958794
0.00919051
0.00888164
0.00867513
0.00856754
0.00854806
0.00859974
0.00870112
0.00883118
0.00897932
0.00915648
0.00940857
0.00982827
0.0105365
0.0116977
0.0135395
0.0164629
0.0206351
0.0253959
0.0298563
0.0326643
0.0321208
0.0275024
0.0214081
0.0169656
0.0144435
0.0129371
0.0118792
0.0110248
0.0102842
0.00963435
0.00907554
0.00861349
0.0082533
0.00799712
0.00784334
0.00778835
0.00782723
0.00795139
0.00815346
0.00842724
0.00876788
0.00917146
0.00963412
0.0101512
0.0107165
0.0113213
0.0119533
0.0125959
0.0132265
0.0138143
0.0143177
0.0146797
0.0148199
0.0146249
0.0139378
0.0125316
0.00979611
0.0152688
0.00779931
0.00732813
0.00756532
0.00783434
0.00798764
0.00794589
0.0076319
0.00697586
0.0059298
0.00450084
0.00282722
0.00152
0.00213547
0.00356865
0.00498704
0.00627749
0.00746982
0.00864132
0.00991133
0.0112058
0.0123468
0.0134308
0.0144794
0.0154329
0.0162195
0.0167918
0.017131
0.0172398
0.0171347
0.0168402
0.0163855
0.0158015
0.0151191
0.0143682
0.0135764
0.0127692
0.0119688
0.0111946
0.0104646
0.00979613
0.00920703
0.00871521
0.00834379
0.00807916
0.00794909
0.00793822
0.008023
0.00817194
0.00835068
0.00853095
0.00870449
0.00889719
0.00919772
0.00975513
0.0107538
0.0124483
0.0152008
0.0190627
0.0234466
0.027827
0.0314679
0.0332416
0.0318793
0.0271256
0.0213317
0.0170934
0.0146223
0.0130997
0.0120004
0.0110932
0.0102957
0.00958939
0.00897761
0.00846811
0.00806714
0.00777719
0.00759638
0.00752
0.00754189
0.00765301
0.00784392
0.00810676
0.00843529
0.00882455
0.00927015
0.00976746
0.010311
0.0108939
0.0115075
0.0121408
0.0127801
0.0134072
0.0139981
0.0145192
0.014921
0.0151249
0.0149935
0.0142277
0.0118894
0.0160374
0.0086005
0.0079873
0.00807524
0.00817012
0.00813097
0.00789305
0.00739786
0.00659776
0.00547174
0.00406128
0.00256718
0.00177822
0.00259083
0.00394494
0.00530703
0.00658741
0.0078065
0.0090645
0.0104638
0.011895
0.0131408
0.0143173
0.0154287
0.0163809
0.0170936
0.0175328
0.0177002
0.0176178
0.0173176
0.0168358
0.0162088
0.015472
0.014658
0.0137966
0.0129141
0.0120335
0.0111742
0.0103529
0.00958564
0.0088896
0.00828507
0.00779585
0.007453
0.0072452
0.00720219
0.00729853
0.00749475
0.00774122
0.0079883
0.00820171
0.00837985
0.00857813
0.00896663
0.0097809
0.0113194
0.0139713
0.0176586
0.0217835
0.0259539
0.0297751
0.0325844
0.0334454
0.0314347
0.0266275
0.0211379
0.0171179
0.0147159
0.0131928
0.0120648
0.0111163
0.0102723
0.00951908
0.00886248
0.00831204
0.00787519
0.00755517
0.00735041
0.00725566
0.00726413
0.00736667
0.00755181
0.00781005
0.00813376
0.00851701
0.00895481
0.00944237
0.00997468
0.0105462
0.0111511
0.0117831
0.0124358
0.0131024
0.0137739
0.0144372
0.0150684
0.0156162
0.0159545
0.0157263
0.0137177
0.016765
0.00933728
0.00859659
0.00855482
0.00849984
0.00829395
0.00788422
0.00722916
0.00630133
0.00510388
0.00371194
0.00241001
0.00207163
0.00300155
0.00430338
0.00562877
0.00691802
0.00819121
0.00952861
0.0110583
0.0126289
0.0139751
0.0152371
0.0163907
0.0173016
0.0178928
0.0181562
0.0181206
0.0178295
0.0173302
0.0166681
0.0158847
0.0150168
0.014096
0.0131495
0.0122006
0.011268
0.0103672
0.00951115
0.00871341
0.00799137
0.0073688
0.0068791
0.0065565
0.00640853
0.00646291
0.00667895
0.00699309
0.00733276
0.00763305
0.00785701
0.00801715
0.00823612
0.00882965
0.0101823
0.0127555
0.0163405
0.020289
0.0242625
0.0280323
0.03122
0.0332397
0.0333201
0.030815
0.0260264
0.0208451
0.0170519
0.0147326
0.0132212
0.012075
0.0110942
0.0102121
0.00941898
0.00872307
0.00813553
0.00766524
0.00731689
0.00709005
0.00697955
0.00697907
0.0070788
0.0072653
0.00752727
0.00785567
0.00824359
0.00868543
0.0091761
0.00971062
0.0102842
0.0108927
0.0115333
0.0122051
0.0129097
0.0136505
0.0144304
0.015246
0.0160695
0.0167895
0.0170178
0.0153041
0.0174513
0.0100205
0.00916372
0.00900717
0.00882227
0.00847217
0.00791247
0.00711564
0.00607181
0.00480715
0.00343676
0.0023443
0.00236243
0.00336054
0.00463224
0.00594755
0.00727139
0.00862224
0.0100431
0.0116915
0.0134
0.0148409
0.0161804
0.0173487
0.0181702
0.0185903
0.0186405
0.0183815
0.0178786
0.0171914
0.016371
0.0154599
0.0144924
0.0134964
0.0124942
0.0115039
0.0105396
0.00961151
0.0087289
0.00790315
0.00715255
0.00650564
0.00600885
0.00568288
0.00560978
0.00577463
0.00611891
0.00655109
0.00697312
0.00730641
0.00751569
0.00764505
0.00797748
0.0090798
0.0115473
0.0150726
0.018901
0.0227113
0.0263624
0.0296356
0.0321829
0.0334849
0.0329151
0.0300507
0.0253424
0.0204725
0.016909
0.0146811
0.01319
0.0120328
0.0110263
0.0101117
0.0092829
0.00855016
0.00792638
0.00742248
0.0070456
0.0067976
0.00667411
0.00666964
0.00677375
0.00697029
0.00724588
0.00758993
0.00799456
0.00845357
0.00896142
0.00951282
0.010103
0.0107285
0.0113882
0.0120849
0.0128258
0.0136226
0.0144907
0.0154427
0.0164722
0.0174908
0.0181068
0.0166667
0.0180982
0.0106599
0.0096962
0.00943593
0.00913657
0.0086606
0.00796918
0.00704565
0.00589576
0.00456957
0.00322994
0.00235449
0.00262973
0.00366754
0.00493125
0.00626615
0.00765078
0.00909568
0.0106146
0.0123557
0.0141962
0.015726
0.0171337
0.0182818
0.0189596
0.0191621
0.0189729
0.0184865
0.0177863
0.0169391
0.015996
0.0149953
0.013965
0.0129262
0.011895
0.0108838
0.00990137
0.00895351
0.00804591
0.00718906
0.00640425
0.00572804
0.00521907
0.00491591
0.00491165
0.00518787
0.00566018
0.00620216
0.00668944
0.00703279
0.00720522
0.00734215
0.00808097
0.0103423
0.0138188
0.0175809
0.0212665
0.0247878
0.0280241
0.0307738
0.0327103
0.033378
0.0322807
0.0291731
0.0245963
0.020038
0.016702
0.0145692
0.0131034
0.0119395
0.0109111
0.00996675
0.00910349
0.00833338
0.0076713
0.0071311
0.00672374
0.00645468
0.00632102
0.00631901
0.00643625
0.00665314
0.00695355
0.00732513
0.00775904
0.00824849
0.00878739
0.00936986
0.00999052
0.0106456
0.0113346
0.0120617
0.0128371
0.0136779
0.0146074
0.0156507
0.0168215
0.0180619
0.0190031
0.0178211
0.0187085
0.0112635
0.0102004
0.0098443
0.00944207
0.00885456
0.00804634
0.00700932
0.00576393
0.00438596
0.00309063
0.00242141
0.00286599
0.00392908
0.00520761
0.00659069
0.0080585
0.00960919
0.0112417
0.0130386
0.0150013
0.0166155
0.0180806
0.0191653
0.019643
0.0195911
0.0191539
0.0184563
0.0175919
0.0166268
0.015605
0.014555
0.0134958
0.0124403
0.0113982
0.0103768
0.00938042
0.00841109
0.00747226
0.00657547
0.00574833
0.00504009
0.00452203
0.00425113
0.00433255
0.00473289
0.00533323
0.00597281
0.00650623
0.00683908
0.00697393
0.00733206
0.00916284
0.0125304
0.01628
0.0198976
0.0233062
0.0264601
0.0292527
0.0314863
0.0328587
0.0329788
0.0314656
0.0282125
0.0238077
0.0195576
0.0164417
0.0144034
0.0129642
0.0117953
0.0107463
0.00977249
0.00887332
0.00806255
0.00735748
0.00677599
0.00633454
0.00604393
0.00590347
0.00591218
0.00605347
0.0063029
0.00664066
0.00705223
0.00752787
0.00806028
0.00864282
0.00926876
0.00993175
0.0106271
0.0113536
0.0121154
0.0129239
0.0137983
0.014767
0.0158635
0.0171196
0.0185121
0.0197189
0.0187819
0.0192852
0.0118378
0.0106812
0.0102347
0.00973809
0.00905015
0.00813761
0.00699964
0.00567125
0.00425587
0.0030195
0.00252711
0.00307138
0.00415504
0.00547055
0.00692618
0.00849343
0.0101553
0.0118964
0.0137466
0.0157964
0.0174926
0.0190022
0.0199726
0.0201973
0.0198713
0.0192
0.0183283
0.017348
0.0163141
0.0152567
0.0141913
0.0131266
0.0120685
0.0110218
0.00998991
0.00897389
0.00797306
0.00698973
0.00603884
0.00515893
0.00442114
0.00390667
0.00369488
0.00389273
0.00443393
0.00515936
0.00588189
0.00644431
0.00675586
0.00695927
0.00815509
0.0111745
0.0149278
0.0185573
0.0219019
0.0249702
0.0277332
0.0300815
0.0318237
0.0326871
0.0323444
0.0305141
0.0271964
0.0229937
0.0190436
0.0161362
0.0141881
0.0127742
0.0115998
0.0105298
0.00952474
0.0085862
0.00772932
0.00697426
0.0063441
0.00586302
0.00554964
0.00540674
0.00543715
0.0056165
0.0059132
0.00630224
0.00676662
0.00729579
0.00788221
0.00851877
0.0091978
0.00991177
0.0106547
0.0114242
0.0122235
0.0130633
0.0139634
0.0149542
0.0160741
0.0173699
0.0188531
0.0202673
0.0195624
0.0198308
0.0123877
0.0111421
0.0106088
0.0100238
0.00924426
0.00823845
0.00701244
0.00561645
0.0041825
0.00301737
0.0026568
0.0032485
0.00435383
0.00572633
0.0072734
0.00894949
0.0107214
0.0125626
0.0144656
0.0165636
0.0183392
0.0198775
0.0206768
0.0206071
0.0200113
0.0191441
0.0181519
0.0171099
0.0160527
0.0149925
0.0139317
0.0128711
0.0118119
0.0107564
0.00970552
0.00865775
0.00760983
0.00656357
0.00553917
0.00459147
0.00382758
0.00332751
0.00325424
0.00361824
0.0043119
0.00515178
0.00594033
0.00651696
0.00685679
0.00754729
0.0098521
0.0134561
0.0171694
0.0205374
0.0235551
0.0262661
0.0286365
0.0305541
0.0318394
0.0322525
0.0315263
0.0294651
0.026148
0.0221673
0.0185044
0.0157907
0.0139259
0.0125344
0.011353
0.0102603
0.00922137
0.00823884
0.00732893
0.00651477
0.00582578
0.00529673
0.00495814
0.0048187
0.00488627
0.00512233
0.00548428
0.00594004
0.00646998
0.00706326
0.00771255
0.00841051
0.00914869
0.00991839
0.0107124
0.0115269
0.0123638
0.0132327
0.0141523
0.0151527
0.0162745
0.0175751
0.0190967
0.0206613
0.0201752
0.0203475
0.0129168
0.0115856
0.0109672
0.0102981
0.00943437
0.00834586
0.00704596
0.00560095
0.00416963
0.0030791
0.00279815
0.00339729
0.00452789
0.00597571
0.00762814
0.00941594
0.0112912
0.0132199
0.015178
0.0172851
0.0191362
0.0206832
0.0212534
0.0208682
0.0200347
0.0190298
0.0179775
0.0169222
0.0158737
0.0148273
0.0137763
0.0127174
0.0116505
0.0105768
0.00949524
0.00840134
0.0072886
0.00615769
0.00503505
0.0039999
0.00321809
0.00282341
0.00296468
0.00353649
0.00437825
0.00530993
0.00614595
0.0067769
0.00734655
0.00883946
0.0119124
0.015645
0.0191403
0.0221893
0.0248673
0.0272208
0.0292073
0.0307164
0.0315844
0.0316058
0.0305694
0.0283508
0.025085
0.0213369
0.0179445
0.0154078
0.0136182
0.0122456
0.0110558
0.00993909
0.00886388
0.00783283
0.00686242
0.0059782
0.00521653
0.00462644
0.00425779
0.00413066
0.00425884
0.0045774
0.00502652
0.00556536
0.00617257
0.00683824