/*--------------------------------*- C++ -*----------------------------------*\
| =========                 |                                                 |
| \\      /  F ield         | OpenFOAM: The Open Source CFD Toolbox           |
|  \\    /   O peration     | Version:  4.1                                   |
|   \\  /    A nd           | Web:      www.OpenFOAM.org                      |
|    \\/     M anipulation  |                                                 |
\*---------------------------------------------------------------------------*/
FoamFile
{
    version     2.0;
    format      ascii;
    class       volScalarField;
    location    "960";
    object      p;
}
// * * * * * * * * * * * * * * * * * * * * * * * * * * * * * * * * * * * * * //

dimensions      [0 2 -2 0 0 0 0];

internalField   nonuniform List<scalar> 
5000
(
0
7.09884e-06
1.15561e-05
8.44144e-06
2.3148e-06
-6.33227e-06
-1.41913e-05
-1.87068e-05
-1.68191e-05
-1.10879e-05
-7.13381e-06
-4.61033e-06
2.97606e-07
5.79133e-06
9.53419e-06
1.15674e-05
1.28341e-05
1.43177e-05
1.67307e-05
2.03653e-05
2.49906e-05
3.00255e-05
3.47631e-05
3.87912e-05
4.20617e-05
4.47357e-05
4.70159e-05
4.90612e-05
5.09742e-05
5.2832e-05
5.46696e-05
5.62142e-05
5.64522e-05
5.54469e-05
5.31995e-05
5.01099e-05
4.64175e-05
4.22421e-05
3.76921e-05
3.28962e-05
2.79982e-05
2.31495e-05
1.8504e-05
1.42151e-05
1.04292e-05
7.27916e-06
4.87546e-06
3.29784e-06
2.58646e-06
2.74774e-06
3.76455e-06
5.60057e-06
8.20525e-06
1.15183e-05
1.5473e-05
2.00024e-05
2.50491e-05
3.05756e-05
3.65622e-05
4.29605e-05
4.96165e-05
5.65989e-05
6.65663e-05
7.06196e-05
6.89423e-05
6.69457e-05
6.47663e-05
6.06051e-05
5.51928e-05
4.95722e-05
4.42353e-05
3.94374e-05
3.52671e-05
3.17364e-05
2.88468e-05
2.66055e-05
2.50166e-05
2.40743e-05
2.37611e-05
2.4061e-05
2.49304e-05
2.62763e-05
2.79522e-05
2.97482e-05
3.13807e-05
3.2486e-05
3.25822e-05
3.10158e-05
2.72978e-05
2.18191e-05
1.41829e-05
3.64382e-06
-9.33847e-06
-2.3282e-05
-3.58498e-05
-4.46941e-05
-4.88928e-05
-4.84238e-05
-4.34607e-05
-3.26013e-05
-0.0984527
-0.0984506
-0.0984485
-0.0984489
-0.0984504
-0.0984522
-0.098452
-0.0984482
-0.0984404
-0.0984317
-0.0984294
-0.098433
-0.0984342
-0.0984329
-0.0984303
-0.0984269
-0.0984227
-0.0984182
-0.0984141
-0.0984107
-0.098408
-0.0984058
-0.0984036
-0.0984016
-0.0983996
-0.0983979
-0.0983965
-0.0983955
-0.0983949
-0.0983948
-0.0983951
-0.0983957
-0.0983962
-0.0983973
-0.0983994
-0.0984023
-0.0984058
-0.0984097
-0.098414
-0.0984184
-0.0984228
-0.0984271
-0.098431
-0.0984344
-0.0984373
-0.0984393
-0.0984405
-0.0984406
-0.0984397
-0.0984378
-0.0984349
-0.0984311
-0.0984263
-0.0984207
-0.0984143
-0.0984073
-0.0983996
-0.0983915
-0.0983828
-0.0983738
-0.0983644
-0.0983546
-0.0983427
-0.0983422
-0.0983511
-0.0983596
-0.0983657
-0.0983717
-0.0983778
-0.0983838
-0.0983897
-0.0983952
-0.0984004
-0.0984051
-0.0984094
-0.098413
-0.0984161
-0.0984184
-0.0984201
-0.0984211
-0.0984215
-0.0984213
-0.0984208
-0.09842
-0.0984194
-0.0984193
-0.0984201
-0.0984225
-0.0984271
-0.0984338
-0.0984424
-0.0984532
-0.098466
-0.0984794
-0.098491
-0.0984981
-0.0985
-0.0984967
-0.0984892
-0.0984752
-0.19692
-0.196919
-0.196918
-0.196918
-0.196919
-0.19692
-0.196918
-0.196911
-0.196902
-0.19689
-0.196885
-0.19689
-0.196896
-0.196897
-0.196896
-0.196893
-0.196889
-0.196885
-0.196881
-0.196877
-0.196875
-0.196872
-0.19687
-0.196868
-0.196866
-0.196865
-0.196864
-0.196863
-0.196863
-0.196863
-0.196863
-0.196864
-0.196865
-0.196866
-0.196869
-0.196872
-0.196875
-0.196879
-0.196883
-0.196887
-0.196892
-0.196896
-0.1969
-0.196903
-0.196906
-0.196908
-0.196909
-0.196909
-0.196908
-0.196906
-0.196902
-0.196898
-0.196892
-0.196886
-0.196879
-0.19687
-0.196861
-0.196852
-0.196842
-0.196831
-0.196821
-0.196809
-0.196796
-0.196791
-0.196803
-0.196816
-0.196825
-0.196832
-0.196839
-0.196846
-0.196852
-0.196858
-0.196863
-0.196869
-0.196873
-0.196877
-0.196881
-0.196883
-0.196885
-0.196886
-0.196887
-0.196887
-0.196886
-0.196886
-0.196885
-0.196885
-0.196886
-0.196889
-0.196894
-0.196901
-0.19691
-0.196921
-0.196934
-0.196948
-0.19696
-0.196967
-0.196969
-0.196964
-0.196956
-0.196943
-0.295388
-0.295388
-0.295386
-0.295388
-0.29539
-0.295391
-0.295389
-0.295384
-0.295374
-0.295362
-0.295355
-0.295358
-0.295363
-0.295365
-0.295364
-0.295361
-0.295357
-0.295352
-0.295348
-0.295345
-0.295342
-0.29534
-0.295337
-0.295336
-0.295334
-0.295333
-0.295332
-0.295331
-0.295331
-0.295332
-0.295332
-0.295333
-0.295335
-0.295336
-0.295339
-0.295342
-0.295345
-0.295349
-0.295353
-0.295358
-0.295362
-0.295366
-0.29537
-0.295373
-0.295375
-0.295377
-0.295378
-0.295378
-0.295377
-0.295375
-0.295371
-0.295367
-0.295361
-0.295355
-0.295347
-0.295339
-0.29533
-0.29532
-0.295309
-0.295299
-0.295288
-0.295277
-0.295265
-0.295258
-0.295266
-0.295278
-0.295287
-0.295295
-0.295302
-0.29531
-0.295316
-0.295323
-0.295329
-0.295334
-0.295339
-0.295343
-0.295347
-0.295349
-0.295351
-0.295353
-0.295353
-0.295353
-0.295353
-0.295353
-0.295353
-0.295353
-0.295354
-0.295357
-0.295362
-0.295369
-0.295379
-0.295391
-0.295404
-0.295419
-0.295431
-0.295439
-0.29544
-0.295436
-0.29543
-0.29542
-0.393855
-0.393854
-0.393854
-0.393857
-0.393861
-0.393864
-0.393863
-0.393858
-0.393849
-0.393837
-0.393829
-0.39383
-0.393833
-0.393834
-0.393833
-0.393829
-0.393825
-0.39382
-0.393816
-0.393813
-0.39381
-0.393807
-0.393805
-0.393803
-0.393802
-0.393801
-0.3938
-0.3938
-0.393801
-0.393801
-0.393802
-0.393803
-0.393805
-0.393807
-0.39381
-0.393813
-0.393816
-0.39382
-0.393824
-0.393829
-0.393833
-0.393837
-0.39384
-0.393843
-0.393846
-0.393848
-0.393848
-0.393848
-0.393847
-0.393845
-0.393841
-0.393837
-0.393831
-0.393825
-0.393817
-0.393809
-0.3938
-0.39379
-0.39378
-0.393769
-0.393759
-0.393749
-0.393738
-0.393729
-0.393733
-0.393742
-0.393751
-0.393759
-0.393767
-0.393775
-0.393782
-0.393789
-0.393795
-0.3938
-0.393805
-0.39381
-0.393813
-0.393816
-0.393818
-0.39382
-0.393821
-0.393821
-0.393821
-0.393821
-0.393821
-0.393821
-0.393823
-0.393826
-0.393831
-0.393838
-0.393848
-0.39386
-0.393875
-0.393889
-0.393903
-0.393912
-0.393913
-0.393909
-0.393904
-0.393896
-0.492319
-0.492319
-0.492319
-0.492325
-0.492331
-0.492335
-0.492334
-0.49233
-0.492321
-0.49231
-0.492303
-0.492303
-0.492306
-0.492306
-0.492303
-0.492299
-0.492294
-0.492289
-0.492285
-0.492281
-0.492278
-0.492275
-0.492273
-0.492272
-0.49227
-0.49227
-0.492269
-0.492269
-0.49227
-0.492271
-0.492272
-0.492274
-0.492275
-0.492278
-0.492281
-0.492284
-0.492288
-0.492292
-0.492296
-0.4923
-0.492304
-0.492308
-0.492312
-0.492315
-0.492317
-0.492319
-0.492319
-0.492319
-0.492318
-0.492316
-0.492312
-0.492308
-0.492302
-0.492296
-0.492289
-0.49228
-0.492271
-0.492262
-0.492252
-0.492242
-0.492231
-0.492222
-0.492212
-0.492202
-0.492202
-0.492209
-0.492217
-0.492225
-0.492233
-0.492241
-0.492249
-0.492256
-0.492262
-0.492268
-0.492273
-0.492278
-0.492281
-0.492284
-0.492287
-0.492288
-0.492289
-0.49229
-0.49229
-0.49229
-0.49229
-0.492291
-0.492293
-0.492295
-0.4923
-0.492307
-0.492317
-0.49233
-0.492344
-0.492359
-0.492373
-0.492382
-0.492385
-0.492381
-0.492376
-0.49237
-0.590778
-0.59078
-0.590781
-0.590788
-0.590795
-0.590799
-0.590799
-0.590795
-0.590788
-0.59078
-0.590776
-0.590777
-0.590779
-0.590778
-0.590774
-0.590769
-0.590763
-0.590757
-0.590753
-0.590749
-0.590746
-0.590743
-0.590741
-0.59074
-0.590739
-0.590739
-0.590739
-0.590739
-0.59074
-0.590741
-0.590742
-0.590744
-0.590747
-0.590749
-0.590752
-0.590756
-0.59076
-0.590764
-0.590768
-0.590773
-0.590777
-0.590781
-0.590784
-0.590787
-0.590789
-0.59079
-0.590791
-0.590791
-0.590789
-0.590787
-0.590784
-0.59078
-0.590774
-0.590768
-0.590761
-0.590753
-0.590744
-0.590735
-0.590725
-0.590715
-0.590705
-0.590696
-0.590687
-0.590676
-0.590673
-0.590678
-0.590685
-0.590693
-0.590701
-0.590709
-0.590716
-0.590724
-0.59073
-0.590736
-0.590741
-0.590746
-0.59075
-0.590753
-0.590756
-0.590758
-0.590759
-0.59076
-0.59076
-0.59076
-0.590761
-0.590762
-0.590763
-0.590766
-0.59077
-0.590777
-0.590786
-0.590798
-0.590813
-0.590828
-0.590841
-0.590851
-0.590854
-0.59085
-0.590846
-0.59084
-0.689233
-0.689237
-0.689239
-0.689246
-0.689253
-0.689257
-0.689258
-0.689256
-0.689251
-0.689247
-0.689247
-0.68925
-0.689253
-0.689251
-0.689246
-0.689238
-0.689231
-0.689226
-0.689221
-0.689217
-0.689214
-0.689211
-0.68921
-0.689208
-0.689208
-0.689208
-0.689208
-0.689208
-0.68921
-0.689211
-0.689213
-0.689215
-0.689218
-0.689221
-0.689225
-0.689229
-0.689233
-0.689237
-0.689241
-0.689246
-0.68925
-0.689254
-0.689257
-0.68926
-0.689262
-0.689263
-0.689263
-0.689263
-0.689262
-0.68926
-0.689256
-0.689252
-0.689247
-0.689241
-0.689234
-0.689226
-0.689218
-0.689209
-0.689199
-0.68919
-0.68918
-0.689171
-0.689163
-0.689152
-0.689145
-0.689148
-0.689155
-0.689162
-0.68917
-0.689178
-0.689185
-0.689193
-0.689199
-0.689205
-0.689211
-0.689216
-0.68922
-0.689223
-0.689226
-0.689228
-0.689229
-0.68923
-0.689231
-0.689231
-0.689232
-0.689233
-0.689234
-0.689237
-0.689241
-0.689247
-0.689255
-0.689266
-0.689279
-0.689293
-0.689307
-0.689316
-0.689319
-0.689315
-0.689311
-0.689307
-0.787685
-0.787691
-0.787694
-0.787701
-0.787707
-0.787711
-0.787713
-0.787712
-0.787711
-0.787711
-0.787714
-0.787721
-0.787724
-0.787722
-0.787715
-0.787707
-0.7877
-0.787694
-0.787689
-0.787685
-0.787682
-0.78768
-0.787678
-0.787677
-0.787677
-0.787677
-0.787677
-0.787678
-0.78768
-0.787682
-0.787684
-0.787687
-0.78769
-0.787694
-0.787698
-0.787702
-0.787706
-0.787711
-0.787715
-0.78772
-0.787724
-0.787727
-0.787731
-0.787733
-0.787735
-0.787736
-0.787737
-0.787736
-0.787735
-0.787733
-0.787729
-0.787725
-0.78772
-0.787715
-0.787708
-0.787701
-0.787692
-0.787684
-0.787675
-0.787665
-0.787656
-0.787647
-0.787639
-0.787628
-0.787618
-0.787621
-0.787626
-0.787633
-0.787641
-0.787648
-0.787656
-0.787663
-0.78767
-0.787676
-0.787681
-0.787686
-0.78769
-0.787694
-0.787697
-0.787699
-0.7877
-0.787702
-0.787702
-0.787703
-0.787704
-0.787704
-0.787705
-0.787708
-0.787711
-0.787716
-0.787723
-0.787732
-0.787743
-0.787756
-0.787768
-0.787777
-0.78778
-0.787778
-0.787774
-0.787769
-0.886136
-0.886142
-0.886146
-0.886153
-0.886159
-0.886164
-0.886166
-0.886167
-0.886168
-0.886171
-0.886178
-0.886187
-0.886192
-0.88619
-0.886183
-0.886174
-0.886166
-0.886161
-0.886156
-0.886153
-0.88615
-0.886148
-0.886147
-0.886146
-0.886146
-0.886146
-0.886147
-0.886148
-0.88615
-0.886153
-0.886155
-0.886159
-0.886162
-0.886167
-0.886171
-0.886176
-0.88618
-0.886185
-0.88619
-0.886194
-0.886198
-0.886202
-0.886205
-0.886207
-0.886209
-0.88621
-0.88621
-0.88621
-0.886209
-0.886206
-0.886203
-0.886199
-0.886195
-0.886189
-0.886183
-0.886176
-0.886168
-0.88616
-0.886151
-0.886142
-0.886133
-0.886124
-0.886116
-0.886106
-0.886093
-0.886094
-0.886099
-0.886105
-0.886113
-0.88612
-0.886127
-0.886134
-0.886141
-0.886147
-0.886152
-0.886157
-0.886161
-0.886165
-0.886168
-0.88617
-0.886172
-0.886173
-0.886174
-0.886175
-0.886176
-0.886176
-0.886177
-0.886179
-0.886181
-0.886185
-0.88619
-0.886197
-0.886206
-0.886216
-0.886226
-0.886234
-0.886238
-0.886236
-0.886232
-0.886225
-0.984588
-0.984594
-0.984598
-0.984605
-0.984611
-0.984615
-0.984619
-0.984621
-0.984623
-0.984628
-0.984637
-0.984648
-0.984655
-0.984653
-0.984646
-0.984638
-0.984631
-0.984627
-0.984623
-0.98462
-0.984617
-0.984616
-0.984615
-0.984614
-0.984614
-0.984615
-0.984617
-0.984618
-0.984621
-0.984624
-0.984627
-0.984631
-0.984635
-0.98464
-0.984645
-0.98465
-0.984655
-0.98466
-0.984665
-0.984669
-0.984674
-0.984677
-0.98468
-0.984682
-0.984684
-0.984685
-0.984685
-0.984684
-0.984683
-0.984681
-0.984678
-0.984674
-0.98467
-0.984665
-0.984659
-0.984652
-0.984645
-0.984637
-0.984628
-0.98462
-0.984611
-0.984603
-0.984595
-0.984583
-0.984569
-0.984569
-0.984573
-0.984579
-0.984586
-0.984593
-0.9846
-0.984606
-0.984613
-0.984619
-0.984624
-0.984629
-0.984633
-0.984637
-0.98464
-0.984642
-0.984644
-0.984645
-0.984646
-0.984647
-0.984648
-0.984648
-0.984649
-0.98465
-0.984651
-0.984653
-0.984657
-0.984661
-0.984667
-0.984674
-0.98468
-0.984687
-0.98469
-0.984687
-0.984683
-0.984673
-1.08304
-1.08305
-1.08305
-1.08306
-1.08306
-1.08307
-1.08307
-1.08307
-1.08308
-1.08308
-1.08309
-1.0831
-1.08311
-1.08311
-1.08311
-1.0831
-1.08309
-1.08309
-1.08309
-1.08309
-1.08308
-1.08308
-1.08308
-1.08308
-1.08308
-1.08308
-1.08309
-1.08309
-1.08309
-1.0831
-1.0831
-1.0831
-1.08311
-1.08311
-1.08312
-1.08313
-1.08313
-1.08314
-1.08314
-1.08315
-1.08315
-1.08315
-1.08316
-1.08316
-1.08316
-1.08316
-1.08316
-1.08316
-1.08316
-1.08316
-1.08315
-1.08315
-1.08315
-1.08314
-1.08314
-1.08313
-1.08312
-1.08311
-1.08311
-1.0831
-1.08309
-1.08308
-1.08308
-1.08306
-1.08305
-1.08304
-1.08305
-1.08305
-1.08306
-1.08307
-1.08307
-1.08308
-1.08309
-1.08309
-1.0831
-1.0831
-1.08311
-1.08311
-1.08311
-1.08311
-1.08312
-1.08312
-1.08312
-1.08312
-1.08312
-1.08312
-1.08312
-1.08312
-1.08312
-1.08312
-1.08312
-1.08313
-1.08313
-1.08313
-1.08313
-1.08313
-1.08313
-1.08313
-1.08312
-1.08311
-1.1815
-1.1815
-1.18151
-1.18151
-1.18152
-1.18152
-1.18152
-1.18153
-1.18153
-1.18154
-1.18154
-1.18155
-1.18156
-1.18156
-1.18156
-1.18156
-1.18156
-1.18155
-1.18155
-1.18155
-1.18155
-1.18155
-1.18155
-1.18155
-1.18155
-1.18155
-1.18156
-1.18156
-1.18156
-1.18157
-1.18157
-1.18158
-1.18158
-1.18159
-1.1816
-1.1816
-1.18161
-1.18161
-1.18162
-1.18162
-1.18163
-1.18163
-1.18163
-1.18163
-1.18164
-1.18164
-1.18164
-1.18164
-1.18163
-1.18163
-1.18163
-1.18163
-1.18162
-1.18162
-1.18161
-1.18161
-1.1816
-1.18159
-1.18159
-1.18158
-1.18157
-1.18156
-1.18156
-1.18154
-1.18152
-1.18152
-1.18152
-1.18153
-1.18153
-1.18154
-1.18155
-1.18155
-1.18156
-1.18156
-1.18157
-1.18157
-1.18158
-1.18158
-1.18158
-1.18159
-1.18159
-1.18159
-1.18159
-1.18159
-1.18159
-1.18159
-1.18159
-1.18159
-1.18159
-1.18159
-1.18159
-1.18159
-1.18159
-1.18159
-1.18158
-1.18158
-1.18157
-1.18156
-1.18155
-1.18154
-1.27996
-1.27996
-1.27996
-1.27997
-1.27997
-1.27998
-1.27998
-1.27998
-1.27998
-1.27999
-1.27999
-1.28
-1.28001
-1.28002
-1.28002
-1.28002
-1.28002
-1.28002
-1.28002
-1.28002
-1.28002
-1.28002
-1.28002
-1.28002
-1.28002
-1.28002
-1.28003
-1.28003
-1.28003
-1.28004
-1.28005
-1.28005
-1.28006
-1.28006
-1.28007
-1.28008
-1.28008
-1.28009
-1.2801
-1.2801
-1.2801
-1.28011
-1.28011
-1.28011
-1.28011
-1.28011
-1.28011
-1.28011
-1.28011
-1.28011
-1.28011
-1.2801
-1.2801
-1.2801
-1.28009
-1.28009
-1.28008
-1.28007
-1.28007
-1.28006
-1.28005
-1.28004
-1.28004
-1.28002
-1.28
-1.28
-1.28
-1.28001
-1.28001
-1.28002
-1.28002
-1.28003
-1.28003
-1.28004
-1.28004
-1.28005
-1.28005
-1.28005
-1.28006
-1.28006
-1.28006
-1.28006
-1.28006
-1.28006
-1.28006
-1.28006
-1.28006
-1.28006
-1.28006
-1.28006
-1.28006
-1.28005
-1.28005
-1.28004
-1.28003
-1.28002
-1.28001
-1.27999
-1.27998
-1.27997
-1.37842
-1.37842
-1.37842
-1.37843
-1.37843
-1.37843
-1.37844
-1.37844
-1.37844
-1.37844
-1.37845
-1.37845
-1.37846
-1.37847
-1.37847
-1.37848
-1.37848
-1.37848
-1.37848
-1.37848
-1.37848
-1.37848
-1.37849
-1.37849
-1.37849
-1.37849
-1.3785
-1.3785
-1.37851
-1.37851
-1.37852
-1.37853
-1.37853
-1.37854
-1.37855
-1.37855
-1.37856
-1.37857
-1.37857
-1.37858
-1.37858
-1.37858
-1.37859
-1.37859
-1.37859
-1.37859
-1.37859
-1.37859
-1.37859
-1.37858
-1.37858
-1.37858
-1.37858
-1.37857
-1.37857
-1.37857
-1.37856
-1.37855
-1.37855
-1.37854
-1.37853
-1.37853
-1.37852
-1.3785
-1.37848
-1.37848
-1.37848
-1.37848
-1.37849
-1.37849
-1.3785
-1.3785
-1.37851
-1.37851
-1.37852
-1.37852
-1.37852
-1.37853
-1.37853
-1.37853
-1.37853
-1.37853
-1.37853
-1.37853
-1.37853
-1.37853
-1.37853
-1.37853
-1.37853
-1.37853
-1.37852
-1.37852
-1.37851
-1.3785
-1.37849
-1.37847
-1.37845
-1.37843
-1.3784
-1.37839
-1.47688
-1.47688
-1.47689
-1.47689
-1.47689
-1.47689
-1.4769
-1.4769
-1.4769
-1.4769
-1.4769
-1.47691
-1.47692
-1.47693
-1.47693
-1.47694
-1.47694
-1.47694
-1.47695
-1.47695
-1.47695
-1.47695
-1.47695
-1.47696
-1.47696
-1.47696
-1.47697
-1.47697
-1.47698
-1.47699
-1.47699
-1.477
-1.47701
-1.47702
-1.47703
-1.47703
-1.47704
-1.47705
-1.47705
-1.47706
-1.47706
-1.47706
-1.47706
-1.47707
-1.47707
-1.47707
-1.47707
-1.47706
-1.47706
-1.47706
-1.47706
-1.47706
-1.47705
-1.47705
-1.47705
-1.47705
-1.47704
-1.47704
-1.47703
-1.47702
-1.47702
-1.47701
-1.47699
-1.47697
-1.47696
-1.47696
-1.47696
-1.47696
-1.47696
-1.47697
-1.47697
-1.47698
-1.47698
-1.47699
-1.47699
-1.47699
-1.477
-1.477
-1.477
-1.477
-1.477
-1.47701
-1.47701
-1.47701
-1.47701
-1.47701
-1.477
-1.477
-1.477
-1.477
-1.47699
-1.47698
-1.47698
-1.47696
-1.47695
-1.47693
-1.47691
-1.47688
-1.47685
-1.47684
-1.57535
-1.57535
-1.57535
-1.57535
-1.57536
-1.57536
-1.57536
-1.57536
-1.57536
-1.57536
-1.57537
-1.57537
-1.57538
-1.57539
-1.57539
-1.5754
-1.5754
-1.57541
-1.57541
-1.57541
-1.57542
-1.57542
-1.57542
-1.57542
-1.57543
-1.57543
-1.57544
-1.57544
-1.57545
-1.57546
-1.57547
-1.57548
-1.57549
-1.57549
-1.5755
-1.57551
-1.57552
-1.57552
-1.57553
-1.57553
-1.57554
-1.57554
-1.57554
-1.57554
-1.57554
-1.57554
-1.57554
-1.57554
-1.57554
-1.57554
-1.57554
-1.57553
-1.57553
-1.57553
-1.57553
-1.57553
-1.57552
-1.57552
-1.57551
-1.57551
-1.5755
-1.57549
-1.57547
-1.57545
-1.57544
-1.57543
-1.57544
-1.57544
-1.57544
-1.57544
-1.57545
-1.57545
-1.57546
-1.57546
-1.57546
-1.57547
-1.57547
-1.57547
-1.57547
-1.57548
-1.57548
-1.57548
-1.57548
-1.57548
-1.57548
-1.57548
-1.57547
-1.57547
-1.57547
-1.57546
-1.57546
-1.57545
-1.57544
-1.57543
-1.57541
-1.5754
-1.57537
-1.57534
-1.57532
-1.57531
-1.67381
-1.67382
-1.67382
-1.67382
-1.67382
-1.67382
-1.67383
-1.67383
-1.67383
-1.67383
-1.67383
-1.67384
-1.67384
-1.67385
-1.67386
-1.67386
-1.67387
-1.67387
-1.67388
-1.67388
-1.67388
-1.67388
-1.67389
-1.67389
-1.6739
-1.6739
-1.67391
-1.67392
-1.67393
-1.67393
-1.67394
-1.67395
-1.67396
-1.67397
-1.67398
-1.67399
-1.674
-1.674
-1.67401
-1.67401
-1.67401
-1.67402
-1.67402
-1.67402
-1.67402
-1.67402
-1.67402
-1.67402
-1.67402
-1.67402
-1.67401
-1.67401
-1.67401
-1.67401
-1.67401
-1.67401
-1.67401
-1.674
-1.674
-1.67399
-1.67398
-1.67397
-1.67395
-1.67393
-1.67392
-1.67391
-1.67391
-1.67392
-1.67392
-1.67392
-1.67392
-1.67393
-1.67393
-1.67393
-1.67394
-1.67394
-1.67394
-1.67394
-1.67395
-1.67395
-1.67395
-1.67395
-1.67395
-1.67395
-1.67395
-1.67395
-1.67394
-1.67394
-1.67394
-1.67393
-1.67393
-1.67392
-1.67391
-1.6739
-1.67388
-1.67386
-1.67384
-1.67382
-1.6738
-1.67379
-1.77228
-1.77228
-1.77229
-1.77229
-1.77229
-1.77229
-1.77229
-1.7723
-1.7723
-1.7723
-1.7723
-1.77231
-1.77231
-1.77232
-1.77232
-1.77233
-1.77233
-1.77234
-1.77234
-1.77235
-1.77235
-1.77235
-1.77236
-1.77236
-1.77237
-1.77237
-1.77238
-1.77239
-1.7724
-1.77241
-1.77242
-1.77243
-1.77244
-1.77245
-1.77246
-1.77247
-1.77247
-1.77248
-1.77248
-1.77249
-1.77249
-1.77249
-1.7725
-1.7725
-1.7725
-1.7725
-1.77249
-1.77249
-1.77249
-1.77249
-1.77249
-1.77249
-1.77249
-1.77249
-1.77249
-1.77249
-1.77249
-1.77249
-1.77248
-1.77247
-1.77246
-1.77245
-1.77243
-1.77241
-1.7724
-1.77239
-1.77239
-1.77239
-1.7724
-1.7724
-1.7724
-1.7724
-1.77241
-1.77241
-1.77241
-1.77241
-1.77242
-1.77242
-1.77242
-1.77242
-1.77242
-1.77242
-1.77242
-1.77242
-1.77242
-1.77242
-1.77241
-1.77241
-1.77241
-1.7724
-1.7724
-1.77239
-1.77238
-1.77237
-1.77235
-1.77234
-1.77232
-1.7723
-1.77228
-1.77227
-1.87075
-1.87075
-1.87076
-1.87076
-1.87076
-1.87076
-1.87076
-1.87077
-1.87077
-1.87077
-1.87077
-1.87078
-1.87078
-1.87078
-1.87079
-1.8708
-1.8708
-1.8708
-1.87081
-1.87081
-1.87081
-1.87082
-1.87082
-1.87083
-1.87083
-1.87084
-1.87085
-1.87086
-1.87087
-1.87088
-1.87089
-1.87091
-1.87092
-1.87093
-1.87093
-1.87094
-1.87095
-1.87095
-1.87096
-1.87096
-1.87097
-1.87097
-1.87097
-1.87097
-1.87097
-1.87097
-1.87097
-1.87097
-1.87097
-1.87097
-1.87097
-1.87096
-1.87097
-1.87097
-1.87097
-1.87097
-1.87097
-1.87097
-1.87096
-1.87095
-1.87094
-1.87092
-1.8709
-1.87089
-1.87088
-1.87087
-1.87087
-1.87087
-1.87087
-1.87087
-1.87088
-1.87088
-1.87088
-1.87088
-1.87089
-1.87089
-1.87089
-1.87089
-1.87089
-1.87089
-1.87089
-1.87089
-1.87089
-1.87089
-1.87089
-1.87089
-1.87088
-1.87088
-1.87088
-1.87087
-1.87087
-1.87086
-1.87085
-1.87084
-1.87082
-1.87081
-1.87079
-1.87077
-1.87076
-1.87076
-1.96922
-1.96922
-1.96923
-1.96923
-1.96923
-1.96923
-1.96923
-1.96924
-1.96924
-1.96924
-1.96924
-1.96925
-1.96925
-1.96925
-1.96926
-1.96926
-1.96927
-1.96927
-1.96927
-1.96928
-1.96928
-1.96929
-1.96929
-1.9693
-1.9693
-1.96931
-1.96932
-1.96933
-1.96935
-1.96936
-1.96937
-1.96938
-1.96939
-1.9694
-1.96941
-1.96942
-1.96942
-1.96943
-1.96943
-1.96944
-1.96944
-1.96944
-1.96944
-1.96944
-1.96944
-1.96944
-1.96944
-1.96944
-1.96944
-1.96944
-1.96944
-1.96944
-1.96944
-1.96944
-1.96945
-1.96945
-1.96945
-1.96944
-1.96944
-1.96942
-1.96941
-1.96939
-1.96938
-1.96936
-1.96935
-1.96935
-1.96935
-1.96935
-1.96935
-1.96935
-1.96935
-1.96935
-1.96936
-1.96936
-1.96936
-1.96936
-1.96936
-1.96936
-1.96936
-1.96936
-1.96936
-1.96936
-1.96936
-1.96936
-1.96936
-1.96936
-1.96935
-1.96935
-1.96934
-1.96934
-1.96933
-1.96933
-1.96932
-1.96931
-1.9693
-1.96928
-1.96927
-1.96925
-1.96924
-1.96924
-2.06769
-2.06769
-2.0677
-2.0677
-2.0677
-2.0677
-2.06771
-2.06771
-2.06771
-2.06771
-2.06771
-2.06772
-2.06772
-2.06772
-2.06773
-2.06773
-2.06773
-2.06774
-2.06774
-2.06775
-2.06775
-2.06775
-2.06776
-2.06777
-2.06777
-2.06778
-2.0678
-2.06781
-2.06782
-2.06783
-2.06784
-2.06786
-2.06787
-2.06788
-2.06788
-2.06789
-2.0679
-2.0679
-2.06791
-2.06791
-2.06791
-2.06792
-2.06792
-2.06792
-2.06792
-2.06792
-2.06792
-2.06791
-2.06791
-2.06791
-2.06791
-2.06791
-2.06792
-2.06792
-2.06792
-2.06792
-2.06792
-2.06792
-2.06791
-2.0679
-2.06788
-2.06786
-2.06785
-2.06784
-2.06783
-2.06783
-2.06782
-2.06782
-2.06782
-2.06783
-2.06783
-2.06783
-2.06783
-2.06783
-2.06783
-2.06783
-2.06783
-2.06783
-2.06783
-2.06783
-2.06783
-2.06783
-2.06783
-2.06783
-2.06783
-2.06782
-2.06782
-2.06782
-2.06781
-2.06781
-2.0678
-2.0678
-2.06779
-2.06778
-2.06777
-2.06776
-2.06774
-2.06773
-2.06772
-2.06772
-2.16616
-2.16617
-2.16617
-2.16617
-2.16617
-2.16617
-2.16618
-2.16618
-2.16618
-2.16618
-2.16618
-2.16619
-2.16619
-2.16619
-2.1662
-2.1662
-2.1662
-2.16621
-2.16621
-2.16621
-2.16622
-2.16622
-2.16623
-2.16623
-2.16624
-2.16626
-2.16627
-2.16628
-2.16629
-2.16631
-2.16632
-2.16633
-2.16634
-2.16635
-2.16636
-2.16636
-2.16637
-2.16637
-2.16638
-2.16638
-2.16638
-2.16639
-2.16639
-2.16639
-2.16639
-2.16639
-2.16639
-2.16639
-2.16638
-2.16638
-2.16638
-2.16639
-2.16639
-2.16639
-2.1664
-2.1664
-2.16639
-2.16638
-2.16637
-2.16636
-2.16635
-2.16633
-2.16632
-2.16631
-2.1663
-2.1663
-2.1663
-2.1663
-2.1663
-2.1663
-2.1663
-2.1663
-2.1663
-2.16631
-2.16631
-2.16631
-2.16631
-2.16631
-2.16631
-2.16631
-2.16631
-2.1663
-2.1663
-2.1663
-2.1663
-2.16629
-2.16629
-2.16629
-2.16628
-2.16628
-2.16627
-2.16626
-2.16626
-2.16625
-2.16624
-2.16623
-2.16622
-2.16621
-2.1662
-2.1662
-2.26464
-2.26464
-2.26464
-2.26464
-2.26464
-2.26464
-2.26465
-2.26465
-2.26465
-2.26465
-2.26466
-2.26466
-2.26466
-2.26466
-2.26467
-2.26467
-2.26467
-2.26467
-2.26468
-2.26468
-2.26468
-2.26469
-2.2647
-2.2647
-2.26471
-2.26473
-2.26474
-2.26475
-2.26477
-2.26478
-2.26479
-2.2648
-2.26481
-2.26482
-2.26483
-2.26483
-2.26484
-2.26485
-2.26485
-2.26485
-2.26486
-2.26486
-2.26486
-2.26486
-2.26486
-2.26486
-2.26486
-2.26486
-2.26485
-2.26485
-2.26485
-2.26486
-2.26486
-2.26486
-2.26486
-2.26486
-2.26486
-2.26485
-2.26484
-2.26483
-2.26481
-2.2648
-2.26479
-2.26478
-2.26478
-2.26478
-2.26477
-2.26477
-2.26477
-2.26478
-2.26478
-2.26478
-2.26478
-2.26478
-2.26478
-2.26478
-2.26478
-2.26478
-2.26478
-2.26478
-2.26478
-2.26478
-2.26477
-2.26477
-2.26477
-2.26476
-2.26476
-2.26476
-2.26475
-2.26475
-2.26474
-2.26473
-2.26473
-2.26472
-2.26471
-2.2647
-2.26469
-2.26468
-2.26468
-2.26467
-2.36311
-2.36311
-2.36311
-2.36311
-2.36311
-2.36312
-2.36312
-2.36312
-2.36312
-2.36312
-2.36313
-2.36313
-2.36313
-2.36313
-2.36314
-2.36314
-2.36314
-2.36314
-2.36315
-2.36315
-2.36315
-2.36316
-2.36316
-2.36317
-2.36319
-2.3632
-2.36321
-2.36322
-2.36324
-2.36325
-2.36326
-2.36327
-2.36328
-2.36329
-2.3633
-2.3633
-2.36331
-2.36332
-2.36332
-2.36332
-2.36332
-2.36333
-2.36333
-2.36333
-2.36333
-2.36333
-2.36332
-2.36332
-2.36332
-2.36332
-2.36332
-2.36333
-2.36333
-2.36333
-2.36333
-2.36332
-2.36332
-2.36331
-2.3633
-2.36329
-2.36328
-2.36327
-2.36326
-2.36325
-2.36325
-2.36325
-2.36325
-2.36325
-2.36325
-2.36325
-2.36325
-2.36325
-2.36325
-2.36325
-2.36325
-2.36325
-2.36325
-2.36325
-2.36325
-2.36325
-2.36325
-2.36325
-2.36324
-2.36324
-2.36324
-2.36323
-2.36323
-2.36322
-2.36322
-2.36321
-2.36321
-2.3632
-2.36319
-2.36319
-2.36318
-2.36317
-2.36316
-2.36316
-2.36315
-2.36315
-2.46158
-2.46158
-2.46158
-2.46158
-2.46158
-2.46159
-2.46159
-2.46159
-2.46159
-2.4616
-2.4616
-2.4616
-2.4616
-2.4616
-2.46161
-2.46161
-2.46161
-2.46161
-2.46162
-2.46162
-2.46162
-2.46163
-2.46163
-2.46164
-2.46166
-2.46167
-2.46168
-2.4617
-2.46171
-2.46172
-2.46173
-2.46174
-2.46175
-2.46176
-2.46177
-2.46177
-2.46178
-2.46178
-2.46179
-2.46179
-2.46179
-2.46179
-2.4618
-2.46179
-2.46179
-2.46179
-2.46179
-2.46179
-2.46179
-2.46179
-2.46179
-2.46179
-2.46179
-2.46179
-2.46179
-2.46178
-2.46178
-2.46177
-2.46176
-2.46175
-2.46174
-2.46173
-2.46172
-2.46172
-2.46172
-2.46172
-2.46172
-2.46172
-2.46172
-2.46172
-2.46172
-2.46172
-2.46173
-2.46173
-2.46173
-2.46173
-2.46173
-2.46173
-2.46172
-2.46172
-2.46172
-2.46172
-2.46171
-2.46171
-2.46171
-2.4617
-2.4617
-2.46169
-2.46169
-2.46168
-2.46167
-2.46167
-2.46166
-2.46165
-2.46165
-2.46164
-2.46163
-2.46163
-2.46162
-2.46162
-2.56005
-2.56005
-2.56005
-2.56005
-2.56005
-2.56006
-2.56006
-2.56006
-2.56006
-2.56007
-2.56007
-2.56007
-2.56007
-2.56008
-2.56008
-2.56008
-2.56008
-2.56008
-2.56008
-2.56009
-2.56009
-2.5601
-2.5601
-2.56011
-2.56012
-2.56014
-2.56015
-2.56016
-2.56018
-2.56019
-2.5602
-2.56021
-2.56022
-2.56023
-2.56023
-2.56024
-2.56025
-2.56025
-2.56026
-2.56026
-2.56026
-2.56026
-2.56026
-2.56026
-2.56026
-2.56026
-2.56026
-2.56026
-2.56025
-2.56025
-2.56025
-2.56026
-2.56025
-2.56025
-2.56025
-2.56024
-2.56023
-2.56022
-2.56021
-2.56021
-2.5602
-2.56019
-2.56019
-2.56019
-2.56019
-2.56019
-2.56019
-2.56019
-2.56019
-2.56019
-2.5602
-2.5602
-2.5602
-2.5602
-2.5602
-2.5602
-2.5602
-2.5602
-2.5602
-2.5602
-2.56019
-2.56019
-2.56019
-2.56018
-2.56018
-2.56017
-2.56017
-2.56016
-2.56015
-2.56015
-2.56014
-2.56013
-2.56013
-2.56012
-2.56011
-2.56011
-2.5601
-2.5601
-2.56009
-2.56009
-2.65852
-2.65852
-2.65852
-2.65852
-2.65852
-2.65853
-2.65853
-2.65853
-2.65854
-2.65854
-2.65854
-2.65854
-2.65855
-2.65855
-2.65855
-2.65855
-2.65855
-2.65855
-2.65855
-2.65856
-2.65856
-2.65856
-2.65857
-2.65858
-2.65859
-2.65861
-2.65862
-2.65863
-2.65864
-2.65865
-2.65866
-2.65868
-2.65868
-2.65869
-2.6587
-2.65871
-2.65872
-2.65872
-2.65873
-2.65873
-2.65873
-2.65873
-2.65873
-2.65873
-2.65873
-2.65872
-2.65872
-2.65872
-2.65872
-2.65872
-2.65872
-2.65872
-2.65871
-2.65871
-2.6587
-2.65869
-2.65869
-2.65868
-2.65867
-2.65866
-2.65866
-2.65865
-2.65865
-2.65865
-2.65866
-2.65866
-2.65866
-2.65866
-2.65866
-2.65867
-2.65867
-2.65867
-2.65867
-2.65867
-2.65867
-2.65867
-2.65867
-2.65867
-2.65867
-2.65867
-2.65866
-2.65866
-2.65866
-2.65865
-2.65865
-2.65864
-2.65863
-2.65863
-2.65862
-2.65861
-2.65861
-2.6586
-2.65859
-2.65859
-2.65858
-2.65857
-2.65857
-2.65856
-2.65856
-2.65856
-2.75699
-2.75699
-2.75699
-2.75699
-2.75699
-2.757
-2.757
-2.757
-2.75701
-2.75701
-2.75701
-2.75702
-2.75702
-2.75702
-2.75702
-2.75702
-2.75702
-2.75702
-2.75702
-2.75702
-2.75703
-2.75703
-2.75704
-2.75705
-2.75706
-2.75707
-2.75708
-2.7571
-2.75711
-2.75712
-2.75713
-2.75714
-2.75715
-2.75716
-2.75717
-2.75718
-2.75718
-2.75719
-2.75719
-2.7572
-2.7572
-2.7572
-2.7572
-2.75719
-2.75719
-2.75719
-2.75719
-2.75718
-2.75718
-2.75718
-2.75718
-2.75717
-2.75717
-2.75716
-2.75715
-2.75715
-2.75714
-2.75713
-2.75712
-2.75712
-2.75712
-2.75711
-2.75712
-2.75712
-2.75712
-2.75712
-2.75713
-2.75713
-2.75713
-2.75713
-2.75714
-2.75714
-2.75714
-2.75714
-2.75714
-2.75714
-2.75714
-2.75714
-2.75714
-2.75714
-2.75713
-2.75713
-2.75713
-2.75712
-2.75711
-2.75711
-2.7571
-2.7571
-2.75709
-2.75708
-2.75707
-2.75707
-2.75706
-2.75705
-2.75704
-2.75704
-2.75703
-2.75703
-2.75702
-2.75702
-2.85546
-2.85546
-2.85546
-2.85546
-2.85547
-2.85547
-2.85547
-2.85547
-2.85548
-2.85548
-2.85548
-2.85549
-2.85549
-2.85549
-2.85549
-2.85549
-2.85549
-2.85549
-2.85549
-2.85549
-2.85549
-2.8555
-2.8555
-2.85551
-2.85553
-2.85554
-2.85555
-2.85556
-2.85557
-2.85558
-2.85559
-2.8556
-2.85561
-2.85562
-2.85563
-2.85564
-2.85565
-2.85565
-2.85566
-2.85566
-2.85566
-2.85566
-2.85566
-2.85566
-2.85566
-2.85565
-2.85565
-2.85564
-2.85564
-2.85564
-2.85563
-2.85563
-2.85562
-2.85561
-2.85561
-2.8556
-2.85559
-2.85558
-2.85558
-2.85557
-2.85557
-2.85557
-2.85558
-2.85558
-2.85559
-2.85559
-2.85559
-2.8556
-2.8556
-2.8556
-2.85561
-2.85561
-2.85561
-2.85561
-2.85562
-2.85562
-2.85562
-2.85561
-2.85561
-2.85561
-2.8556
-2.8556
-2.85559
-2.85559
-2.85558
-2.85558
-2.85557
-2.85556
-2.85555
-2.85555
-2.85554
-2.85553
-2.85552
-2.85551
-2.85551
-2.8555
-2.8555
-2.85549
-2.85549
-2.85549
-2.95393
-2.95393
-2.95393
-2.95393
-2.95393
-2.95394
-2.95394
-2.95395
-2.95395
-2.95395
-2.95396
-2.95396
-2.95396
-2.95396
-2.95396
-2.95396
-2.95396
-2.95396
-2.95396
-2.95396
-2.95396
-2.95396
-2.95397
-2.95398
-2.95399
-2.954
-2.95401
-2.95402
-2.95403
-2.95404
-2.95406
-2.95407
-2.95408
-2.95409
-2.9541
-2.95411
-2.95411
-2.95412
-2.95413
-2.95413
-2.95413
-2.95413
-2.95413
-2.95412
-2.95412
-2.95411
-2.95411
-2.9541
-2.9541
-2.9541
-2.95409
-2.95408
-2.95407
-2.95407
-2.95406
-2.95405
-2.95404
-2.95403
-2.95403
-2.95403
-2.95403
-2.95403
-2.95404
-2.95404
-2.95405
-2.95405
-2.95406
-2.95406
-2.95407
-2.95407
-2.95407
-2.95408
-2.95408
-2.95408
-2.95409
-2.95409
-2.95409
-2.95408
-2.95408
-2.95408
-2.95407
-2.95407
-2.95406
-2.95406
-2.95405
-2.95404
-2.95404
-2.95403
-2.95402
-2.95401
-2.954
-2.95399
-2.95398
-2.95398
-2.95397
-2.95396
-2.95396
-2.95395
-2.95395
-2.95395
-3.0524
-3.0524
-3.0524
-3.0524
-3.0524
-3.05241
-3.05241
-3.05242
-3.05242
-3.05242
-3.05243
-3.05243
-3.05243
-3.05243
-3.05243
-3.05243
-3.05243
-3.05243
-3.05243
-3.05242