/*--------------------------------*- C++ -*----------------------------------*\
| =========                 |                                                 |
| \\      /  F ield         | OpenFOAM: The Open Source CFD Toolbox           |
|  \\    /   O peration     | Version:  4.1                                   |
|   \\  /    A nd           | Web:      www.OpenFOAM.org                      |
|    \\/     M anipulation  |                                                 |
\*---------------------------------------------------------------------------*/
FoamFile
{
    version     2.0;
    format      ascii;
    class       volScalarField;
    location    "960";
    object      p_rgh;
}
// * * * * * * * * * * * * * * * * * * * * * * * * * * * * * * * * * * * * * //

dimensions      [0 2 -2 0 0 0 0];

internalField   nonuniform List<scalar> 
5000
(
0.0492132
0.0492278
0.0492357
0.0492298
0.04922
0.0492058
0.0491902
0.0491796
0.0491773
0.0491826
0.0491921
0.0491992
0.0492065
0.0492136
0.0492177
0.0492178
0.0492158
0.0492135
0.0492137
0.0492177
0.0492246
0.0492329
0.0492404
0.0492462
0.0492505
0.0492539
0.0492569
0.0492598
0.0492628
0.0492661
0.0492698
0.0492739
0.0492744
0.0492731
0.0492706
0.0492674
0.0492636
0.0492592
0.0492544
0.0492493
0.049244
0.0492387
0.0492334
0.0492284
0.0492238
0.0492197
0.0492161
0.0492132
0.049211
0.0492097
0.0492092
0.0492095
0.0492107
0.0492125
0.049215
0.049218
0.0492215
0.0492254
0.0492298
0.0492346
0.0492396
0.0492449
0.0492528
0.0492648
0.0492686
0.0492682
0.0492673
0.0492639
0.0492582
0.0492526
0.0492477
0.0492436
0.0492401
0.0492375
0.0492356
0.0492344
0.049234
0.0492343
0.0492353
0.0492369
0.0492388
0.0492412
0.0492439
0.0492466
0.049249
0.0492509
0.0492516
0.0492507
0.0492476
0.0492428
0.0492355
0.049225
0.0492118
0.0491973
0.0491837
0.0491733
0.0491675
0.0491662
0.0491691
0.0491769
0.0492064
0.0492484
0.0492515
0.0492509
0.049249
0.0492468
0.0492428
0.0492263
0.0492149
0.0492069
0.0492024
0.0492218
0.0492474
0.0492624
0.0492677
0.0492715
0.0492755
0.0492795
0.0492828
0.049286
0.0492902
0.049293
0.0492952
0.0492974
0.0492995
0.0493012
0.0493027
0.0493037
0.0493044
0.0493046
0.0493044
0.0493038
0.0493034
0.0493022
0.0493001
0.0492971
0.0492936
0.0492896
0.0492854
0.0492809
0.0492765
0.0492722
0.0492682
0.0492647
0.0492618
0.0492597
0.0492585
0.0492583
0.0492591
0.0492605
0.0492624
0.0492647
0.0492675
0.0492708
0.0492744
0.0492784
0.0492828
0.0492876
0.0492932
0.0492997
0.049305
0.0492991
0.049273
0.0492618
0.0492962
0.0493165
0.049324
0.0493204
0.0493141
0.0493066
0.0492997
0.0492941
0.0492896
0.049286
0.049283
0.0492803
0.049278
0.0492759
0.0492742
0.0492732
0.0492729
0.049273
0.0492736
0.0492743
0.0492749
0.049275
0.0492741
0.0492716
0.0492669
0.0492601
0.0492513
0.0492403
0.0492272
0.0492136
0.0492019
0.0491948
0.0491909
0.0491883
0.0491828
0.0491727
0.0491881
0.0492461
0.0492494
0.0492482
0.0492462
0.0492449
0.049247
0.0492456
0.049237
0.0492132
0.049195
0.0492212
0.0492515
0.0492645
0.0492692
0.0492731
0.0492774
0.0492818
0.0492859
0.0492892
0.0492919
0.0492942
0.0492963
0.0492983
0.0493001
0.0493016
0.0493028
0.0493035
0.0493038
0.0493036
0.0493031
0.0493023
0.0493013
0.0492998
0.0492975
0.0492945
0.049291
0.0492871
0.0492828
0.0492784
0.049274
0.0492698
0.049266
0.0492626
0.0492599
0.0492579
0.0492569
0.0492568
0.0492579
0.04926
0.0492633
0.0492675
0.0492727
0.0492787
0.0492853
0.0492923
0.0492998
0.0493075
0.0493156
0.049324
0.0493306
0.0493239
0.0492776
0.0492333
0.049288
0.0493205
0.0493285
0.0493252
0.0493191
0.0493126
0.0493062
0.0493003
0.0492948
0.0492897
0.0492851
0.0492811
0.0492778
0.0492751
0.0492732
0.049272
0.0492714
0.0492713
0.0492716
0.0492721
0.0492723
0.049272
0.0492708
0.0492679
0.0492629
0.0492553
0.0492456
0.0492338
0.04922
0.0492057
0.0491934
0.0491865
0.0491851
0.0491866
0.0491798
0.049151
0.0491695
0.0492439
0.0492471
0.0492437
0.0492392
0.0492362
0.0492375
0.0492412
0.0492348
0.0492021
0.0491812
0.0492134
0.0492486
0.0492624
0.0492676
0.0492719
0.0492765
0.049281
0.049285
0.0492885
0.0492914
0.0492939
0.0492961
0.0492979
0.0492995
0.0493007
0.0493015
0.0493018
0.0493017
0.0493012
0.0493004
0.0492992
0.0492978
0.0492959
0.0492934
0.0492903
0.0492867
0.0492827
0.0492784
0.049274
0.0492697
0.0492656
0.0492618
0.0492586
0.049256
0.0492541
0.0492532
0.0492532
0.0492544
0.0492566
0.04926
0.0492646
0.0492702
0.0492768
0.0492843
0.0492925
0.0493013
0.0493106
0.0493201
0.0493296
0.0493374
0.0493322
0.0492759
0.0491987
0.0492613
0.0493153
0.0493283
0.0493261
0.0493198
0.0493129
0.0493062
0.0492998
0.0492938
0.0492884
0.0492835
0.0492792
0.0492757
0.0492729
0.0492708
0.0492693
0.0492685
0.0492681
0.0492681
0.0492682
0.0492682
0.0492675
0.0492658
0.0492626
0.0492572
0.0492492
0.0492385
0.0492254
0.0492104
0.0491946
0.0491809
0.0491734
0.0491731
0.0491769
0.04917
0.0491241
0.049152
0.0492433
0.0492452
0.0492381
0.0492288
0.0492215
0.0492202
0.0492225
0.0492137
0.0491832
0.0491677
0.049204
0.0492423
0.0492576
0.0492642
0.0492699
0.0492753
0.0492801
0.0492843
0.0492879
0.0492909
0.0492935
0.0492955
0.0492972
0.0492984
0.0492992
0.0492995
0.0492993
0.0492988
0.049298
0.0492967
0.0492952
0.0492933
0.049291
0.0492882
0.0492849
0.0492811
0.049277
0.0492728
0.0492684
0.0492641
0.0492601
0.0492564
0.0492533
0.0492508
0.0492491
0.0492483
0.0492485
0.0492497
0.049252
0.0492555
0.0492601
0.0492658
0.0492725
0.0492802
0.0492888
0.049298
0.0493078
0.0493179
0.0493279
0.0493362
0.0493327
0.0492731
0.0491677
0.0492273
0.0493053
0.0493255
0.0493252
0.0493192
0.0493121
0.049305
0.0492982
0.049292
0.0492862
0.0492811
0.0492766
0.0492729
0.0492698
0.0492674
0.0492657
0.0492645
0.0492639
0.0492635
0.0492632
0.0492628
0.0492618
0.0492598
0.0492561
0.0492504
0.049242
0.0492306
0.0492163
0.0491997
0.0491821
0.0491661
0.0491573
0.0491582
0.0491645
0.0491586
0.0490984
0.0491365
0.049245
0.0492449
0.0492321
0.0492159
0.0492024
0.0491941
0.0491959
0.0491879
0.0491633
0.0491557
0.0491938
0.049233
0.04925
0.049259
0.049267
0.0492738
0.0492791
0.0492836
0.0492873
0.0492904
0.0492929
0.0492948
0.0492961
0.0492968
0.0492971
0.0492968
0.0492961
0.0492952
0.0492939
0.0492922
0.0492902
0.0492879
0.0492852
0.049282
0.0492784
0.0492745
0.0492703
0.0492659
0.0492615
0.0492573
0.0492533
0.0492498
0.0492468
0.0492445
0.0492429
0.0492423
0.0492425
0.0492439
0.0492462
0.0492497
0.0492544
0.0492601
0.0492669
0.0492746
0.0492832
0.0492925
0.0493024
0.0493127
0.0493228
0.0493314
0.0493291
0.0492693
0.0491406
0.0491911
0.0492918
0.0493202
0.0493226
0.0493173
0.0493102
0.0493029
0.0492959
0.0492894
0.0492834
0.049278
0.0492733
0.0492692
0.0492658
0.0492631
0.049261
0.0492595
0.0492585
0.0492577
0.0492571
0.0492563
0.049255
0.0492527
0.0492488
0.0492429
0.0492342
0.0492223
0.0492071
0.0491892
0.0491698
0.0491514
0.04914
0.0491424
0.0491522
0.0491481
0.0490755
0.0491243
0.0492499
0.0492471
0.0492269
0.0492024
0.0491809
0.0491718
0.049172
0.0491645
0.049146
0.0491447
0.0491823
0.0492206
0.0492397
0.0492523
0.0492638
0.0492724
0.0492783
0.0492831
0.0492869
0.04929
0.0492923
0.0492938
0.0492946
0.0492948
0.0492943
0.0492935
0.0492924
0.0492909
0.049289
0.0492869
0.0492844
0.0492816
0.0492784
0.0492749
0.049271
0.0492668
0.0492624
0.0492579
0.0492535
0.0492493
0.0492454
0.049242
0.0492392
0.049237
0.0492356
0.0492351
0.0492355
0.0492369
0.0492394
0.0492429
0.0492476
0.0492533
0.04926
0.0492677
0.0492763
0.0492856
0.0492955
0.0493058
0.0493159
0.0493244
0.0493228
0.0492636
0.0491152
0.0491544
0.0492756
0.0493129
0.0493184
0.0493141
0.0493072
0.0492999
0.0492927
0.049286
0.0492797
0.0492741
0.049269
0.0492647
0.0492609
0.0492579
0.0492554
0.0492535
0.049252
0.0492509
0.0492499
0.0492488
0.0492472
0.0492447
0.0492409
0.049235
0.0492264
0.0492145
0.0491989
0.0491799
0.0491589
0.049139
0.0491242
0.0491278
0.0491419
0.04914
0.0490557
0.049117
0.0492584
0.0492508
0.0492243
0.0491926
0.0491664
0.0491553
0.0491526
0.0491453
0.0491316
0.0491341
0.049169
0.0492053
0.0492268
0.0492445
0.0492611
0.0492716
0.049278
0.049283
0.0492869
0.0492897
0.0492916
0.0492926
0.0492928
0.0492922
0.0492912
0.0492898
0.0492881
0.049286
0.0492836
0.0492809
0.0492779
0.0492745
0.0492709
0.0492669
0.0492626
0.0492581
0.0492535
0.0492489
0.0492444
0.0492402
0.0492364
0.0492331
0.0492304
0.0492285
0.0492272
0.0492269
0.0492274
0.0492289
0.0492315
0.049235
0.0492397
0.0492454
0.0492521
0.0492598
0.0492683
0.0492776
0.0492875
0.0492976
0.0493076
0.0493159
0.0493145
0.0492556
0.0490897
0.0491183
0.0492577
0.0493039
0.0493128
0.0493095
0.0493031
0.0492959
0.0492886
0.0492817
0.0492752
0.0492693
0.0492639
0.0492592
0.0492551
0.0492516
0.0492487
0.0492464
0.0492445
0.049243
0.0492416
0.0492403
0.0492385
0.0492361
0.0492325
0.049227
0.0492189
0.0492076
0.0491924
0.0491733
0.0491513
0.0491294
0.0491131
0.0491131
0.0491353
0.0491353
0.0490393
0.0491148
0.0492702
0.0492575
0.0492257
0.0491889
0.049159
0.0491435
0.049137
0.0491296
0.0491194
0.0491234
0.0491539
0.0491875
0.049212
0.049237
0.0492603
0.0492717
0.0492785
0.0492835
0.0492873
0.0492898
0.0492911
0.0492913
0.0492906
0.0492894
0.0492877
0.0492857
0.0492833
0.0492806
0.0492776
0.0492743
0.0492706
0.0492667
0.0492625
0.049258
0.0492532
0.0492484
0.0492435
0.0492387
0.0492342
0.04923
0.0492263
0.0492231
0.0492206
0.0492188
0.0492178
0.0492176
0.0492183
0.04922
0.0492226
0.0492262
0.0492309
0.0492365
0.0492432
0.0492509
0.0492593
0.0492686
0.0492783
0.0492884
0.0492982
0.0493061
0.0493042
0.0492449
0.0490622
0.049084
0.0492389
0.0492937
0.0493058
0.0493038
0.0492978
0.0492908
0.0492835
0.0492765
0.0492698
0.0492636
0.049258
0.0492529
0.0492484
0.0492445
0.0492412
0.0492384
0.0492361
0.0492342
0.0492325
0.0492309
0.0492291
0.0492268
0.0492236
0.0492189
0.049212
0.049202
0.0491882
0.0491701
0.0491483
0.0491252
0.0491069
0.0491046
0.049129
0.0491342
0.0490262
0.0491171
0.0492838
0.0492671
0.0492317
0.0491911
0.0491572
0.0491357
0.0491246
0.0491165
0.0491087
0.0491127
0.0491379
0.0491683
0.0491969
0.0492323
0.0492623
0.0492735
0.0492802
0.049285
0.0492884
0.0492902
0.0492905
0.0492898
0.0492882
0.0492862
0.0492838
0.0492811
0.049278
0.0492747
0.049271
0.049267
0.0492627
0.0492581
0.0492532
0.0492481
0.0492429
0.0492376
0.0492324
0.0492275
0.0492228
0.0492186
0.049215
0.049212
0.0492097
0.0492081
0.0492073
0.0492074
0.0492083
0.04921
0.0492127
0.0492164
0.0492211
0.0492267
0.0492334
0.049241
0.0492494
0.0492586
0.0492683
0.0492782
0.0492876
0.0492948
0.0492919
0.0492311
0.049031
0.0490518
0.0492199
0.0492825
0.0492977
0.0492969
0.0492915
0.0492847
0.0492774
0.0492703
0.0492635
0.0492571
0.0492511
0.0492458
0.0492409
0.0492366
0.0492329
0.0492296
0.0492269
0.0492245
0.0492225
0.0492207
0.0492189
0.0492169
0.0492143
0.0492107
0.0492053
0.0491975
0.0491862
0.0491706
0.0491504
0.0491269
0.0491053
0.0490972
0.0491192
0.0491297
0.0490181
0.0491229
0.049298
0.0492791
0.0492423
0.0491997
0.0491608
0.0491327
0.0491163
0.0491064
0.0490997
0.0491029
0.049123
0.0491507
0.0491852
0.0492356
0.0492675
0.0492773
0.0492835
0.0492877
0.0492901
0.0492908
0.0492898
0.0492879
0.0492855
0.0492827
0.0492795
0.049276
0.0492723
0.0492682
0.0492638
0.049259
0.049254
0.0492486
0.049243
0.0492373
0.0492315
0.0492258
0.0492202
0.049215
0.0492103
0.0492061
0.0492026
0.0491997
0.0491976
0.0491963
0.0491958
0.0491961
0.0491972
0.0491991
0.049202
0.0492057
0.0492104
0.0492161
0.0492227
0.0492303
0.0492387
0.0492477
0.0492573
0.0492669
0.0492757
0.0492819
0.0492774
0.0492124
0.0489939
0.0490236
0.0492015
0.0492708
0.0492886
0.049289
0.0492842
0.0492776
0.0492705
0.0492633
0.0492564
0.0492498
0.0492436
0.049238
0.0492328
0.0492281
0.0492239
0.0492203
0.049217
0.0492143
0.0492119
0.0492098
0.049208
0.0492062
0.0492043
0.0492019
0.0491986
0.0491936
0.0491859
0.0491743
0.0491577
0.0491357
0.0491108
0.0490927
0.0491026
0.0491168
0.0490176
0.0491308
0.0493113
0.0492926
0.0492567
0.0492138
0.0491708
0.0491366
0.0491142
0.0491011
0.0490943
0.0490964
0.0491125
0.0491392
0.0491824
0.0492503
0.0492756
0.0492834
0.0492883
0.0492913
0.0492924
0.0492914
0.0492889
0.0492858
0.0492824
0.0492786
0.0492747
0.0492704
0.0492659
0.0492611
0.0492559
0.0492503
0.0492444
0.0492382
0.0492318
0.0492253
0.0492189
0.0492127
0.0492068
0.0492014
0.0491965
0.0491924
0.049189
0.0491864
0.0491846
0.0491836
0.0491834
0.049184
0.0491853
0.0491874
0.0491903
0.0491941
0.0491989
0.0492046
0.0492112
0.0492188
0.0492271
0.0492361
0.0492454
0.0492545
0.0492624
0.0492672
0.0492604
0.0491791
0.0489559
0.049
0.0491843
0.0492587
0.0492788
0.0492802
0.049276
0.0492697
0.0492628
0.0492556
0.0492486
0.0492419
0.0492356
0.0492297
0.0492242
0.0492192
0.0492146
0.0492105
0.0492068
0.0492036
0.0492008
0.0491985
0.0491965
0.0491949
0.0491936
0.0491924
0.0491911
0.0491892
0.0491858
0.0491798
0.0491694
0.0491527
0.0491287
0.0491013
0.0490848
0.049097
0.0490258
0.0491396
0.0493233
0.0493067
0.0492741
0.049232
0.0491876
0.0491491
0.0491214
0.0491044
0.0490962
0.0490977
0.0491123
0.0491416
0.0491981
0.0492709
0.049286
0.0492914
0.0492946
0.0492958
0.0492948
0.0492917
0.0492876
0.0492831
0.0492786
0.049274
0.0492692
0.0492642
0.0492589
0.0492533
0.0492472
0.0492406
0.0492337
0.0492266
0.0492193
0.049212
0.049205
0.0491982
0.049192
0.0491864
0.0491816
0.0491775
0.0491743
0.049172
0.0491705
0.0491699
0.04917
0.049171
0.0491726
0.0491749
0.0491779
0.0491818
0.0491866
0.0491924
0.049199
0.0492066
0.0492148
0.0492236
0.0492325
0.0492408
0.0492473
0.0492501
0.0492398
0.0491295
0.0489202
0.0489813
0.0491685
0.0492464
0.0492683
0.0492707
0.0492671
0.0492612
0.0492544
0.0492474
0.0492404
0.0492336
0.0492272
0.0492211
0.0492154
0.0492101
0.0492051
0.0492006
0.0491965
0.0491928
0.0491895
0.0491868
0.0491846
0.049183
0.0491821
0.0491819
0.0491823
0.0491833
0.0491843
0.0491846
0.0491825
0.0491756
0.0491603
0.049134
0.0490995
0.049079
0.0490419
0.0491477
0.0493332
0.0493199
0.0492912
0.0492531
0.0492108
0.0491715
0.0491406
0.0491206
0.0491114
0.0491134
0.0491298
0.0491662
0.0492401
0.0492899
0.0492981
0.0493007
0.0493016
0.0493003
0.0492968
0.0492913
0.0492854
0.0492796
0.049274
0.0492685
0.049263
0.0492573
0.0492512
0.0492447
0.0492375
0.0492299
0.0492219
0.0492137
0.0492055
0.0491974
0.0491896
0.0491824
0.0491759
0.0491702
0.0491654
0.0491615
0.0491586
0.0491567
0.0491556
0.0491554
0.049156
0.0491573
0.0491592
0.0491617
0.0491649
0.049169
0.0491738
0.0491796
0.0491863
0.0491938
0.049202
0.0492104
0.0492185
0.0492254
0.04923
0.04923
0.0492093
0.0490692
0.0488879
0.0489675
0.0491543
0.0492342
0.0492573
0.0492607
0.0492576
0.0492521
0.0492456
0.0492387
0.0492319
0.0492252
0.0492187
0.0492125
0.0492066
0.0492011
0.0491958
0.0491909
0.0491863
0.0491821
0.0491784
0.0491751
0.0491726
0.0491708
0.04917
0.0491703
0.049172
0.0491751
0.0491796
0.0491855
0.049192
0.0491971
0.0491973
0.0491865
0.0491569
0.0491043
0.0490629
0.0491537
0.0493407
0.0493307
0.0493069
0.0492748
0.0492381
0.0492021
0.0491723
0.0491523
0.049144
0.0491488
0.0491704
0.0492157
0.0492858
0.0493076
0.0493103
0.0493103
0.0493083
0.0493043
0.0492979
0.0492899
0.0492822
0.0492751
0.0492686
0.0492624
0.0492562
0.0492498
0.0492428
0.0492352
0.0492269
0.049218
0.0492088
0.0491994
0.0491902
0.0491812
0.0491729
0.0491653
0.0491585
0.0491528
0.0491482
0.0491446
0.0491421
0.0491406
0.04914
0.0491403
0.0491414
0.0491431
0.0491453
0.0491481
0.0491515
0.0491557
0.0491607
0.0491665
0.0491733
0.0491807
0.0491886
0.0491963
0.0492029
0.0492077
0.0492096
0.0492056
0.0491594
0.0490071
0.0488604
0.0489585
0.0491419
0.049222
0.049246
0.0492502
0.0492477
0.0492426
0.0492364
0.0492299
0.0492232
0.0492167
0.0492103
0.0492041
0.0491981
0.0491924
0.0491869
0.0491816
0.0491766
0.0491718
0.0491675
0.0491638
0.0491607
0.0491586
0.0491576
0.049158
0.0491602
0.0491645
0.0491713
0.0491809
0.0491935
0.0492086
0.0492247
0.049238
0.0492393
0.0492067
0.0491045
0.0491567
0.0493452
0.0493385
0.0493199
0.0492948
0.0492657
0.0492366
0.0492122
0.0491964
0.0491921
0.0492017
0.0492282
0.0492737
0.0493167
0.0493225
0.0493216
0.0493189
0.049314
0.0493068
0.0492974
0.0492868
0.0492775
0.0492694
0.0492622
0.0492555
0.0492488
0.0492416
0.0492336
0.0492247
0.0492151
0.0492048
0.0491942
0.0491836
0.0491733
0.0491636
0.0491547
0.0491468
0.04914
0.0491344
0.0491301
0.0491269
0.049125
0.049124
0.0491241
0.049125
0.0491265
0.0491286
0.0491312
0.0491343
0.0491379
0.0491422
0.0491474
0.0491534
0.0491601
0.0491675
0.0491747
0.049181
0.0491853
0.0491869
0.0491848
0.0491709
0.0490964
0.0489462
0.0488387
0.0489537
0.049131
0.04921
0.0492345
0.0492395
0.0492376
0.049233
0.0492272
0.0492211
0.0492147
0.0492085
0.0492022
0.0491962
0.0491902
0.0491844
0.0491786
0.049173
0.0491675
0.0491622
0.0491573
0.0491529
0.0491492
0.0491465
0.0491451
0.0491453
0.0491475
0.0491521
0.0491598
0.0491711
0.0491865
0.0492066
0.0492315
0.049261
0.0492929
0.0493153
0.0492896
0.0491566
0.0493473
0.0493436
0.0493296
0.0493111
0.04929
0.0492695
0.0492529
0.0492439
0.0492452
0.0492588
0.049285
0.0493175
0.0493344
0.0493343
0.049331
0.0493255
0.0493174
0.0493071
0.0492946
0.0492818
0.0492713
0.0492625
0.0492551
0.0492481
0.0492408
0.0492327
0.0492236
0.0492132
0.049202
0.0491901
0.0491781
0.0491662
0.049155
0.0491445
0.0491352
0.0491272
0.0491206
0.0491153
0.0491115
0.049109
0.0491076
0.0491074
0.0491081
0.0491097
0.0491118
0.0491143
0.0491172
0.0491206
0.0491245
0.049129
0.0491344
0.0491405
0.0491473
0.0491542
0.0491602
0.0491639
0.0491644
0.0491614
0.0491531
0.0491194
0.0490283
0.0488906
0.0488233
0.0489523
0.0491216
0.0491984
0.0492231
0.0492288
0.0492275
0.0492234
0.0492182
0.0492125
0.0492066
0.0492007
0.0491948
0.0491889
0.049183
0.0491771
0.0491712
0.0491652
0.0491593
0.0491534
0.0491479
0.0491428
0.0491384
0.049135
0.0491329
0.0491325
0.0491342
0.0491386
0.0491462
0.0491578
0.0491738
0.049195
0.0492215
0.0492534
0.0492892
0.0493224
0.0493408
0.0491538
0.0493474
0.0493462
0.0493359
0.0493229
0.0493089
0.0492962
0.0492873
0.0492848
0.0492906
0.0493047
0.0493244
0.0493411
0.0493457
0.0493432
0.0493376
0.0493292
0.049318
0.0493045
0.0492892
0.0492747
0.0492635
0.0492547
0.0492474
0.0492403
0.0492325
0.0492233
0.0492126
0.0492005
0.0491874
0.0491739
0.0491603
0.0491473
0.0491352
0.0491243
0.0491148
0.0491069
0.0491006
0.0490959
0.0490928
0.049091
0.0490906
0.0490911
0.0490926
0.0490948
0.0490974
0.0491004
0.0491037
0.0491074
0.0491116
0.0491164
0.0491219
0.0491282
0.0491349
0.0491411
0.0491446
0.0491439
0.0491386
0.0491291
0.0491087
0.0490577
0.0489595
0.0488429
0.0488143
0.0489536
0.0491134
0.0491872
0.0492119
0.0492182
0.0492175
0.049214
0.0492094
0.0492043
0.049199
0.0491936
0.0491881
0.0491824
0.0491767
0.0491708
0.0491647
0.0491585
0.0491521
0.0491457
0.0491395
0.0491337
0.0491285
0.0491243
0.0491213
0.0491201
0.0491209
0.0491245
0.0491314
0.0491422
0.0491577
0.0491784
0.0492045
0.0492358
0.0492703
0.049302
0.0493218
0.0491487
0.0493459
0.0493468
0.0493394
0.0493306
0.0493219
0.0493151
0.049312
0.0493139
0.0493214
0.0493331
0.0493452
0.0493523
0.0493531
0.0493488
0.0493408
0.0493294
0.049315
0.0492987
0.049281
0.0492656
0.0492545
0.0492462
0.0492394
0.0492324
0.0492238
0.0492132
0.0492006
0.0491864
0.0491713
0.049156
0.049141
0.0491269
0.0491142
0.049103
0.0490937
0.0490862
0.0490805
0.0490767
0.0490745
0.0490737
0.0490742
0.0490757
0.049078
0.0490808
0.049084
0.0490874
0.0490911
0.0490951
0.0490996
0.0491047
0.0491106
0.0491171
0.0491235
0.0491277
0.0491265
0.0491187
0.0491055
0.0490865
0.0490535
0.0489916
0.048895
0.0488046
0.0488111
0.0489568
0.0491063
0.0491765
0.0492011
0.0492079
0.0492079
0.0492051
0.0492012
0.0491967
0.0491921
0.0491873
0.0491822
0.049177
0.0491714
0.0491656
0.0491594
0.0491528
0.049146
0.0491391
0.0491323
0.0491257
0.0491197
0.0491145
0.0491106
0.0491083
0.049108
0.0491104
0.0491159
0.0491253
0.0491393
0.0491585
0.049183
0.0492128
0.0492458
0.0492775
0.0493007
0.0491418
0.0493433
0.0493459
0.0493406
0.0493348
0.0493299
0.0493272
0.0493276
0.0493316
0.049339
0.0493477
0.049355
0.0493585
0.0493575
0.0493511
0.0493403
0.0493257
0.0493083
0.0492895
0.0492702
0.0492547
0.0492445
0.0492375
0.0492316
0.0492245
0.0492149
0.0492023
0.0491874
0.0491708
0.0491536
0.0491365
0.0491203
0.0491054
0.0490924
0.0490813
0.0490724
0.0490656
0.0490609
0.049058
0.049057
0.0490574
0.049059
0.0490616
0.0490648
0.0490682
0.0490719
0.0490757
0.0490797
0.049084
0.0490889
0.0490944
0.0491007
0.0491074
0.049113
0.049113
0.0491035
0.0490855
0.0490625
0.0490345
0.0489933
0.0489256
0.048838
0.0487763
0.048813
0.0489613
0.0491002
0.0491667
0.0491909
0.0491982
0.0491988
0.0491968
0.0491936
0.04919
0.0491861
0.0491819
0.0491775
0.0491726
0.0491673
0.0491615
0.0491553
0.0491485
0.0491412
0.0491338
0.0491263
0.0491189
0.0491121
0.049106
0.049101
0.0490974
0.0490958
0.0490967
0.0491005
0.049108
0.0491199
0.0491367
0.049159
0.0491867
0.0492185
0.0492512
0.049279
0.0491336
0.04934
0.049344
0.0493403
0.0493367
0.0493343
0.0493341
0.0493364
0.0493413
0.049348
0.0493548
0.04936
0.0493622
0.0493588
0.0493497
0.0493356
0.0493178
0.0492979
0.0492773
0.0492571
0.0492425
0.0492339
0.0492289
0.0492242
0.0492168
0.0492054
0.0491903
0.0491727
0.0491536
0.0491343
0.0491157
0.0490984
0.0490832
0.0490701
0.0490595
0.0490513
0.0490455
0.0490419
0.0490404
0.0490406
0.0490424
0.0490453
0.049049
0.0490532
0.0490574
0.0490615
0.0490657
0.04907
0.0490746
0.0490798
0.0490859
0.0490927
0.0490996
0.0491026
0.0490941
0.0490718
0.0490418
0.0490116
0.0489789
0.0489316
0.0488638
0.0487907
0.0487576
0.0488189
0.0489665
0.0490951
0.0491577
0.0491815
0.0491893
0.0491905
0.0491892
0.0491869
0.0491842
0.0491811
0.0491777
0.0491739
0.0491695
0.0491644
0.0491588
0.0491524
0.0491454
0.0491378
0.0491298
0.0491217
0.0491136
0.0491058
0.0490987
0.0490926
0.0490878
0.0490847
0.0490838
0.0490857
0.049091
0.0491003
0.0491144
0.0491341
0.0491594
0.0491902
0.0492244
0.0492574
0.0491244
0.0493362
0.0493415
0.0493391
0.049337
0.0493364
0.0493377
0.0493412
0.0493465
0.0493528
0.0493588
0.049363
0.0493633
0.049357
0.0493445
0.0493268
0.0493059
0.0492839
0.0492623
0.0492423
0.0492294
0.0492233
0.0492209
0.0492174
0.0492091
0.0491952
0.0491771
0.0491564
0.0491348
0.0491136
0.0490937
0.0490759
0.0490606
0.049048
0.0490382
0.049031
0.0490264
0.0490241
0.0490238
0.0490255
0.0490287
0.0490331
0.0490382
0.0490434
0.0490484
0.0490531
0.0490576
0.0490622
0.0490671
0.0490728
0.0490794
0.049087
0.0490936
0.0490897
0.0490663
0.0490281
0.0489912
0.0489591
0.0489222
0.0488719
0.0488091
0.0487539
0.0487475
0.0488278
0.0489723
0.0490909
0.0491498
0.0491731
0.0491812
0.0491832
0.0491827
0.0491813
0.0491794
0.0491773
0.0491747
0.0491715
0.0491676
0.0491629
0.0491573
0.049151
0.0491438
0.0491359
0.0491274
0.0491186
0.0491097
0.0491011
0.0490929
0.0490856
0.0490795
0.0490749
0.0490723
0.0490721
0.0490749
0.0490815
0.0490927
0.0491093
0.0491323
0.049162
0.0491979
0.0492367
0.0491146
0.0493321
0.0493387
0.0493373
0.0493364
0.0493371
0.0493396
0.0493439
0.0493496
0.0493558
0.0493613
0.0493643
0.0493618
0.0493518
0.0493352
0.0493139
0.0492902
0.0492668
0.0492453
0.0492264
0.0492159
0.0492131
0.0492138
0.0492113
0.0492011
0.049184
0.0491624
0.0491386
0.0491146
0.0490918
0.0490711
0.0490532
0.0490384
0.0490266
0.0490178
0.0490118
0.0490084
0.0490074
0.0490084
0.0490114
0.0490161
0.0490221
0.0490289
0.0490355
0.0490414
0.0490467
0.0490516
0.0490564
0.0490616
0.0490679
0.0490754
0.0490838
0.0490875
0.0490688
0.0490246
0.0489781
0.0489408
0.0489065
0.0488668
0.048817
0.0487631
0.0487273
0.0487447
0.0488388
0.0489784
0.0490879
0.0491433
0.049166
0.0491744
0.0491769
0.0491772
0.0491768
0.0491759
0.0491747
0.0491729
0.0491704
0.049167
0.0491626
0.0491573
0.049151
0.0491437
0.0491355
0.0491266
0.0491171
0.0491075
0.0490979
0.0490888
0.0490803
0.0490728
0.0490666
0.0490622
0.0490598
0.0490602
0.049064
0.0490721
0.0490857
0.0491061
0.0491348
0.0491725
0.0492174
0.0491043
0.049328
0.0493357
0.0493352
0.0493354
0.0493371
0.0493406
0.0493456
0.0493517
0.0493579
0.0493627
0.0493637
0.0493573
0.0493428
0.0493218
0.049297
0.0492714
0.0492473
0.0492266
0.0492097
0.0492023
0.0492033
0.0492078
0.0492056
0.0491926
0.0491715
0.0491461
0.0491193
0.0490933
0.0490694
0.0490486
0.0490311
0.0490171
0.0490063
0.0489987
0.0489939
0.0489917
0.0489917
0.0489939
0.0489981
0.0490041
0.0490119
0.0490206
0.049029
0.0490363
0.0490424
0.0490476
0.0490526
0.0490583
0.0490653
0.0490739
0.0490829
0.0490761
0.0490325
0.0489761
0.0489293
0.0488913
0.0488553
0.0488148
0.0487689
0.0487266
0.0487102
0.0487479
0.0488513
0.0489848
0.049086
0.0491381
0.0491602
0.0491688
0.0491719
0.0491731
0.0491736
0.0491737
0.0491734
0.0491724
0.0491705
0.0491677
0.0491638
0.0491588
0.0491526
0.0491452
0.0491368
0.0491275
0.0491174
0.049107
0.0490965
0.0490863
0.0490766
0.0490678
0.0490601
0.0490538
0.0490493
0.0490472
0.0490482
0.0490533
0.0490638
0.0490816
0.0491091
0.0491486
0.0491996
0.0490939
0.0493239
0.0493328
0.0493332
0.0493342
0.0493369
0.0493412
0.0493469
0.0493534
0.0493593
0.0493628
0.0493606
0.0493494
0.0493298
0.0493045
0.0492769
0.04925
0.0492263
0.0492069
0.0491929
0.0491887
0.0491943
0.0492029
0.0492002
0.0491833
0.0491576
0.0491284
0.0490989
0.0490715
0.0490472
0.0490267
0.0490101
0.0489972
0.0489877
0.0489813
0.0489776
0.0489763
0.0489771
0.04898
0.0489851
0.0489923
0.0490018
0.0490127
0.0490234
0.0490325
0.0490398
0.0490455
0.0490509
0.0490571
0.0490651
0.0490752
0.0490808
0.0490498
0.0489879
0.0489292
0.0488823
0.0488436
0.048807
0.0487681
0.0487285
0.0486995
0.0487015
0.0487559
0.0488649
0.0489918
0.0490855
0.0491345
0.0491559
0.0491646
0.0491683
0.0491703
0.0491717
0.0491728
0.0491733
0.0491731
0.0491719
0.0491697
0.0491662
0.0491616
0.0491556
0.0491483
0.0491397
0.0491301
0.0491195
0.0491084
0.049097
0.0490857
0.0490749
0.0490647
0.0490553
0.0490472
0.0490407
0.0490362
0.0490344
0.0490365
0.049044
0.0490592
0.0490853
0.0491263
0.0491836
0.0490835
0.04932
0.04933
0.0493312
0.0493332
0.0493367
0.0493418
0.0493481
0.0493547
0.04936
0.0493611
0.0493546
0.0493377
0.0493127
0.0492836
0.0492541
0.0492271
0.0492043
0.0491869
0.0491758
0.0491755
0.0491861
0.0491992
0.0491948
0.0491729
0.0491424
0.0491096
0.0490781
0.0490499
0.0490259
0.0490063
0.0489908
0.0489792
0.048971
0.0489657
0.0489629
0.0489622
0.0489635
0.0489668
0.0489723
0.0489803
0.0489913
0.0490047
0.0490181
0.0490298
0.0490386
0.0490452
0.0490511
0.049058
0.0490672
0.0490783
0.0490681
0.0490127
0.0489439
0.0488845
0.0488376
0.0487989
0.0487631
0.0487277
0.0486966
0.0486814
0.0487001
0.0487676
0.0488793
0.0489996
0.0490865
0.0491326
0.0491532
0.0491619
0.0491662
0.0491689
0.0491712
0.0491731
0.0491744
0.0491749
0.0491744
0.0491727
0.0491698
0.0491656
0.0491599
0.0491528
0.0491442
0.0491343
0.0491233
0.0491115
0.0490993
0.0490871
0.049075
0.0490635
0.0490526
0.0490426
0.049034
0.0490271
0.0490228
0.049022
0.0490266
0.049039
0.0490637
0.049106
0.0491695
0.0490731
0.0493163
0.0493275
0.0493296
0.0493324
0.0493367
0.0493426
0.0493493
0.0493556
0.0493594
0.0493571
0.0493451
0.0493219
0.0492919
0.04926
0.0492297
0.0492033
0.049182
0.0491668
0.049159
0.0491625
0.0491787
0.0491967
0.0491892
0.0491614
0.0491261
0.0490904
0.0490576
0.0490294
0.0490062
0.0489878
0.0489738
0.0489636
0.0489566
0.0489522
0.0489501
0.0489498
0.0489512
0.0489544
0.0489598
0.0489683
0.0489805
0.0489959
0.0490126
0.0490275
0.0490387
0.0490464
0.049053
0.0490608
0.0490719
0.0490774
0.0490435
0.0489741
0.048902
0.0488425
0.0487961
0.0487583
0.0487246
0.0486945
0.0486731
0.0486716
0.0487049
0.0487823
0.0488946
0.0490082
0.049089
0.0491324
0.0491521
0.0491609
0.0491655
0.0491689
0.0491719
0.0491746
0.0491766
0.0491777
0.0491778
0.0491766
0.0491742
0.0491705
0.0491653
0.0491585
0.0491501
0.0491401
0.0491288
0.0491164
0.0491035
0.0490903
0.0490771
0.0490643
0.0490518
0.0490401
0.0490294
0.0490202
0.0490133
0.0490098
0.0490116
0.0490214
0.0490444
0.0490877
0.0491574
0.049063
0.0493129
0.0493252
0.0493282
0.0493319
0.049337
0.0493435
0.0493503
0.0493559
0.0493571
0.0493501
0.0493316
0.0493022
0.0492682
0.0492347
0.0492047
0.0491795
0.04916
0.0491471
0.0491424
0.04915
0.0491723
0.0491952
0.0491832
0.049149
0.0491094
0.0490715
0.0490382
0.0490106
0.0489887
0.0489718
0.0489594
0.0489506
0.0489447
0.0489412
0.0489396
0.0489394
0.0489407
0.0489434
0.0489483
0.0489565
0.0489695
0.0489868
0.0490071
0.0490259
0.0490399
0.0490492
0.0490566
0.0490662
0.0490768
0.0490673
0.049014
0.0489364
0.0488629
0.0488041
0.0487587
0.0487226
0.0486925
0.048669
0.0486578
0.0486693
0.048715
0.0487996
0.0489107
0.0490179
0.0490931
0.0491338
0.0491526
0.0491613
0.0491663
0.0491702
0.0491739
0.0491771
0.0491796
0.0491813
0.0491818
0.0491811
0.0491792
0.049176
0.0491712
0.0491649
0.0491569
0.049147
0.0491355
0.0491228
0.0491093
0.0490953
0.0490812
0.0490671
0.0490532
0.0490397
0.049027
0.0490156
0.0490062
0.049
0.0489991
0.0490064
0.0490276
0.0490716
0.0491471
0.0490531
0.0493098
0.0493234
0.0493273
0.0493318
0.0493377
0.0493445
0.0493511
0.0493551
0.0493527
0.0493396
0.049314
0.0492791
0.0492425
0.0492088
0.04918
0.0491563
0.0491386
0.0491279
0.0491264
0.0491381
0.0491668
0.0491948
0.0491769
0.0491361
0.0490928
0.0490536
0.0490206
0.0489942
0.0489738
0.0489587
0.0489479
0.0489405
0.0489358
0.048933
0.0489318
0.0489317
0.0489325
0.0489345
0.0489384
0.0489458
0.0489588
0.048978
0.0490019
0.0490251
0.0490424
0.0490536
0.0490626
0.049073
0.0490775
0.0490504
0.0489829
0.0489008
0.0488274
0.0487699
0.0487263
0.0486928
0.0486674
0.0486514
0.0486506
0.0486738
0.0487296
0.0488189
0.0489278
0.0490287
0.0490988
0.0491369
0.0491548
0.0491633
0.0491685
0.0491728
0.0491769
0.0491805
0.0491834
0.0491853
0.0491861
0.0491858
0.0491843
0.0491815
0.0491774
0.0491717
0.0491641
0.0491546
0.0491433
0.0491304
0.0491165
0.0491019
0.049087
0.0490718
0.0490565
0.0490414
0.0490268
0.0490131
0.0490013
0.0489926
0.0489892
0.0489941
0.0490135
0.0490577
0.0491387
0.0490438
0.0493072
0.049322
0.0493269
0.0493323
0.0493387
0.0493457
0.0493515
0.0493529
0.0493455
0.0493253
0.0492928
0.0492539
0.0492163
0.0491837
0.0491565
0.0491346
0.0491184
0.0491096
0.0491111
0.049127
0.0491624
0.0491954
0.0491705
0.0491233
0.0490774
0.0490377
0.0490055
0.0489806
0.048962
0.0489487
0.0489395
0.0489336
0.04893
0.048928
0.0489272
0.048927
0.0489274
0.0489284
0.048931
0.0489369
0.0489493
0.0489701
0.048998
0.0490259