/*--------------------------------*- C++ -*----------------------------------*\
| =========                 |                                                 |
| \\      /  F ield         | OpenFOAM: The Open Source CFD Toolbox           |
|  \\    /   O peration     | Version:  4.1                                   |
|   \\  /    A nd           | Web:      www.OpenFOAM.org                      |
|    \\/     M anipulation  |                                                 |
\*---------------------------------------------------------------------------*/
FoamFile
{
    version     2.0;
    format      ascii;
    class       volScalarField;
    location    "400";
    object      mag(U);
}
// * * * * * * * * * * * * * * * * * * * * * * * * * * * * * * * * * * * * * //

dimensions      [0 1 -1 0 0 0 0];

internalField   nonuniform List<scalar> 
5000
(
0.000687957
0.00114677
0.00376887
0.00793184
0.00976604
0.010882
0.0116653
0.0123181
0.0129096
0.0134533
0.0139492
0.0143946
0.0147871
0.0151245
0.0154054
0.0156294
0.015797
0.015909
0.0159661
0.0159695
0.0159186
0.0158132
0.0156555
0.0154475
0.015191
0.0148877
0.014539
0.0141461
0.0137098
0.0132307
0.0127094
0.0121463
0.0115418
0.0108961
0.0102096
0.0094822
0.00871399
0.00790452
0.00705286
0.0061567
0.00521039
0.00420436
0.0031357
0.00204022
0.00115337
0.00201227
0.00341621
0.0049974
0.00653586
0.0079564
0.00924145
0.0103893
0.0114039
0.0122936
0.0130699
0.0137452
0.0143322
0.0148419
0.0152841
0.0156664
0.0159949
0.0162736
0.0165055
0.0166921
0.0168342
0.0169319
0.016985
0.0169935
0.01696
0.016884
0.0167654
0.0166045
0.0164019
0.0161583
0.0158749
0.0155536
0.0151971
0.0148086
0.0143923
0.0139531
0.0134968
0.0130295
0.0125578
0.0120882
0.0116266
0.0111774
0.0107424
0.0103197
0.00990201
0.00947505
0.00901692
0.00850112
0.00791129
0.00728618
0.00681296
0.00680056
0.00714222
0.00726435
0.0062273
0.00418313
0.00122041
0.00542377
0.00856452
0.0102972
0.0113709
0.0124421
0.0133654
0.0141421
0.0148121
0.0153972
0.0159063
0.0163429
0.016708
0.0170023
0.0172268
0.0173832
0.0174739
0.0175015
0.0174686
0.0173782
0.017236
0.0170452
0.0168072
0.0165234
0.0161948
0.0158221
0.0154059
0.0149463
0.0144437
0.013898
0.0133095
0.012678
0.0120039
0.0112872
0.0105285
0.00972799
0.00888626
0.00800378
0.00708125
0.00611928
0.00511804
0.0040841
0.00307864
0.00237117
0.00266853
0.00349679
0.00456575
0.00586776
0.00723198
0.00855456
0.0097903
0.0109221
0.0119457
0.0128643
0.0136854
0.0144187
0.0150742
0.0156611
0.0161873
0.0166593
0.0170819
0.0174587
0.0177919
0.0180827
0.0183315
0.0185382
0.018702
0.0188217
0.0188934
0.0189164
0.01889
0.0188137
0.0186873
0.0185108
0.0182849
0.0180108
0.0176902
0.0173259
0.0169213
0.0164807
0.0160091
0.0155123
0.0149965
0.0144679
0.0139327
0.0133959
0.012861
0.0123289
0.0117975
0.0112614
0.0107142
0.0101544
0.0095982
0.00910039
0.00873691
0.00849653
0.00833816
0.00792559
0.00729698
0.00730254
0.00426491
0.00842729
0.0106541
0.0111369
0.0113495
0.0120167
0.0128202
0.0135796
0.0142559
0.0148474
0.015358
0.0157914
0.0161505
0.0164379
0.0166565
0.0168094
0.0169003
0.0169326
0.0169091
0.0168339
0.016709
0.0165366
0.0163183
0.0160551
0.0157473
0.0153952
0.0149987
0.0145577
0.0140719
0.013541
0.012965
0.012344
0.0116782
0.0109685
0.010216
0.00942274
0.00859146
0.00772663
0.0068356
0.0059308
0.00503541
0.00420842
0.00362301
0.00363684
0.00438602
0.0049877
0.00581097
0.00681074
0.00789755
0.00899472
0.010053
0.0110462
0.0119627
0.0128001
0.0135613
0.0142521
0.0148796
0.0154502
0.0159698
0.0164431
0.0168735
0.0172633
0.0176139
0.0179257
0.0181987
0.018432
0.0186245
0.0187745
0.0188802
0.0189392
0.0189494
0.0189099
0.0188201
0.0186791
0.0184869
0.0182435
0.0179497
0.017607
0.0172176
0.0167843
0.0163111
0.0158025
0.015264
0.0147018
0.0141222
0.013532
0.012938
0.0123464
0.0117633
0.0111951
0.0106502
0.01014
0.00967627
0.00926057
0.00888302
0.00850158
0.00797084
0.00746322
0.00832994
0.0108425
0.00740443
0.0107084
0.0119155
0.0114122
0.0110272
0.011404
0.0120927
0.0128136
0.0134826
0.0140783
0.0145964
0.0150376
0.0154046
0.0157004
0.0159289
0.0160941
0.0162002
0.016251
0.0162496
0.016199
0.0161014
0.0159582
0.0157701
0.0155373
0.0152597
0.0149366
0.0145673
0.0141512
0.0136875
0.013176
0.0126165
0.0120095
0.0113561
0.0106584
0.00991959
0.00914473
0.00834133
0.00752107
0.00670262
0.00591644
0.00521537
0.00470516
0.00458558
0.00511843
0.00584404
0.00640439
0.00706982
0.00782684
0.00864139
0.00947944
0.0103111
0.0111148
0.0118775
0.0125932
0.0132606
0.0138814
0.0144587
0.0149955
0.0154947
0.0159586
0.0163884
0.0167848
0.0171478
0.0174769
0.0177712
0.0180293
0.0182496
0.0184303
0.0185692
0.0186651
0.0187128
0.0187112
0.018659
0.018555
0.0183981
0.0181874
0.0179229
0.0176046
0.0172336
0.0168115
0.016341
0.0158255
0.0152696
0.0146789
0.0140602
0.0134215
0.0127717
0.0121213
0.0114823
0.0108681
0.0102932
0.00976979
0.00929782
0.00885202
0.00839209
0.00787758
0.00724369
0.0072263
0.00992445
0.0141906
0.0103895
0.012875
0.0130177
0.0116598
0.01079
0.0109289
0.0115024
0.012161
0.0127936
0.0133668
0.0138702
0.0143021
0.0146641
0.0149593
0.0151919
0.015366
0.015486
0.0155557
0.015578
0.0155546
0.0154878
0.0153777
0.0152241
0.0150261
0.0147826
0.0144921
0.0141532
0.0137647
0.0133258
0.012836
0.012296
0.0117069
0.0110717
0.0103945
0.00968214
0.00894432
0.0081954
0.0074567
0.00676002
0.00615238
0.00570484
0.00553147
0.00578874
0.00654706
0.00716368
0.00771891
0.00827579
0.00883522
0.00939894
0.00997087
0.0105501
0.0111309
0.0117064
0.0122705
0.012819
0.0133496
0.0138607
0.0143516
0.0148213
0.0152688
0.0156927
0.0160916
0.0164638
0.0168074
0.0171208
0.017402
0.017649
0.0178599
0.0180326
0.0181647
0.0182545
0.0182967
0.0182902
0.0182328
0.0181228
0.0179583
0.0177381
0.0174612
0.0171272
0.0167366
0.0162903
0.0157905
0.0152407
0.0146453
0.0140109
0.0133453
0.0126587
0.0119634
0.011274
0.0106067
0.00997746
0.00939629
0.008857
0.00832894
0.00777041
0.00715174
0.00657281
0.00738937
0.0116748
0.0169805
0.0131358
0.0149382
0.0141668
0.012087
0.0107817
0.0106726
0.0110985
0.0116579
0.0122183
0.0127372
0.0132
0.0136021
0.0139438
0.0142275
0.0144567
0.0146351
0.0147667
0.0148547
0.0149018
0.0149078
0.0148745
0.0148008
0.0146852
0.0145255
0.0143194
0.0140646
0.0137592
0.0134015
0.0129909
0.0125277
0.0120132
0.0114507
0.0108451
0.0102043
0.00953916
0.0088654
0.00820476
0.00758736
0.00705375
0.00665633
0.00646493
0.00657571
0.00709395
0.00780505
0.00837836
0.00891277
0.00937993
0.00977112
0.0101071
0.0104219
0.0107441
0.0110896
0.0114629
0.0118616
0.01228
0.012712
0.0131513
0.0135922
0.0140293
0.0144578
0.0148731
0.0152713
0.0156489
0.0160026
0.0163298
0.0166279
0.016895
0.0171291
0.0173284
0.0174908
0.0176175
0.0177005
0.0177388
0.0177299
0.0176715
0.0175607
0.0173952
0.0171729
0.0168918
0.016551
0.0161499
0.0156891
0.0151704
0.0145971
0.0139744
0.0133096
0.0126122
0.0118945
0.0111711
0.0104584
0.00977111
0.00911722
0.00848887
0.00785883
0.0071969
0.00650587
0.006076
0.00788692
0.0133625
0.0191856
0.0155586
0.0168669
0.0153677
0.0127029
0.0110087
0.010635
0.0108771
0.0113001
0.0117546
0.0121905
0.0125889
0.0129425
0.0132498
0.0135115
0.01373
0.0139083
0.0140493
0.0141553
0.014228
0.0142651
0.0142678
0.0142332
0.0141582
0.0140395
0.0138735
0.0136574
0.0133887
0.0130662
0.0126897
0.0122606
0.0117822
0.01126
0.0107019
0.0101196
0.00952861
0.00894981
0.00841023
0.00794386
0.00759075
0.00739688
0.00742221
0.00773902
0.00834508
0.0089398
0.00948889
0.00998168
0.0103579
0.0105958
0.0107245
0.0108003
0.0108787
0.0109978
0.0111758
0.0114155
0.011711
0.012052
0.0124269
0.0128243
0.0132339
0.0136464
0.0140541
0.0144504
0.0148299
0.0151881
0.0155217
0.0158277
0.016104
0.016349
0.0165614
0.0167399
0.0168847
0.0169953
0.0170667
0.0170973
0.0170844
0.0170247
0.016915
0.0167517
0.0165318
0.0162524
0.0159112
0.0155071
0.0150401
0.0145116
0.0139252
0.0132865
0.0126038
0.0118877
0.0111516
0.01041
0.00967568
0.00895509
0.00824113
0.00751263
0.00675319
0.00600633
0.00579774
0.00862572
0.0148899
0.0208597
0.0176618
0.0186414
0.0165868
0.0134559
0.0114206
0.0107801
0.0108156
0.0110748
0.0113967
0.0117256
0.0120394
0.0123282
0.0125881
0.0128184
0.0130198
0.0131938
0.0133421
0.0134654
0.0135642
0.0136333
0.0136733
0.0136792
0.0136465
0.0135702
0.0134464
0.0132715
0.0130434
0.0127615
0.0124271
0.0120432
0.0116154
0.0111517
0.0106635
0.0101655
0.00967676
0.00922058
0.00882473
0.00852
0.00833785
0.00831434
0.00850105
0.00893528
0.00946914
0.00998628
0.0104922
0.0109218
0.0111972
0.0112873
0.0112259
0.0110871
0.0109493
0.0108705
0.0108814
0.0109896
0.0111875
0.0114599
0.0117889
0.0121572
0.0125491
0.0129513
0.0133532
0.0137461
0.0141233
0.0144797
0.0148113
0.0151152
0.0153893
0.0156322
0.0158429
0.0160212
0.0161664
0.016283
0.0163664
0.0164164
0.0164313
0.0164082
0.0163435
0.0162329
0.0160722
0.0158566
0.0155822
0.0152455
0.0148442
0.0143777
0.0138471
0.013256
0.0126105
0.0119191
0.0111927
0.0104434
0.00968228
0.0089146
0.00813536
0.00732987
0.00649492
0.00571987
0.00578312
0.00952193
0.0161847
0.0220662
0.0194891
0.0202715
0.0177999
0.0142947
0.0119603
0.0110629
0.0108845
0.0109649
0.0111362
0.0113402
0.011553
0.011763
0.0119644
0.0121547
0.0123328
0.0124986
0.0126518
0.0127908
0.0129143
0.0130175
0.0130944
0.013141
0.0131505
0.0131172
0.0130366
0.0129054
0.0127224
0.0124883
0.0122062
0.0118814
0.0115218
0.011138
0.0107435
0.010355
0.00999208
0.00967678
0.00943242
0.00928117
0.00924302
0.00934762
0.00963567
0.0100675
0.0104993
0.0109504
0.0113885
0.0117316
0.0118921
0.0118348
0.0115993
0.0112757
0.0109613
0.0107295
0.0106191
0.0106385
0.0107756
0.0110086
0.0113128
0.0116651
0.0120459
0.0124392
0.0128327
0.013217
0.013585
0.0139315
0.0142525
0.0145452
0.0148077
0.0150385
0.015237
0.0154032
0.0155371
0.015643
0.0157194
0.0157681
0.0157891
0.0157815
0.0157425
0.0156687
0.0155552
0.0153963
0.0151863
0.0149194
0.0145908
0.014197
0.0137364
0.0132099
0.0126206
0.0119746
0.01128
0.0105468
0.00978394
0.00899692
0.00818367
0.00733663
0.00646613
0.00570925
0.00605728
0.0104926
0.0171824
0.0228844
0.0210856
0.0217732
0.0189929
0.0151812
0.0125806
0.0114416
0.0110531
0.0109507
0.0109625
0.01103
0.0111297
0.0112496
0.0113829
0.0115256
0.0116747
0.0118282
0.0119834
0.0121366
0.0122837
0.0124193
0.0125316
0.0126171
0.0126673
0.0126762
0.0126394
0.0125545
0.0124218
0.0122442
0.0120268
0.0117771
0.011505
0.0112226
0.0109442
0.0106857
0.0104641
0.0102965
0.0101982
0.0101807
0.0102541
0.0104448
0.0107656
0.0111087
0.0114574
0.0118299
0.0121768
0.0124103
0.0124409
0.0122355
0.0118437
0.011371
0.0109293
0.0106005
0.0104237
0.0104016
0.0105139
0.0107309
0.0110225
0.0113619
0.0117282
0.012105
0.0124804
0.0128455
0.0131939
0.0135208
0.0138228
0.0140972
0.0143419
0.0145557
0.0147376
0.0148875
0.0150052
0.0150938
0.0151543
0.0151893
0.0152011
0.0151912
0.0151594
0.0151041
0.0150215
0.0149063
0.0147518
0.0145505
0.0142951
0.0139791
0.0135976
0.0131482
0.0126308
0.0120483
0.0114064
0.0107126
0.00997496
0.00919964
0.00838872
0.00754307
0.00668811
0.00600372
0.00660062
0.0114515
0.0178455
0.0234137
0.0224856
0.0231606
0.0201584
0.0160899
0.0132467
0.0118817
0.0112933
0.0110124
0.0108633
0.0107888
0.0107676
0.0107891
0.0108466
0.0109351
0.01105
0.011187
0.0113411
0.0115059
0.011674
0.011838
0.0119816
0.012102
0.0121899
0.012239
0.012246
0.0122104
0.0121344
0.0120233
0.0118842
0.0117266
0.0115612
0.0114001
0.0112558
0.0111411
0.0110677
0.0110452
0.0110799
0.0111731
0.0113272
0.0115616
0.0118417
0.0120827
0.0123474
0.0126226
0.0128552
0.0129578
0.0128446
0.0124929
0.0119672
0.0113877
0.0108749
0.0105087
0.0103183
0.0102935
0.0104036
0.010613
0.010889
0.0112057
0.0115436
0.0118887
0.0122308
0.0125628
0.0128795
0.0131769
0.013452
0.0137024
0.0139261
0.0141214
0.0142871
0.0144224
0.0145269
0.0146009
0.0146474
0.0146681
0.014667
0.0146476
0.0146125
0.0145627
0.0144973
0.0144127
0.0143028
0.0141596
0.013974
0.0137365
0.0134391
0.0130755
0.0126421
0.0121385
0.0115676
0.0109349
0.0102479
0.00951416
0.0087407
0.0079378
0.0071463
0.00657557
0.00735056
0.012317
0.0181802
0.0237594
0.0237136
0.024444
0.0212924
0.0170045
0.0139343
0.0123565
0.0115809
0.0111309
0.0108254
0.0106087
0.0104631
0.0103811
0.0103572
0.0103863
0.0104623
0.0105786
0.0107271
0.0108984
0.0110818
0.0112669
0.0114369
0.0115862
0.0117069
0.0117934
0.0118443
0.0118613
0.0118493
0.0118157
0.0117693
0.0117203
0.011679
0.0116552
0.011658
0.0116946
0.0117696
0.0118846
0.012037
0.0122198
0.0124284
0.0126625
0.0128544
0.0130025
0.0131674
0.0133247
0.0134212
0.0133734
0.0131064
0.012616
0.0119865
0.01135
0.0108247
0.0104751
0.0103099
0.0103025
0.010414
0.0106071
0.0108522
0.0111275
0.011418
0.0117132
0.0120058
0.0122906
0.0125637
0.012822
0.0130631
0.0132847
0.0134848
0.0136615
0.0138132
0.0139383
0.0140356
0.0141048
0.0141462
0.0141609
0.0141535
0.0141285
0.0140904
0.014043
0.0139886
0.0139266
0.0138531
0.013761
0.0136405
0.0134804
0.0132694
0.0129974
0.0126572
0.0122447
0.01176
0.0112067
0.0105918
0.00992464
0.00921729
0.00848898
0.00779355
0.00735276
0.00822609
0.0130305
0.0182396
0.0240115
0.0247865
0.0256306
0.0223931
0.0179151
0.0146277
0.0128469
0.0118964
0.011289
0.0108356
0.0104808
0.0102111
0.0100231
0.00991394
0.00987904
0.00991123
0.0100012
0.0101378
0.0103082
0.0104984
0.0106953
0.0108861
0.0110563
0.0112039
0.0113246
0.0114195
0.0114931
0.011553
0.0116082
0.0116684
0.0117429
0.01184
0.0119658
0.0121237
0.0123142
0.0125344
0.0127779
0.0130342
0.0132892
0.0135304
0.0137255
0.0138175
0.0138684
0.0139136
0.0139314
0.013871
0.013657
0.013233
0.0126214
0.0119286
0.0112903
0.0108065
0.010512
0.0103892
0.0103978
0.010497
0.0106544
0.0108475
0.0110612
0.0112858
0.0115148
0.0117437
0.0119692
0.0121886
0.0123994
0.0125998
0.0127876
0.012961
0.013118
0.0132565
0.0133747
0.0134707
0.013543
0.0135904
0.0136119
0.0136113
0.013593
0.013562
0.0135241
0.013484
0.0134445
0.0134051
0.0133609
0.0133028
0.0132188
0.0130953
0.0129188
0.0126782
0.0123659
0.0119788
0.0115186
0.0109918
0.0104093
0.00978736
0.00915243
0.00856705
0.0082506
0.00915095
0.0135709
0.0181065
0.0242305
0.025716
0.0267247
0.0234601
0.018817
0.0153175
0.0133395
0.0122245
0.011472
0.0108813
0.0103956
0.0100051
0.00971101
0.00951423
0.00941134
0.00939432
0.00945138
0.00956808
0.00972849
0.00991608
0.0101159
0.0103161
0.0104979
0.0106654
0.0108167
0.010956
0.0110911
0.0112311
0.0113861
0.0115652
0.0117757
0.0120222
0.0123055
0.0126229
0.0129674
0.0133287
0.0136927
0.0140419
0.0143557
0.0146115
0.0147462
0.0147372
0.0146748
0.0145795
0.0144362
0.0142007
0.013811
0.0132374
0.0125362
0.0118318
0.011247
0.0108448
0.0106204
0.0105337
0.0105397
0.0106038
0.0107034
0.0108248
0.0109603
0.011105
0.011256
0.011411
0.011568
0.0117254
0.0118814
0.0120345
0.0121829
0.0123251
0.0124591
0.0125831
0.0126949
0.0127922
0.012873
0.0129352
0.012975
0.0129951
0.0129988
0.0129904
0.0129758
0.0129614
0.0129526
0.012952
0.0129578
0.0129629
0.0129556
0.0129209
0.0128427
0.0127061
0.0124999
0.0122179
0.0118597
0.0114309
0.0109434
0.0104164
0.00988136
0.00940495
0.00919424
0.0100654
0.0139556
0.0178686
0.0244465
0.026509
0.0277277
0.0244935
0.0197084
0.015999
0.0138258
0.012554
0.0116679
0.0109515
0.0103438
0.00983785
0.00943962
0.00915399
0.0089795
0.00890761
0.00892424
0.00901199
0.009152
0.00932559
0.00951635
0.00971228
0.00989666
0.0100765
0.0102554
0.0104409
0.0106428
0.0108715
0.0111362
0.0114442
0.0117994
0.0122021
0.0126476
0.0131263
0.0136239
0.0141225
0.0146011
0.0150357
0.0153986
0.0156568
0.0157242
0.0156112
0.0154143
0.0151561
0.0148312
0.0144073
0.0138431
0.0131438
0.0124016
0.0117448
0.011259
0.0109539
0.0107889
0.0107137
0.0106901
0.0106958
0.0107193
0.0107558
0.0108031
0.0108602
0.0109266
0.0110014
0.0110836
0.0111725
0.011267
0.011366
0.0114685
0.0115732
0.0116789
0.011784
0.0118865
0.0119844
0.012075
0.0121573
0.0122235
0.0122757
0.0123155
0.0123455
0.0123709
0.012398
0.0124336
0.0124825
0.0125458
0.012619
0.0126916
0.012748
0.0127701
0.01274
0.0126429
0.0124697
0.0122175
0.0118908
0.0115018
0.0110713
0.0106336
0.0102556
0.0101269
0.0109294
0.0142259
0.0175993
0.0246668
0.0271689
0.0286383
0.0254932
0.0205898
0.0166708
0.014301
0.0128773
0.0118674
0.0110366
0.0103169
0.00970216
0.00920286
0.00882807
0.00857872
0.00844616
0.0084144
0.0084633
0.00857122
0.00871745
0.0088844
0.00906074
0.00924128
0.00942617
0.00963136
0.00986621
0.0101418
0.0104672
0.0108494
0.0112924
0.011797
0.0123587
0.0129675
0.0136073
0.0142566
0.0148902
0.01548
0.0159954
0.0164015
0.016655
0.016657
0.0164318
0.0160762
0.0156316
0.0151085
0.0144929
0.0137725
0.0129925
0.0122736
0.0117199
0.011354
0.0111323
0.0109951
0.0108987
0.01082
0.0107504
0.0106882
0.0106347
0.0105915
0.0105596
0.0105395
0.0105313
0.0105349
0.01055
0.0105765
0.0106141
0.0106627
0.0107219
0.0107913
0.0108702
0.0109575
0.0110515
0.0111495
0.0112531
0.0113499
0.0114417
0.0115285
0.011611
0.0116923
0.0117776
0.0118736
0.0119862
0.0121183
0.0122677
0.0124255
0.0125763
0.0127006
0.0127779
0.0127905
0.0127261
0.0125797
0.0123543
0.0120618
0.0117237
0.0113749
0.0110806
0.0110103
0.0117206
0.0144289
0.0173488
0.0248866
0.0276954
0.0294518
0.0264583
0.0214633
0.0173343
0.0147635
0.0131894
0.0120634
0.0111289
0.0103071
0.00959117
0.00899484
0.00853146
0.00820471
0.00800635
0.00791871
0.00791897
0.00798283
0.00808772
0.00821646
0.00836112
0.00852568
0.00871078
0.00894314
0.00923318
0.00959026
0.0100195
0.0105235
0.0111032
0.0117561
0.0124747
0.0132444
0.0140432
0.0148426
0.0156099
0.0163096
0.016904
0.0173504
0.0175961
0.0175375
0.0171874
0.0166456
0.0159927
0.0152634
0.0144701
0.0136355
0.0128419
0.0122145
0.0117969
0.0115375
0.0113603
0.0112111
0.0110647
0.0109147
0.0107634
0.0106157
0.0104757
0.0103464
0.0102293
0.010125
0.0100339
0.0099566
0.00989358
0.00984572
0.009814
0.00979944
0.00980306
0.00982578
0.00986829
0.00993083
0.0100131
0.0101123
0.0102346
0.0103623
0.0104974
0.0106385
0.0107842
0.010935
0.011094
0.0112663
0.0114575
0.0116712
0.0119068
0.0121564
0.0124053
0.012633
0.0128173
0.0129376
0.0129792
0.0129349
0.0128061
0.0126043
0.0123508
0.01208
0.0118538
0.0118214
0.0124296
0.0146021
0.0171453
0.0250976
0.0280852
0.0301596
0.0273868
0.0223323
0.0179934
0.0152143
0.013488
0.0122514
0.0112223
0.0103083
0.00949902
0.00881032
0.00825957
0.0078536
0.00758503
0.00743477
0.00737739
0.007386
0.00743669
0.00751359
0.00761436
0.00775289
0.00793548
0.00819951
0.00855401
0.00900184
0.00954003
0.0101656
0.0108768
0.0116706
0.0125382
0.0134623
0.0144157
0.0153629
0.0162633
0.0170733
0.0177473
0.0182339
0.0184698
0.0183545
0.0178629
0.0171042
0.0162269
0.0153002
0.0143687
0.0134883
0.0127598
0.0122739
0.0119855
0.0117882
0.0116076
0.0114131
0.0112002
0.0109754
0.0107473
0.010523
0.0103069
0.0101012
0.00990653
0.0097233
0.00955195
0.00939345
0.00924934
0.00912161
0.00901256
0.00892471
0.00886079
0.00882365
0.0088161
0.0088406
0.00889903
0.00898965
0.00912459
0.00928034
0.00945868
0.00965793
0.00987456
0.0101058
0.0103515
0.0106142
0.0108978
0.0112054
0.0115367
0.0118847
0.0122349
0.0125663
0.0128553
0.0130794
0.0132216
0.0132729
0.0132337
0.0131144
0.0129357
0.0127314
0.0125589
0.0125485
0.013055
0.0147681
0.0169997
0.0252927
0.028333
0.0307481
0.0282745
0.0232011
0.0186541
0.0156572
0.0137734
0.0124286
0.0113129
0.0103159
0.00942112
0.0086451
0.00800865
0.00752211
0.00717962
0.00696121
0.00683913
0.00678407
0.00677062
0.00678439
0.00683012
0.0069344
0.00711499
0.00742004
0.00785261
0.00840148
0.00905077
0.00979147
0.010622
0.0115417
0.012544
0.0136108
0.0147111
0.0158026
0.0168355
0.0177572
0.0185132
0.0190419
0.0192671
0.0190911
0.0184395
0.017433
0.0163298
0.0152399
0.0142378
0.0133973
0.0128003
0.0124634
0.0122582
0.0120671
0.011845
0.0115885
0.0113082
0.0110172
0.0107259
0.01044
0.0101621
0.00989267
0.00963114
0.00937718
0.00913122
0.00889462
0.00866959
0.00845897
0.00826612
0.00809496
0.00795006
0.00783683
0.00776114
0.00772893
0.00774567
0.00781365
0.00794119
0.00812421
0.00834605
0.00860632
0.00890003
0.00922042
0.00956344
0.009928
0.0103153
0.010727
0.0111619
0.0116132
0.0120663
0.0125001
0.0128898
0.0132116
0.013447
0.0135857
0.0136269
0.0135806
0.0134669
0.013318
0.0131872
0.0131875
0.0135993
0.0149354
0.0169114
0.0254681
0.0284319
0.0311979
0.0291131
0.0240759
0.0193255
0.0160987
0.0140483
0.0125948
0.0113982
0.0103267
0.00935438
0.00849636
0.0077762
0.0072081
0.00678873
0.00649823
0.00630732
0.00618443
0.00610177
0.0060451
0.00602648
0.00608866
0.00627216
0.00663294
0.00716188
0.00782243
0.00858109
0.00942424
0.0103543
0.0113777
0.0124934
0.0136857
0.0149211
0.0161504
0.0173144
0.0183497
0.0191913
0.0197659
0.0199803
0.0197266
0.0188954
0.01762
0.0163122
0.0151241
0.0141402
0.0134171
0.0129762
0.0127483
0.0125641
0.0123361
0.0120557
0.0117386
0.011403
0.0110627
0.010726
0.0103958
0.0100721
0.00975341
0.00943802
0.00912505
0.00881469
0.00850822
0.00820788
0.00791647
0.00763741
0.00737516
0.00713574
0.00692736
0.00676006
0.00664508
0.00659421
0.00661714
0.00671907
0.00691727
0.00717953
0.00750449
0.00788213
0.00830026
0.0087497
0.00922515
0.00972452
0.0102471
0.0107905
0.0113471
0.0119025
0.012435
0.0129193
0.0133309
0.0136504
0.0138665
0.0139783
0.0139952
0.0139366
0.0138333
0.0137346
0.0137384
0.0140666
0.0151024
0.0168719
0.0256228
0.0283852
0.0314721
0.0298872
0.0249641
0.02002
0.016549
0.0143185
0.0127517
0.0114778
0.0103394
0.00929735
0.00836303
0.00756162
0.00691145
0.00641301
0.00604821
0.0057875
0.00559756
0.00544682
0.00531724
0.00522539
0.00523511
0.00543438
0.00586992
0.00651733
0.0072992
0.00816151
0.00908959
0.0100942
0.0111929
0.0123943
0.0136885
0.0150419
0.0163993
0.0176908
0.018841
0.0197725
0.0203976
0.0206012
0.020247
0.0192016
0.0176673
0.0162091
0.0150109
0.0141294
0.0135626
0.0132514
0.0130679
0.0128559
0.0125734
0.0122381
0.011875
0.0115028
0.0111325
0.0107688
0.0104113
0.0100579
0.00970563
0.00935207
0.00899583
0.00863658
0.00827488
0.00791197
0.00754924
0.00718864
0.00683341
0.00648943
0.00616695
0.00588025
0.00564746
0.00549067
0.00543261
0.00548652
0.00568378
0.00598158
0.00637521
0.00684556
0.00737098
0.0079352
0.00852813
0.00914431
0.00978065
0.0104333
0.0110939
0.0117475
0.0123724
0.0129431
0.0134348
0.0138278
0.0141107
0.0142827
0.0143528
0.01434
0.0142741
0.0142003
0.0142036
0.0144604
0.0152623
0.016869
0.0257577
0.0281851
0.0315426
0.0305681
0.0258737
0.0207542
0.0170223
0.0145931
0.0129039
0.0115532
0.010354
0.00925015
0.00824596
0.00736663
0.0066346
0.00605577
0.00561588
0.00528703
0.00503557
0.00482559
0.0046295
0.00446082
0.0044099
0.00462557
0.00515937
0.00594809
0.00685787
0.00781547
0.00880976
0.00986277
0.0110056
0.0122603
0.0136268
0.0150752
0.0165459
0.0179583
0.0192229
0.0202479
0.0209282
0.0211193
0.020641
0.0193458
0.0175931
0.0160749
0.0149548
0.0142208
0.0137964
0.0135606
0.0133676
0.0131085
0.0127765
0.0124026
0.0120133
0.0116236
0.0112408
0.0108664
0.0104973
0.0101299
0.00976069
0.00938687
0.00900653
0.0086183
0.00822109
0.0078146
0.00739762
0.00696909
0.00652904
0.00608043
0.00563344
0.00520318
0.00481257
0.00449604
0.00429805
0.00425666
0.0044325
0.00476517
0.00523923
0.00581735
0.00646243
0.00714934
0.00786351
0.00859702
0.00934528
0.0101033
0.0108622
0.0116066
0.0123147
0.0129611
0.0135214
0.0139763
0.0143147
0.0145361
0.0146499
0.0146748
0.0146391
0.0145849
0.0145858
0.0147835
0.0154059
0.0168893
0.0258744
0.0278246
0.0313989
0.0310471
0.0268563
0.0215536
0.0175374
0.0148852
0.0130588
0.0116278
0.0103723
0.00921437
0.00814779
0.00719525
0.00638273
0.00572286
0.00520768
0.00481323
0.0045081
0.00425428
0.00400983
0.00376885
0.00364166
0.00386556
0.00451953
0.00546869
0.00650817
0.00755253
0.00859785
0.00967705
0.0108348
0.0121088
0.0135132
0.0150273
0.0165906
0.0181127
0.0194886
0.0206094
0.0213483
0.0215236
0.0208996
0.0193449
0.0174384
0.0159509
0.0149649
0.0143843
0.0140652
0.013854
0.0136229
0.0133158
0.0129505
0.0125589
0.012163
0.0117738
0.0113947
0.0110238
0.0106575
0.0102916
0.00992246
0.00954701
0.00916263
0.00876658
0.00835476
0.00792603
0.00747674
0.00700207
0.00649804
0.00596104
0.00539836
0.00482132
0.00424744
0.00371394
0.00328597
0.00305162
0.00316218
0.00353579
0.00411902
0.00483151
0.00561187
0.00642728
0.00726174
0.0081075
0.00896015
0.00981458
0.0106615
0.0114853
0.0122643
0.0129738
0.0135897
0.0140937
0.0144759
0.0147363
0.0148847
0.0149396
0.0149284
0.0148899
0.0148881
0.0150379
0.0155244
0.0169199
0.0259749
0.0272982
0.0310338
0.0312816
0.0277646
0.0225529
0.0181278
0.0152128
0.0132275
0.0117076
0.0103975
0.00919292
0.00807258
0.00705349
0.00616348
0.00542257
0.0048317
0.00437347
0.00402163
0.0037419
0.00347957
0.00318645
0.00295922
0.00316407
0.00395616
0.00507622
0.00624187
0.0073669
0.00845517
0.00954656
0.0106964
0.0119579
0.013364
0.014909
0.0165376
0.0181527
0.0196329
0.0208494
0.0216495
0.0218059
0.0210227
0.0192251
0.0172408
0.0158533
0.015026
0.0145781
0.0143215
0.0141014
0.0138281
0.0134875
0.0131079
0.0127169
0.0123309
0.0119565
0.011594
0.0112401
0.0108905
0.0105409
0.0101873
0.00982645
0.00945487
0.00906891
0.00866398
0.00823478
0.00777556
0.00728008
0.00674171
0.00614851
0.00549949
0.00480855
0.00407518
0.00331775
0.00257734
0.00196492
0.00186898
0.00230104
0.00305629
0.00394206
0.00487019
0.00581206
0.0067572
0.00770214
0.00864481
0.00958079
0.0105007
0.0113888
0.0122237
0.0129812
0.0136384
0.0141783
0.0145923
0.0148815
0.015056
0.0151345
0.0151428
0.0151171
0.015113
0.0152249
0.0156097
0.0169493
0.0260607
0.0266013
0.030443
0.0312576
0.0284799
0.0236682
0.0189605
0.0156121
0.0134256
0.0118014
0.010435
0.00918995
0.0080255
0.00694893
0.00598682
0.00516585
0.00449818
0.00397622
0.00358086
0.00328776
0.00304249
0.00274106
0.00239545
0.00252204
0.00346594
0.00475499
0.00603915
0.00724225
0.00837288
0.00947189
0.0106001
0.0118238
0.0131965
0.0147341
0.0163946
0.0180797
0.0196524
0.0209618
0.0218248
0.0219621
0.0210197
0.0190167
0.0170246
0.0157788
0.0151072
0.01476
0.014531
0.0142882
0.0139836
0.0136291
0.0132543
0.0128808
0.0125198
0.012174
0.0118416
0.0115184
0.0111997
0.0108808
0.0105574
0.0102253
0.0098801
0.00951685
0.00912969
0.00871222
0.00825732
0.00775749
0.00720534
0.00659354
0.00591622
0.00517051
0.00435588
0.00347303
0.00250059
0.00143728
0.000571915
0.00117007
0.00220747
0.00327024
0.00432138
0.00536007
0.00638832
0.00740774
0.00841792
0.0094145
0.0103877
0.0113214
0.0121943
0.0129831
0.0136664
0.0142286
0.0146627
0.0149708
0.0151638
0.0152598
0.0152836
0.0152686
0.0152629
0.0153455
0.0156553
0.0169681
0.0261331
0.0257314
0.0296264
0.0309587
0.0289503
0.0247254
0.0200538
0.0162731
0.0136991
0.0119221
0.0104918
0.00921049
0.00801209
0.00688986
0.00586459
0.00496656
0.00422037
0.00363274
0.00319435
0.00289199
0.00268927
0.00244117
0.00198435
0.0019313
0.00304317
0.00448689
0.00587966
0.00716035
0.00833721
0.0094463
0.0105484
0.0117179
0.0130274
0.0145185
0.0161727
0.0178976
0.0195458
0.0209421
0.0218695
0.0219935
0.0209074
0.018746
0.0167975
0.015709
0.0151741
0.0148957
0.0146732
0.0144098
0.0140916
0.0137431
0.0133907
0.0130503
0.0127282
0.0124244
0.0121355
0.0118563
0.0115816
0.0113061
0.0110248
0.0107325
0.0104239
0.0100931
0.00973343
0.0093379
0.00889894
0.0084088
0.00785981
0.00724483
0.00655868
0.00579911
0.00496517
0.00405855
0.00308482
0.00206361
0.00107451
0.000917883
0.00187512
0.00295189
0.00403607
0.00512614
0.00619585
0.00725211
0.00829833
0.00932824
0.0103303
0.0112875
0.0121784
0.0129803
0.0136734
0.014244
0.0146866
0.0150044
0.0152084
0.0153167
0.0153524
0.0153464
0.0153398
0.0154004
0.0156564
0.0169693
0.0261931
0.0246889
0.0285888
0.0303787
0.0291379
0.0256216
0.0212478
0.0172542
0.01426
0.0121503
0.0105886
0.00926016
0.00803622
0.0068828
0.00580818
0.00484041
0.00401449
0.0033559
0.00287259
0.00255937
0.00239781
0.00224051
0.00170433
0.00138281
0.00269098
0.00426439
0.00575311
0.00710897
0.00833508
0.00945904
0.0105366
0.0116444
0.0128695
0.0142782
0.0158849
0.0176139
0.019314
0.0207874
0.0217811
0.0219047
0.0207041
0.0184299
0.0165537
0.0156187
0.0151953
0.0149607
0.0147372
0.0144648
0.0141525
0.0138286
0.0135148
0.0132218
0.0129523
0.0127037
0.0124711
0.0122484
0.0120293
0.0118077
0.0115776
0.0113328
0.0110669
0.0107734
0.0104453
0.0100755
0.0096568
0.0091821
0.00864503
0.0080405
0.00736566
0.00662075
0.00580937
0.00494016
0.00403265
0.00313781
0.00238045
0.00200572
0.00237447
0.00315771
0.00411513
0.00514267
0.00619077
0.00724157
0.00828896
0.00932215
0.0103264
0.0112831
0.0121706
0.0129672
0.0136546
0.0142209
0.0146619
0.0149814
0.0151905
0.0153066
0.0153512
0.0153528
0.0153462
0.0153901
0.0156098
0.0169483
0.0262416
0.023478
0.02734
0.0295192
0.0290152
0.0262821
0.0224089
0.0184684
0.0151597
0.0126814
0.0108587
0.00940069
0.00812105
0.00693793
0.0058272
0.00480261
0.00390022
0.00316075
0.00262065
0.00228898
0.00214254
0.00203905
0.00142232
0.000917397
0.0024391
0.0041011
0.00566577
0.00708746
0.0083601
0.00950084
0.0105565
0.0116013
0.0127289
0.0140273
0.0155476
0.0172381
0.0189609
0.020497
0.0215591
0.0217022
0.0204259
0.0180762
0.0162794
0.0154823
0.0151456
0.0149394
0.0147175
0.0144514
0.0141635
0.0138811
0.0136209
0.013389
0.013185
0.013004
0.0128396
0.0126842
0.0125305
0.012371
0.0121986
0.0120059
0.0117858
0.0115311
0.0112349
0.0108903
0.0104907
0.0100305
0.00950522
0.00891233
0.00825226
0.00752906
0.00675123
0.00593365
0.00510324
0.00431166
0.00364817
0.00323801
0.00331241
0.00378512
0.00452853
0.00542063
0.00638622
0.00738439
0.00839414
0.00939742
0.0103751
0.0113062
0.0121687
0.0129418
0.0136084
0.0141581
0.0145878
0.0149017
0.0151105
0.0152307
0.0152819
0.0152899
0.0152841
0.0153157
0.015514
0.016902
0.0262792
0.0221086
0.0258962
0.0283915
0.0285681
0.0266419
0.0234223
0.0197824
0.0163926
0.013603
0.0114448
0.00976199
0.00836351
0.00712124
0.00597211
0.00489238
0.00391423
0.00307763
0.00244565
0.00205831
0.00188476
0.00176129
0.00102011
0.000686721
0.00235086
0.00403821
0.00564292
0.00710986
0.00841636
0.00956782
0.0106002
0.0115817
0.0126052
0.0137745
0.0151725
0.0167855
0.0184924
0.0200724
0.0212033
0.0213913
0.0200845
0.0176854
0.015957
0.0152768
0.0150065
0.0148218
0.0146098
0.014366
0.0141191
0.0138932
0.0137
0.0135419
0.0134151
0.0133128
0.0132266
0.0131475
0.0130665
0.0129748
0.012864
0.0127257
0.0125521
0.0123356
0.0120691
0.0117464
0.0113618
0.0109111
0.0103923
0.00980589
0.00915619
0.00845153