/*--------------------------------*- C++ -*----------------------------------*\
| =========                 |                                                 |
| \\      /  F ield         | OpenFOAM: The Open Source CFD Toolbox           |
|  \\    /   O peration     | Version:  4.1                                   |
|   \\  /    A nd           | Web:      www.OpenFOAM.org                      |
|    \\/     M anipulation  |                                                 |
\*---------------------------------------------------------------------------*/
FoamFile
{
    version     2.0;
    format      ascii;
    class       volScalarField;
    location    "400";
    object      p_rgh;
}
// * * * * * * * * * * * * * * * * * * * * * * * * * * * * * * * * * * * * * //

dimensions      [0 2 -2 0 0 0 0];

internalField   nonuniform List<scalar> 
1600
(
0.0491786
0.0491876
0.0492139
0.0492394
0.0492467
0.0492453
0.0492432
0.0492409
0.0492388
0.0492385
0.0492426
0.0492542
0.0492758
0.0493088
0.0493517
0.0493964
0.0494245
0.0494301
0.0493927
0.0493578
0.0493278
0.0493036
0.0492717
0.0492344
0.0492333
0.0492453
0.0492385
0.0492593
0.0492866
0.0492947
0.0492973
0.0493229
0.0492492
0.0492443
0.0493311
0.0493008
0.0493206
0.0493579
0.0494142
0.0493607
0.0492075
0.0492536
0.049295
0.0493321
0.0493357
0.0493242
0.0493134
0.0493056
0.0492987
0.0492932
0.0492913
0.0492957
0.0493088
0.049334
0.0493699
0.0494076
0.0494311
0.0494309
0.0494052
0.0493842
0.0493684
0.0493548
0.0493322
0.0492569
0.0492337
0.0492736
0.0492709
0.0492877
0.0493193
0.0493494
0.0493682
0.0493563
0.0492486
0.0492537
0.0493497
0.0493092
0.0493308
0.0493655
0.0494085
0.0493655
0.0492201
0.0493025
0.0493432
0.0493733
0.0493731
0.0493596
0.0493444
0.0493296
0.0493146
0.0493011
0.0492922
0.0492918
0.0493029
0.0493268
0.0493608
0.0493965
0.0494195
0.0494174
0.0493972
0.0493815
0.0493704
0.0493595
0.0493414
0.04926
0.0492121
0.0492567
0.0492594
0.0492789
0.0493167
0.04935
0.0493702
0.0493534
0.0492314
0.0492954
0.049352
0.0493161
0.0493215
0.0493558
0.0493944
0.049365
0.0492198
0.0493391
0.0493758
0.0493946
0.049389
0.0493739
0.0493556
0.0493358
0.0493157
0.0492978
0.0492859
0.0492836
0.0492935
0.0493161
0.0493485
0.0493827
0.0494056
0.0494032
0.0493884
0.0493748
0.0493662
0.0493574
0.049343
0.0492573
0.0491844
0.0492111
0.0492267
0.0492619
0.0493107
0.0493496
0.0493719
0.0493541
0.0492345
0.0493506
0.0493738
0.0493318
0.0493104
0.0493443
0.0493836
0.0493627
0.0492143
0.0493678
0.0493994
0.0494077
0.0493972
0.0493796
0.0493584
0.0493351
0.0493115
0.0492909
0.0492769
0.0492731
0.0492815
0.0493027
0.0493337
0.0493669
0.0493904
0.0493902
0.0493802
0.0493672
0.0493607
0.0493542
0.0493433
0.0492546
0.0491617
0.0491696
0.0491759
0.049234
0.0493017
0.0493498
0.0493765
0.0493722
0.0492912
0.0493963
0.0493953
0.0493527
0.0493094
0.0493298
0.0493786
0.0493594
0.0492076
0.0493905
0.0494166
0.0494165
0.0494021
0.0493815
0.0493574
0.0493311
0.0493047
0.0492817
0.0492657
0.0492601
0.049267
0.0492868
0.0493166
0.0493496
0.0493745
0.0493787
0.0493723
0.0493597
0.0493546
0.0493503
0.0493425
0.049253
0.0491466
0.0491399
0.0491464
0.0492028
0.0492888
0.0493495
0.0493819
0.049396
0.049385
0.0494171
0.0494056
0.0493721
0.0493138
0.0493323
0.0493796
0.0493552
0.0492013
0.0494082
0.049429
0.0494227
0.0494049
0.0493814
0.0493544
0.0493251
0.0492961
0.0492705
0.0492523
0.0492448
0.0492501
0.0492685
0.0492977
0.0493312
0.0493586
0.0493685
0.0493645
0.0493529
0.0493485
0.0493459
0.0493417
0.0492534
0.0491379
0.0491218
0.049134
0.0491948
0.0492829
0.0493496
0.0493865
0.0494059
0.049436
0.0494242
0.0494095
0.0493863
0.0493194
0.0493414
0.049386
0.0493485
0.0491957
0.0494217
0.0494379
0.049427
0.0494062
0.0493799
0.0493499
0.0493178
0.0492859
0.0492576
0.0492369
0.0492273
0.049231
0.0492485
0.0492773
0.049312
0.0493429
0.0493587
0.0493568
0.0493472
0.0493428
0.0493415
0.0493413
0.0492582
0.0491355
0.0491155
0.0491371
0.0492061
0.0492906
0.0493551
0.0493918
0.0494111
0.0494371
0.0494259
0.0494112
0.0493938
0.0493232
0.0493526
0.0493937
0.0493382
0.0491909
0.049432
0.0494444
0.0494299
0.0494064
0.0493773
0.0493444
0.0493093
0.0492742
0.0492429
0.0492196
0.0492079
0.0492104
0.0492272
0.0492562
0.0492925
0.0493274
0.0493491
0.0493494
0.0493424
0.0493379
0.0493374
0.0493415
0.0492718
0.0491421
0.0491231
0.0491562
0.0492311
0.0493095
0.0493667
0.0493991
0.0494164
0.049434
0.0494271
0.0494119
0.0493951
0.0493238
0.0493642
0.0493998
0.0493238
0.0491869
0.0494398
0.0494491
0.0494317
0.0494057
0.0493739
0.0493381
0.0492996
0.0492612
0.0492267
0.0492006
0.0491871
0.0491888
0.0492054
0.0492347
0.0492731
0.0493124
0.0493397
0.0493426
0.0493385
0.0493338
0.0493336
0.0493418
0.0492968
0.049162
0.0491476
0.0491916
0.0492674
0.0493361
0.0493827
0.0494083
0.0494219
0.0494329
0.0494283
0.0494118
0.0493918
0.0493209
0.0493758
0.049403
0.0493062
0.0491836
0.0494459
0.0494525
0.0494326
0.0494043
0.0493699
0.049331
0.0492891
0.0492471
0.0492092
0.0491806
0.0491657
0.0491673
0.0491839
0.0492137
0.049254
0.049298
0.0493307
0.0493366
0.0493349
0.0493304
0.0493304
0.0493417
0.0493273
0.0491989
0.0491904
0.0492407
0.0493107
0.0493664
0.0494004
0.0494184
0.0494277
0.0494338
0.0494297
0.0494108
0.0493851
0.0493149
0.0493868
0.049403
0.0492895
0.0491809
0.0494506
0.0494551
0.0494329
0.0494024
0.0493653
0.0493233
0.0492779
0.0492322
0.0491909
0.0491603
0.0491448
0.0491469
0.0491637
0.0491937
0.0492358
0.0492843
0.0493222
0.0493314
0.0493316
0.0493275
0.0493276
0.0493405
0.0493518
0.0492512
0.0492478
0.0492971
0.0493545
0.0493953
0.049417
0.0494281
0.0494336
0.049436
0.0494313
0.0494087
0.0493754
0.0493072
0.0493959
0.0494026
0.0492792
0.0491786
0.0494544
0.049457
0.0494329
0.0494003
0.0493605
0.0493153
0.0492663
0.0492168
0.0491724
0.0491403
0.0491255
0.0491288
0.0491456
0.0491753
0.0492187
0.0492715
0.0493144
0.0493269
0.0493285
0.0493248
0.0493251
0.0493381
0.0493642
0.0493079
0.0493092
0.0493508
0.0493923
0.0494182
0.0494308
0.0494368
0.0494394
0.049439
0.0494329
0.0494051
0.0493625
0.0492993
0.0494
0.0494088
0.0492765
0.0491766
0.0494575
0.0494586
0.0494327
0.049398
0.0493556
0.0493073
0.0492546
0.0492014
0.0491542
0.0491215
0.0491091
0.0491141
0.0491304
0.0491591
0.0492031
0.0492597
0.0493074
0.0493231
0.0493258
0.0493222
0.0493226
0.0493348
0.049366
0.0493537
0.0493613
0.0493926
0.0494196
0.0494345
0.0494413
0.0494444
0.049445
0.0494425
0.0494345
0.0493995
0.0493456
0.0492885
0.0494003
0.0494206
0.049283
0.049175
0.0494602
0.04946
0.0494326
0.0493959
0.0493509
0.0492995
0.0492433
0.0491866
0.0491372
0.0491051
0.049097
0.0491036
0.0491186
0.0491454
0.0491893
0.049249
0.0493011
0.0493199
0.0493236
0.0493198
0.0493199
0.0493311
0.0493618
0.0493798
0.049395
0.0494186
0.0494359
0.0494449
0.0494491
0.0494508
0.0494503
0.0494462
0.049436
0.0493911
0.0493241
0.0492736
0.0493971
0.0494339
0.0492994
0.0491737
0.0494626
0.0494614
0.0494326
0.0493941
0.0493467
0.0492922
0.0492328
0.049173
0.0491224
0.0490928
0.04909
0.0490976
0.0491104
0.0491345
0.0491775
0.0492396
0.0492957
0.0493176
0.0493219
0.0493174
0.049317
0.0493275
0.0493554
0.0493878
0.0494101
0.0494303
0.0494437
0.049451
0.0494549
0.0494565
0.0494554
0.0494501
0.0494374
0.0493775
0.049297
0.0492544
0.0493904
0.0494454
0.0493237
0.0491727
0.049465
0.0494629
0.049433
0.0493929
0.0493432
0.049286
0.0492235
0.0491612
0.0491103
0.0490853
0.0490885
0.0490959
0.0491058
0.0491266
0.0491679
0.0492315
0.0492911
0.0493162
0.0493208
0.0493154
0.0493139
0.0493238
0.0493487
0.0493849
0.0494121
0.0494326
0.0494461
0.0494544
0.0494593
0.0494615
0.0494603
0.0494541
0.0494385
0.0493598
0.0492654
0.0492314
0.0493809
0.0494538
0.0493512
0.0491718
0.0494673
0.0494648
0.0494339
0.0493924
0.0493406
0.049281
0.049216
0.0491516
0.0491013
0.0490838
0.0490921
0.0490978
0.049104
0.0491213
0.0491606
0.049225
0.0492875
0.0493156
0.0493205
0.049314
0.0493108
0.0493199
0.0493425
0.0493777
0.0494077
0.0494301
0.0494458
0.0494563
0.0494629
0.049466
0.049465
0.0494582
0.0494392
0.0493401
0.049232
0.0492056
0.0493697
0.049459
0.0493769
0.0491712
0.0494698
0.049467
0.0494355
0.0493927
0.0493393
0.0492776
0.0492104
0.0491443
0.0490955
0.0490888
0.0490992
0.0491022
0.0491047
0.0491182
0.0491555
0.0492205
0.0492853
0.0493159
0.0493209
0.0493131
0.0493082
0.0493159
0.049337
0.0493701
0.0494013
0.049426
0.0494444
0.0494574
0.0494658
0.04947
0.0494694
0.0494625
0.0494389
0.0493189
0.0492021
0.0491789
0.0493589
0.0494619
0.0493982
0.0491708
0.0494725
0.0494696
0.0494377
0.0493942
0.0493395
0.0492762
0.0492073
0.0491394
0.0490918
0.0490988
0.0491085
0.0491086
0.0491068
0.0491165
0.0491521
0.0492179
0.0492847
0.0493172
0.0493222
0.0493131
0.0493064
0.0493121
0.0493322
0.0493634
0.0493951
0.0494219
0.0494428
0.0494582
0.0494682
0.0494734
0.0494735
0.0494669
0.049437
0.0493034
0.0491816
0.0491539
0.0493504
0.0494635
0.0494144
0.0491706
0.0494755
0.0494728
0.0494408
0.0493968
0.0493413
0.049277
0.0492071
0.0491384
0.0490921
0.0491115
0.0491199
0.0491162
0.0491099
0.049116
0.0491503
0.0492173
0.0492857
0.0493195
0.0493242
0.0493139
0.0493059
0.0493089
0.0493282
0.049358
0.04939
0.0494184
0.0494414
0.0494586
0.0494701
0.0494763
0.0494772
0.0494714
0.0494335
0.0493029
0.0491727
0.049133
0.0493458
0.0494644
0.0494268
0.0491706
0.0494787
0.0494765
0.0494447
0.0494006
0.0493448
0.0492802
0.0492094
0.0491378
0.0491114
0.049128
0.0491327
0.0491241
0.0491132
0.0491162
0.0491498
0.0492184
0.0492883
0.0493228
0.0493272
0.0493159
0.0493067
0.0493068
0.0493252
0.0493541
0.0493862
0.0494157
0.0494403
0.0494588
0.0494714
0.0494785
0.0494803
0.0494757
0.0494342
0.0493132
0.0491763
0.049117
0.0493506
0.0494668
0.0494362
0.0491708
0.0494822
0.0494808
0.0494494
0.0494056
0.0493501
0.0492845
0.049213
0.0491441
0.0491368
0.0491475
0.0491459
0.0491316
0.0491162
0.0491168
0.0491505
0.0492213
0.0492925
0.0493272
0.0493313
0.049319
0.0493089
0.0493071
0.049322
0.0493515
0.0493837
0.0494139
0.0494394
0.0494588
0.0494721
0.04948
0.0494828
0.049479
0.049441
0.0493325
0.049194
0.0491095
0.0493664
0.0494719
0.0494425
0.0491712
0.049486
0.0494856
0.0494548
0.0494118
0.0493556
0.0492902
0.04922
0.0491601
0.0491617
0.0491674
0.0491583
0.0491378
0.0491184
0.0491175
0.0491524
0.0492259
0.049298
0.0493325
0.0493362
0.0493232
0.0493124
0.0493096
0.0493186
0.0493493
0.0493823
0.0494128
0.0494387
0.0494584
0.0494721
0.0494806
0.0494846
0.0494818
0.0494512
0.0493594
0.0492278
0.0491203
0.0493921
0.0494789
0.0494464
0.0491719
0.0494901
0.0494909
0.0494609
0.0494179
0.0493619
0.0492981
0.0492315
0.049186
0.049189
0.0491863
0.0491686
0.049142
0.0491194
0.0491182
0.0491554
0.0492322
0.0493049
0.0493386
0.049342
0.0493284
0.0493173
0.0493139
0.0493218
0.049348
0.0493804
0.0494124
0.0494381
0.0494576
0.0494713
0.0494803
0.0494853
0.0494843
0.0494622
0.0493905
0.0492773
0.0491638
0.0494246
0.0494861
0.0494484
0.0491728
0.0494943
0.0494966
0.049467
0.049424
0.0493693
0.0493083
0.0492484
0.0492173
0.0492157
0.0492023
0.0491755
0.0491434
0.0491188
0.0491188
0.0491597
0.0492404
0.049313
0.0493454
0.0493484
0.0493346
0.0493234
0.0493196
0.0493268
0.0493486
0.0493799
0.0494108
0.0494365
0.0494563
0.0494698
0.0494792
0.0494852
0.0494861
0.0494722
0.0494212
0.0493361
0.0492462
0.0494578
0.0494923
0.0494489
0.0491741
0.0494987
0.0495025
0.0494727
0.0494305
0.0493778
0.0493211
0.0492703
0.0492493
0.0492385
0.0492132
0.0491778
0.0491415
0.0491166
0.0491195
0.0491654
0.0492504
0.0493222
0.0493527
0.0493552
0.0493417
0.0493305
0.0493266
0.0493327
0.0493513
0.0493804
0.0494096
0.0494343
0.0494535
0.049467
0.0494769
0.0494838
0.0494869
0.0494798
0.049447
0.0493927
0.0493513
0.0494847
0.0494965
0.049448
0.049176
0.049503
0.0495081
0.0494783
0.0494372
0.0493875
0.0493364
0.0492955
0.0492779
0.0492542
0.0492171
0.0491747
0.0491363
0.049113
0.0491207
0.049173
0.0492624
0.0493323
0.0493604
0.0493623
0.0493493
0.0493385
0.0493346
0.0493397
0.0493557
0.0493817
0.0494087
0.0494318
0.0494499
0.0494632
0.0494734
0.0494813
0.0494864
0.0494845
0.0494657
0.0494365
0.0494434
0.0495005
0.0494987
0.0494462
0.0491788
0.0495072
0.0495132
0.0494835
0.049444
0.0493979
0.0493532
0.0493201
0.0492973
0.0492596
0.0492127
0.049166
0.0491278
0.0491086
0.049123
0.0491827
0.0492765
0.0493431
0.0493682
0.0493694
0.0493573
0.0493471
0.0493433
0.0493476
0.0493612
0.0493837
0.0494081
0.0494292
0.0494459
0.0494586
0.0494689
0.0494777
0.0494845
0.0494865
0.0494775
0.0494644
0.0494963
0.049506
0.049499
0.0494436
0.049184
0.049507
0.0495173
0.049488
0.0494503
0.0494081
0.0493691
0.0493387
0.0493029
0.0492531
0.0491997
0.049152
0.049117
0.0491041
0.0491271
0.0491953
0.0492927
0.0493541
0.0493759
0.0493764
0.0493655
0.049356
0.0493524
0.049356
0.0493674
0.0493865
0.0494077
0.0494265
0.0494416
0.0494535
0.0494637
0.0494731
0.0494815
0.0494864
0.0494839
0.0494811
0.0495123
0.0495045
0.049498
0.0494406
0.0491923
0.0495021
0.0495193
0.0494909
0.0494548
0.0494157
0.0493794
0.0493442
0.0492933
0.0492346
0.0491791
0.049134
0.0491052
0.049101
0.0491343
0.0492114
0.0493112
0.0493651
0.0493832
0.0493831
0.0493735
0.0493649
0.0493616
0.0493646
0.0493741
0.0493897
0.0494077
0.0494239
0.0494371
0.0494481
0.0494579
0.0494676
0.0494773
0.0494847
0.0494864
0.0494915
0.0495098
0.0494993
0.0494958
0.0494373
0.0492047
0.049492
0.0495171
0.0494903
0.0494549
0.0494167
0.0493782
0.0493293
0.0492675
0.0492057
0.0491529
0.0491144
0.0490944
0.0491011
0.0491459
0.0492316
0.0493317
0.0493755
0.0493896
0.049389
0.0493811
0.0493733
0.0493703
0.0493729
0.0493807
0.0493931
0.0494077
0.0494212
0.0494325
0.0494422
0.0494515
0.0494614
0.0494722
0.0494818
0.0494864
0.0494967
0.0495018
0.0494922
0.0494924
0.0494339
0.0492221
0.049477
0.0495072
0.0494822
0.0494461
0.0494052
0.0493591
0.0492956
0.0492289
0.04917
0.0491248
0.0490963
0.0490876
0.0491067
0.0491634
0.0492567
0.0493538
0.0493847
0.0493947
0.0493939
0.0493879
0.0493811
0.049378
0.04938
0.0493864
0.049396
0.0494074
0.0494182
0.0494275
0.0494359
0.0494446
0.0494546
0.0494663
0.0494779
0.0494848
0.0494952
0.0494915
0.0494836
0.0494864
0.0494302
0.0492453
0.0494577
0.0494862
0.0494611
0.049422
0.049375
0.0493148
0.0492452
0.0491824
0.049133
0.0490999
0.049084
0.0490881
0.0491203
0.0491884
0.049287
0.0493769
0.0493919
0.0493976
0.0493971
0.0493931
0.0493877
0.0493845
0.0493854
0.0493902
0.0493976
0.0494062
0.0494144
0.0494218
0.0494291
0.0494372
0.0494472
0.0494595
0.0494726
0.049482
0.0494855
0.049478
0.0494733
0.049482
0.0494252
0.0492747
0.0494355
0.0494518
0.049422
0.0493774
0.0493228
0.0492535
0.0491889
0.0491374
0.0491024
0.0490841
0.0490822
0.0490998
0.0491448
0.0492224
0.0493227
0.0493995
0.0493958
0.0493984
0.0493979
0.0493957
0.0493923
0.0493895
0.0493893
0.0493922
0.0493974
0.0494035
0.0494096
0.0494153
0.0494214
0.0494289
0.0494387
0.049451
0.0494643
0.0494738
0.0494673
0.0494607
0.0494674
0.04948
0.0494182
0.0493101
0.049412
0.0494045
0.049364
0.0493124
0.0492503
0.0491864
0.0491358
0.0491022
0.0490855
0.0490837
0.0490962
0.0491266
0.0491825
0.0492663
0.0493634
0.0494192
0.0493955
0.0493965
0.0493951
0.0493936
0.0493925
0.0493916
0.0493915
0.049393
0.0493962
0.0494002
0.0494042
0.0494083
0.0494132
0.0494196
0.0494284
0.0494397
0.0494508
0.049449
0.0494401
0.0494552
0.0494653
0.0494631
0.0494117
0.0493502
0.0493887
0.0493481
0.0492925
0.0492351
0.0491758
0.0491295
0.0491003
0.0490884
0.0490912
0.0491055
0.0491308
0.0491718
0.0492352
0.0493205
0.049408
0.0494322
0.0493914
0.049392
0.0493878
0.0493838
0.0493824
0.049383
0.0493848
0.0493872
0.0493892
0.04939
0.0493896
0.0493883
0.0493868
0.0493867
0.0493899
0.0493965
0.0494044
0.0494114
0.0494176
0.0494289
0.0494369
0.049436
0.0494089
0.0493918
0.0493673
0.0492894
0.0492189
0.049162
0.0491202
0.049098
0.049094
0.0491051
0.0491264
0.0491546
0.0491899
0.0492376
0.0493035
0.0493845
0.0494541
0.0494315
0.0493871
0.0493867
0.0493773
0.0493656
0.0493559
0.0493486
0.0493431
0.049338
0.0493327
0.049327
0.049322
0.049319
0.0493194
0.0493237
0.0493314
0.0493423
0.0493553
0.0493688
0.0493789
0.0493879
0.0493976
0.049408
0.0494081
0.0494287
0.0493492
0.049238
0.0491604
0.0491183
0.0491048
0.0491113
0.0491327
0.0491635
0.049199
0.0492363
0.0492771
0.0493263
0.0493879
0.0494575
0.0494981
0.0494054
0.0493841
0.0493874
0.0493731
0.0493521
0.0493308
0.0493123
0.0492975
0.0492867
0.0492793
0.0492746
0.0492722
0.0492718
0.0492737
0.0492784
0.0492865
0.0492978
0.0493113
0.0493253
0.0493362
0.049346
0.0493596
0.0493823
0.0494058
0.0494607
0.0493587
0.0492395
0.0491795
0.049168
0.049182
0.0492097
0.0492453
0.0492844
0.0493237
0.0493631
0.0494041
0.0494486
0.0494962
0.0495426
0.04953
0.0494734
0.049431
0.0494162
0.0494057
0.0493888
0.049371
0.0493548
0.0493412
0.0493303
0.0493215
0.0493145
0.0493088
0.0493044
0.0493015
0.0493008
0.0493027
0.0493075
0.0493149
0.049323
0.0493293
0.049335
0.0493469
0.0493732
0.0494037
)
;

boundaryField
{
    floor
    {
        type            fixedFluxPressure;
        gradient        uniform 0;
        value           nonuniform List<scalar> 
40
(
0.0491786
0.0491876
0.0492139
0.0492394
0.0492467
0.0492453
0.0492432
0.0492409
0.0492388
0.0492385
0.0492426
0.0492542
0.0492758
0.0493088
0.0493517
0.0493964
0.0494245
0.0494301
0.0493927
0.0493578
0.0493278
0.0493036
0.0492717
0.0492344
0.0492333
0.0492453
0.0492385
0.0492593
0.0492866
0.0492947
0.0492973
0.0493229
0.0492492
0.0492443
0.0493311
0.0493008
0.0493206
0.0493579
0.0494142
0.0493607
)
;
    }
    ceiling
    {
        type            fixedFluxPressure;
        gradient        nonuniform List<scalar> 
40
(
0.264004
0.263246
0.262553
0.260662
0.257288
0.252835
0.247787
0.24272
0.238114
0.234103
0.230326
0.226091
0.220782
0.214183
0.206785
0.210182
0.222153
0.230302
0.231854
0.23178
0.232463
0.233299
0.234136
0.234935
0.235683
0.236369
0.236981
0.2375
0.237907
0.238181
0.238306
0.238268
0.238057
0.237641
0.23701
0.236173
0.235133
0.233894
0.23249
0.231158
)
;
        value           nonuniform List<scalar> 
40
(
0.0507808
0.0506749
0.0505523
0.0504828
0.0504544
0.0504462
0.0504487
0.0504589
0.0504749
0.0504943
0.0505147
0.0505346
0.0505525
0.0505672
0.0505765
0.050581
0.0505842
0.0505825
0.0505755
0.0505646
0.0505511
0.0505375
0.0505255
0.0505159
0.0505087
0.0505034
0.0504994
0.0504963
0.0504939
0.0504924
0.0504923
0.050494
0.0504978
0.0505031
0.0505081
0.0505102
0.0505107
0.0505164
0.0505357
0.0505595
)
;
    }
    fixedWalls
    {
        type            fixedFluxPressure;
        gradient        uniform 0;
        value           nonuniform List<scalar> 
80
(
0.0491786
0.0492075
0.0492201
0.0492198
0.0492143
0.0492076
0.0492013
0.0491957
0.0491909
0.0491869
0.0491836
0.0491809
0.0491786
0.0491766
0.049175
0.0491737
0.0491727
0.0491718
0.0491712
0.0491708
0.0491706
0.0491706
0.0491708
0.0491712
0.0491719
0.0491728
0.0491741
0.049176
0.0491788
0.049184
0.0491923
0.0492047
0.0492221
0.0492453
0.0492747
0.0493101
0.0493502
0.0493918
0.0494287
0.0494607
0.0493607
0.0493655
0.049365
0.0493627
0.0493594
0.0493552
0.0493485
0.0493382
0.0493238
0.0493062
0.0492895
0.0492792
0.0492765
0.049283
0.0492994
0.0493237
0.0493512
0.0493769
0.0493982
0.0494144
0.0494268
0.0494362
0.0494425
0.0494464
0.0494484
0.0494489
0.049448
0.0494462
0.0494436
0.0494406
0.0494373
0.0494339
0.0494302
0.0494252
0.0494182
0.0494117
0.0494089
0.0494081
0.0494058
0.0494037
)
;
    }
    frontAndBack
    {
        type            empty;
    }
}


// ************************************************************************* //
