/*--------------------------------*- C++ -*----------------------------------*\
| =========                 |                                                 |
| \\      /  F ield         | OpenFOAM: The Open Source CFD Toolbox           |
|  \\    /   O peration     | Version:  4.1                                   |
|   \\  /    A nd           | Web:      www.OpenFOAM.org                      |
|    \\/     M anipulation  |                                                 |
\*---------------------------------------------------------------------------*/
FoamFile
{
    version     2.0;
    format      ascii;
    class       volScalarField;
    location    "400";
    object      p_rgh;
}
// * * * * * * * * * * * * * * * * * * * * * * * * * * * * * * * * * * * * * //

dimensions      [0 2 -2 0 0 0 0];

internalField   nonuniform List<scalar> 
5000
(
0.0492246
0.0492279
0.049208
0.0491925
0.0491837
0.0491769
0.0491703
0.0491636
0.0491568
0.0491501
0.0491436
0.0491374
0.0491318
0.0491266
0.0491222
0.0491185
0.0491156
0.0491135
0.0491123
0.0491121
0.0491128
0.0491144
0.0491168
0.0491202
0.0491244
0.0491295
0.0491353
0.0491419
0.049149
0.0491568
0.0491649
0.0491734
0.0491821
0.0491908
0.0491994
0.0492078
0.0492159
0.0492235
0.0492306
0.0492371
0.049243
0.0492481
0.0492525
0.0492559
0.0492587
0.0492597
0.0492566
0.0492495
0.0492391
0.0492265
0.0492124
0.0491974
0.0491821
0.0491669
0.0491521
0.0491379
0.0491243
0.0491115
0.0490995
0.0490882
0.0490776
0.0490678
0.0490587
0.0490503
0.0490426
0.0490357
0.0490294
0.0490239
0.0490192
0.0490152
0.049012
0.0490096
0.0490079
0.0490068
0.0490063
0.0490064
0.049007
0.0490079
0.0490092
0.0490106
0.049012
0.0490134
0.0490146
0.0490155
0.049016
0.049016
0.0490154
0.0490142
0.0490125
0.0490102
0.0490075
0.0490047
0.0490023
0.0490011
0.0490026
0.0490075
0.0490106
0.0490098
0.0490115
0.0490216
0.0492431
0.0492252
0.049209
0.0492118
0.0492223
0.0492262
0.0492234
0.0492177
0.0492111
0.0492043
0.0491976
0.049191
0.0491847
0.0491789
0.0491735
0.0491688
0.0491646
0.0491612
0.0491585
0.0491566
0.0491556
0.0491558
0.049157
0.0491592
0.0491624
0.0491665
0.0491715
0.0491772
0.0491837
0.0491907
0.0491982
0.049206
0.0492141
0.0492221
0.0492301
0.0492378
0.0492452
0.049252
0.0492583
0.0492639
0.0492687
0.0492727
0.0492756
0.0492769
0.049277
0.0492758
0.0492721
0.0492654
0.0492558
0.0492442
0.0492312
0.0492175
0.0492035
0.0491897
0.0491764
0.0491636
0.0491515
0.0491402
0.0491296
0.0491197
0.0491105
0.0491021
0.0490945
0.0490876
0.0490814
0.049076
0.0490715
0.0490677
0.0490646
0.0490621
0.0490603
0.0490591
0.0490585
0.0490585
0.0490589
0.0490599
0.0490612
0.0490628
0.0490646
0.0490665
0.0490684
0.0490701
0.0490717
0.0490729
0.0490737
0.049074
0.0490737
0.0490726
0.0490708
0.0490682
0.0490651
0.0490618
0.0490596
0.0490607
0.0490667
0.0490744
0.0490788
0.0490659
0.0490416
0.0490288
0.0492472
0.0492237
0.0492104
0.0492249
0.0492445
0.0492507
0.0492468
0.0492389
0.0492297
0.0492201
0.0492106
0.0492013
0.0491925
0.0491844
0.0491771
0.0491707
0.0491652
0.0491608
0.0491575
0.0491553
0.0491542
0.0491542
0.0491552
0.0491573
0.0491603
0.0491643
0.0491692
0.0491749
0.0491813
0.0491883
0.0491958
0.0492036
0.0492115
0.0492196
0.0492275
0.0492351
0.0492423
0.049249
0.049255
0.0492603
0.0492647
0.0492681
0.0492703
0.049271
0.0492705
0.0492691
0.0492649
0.049258
0.0492486
0.0492373
0.0492246
0.0492112
0.0491976
0.0491842
0.0491713
0.0491589
0.0491472
0.0491361
0.0491258
0.0491162
0.0491072
0.049099
0.0490915
0.0490846
0.0490786
0.0490733
0.0490688
0.0490651
0.0490624
0.0490605
0.0490594
0.0490593
0.0490599
0.0490614
0.0490636
0.0490665
0.0490699
0.0490738
0.049078
0.0490825
0.0490869
0.0490913
0.0490954
0.0490992
0.0491024
0.0491049
0.0491066
0.0491075
0.0491073
0.0491062
0.0491043
0.0491021
0.0491008
0.0491023
0.0491073
0.0491128
0.0491142
0.049093
0.049047
0.0490058
0.04924
0.0492138
0.0492084
0.0492322
0.0492553
0.0492608
0.0492551
0.0492451
0.049234
0.0492226
0.0492116
0.0492011
0.0491914
0.0491826
0.0491748
0.049168
0.0491624
0.0491578
0.0491544
0.049152
0.0491507
0.0491505
0.0491514
0.0491534
0.0491563
0.0491602
0.049165
0.0491706
0.049177
0.0491839
0.0491914
0.0491992
0.0492072
0.0492153
0.0492232
0.0492307
0.0492379
0.0492444
0.0492501
0.049255
0.0492589
0.0492617
0.0492631
0.0492635
0.0492626
0.0492604
0.0492558
0.0492487
0.0492392
0.049228
0.0492155
0.0492024
0.0491893
0.0491763
0.0491638
0.0491519
0.0491406
0.0491299
0.0491199
0.0491105
0.0491018
0.0490937
0.0490863
0.0490796
0.0490735
0.0490683
0.0490638
0.0490601
0.0490573
0.0490555
0.0490545
0.0490545
0.0490553
0.0490571
0.0490598
0.0490632
0.0490675
0.0490724
0.0490779
0.0490838
0.04909
0.0490963
0.0491025
0.0491085
0.0491141
0.0491191
0.0491232
0.0491264
0.0491285
0.0491295
0.0491294
0.0491288
0.0491287
0.0491303
0.049134
0.0491373
0.0491328
0.0491007
0.0490328
0.0489614
0.0492191
0.0491945
0.0492006
0.0492336
0.0492586
0.0492629
0.0492557
0.0492446
0.0492325
0.0492204
0.0492088
0.049198
0.049188
0.0491791
0.0491711
0.0491643
0.0491586
0.0491539
0.0491502
0.0491477
0.0491462
0.0491458
0.0491465
0.0491482
0.049151
0.0491548
0.0491595
0.049165
0.0491714
0.0491783
0.0491859
0.0491937
0.0492018
0.0492099
0.0492178
0.0492254
0.0492324
0.0492387
0.0492442
0.0492487
0.0492521
0.0492542
0.0492551
0.0492548
0.0492537
0.0492506
0.0492455
0.049238
0.0492283
0.0492171
0.0492048
0.049192
0.0491793
0.0491668
0.0491548
0.0491434
0.0491326
0.0491224
0.0491128
0.0491037
0.0490952
0.0490873
0.04908
0.0490733
0.0490674
0.0490621
0.0490576
0.0490539
0.0490511
0.0490492
0.0490482
0.0490481
0.049049
0.0490509
0.0490537
0.0490573
0.0490619
0.0490672
0.0490733
0.04908
0.0490871
0.0490946
0.0491023
0.0491099
0.0491173
0.0491242
0.0491304
0.0491357
0.0491399
0.0491429
0.0491447
0.0491457
0.0491466
0.0491481
0.0491502
0.0491506
0.04914
0.0490957
0.0490071
0.0489086
0.0491873
0.0491679
0.0491873
0.0492293
0.0492562
0.04926
0.0492522
0.0492407
0.0492283
0.049216
0.0492043
0.0491935
0.0491835
0.0491745
0.0491666
0.0491597
0.0491538
0.049149
0.0491451
0.0491423
0.0491406
0.0491399
0.0491403
0.0491418
0.0491444
0.049148
0.0491525
0.049158
0.0491643
0.0491714
0.0491789
0.0491869
0.0491951
0.0492033
0.0492113
0.0492189
0.0492259
0.0492321
0.0492373
0.0492415
0.0492444
0.0492459
0.0492464
0.0492457
0.0492438
0.04924
0.0492342
0.0492262
0.0492163
0.0492049
0.0491927
0.0491803
0.049168
0.0491561
0.0491448
0.049134
0.0491237
0.049114
0.0491048
0.049096
0.0490878
0.0490801
0.049073
0.0490664
0.0490605
0.0490553
0.0490508
0.0490471
0.0490442
0.0490421
0.0490411
0.0490409
0.0490418
0.0490436
0.0490464
0.0490502
0.0490548
0.0490604
0.0490668
0.0490739
0.0490817
0.0490899
0.0490985
0.0491072
0.0491159
0.0491243
0.0491322
0.0491392
0.0491452
0.04915
0.0491536
0.049156
0.0491577
0.0491592
0.0491602
0.049158
0.0491414
0.0490834
0.0489758
0.0488552
0.0491496
0.0491372
0.04917
0.0492207
0.0492499
0.0492539
0.0492461
0.0492346
0.0492224
0.0492103
0.0491987
0.049188
0.0491781
0.0491692
0.0491612
0.0491542
0.0491482
0.0491431
0.049139
0.0491359
0.0491338
0.0491328
0.0491328
0.049134
0.0491363
0.0491396
0.0491441
0.0491495
0.0491558
0.0491629
0.0491706
0.0491787
0.0491871
0.0491955
0.0492036
0.0492113
0.0492184
0.0492245
0.0492296
0.0492334
0.0492359
0.049237
0.0492371
0.049236
0.0492333
0.0492288
0.0492223
0.0492137
0.0492034
0.0491919
0.0491799
0.0491678
0.049156
0.0491448
0.0491341
0.049124
0.0491144
0.0491052
0.0490964
0.0490881
0.0490802
0.0490728
0.0490659
0.0490595
0.0490537
0.0490486
0.0490441
0.0490403
0.0490374
0.0490352
0.049034
0.0490337
0.0490344
0.0490361
0.0490388
0.0490425
0.0490472
0.0490528
0.0490593
0.0490667
0.0490748
0.0490835
0.0490927
0.0491023
0.049112
0.0491215
0.0491306
0.0491391
0.0491467
0.049153
0.0491581
0.0491618
0.0491645
0.0491662
0.0491665
0.0491624
0.0491401
0.0490675
0.0489431
0.0488054
0.0491098
0.0491043
0.0491499
0.0492088
0.0492407
0.0492455
0.0492382
0.0492271
0.0492152
0.0492035
0.0491923
0.0491817
0.049172
0.0491631
0.0491551
0.049148
0.0491417
0.0491363
0.0491319
0.0491283
0.0491258
0.0491243
0.0491239
0.0491247
0.0491266
0.0491297
0.0491339
0.0491393
0.0491456
0.0491527
0.0491606
0.0491689
0.0491776
0.0491862
0.0491947
0.0492026
0.0492098
0.049216
0.0492211
0.0492247
0.0492269
0.0492278
0.0492275
0.0492258
0.0492224
0.0492172
0.0492099
0.0492007
0.04919
0.0491784
0.0491665
0.0491548
0.0491437
0.0491332
0.0491233
0.049114
0.049105
0.0490965
0.0490883
0.0490805
0.0490731
0.049066
0.0490593
0.0490532
0.0490475
0.0490425
0.0490381
0.0490343
0.0490313
0.0490291
0.0490277
0.0490272
0.0490277
0.0490292
0.0490317
0.0490351
0.0490396
0.0490451
0.0490515
0.0490589
0.0490672
0.0490762
0.0490858
0.0490959
0.0491063
0.0491168
0.0491269
0.0491366
0.0491455
0.0491533
0.0491597
0.0491648
0.0491684
0.0491706
0.0491707
0.0491654
0.0491384
0.0490507
0.0489129
0.0487619
0.0490696
0.0490706
0.049128
0.0491947
0.0492295
0.0492355
0.049229
0.0492186
0.0492073
0.049196
0.0491851
0.0491748
0.0491652
0.0491564
0.0491483
0.049141
0.0491344
0.0491286
0.0491237
0.0491196
0.0491164
0.0491144
0.0491134
0.0491137
0.0491152
0.049118
0.0491221
0.0491273
0.0491336
0.0491409
0.0491489
0.0491576
0.0491665
0.0491756
0.0491844
0.0491927
0.0492002
0.0492067
0.0492118
0.0492154
0.0492176
0.0492183
0.0492177
0.0492153
0.0492112
0.0492052
0.0491972
0.0491874
0.0491762
0.0491645
0.0491529
0.0491418
0.0491315
0.0491218
0.0491128
0.0491043
0.0490961
0.0490883
0.0490808
0.0490735
0.0490665
0.0490598
0.0490535
0.0490476
0.0490422
0.0490373
0.049033
0.0490293
0.0490263
0.0490241
0.0490226
0.049022
0.0490222
0.0490234
0.0490256
0.0490287
0.0490329
0.049038
0.0490442
0.0490514
0.0490595
0.0490685
0.0490784
0.0490888
0.0490997
0.0491107
0.0491218
0.0491325
0.0491425
0.0491515
0.0491593
0.0491656
0.0491703
0.0491733
0.0491737
0.049168
0.0491375
0.0490358
0.048889
0.0487267
0.0490301
0.0490367
0.0491047
0.0491789
0.049217
0.0492246
0.049219
0.0492094
0.0491987
0.0491879
0.0491775
0.0491675
0.049158
0.0491491
0.0491409
0.0491333
0.0491263
0.04912
0.0491144
0.0491097
0.0491058
0.049103
0.0491014
0.0491011
0.0491022
0.0491046
0.0491084
0.0491136
0.0491199
0.0491274
0.0491357
0.0491447
0.0491541
0.0491636
0.0491729
0.0491817
0.0491897
0.0491966
0.0492021
0.0492058
0.049208
0.0492087
0.0492075
0.0492045
0.0491997
0.0491929
0.0491841
0.0491737
0.0491622
0.0491505
0.0491393
0.0491289
0.0491195
0.0491108
0.0491027
0.0490951
0.0490878
0.0490807
0.0490738
0.0490671
0.0490606
0.0490543
0.0490484
0.0490428
0.0490376
0.0490329
0.0490287
0.0490251
0.0490222
0.0490199
0.0490185
0.0490177
0.0490178
0.0490188
0.0490207
0.0490235
0.0490272
0.049032
0.0490377
0.0490445
0.0490523
0.0490611
0.0490708
0.0490813
0.0490924
0.0491039
0.0491156
0.0491271
0.0491381
0.0491483
0.0491573
0.0491649
0.0491708
0.0491748
0.0491759
0.0491705
0.0491382
0.0490251
0.0488747
0.0487005
0.0489917
0.0490028
0.0490805
0.049162
0.0492035
0.0492129
0.0492085
0.0491997
0.0491897
0.0491795
0.0491695
0.0491597
0.0491504
0.0491415
0.049133
0.049125
0.0491175
0.0491106
0.0491042
0.0490986
0.0490939
0.0490903
0.049088
0.049087
0.0490876
0.0490897
0.0490933
0.0490983
0.0491047
0.0491123
0.049121
0.0491304
0.0491403
0.0491504
0.0491603
0.0491698
0.0491785
0.049186
0.0491919
0.049196
0.0491984
0.0491988
0.0491971
0.0491935
0.0491879
0.0491803
0.0491707
0.0491596
0.049148
0.0491365
0.0491259
0.0491164
0.049108
0.0491003
0.0490933
0.0490865
0.04908
0.0490736
0.0490673
0.0490612
0.0490551
0.0490493
0.0490436
0.0490383
0.0490333
0.0490288
0.0490248
0.0490213
0.0490185
0.0490163
0.0490149
0.0490142
0.0490142
0.0490151
0.0490168
0.0490193
0.0490227
0.049027
0.0490323
0.0490385
0.0490459
0.0490542
0.0490636
0.0490739
0.049085
0.0490967
0.0491087
0.0491208
0.0491327
0.0491438
0.049154
0.0491628
0.04917
0.0491751
0.0491773
0.0491728
0.0491404
0.0490203
0.0488716
0.0486831
0.0489546
0.0489692
0.0490556
0.0491441
0.0491894
0.0492008
0.0491977
0.0491899
0.0491806
0.049171
0.0491613
0.0491519
0.0491426
0.0491336
0.0491248
0.0491163
0.0491082
0.0491004
0.0490931
0.0490866
0.0490809
0.0490764
0.0490733
0.0490716
0.0490717
0.0490734
0.0490768
0.0490818
0.0490883
0.0490961
0.049105
0.0491149
0.0491254
0.0491361
0.0491469
0.0491572
0.0491666
0.0491749
0.0491814
0.0491863
0.0491887
0.0491887
0.0491864
0.0491821
0.0491757
0.0491672
0.0491568
0.0491453
0.0491336
0.0491226
0.0491128
0.0491044
0.0490971
0.0490905
0.0490844
0.0490785
0.0490727
0.0490669
0.0490612
0.0490555
0.0490499
0.0490444
0.0490391
0.0490341
0.0490293
0.049025
0.0490211
0.0490177
0.049015
0.0490129
0.0490115
0.0490108
0.0490109
0.0490118
0.0490134
0.0490158
0.049019
0.0490229
0.0490277
0.0490335
0.0490402
0.049048
0.0490569
0.0490668
0.0490777
0.0490893
0.0491015
0.049114
0.0491264
0.0491384
0.0491496
0.0491596
0.049168
0.0491744
0.0491779
0.0491746
0.0491438
0.0490221
0.0488799
0.0486732
0.0489191
0.0489359
0.0490301
0.0491256
0.049175
0.0491887
0.0491869
0.04918
0.0491715
0.0491624
0.0491532
0.049144
0.0491348
0.0491256
0.0491165
0.0491074
0.0490984
0.0490896
0.0490813
0.0490737
0.049067
0.0490615
0.0490575
0.0490552
0.0490548
0.0490562
0.0490594
0.0490643
0.0490709
0.0490789
0.0490882
0.0490985
0.0491095
0.049121
0.0491326
0.0491439
0.0491543
0.0491636
0.0491709
0.0491765
0.0491789
0.0491784
0.0491754
0.0491702
0.0491629
0.0491535
0.0491424
0.0491306
0.0491192
0.0491089
0.0491002
0.049093
0.0490868
0.0490812
0.049076
0.0490708
0.0490657
0.0490605
0.0490553
0.0490501
0.049045
0.0490399
0.0490349
0.0490301
0.0490255
0.0490213
0.0490175
0.0490142
0.0490115
0.0490094
0.0490081
0.0490075
0.0490076
0.0490085
0.0490102
0.0490125
0.0490156
0.0490193
0.0490238
0.0490292
0.0490354
0.0490426
0.0490508
0.0490602
0.0490706
0.049082
0.0490941
0.0491068
0.0491196
0.0491323
0.0491443
0.0491553
0.0491649
0.0491726
0.0491774
0.0491757
0.0491475
0.0490302
0.0488978
0.0486692
0.0488852
0.0489031
0.0490041
0.0491066
0.0491603
0.0491765
0.0491762
0.0491703
0.0491625
0.0491541
0.0491453
0.0491363
0.0491271
0.0491177
0.0491081
0.0490982
0.0490883
0.0490785
0.049069
0.0490602
0.0490524
0.0490459
0.049041
0.0490381
0.0490372
0.0490383
0.0490414
0.0490463
0.0490529
0.0490611
0.0490706
0.0490813
0.049093
0.0491053
0.0491178
0.0491301
0.0491417
0.0491521
0.0491605
0.0491668
0.0491691
0.0491679
0.049164
0.0491578
0.0491495
0.0491392
0.0491276
0.0491158
0.0491049
0.0490958
0.0490884
0.0490824
0.0490773
0.0490726
0.0490681
0.0490636
0.0490591
0.0490546
0.0490499
0.0490452
0.0490405
0.0490357
0.049031
0.0490264
0.049022
0.0490179
0.0490142
0.0490109
0.0490081
0.049006
0.0490046
0.049004
0.0490042
0.0490052
0.0490069
0.0490093
0.0490123
0.049016
0.0490203
0.0490253
0.049031
0.0490377
0.0490453
0.049054
0.0490639
0.0490748
0.0490867
0.0490994
0.0491125
0.0491256
0.0491383
0.0491502
0.0491609
0.0491697
0.0491758
0.0491757
0.049151
0.0490431
0.0489225
0.0486694
0.0488531
0.0488709
0.0489777
0.0490871
0.0491455
0.0491645
0.0491658
0.0491609
0.0491539
0.049146
0.0491376
0.0491289
0.0491197
0.04911
0.0490999
0.0490893
0.0490783
0.0490673
0.0490565
0.0490464
0.0490374
0.0490299
0.0490243
0.0490208
0.0490195
0.0490204
0.0490233
0.0490281
0.0490347
0.0490429
0.0490527
0.0490638
0.049076
0.049089
0.0491025
0.049116
0.0491289
0.0491407
0.0491503
0.0491573
0.0491592
0.0491571
0.0491521
0.0491448
0.0491354
0.0491243
0.0491124
0.049101
0.0490912
0.0490835
0.0490775
0.0490727
0.0490685
0.0490646
0.0490608
0.049057
0.0490531
0.0490491
0.0490451
0.0490409
0.0490365
0.0490321
0.0490276
0.0490232
0.0490189
0.0490147
0.0490109
0.0490075
0.0490047
0.0490025
0.049001
0.0490004
0.0490005
0.0490015
0.0490033
0.0490058
0.0490089
0.0490126
0.0490168
0.0490216
0.0490271
0.0490332
0.0490403
0.0490483
0.0490575
0.0490679
0.0490795
0.049092
0.0491051
0.0491185
0.0491318
0.0491444
0.049156
0.0491659
0.0491732
0.0491746
0.0491538
0.0490586
0.0489508
0.0486725
0.048823
0.0488393
0.0489509
0.0490673
0.0491308
0.0491527
0.0491558
0.049152
0.0491457
0.0491384
0.0491304
0.0491219
0.0491127
0.0491028
0.0490921
0.0490806
0.0490686
0.0490562
0.0490441
0.0490326
0.0490225
0.049014
0.0490077
0.0490038
0.0490022
0.0490029
0.0490057
0.0490103
0.0490168
0.0490249
0.0490347
0.049046
0.0490586
0.0490724
0.0490869
0.0491016
0.0491161
0.0491294
0.0491404
0.0491479
0.0491493
0.0491459
0.0491396
0.049131
0.0491207
0.049109
0.0490973
0.0490868
0.0490785
0.0490724
0.0490677
0.0490639
0.0490605
0.0490573
0.0490542
0.049051
0.0490478
0.0490445
0.049041
0.0490372
0.0490333
0.0490291
0.0490248
0.0490204
0.049016
0.0490118
0.0490078
0.0490042
0.0490011
0.0489987
0.0489971
0.0489963
0.0489964
0.0489975
0.0489993
0.0490019
0.0490051
0.0490089
0.0490132
0.049018
0.0490232
0.049029
0.0490356
0.049043
0.0490516
0.0490614
0.0490724
0.0490846
0.0490976
0.0491112
0.0491248
0.0491381
0.0491504
0.0491613
0.0491696
0.0491725
0.0491555
0.0490748
0.0489797
0.0486772
0.0487949
0.0488084
0.0489237
0.0490471
0.049116
0.0491413
0.0491462
0.0491435
0.049138
0.0491313
0.0491238
0.0491155
0.0491064
0.0490963
0.049085
0.0490727
0.0490595
0.0490458
0.0490322
0.0490194
0.049008
0.0489987
0.0489918
0.0489876
0.0489859
0.0489865
0.048989
0.0489934
0.0489995
0.0490073
0.0490169
0.0490282
0.0490412
0.0490556
0.0490711
0.0490872
0.0491033
0.0491184
0.0491308
0.0491389
0.0491394
0.0491343
0.0491265
0.0491167
0.0491056
0.0490938
0.0490827
0.0490737
0.0490672
0.0490626
0.0490591
0.0490561
0.0490534
0.0490508
0.0490483
0.0490459
0.0490434
0.0490406
0.0490377
0.0490344
0.0490307
0.0490267
0.0490224
0.0490179
0.0490133
0.0490088
0.0490045
0.0490006
0.0489972
0.0489945
0.0489927
0.0489917
0.0489918
0.0489929
0.0489948
0.0489975
0.049001
0.049005
0.0490094
0.0490142
0.0490194
0.049025
0.0490312
0.0490381
0.049046
0.0490552
0.0490657
0.0490774
0.0490903
0.0491038
0.0491177
0.0491314
0.0491444
0.049156
0.0491653
0.0491695
0.0491563
0.0490899
0.049007
0.0486827
0.0487692
0.0487785
0.048896
0.0490265
0.0491013
0.0491301
0.0491371
0.0491356
0.0491309
0.0491248
0.0491178
0.0491098
0.0491008
0.0490906
0.0490789
0.0490659
0.0490515
0.0490364
0.0490213
0.049007
0.0489945
0.0489844
0.0489771
0.0489727
0.0489711
0.0489716
0.048974
0.0489779
0.0489833
0.0489906
0.0489997
0.0490108
0.0490239
0.0490389
0.0490554
0.0490729
0.0490908
0.0491078
0.0491218
0.0491301
0.0491295
0.0491224
0.049113
0.0491021
0.0490906
0.0490792
0.0490693
0.0490623
0.0490576
0.0490542
0.0490515
0.0490492
0.0490471
0.0490451
0.0490434
0.0490416
0.0490398
0.0490377
0.0490352
0.0490322
0.0490287
0.0490247
0.0490202
0.0490155
0.0490106
0.0490057
0.0490011
0.0489968
0.048993
0.0489899
0.0489878
0.0489866
0.0489865
0.0489876
0.0489897
0.0489927
0.0489964
0.0490007
0.0490054
0.0490104
0.0490156
0.0490211
0.049027
0.0490334
0.0490408
0.0490494
0.0490593
0.0490706
0.0490831
0.0490966
0.0491106
0.0491247
0.0491382
0.0491505
0.0491606
0.049166
0.0491563
0.049103
0.0490315
0.0486887
0.0487461
0.0487497
0.0488677
0.0490053
0.0490865
0.0491193
0.0491285
0.0491283
0.0491245
0.049119
0.0491125
0.049105
0.0490962
0.049086
0.0490741
0.0490603
0.049045
0.0490285
0.0490118
0.0489961
0.0489823
0.0489715
0.048964
0.0489599
0.0489585
0.0489591
0.0489611
0.0489643
0.0489688
0.0489751
0.0489834
0.048994
0.049007
0.0490224
0.0490398
0.0490588
0.0490786
0.0490977
0.0491133
0.0491218
0.0491197
0.0491102
0.0490993
0.0490877
0.0490762
0.0490658
0.0490579
0.0490528
0.0490496
0.0490471
0.049045
0.0490431
0.0490416
0.0490403
0.0490393
0.0490383
0.0490371
0.0490355
0.0490333
0.0490305
0.049027
0.0490229
0.0490182
0.0490131
0.0490078
0.0490026
0.0489975
0.0489928
0.0489887
0.0489852
0.0489827
0.0489812
0.0489809
0.0489819
0.0489841
0.0489873
0.0489914
0.0489961
0.0490011
0.0490064
0.0490118
0.0490173
0.0490229
0.0490291
0.049036
0.049044
0.0490533
0.0490641
0.0490763
0.0490897
0.0491037
0.049118
0.049132
0.0491448
0.0491557
0.0491622
0.0491556
0.0491139
0.0490525
0.0486946
0.048726
0.0487226
0.0488389
0.0489834
0.0490715
0.0491088
0.0491205
0.0491216
0.0491187
0.0491139
0.049108
0.049101
0.0490927
0.0490827
0.0490707
0.0490566
0.0490403
0.0490225
0.0490043
0.048987
0.048972
0.0489606
0.0489532
0.0489496
0.0489487
0.0489494
0.0489509
0.0489531
0.0489564
0.0489613
0.0489685
0.0489782
0.0489909
0.0490064
0.0490247
0.0490452
0.049067
0.0490883
0.0491055
0.049114
0.0491099
0.0490981
0.0490859
0.0490741
0.0490634
0.0490546
0.0490487
0.0490454
0.0490431
0.0490411
0.0490393
0.0490379
0.049037
0.0490364
0.0490361
0.0490357
0.049035
0.0490337
0.0490318
0.049029
0.0490254
0.0490211
0.0490161
0.0490107
0.0490051
0.0489995
0.0489941
0.0489891
0.0489847
0.0489809
0.0489781
0.0489762
0.0489755
0.0489762
0.0489785
0.0489819
0.0489863
0.0489914
0.0489968
0.0490024
0.049008
0.0490136
0.0490191
0.049025
0.0490315
0.049039
0.0490478
0.0490582
0.04907
0.0490832
0.0490973
0.0491118
0.049126
0.0491394
0.0491509
0.0491584
0.0491546
0.0491227
0.0490702
0.0487004
0.0487092
0.0486981
0.048809
0.0489604
0.0490561
0.0490985
0.0491129
0.0491156
0.0491136
0.0491096
0.0491043
0.0490979
0.0490901
0.0490806
0.049069
0.0490547
0.0490379
0.0490191
0.0489992
0.0489802
0.0489639
0.0489519
0.0489449
0.0489421
0.0489421
0.048943
0.0489438
0.0489447
0.0489463
0.0489495
0.0489551
0.0489637
0.0489757
0.0489912
0.0490102
0.0490321
0.049056
0.0490797
0.0490987
0.0491068
0.0491004
0.0490864
0.0490733
0.0490619
0.0490526
0.0490459
0.0490419
0.0490396
0.0490377
0.049036
0.0490345
0.0490336
0.0490332
0.0490333
0.0490335
0.0490335
0.0490332
0.0490322
0.0490303
0.0490275
0.0490238
0.0490192
0.0490141
0.0490084
0.0490026
0.0489968
0.0489912
0.0489861
0.0489816
0.0489777
0.0489747
0.0489724
0.0489712
0.0489715
0.0489735
0.0489771
0.0489817
0.0489871
0.0489929
0.0489988
0.0490045
0.0490102
0.0490156
0.0490213
0.0490274
0.0490345
0.0490429
0.0490528
0.0490644
0.0490774
0.0490914
0.049106
0.0491206
0.0491343
0.0491464
0.0491548
0.0491535
0.0491296
0.0490848
0.0487059
0.0486961
0.0486776
0.0487783
0.0489352
0.0490401
0.0490882
0.0491058
0.0491102
0.0491092
0.0491059
0.0491014
0.0490957
0.0490886
0.0490799
0.0490689
0.049055
0.0490381
0.0490185
0.0489971
0.0489762
0.0489583
0.0489456
0.0489392
0.048938
0.0489391
0.0489401
0.0489399
0.0489392
0.0489388
0.0489399
0.0489436
0.0489506
0.0489616
0.0489769
0.0489964
0.0490197
0.0490458
0.0490721
0.0490929
0.0491005
0.0490914
0.0490755
0.0490623
0.0490519
0.0490443
0.0490396
0.049037
0.0490352
0.0490334
0.0490318
0.0490306
0.0490301
0.0490302
0.0490307
0.0490312
0.0490316
0.0490314
0.0490304
0.0490285
0.0490257
0.0490219
0.0490173
0.049012
0.0490064
0.0490005
0.0489946
0.0489891
0.048984
0.0489797
0.048976
0.0489731
0.0489708
0.0489691
0.0489686
0.0489701
0.0489734
0.048978
0.0489835
0.0489895
0.0489956
0.0490015
0.0490071
0.0490125
0.049018
0.0490238
0.0490305
0.0490385
0.0490482
0.0490594
0.0490723
0.0490863
0.049101
0.0491158
0.0491299
0.0491425
0.0491517
0.0491525
0.0491353
0.0490968
0.048711
0.048687
0.0486617
0.0487498
0.0489049
0.0490224
0.0490776
0.049099
0.0491053
0.0491055
0.049103
0.0490991
0.0490942
0.0490881
0.0490803
0.0490703
0.0490574
0.049041
0.049021
0.0489983
0.0489753
0.0489554
0.0489419
0.0489364
0.0489371
0.0489396
0.0489405
0.0489391
0.0489364
0.0489337
0.0489325
0.048934
0.0489392
0.0489489
0.0489637
0.0489836
0.0490082
0.0490365
0.0490655
0.0490883
0.0490953
0.0490835
0.0490661
0.0490533
0.0490443
0.0490386
0.0490354
0.0490335
0.0490318
0.04903
0.0490284
0.0490275
0.0490272
0.0490276
0.0490283
0.049029
0.0490294
0.0490292
0.0490282
0.0490263
0.0490234
0.0490197
0.0490152
0.0490101
0.0490046
0.0489988
0.0489932
0.0489878
0.0489829
0.0489788
0.0489755
0.0489731
0.0489712
0.0489695
0.0489683
0.0489689
0.0489716
0.0489758
0.0489812
0.0489871
0.0489932
0.0489991
0.0490046
0.0490099
0.0490151
0.0490207
0.0490272
0.0490349
0.0490443
0.0490554
0.0490681
0.0490821
0.0490969
0.0491119
0.0491263
0.0491393
0.0491492
0.0491519
0.04914
0.049107
0.0487158
0.0486821
0.0486508
0.0487248
0.0488731
0.0489986
0.049066
0.0490922
0.0491009
0.0491023
0.0491006
0.0490975
0.0490934
0.0490882
0.0490816
0.049073
0.0490615
0.0490462
0.0490265
0.049003
0.0489778
0.0489553
0.0489405
0.0489362
0.0489397
0.0489435
0.0489439
0.0489409
0.048936
0.0489309
0.0489272
0.0489263
0.0489295
0.0489377
0.0489517
0.0489718
0.0489976
0.0490282
0.04906
0.049085
0.0490916
0.0490772
0.0490587
0.0490466
0.0490392
0.0490352
0.049033
0.0490313
0.0490294
0.0490274
0.0490259
0.049025
0.0490249
0.0490252
0.0490259
0.0490265
0.0490267
0.0490263
0.0490252
0.0490233
0.0490206
0.049017
0.0490128
0.0490081
0.0490029
0.0489975
0.0489921
0.0489869
0.0489823
0.0489785
0.0489756
0.0489738
0.0489728
0.0489721
0.0489704
0.04897
0.0489718
0.0489754
0.0489802
0.0489858
0.0489917
0.0489973
0.0490027
0.0490078
0.0490128
0.0490182
0.0490245
0.049032
0.0490413
0.0490523
0.049065
0.049079
0.0490939
0.049109
0.0491237
0.049137
0.0491476
0.0491519
0.0491443
0.0491156
0.0487202
0.0486816
0.0486456
0.0487042
0.0488421
0.0489697
0.0490493
0.0490847
0.0490967
0.0490996
0.0490989
0.0490965
0.0490931
0.0490889
0.0490835
0.0490764
0.0490667
0.0490532
0.0490347
0.049011
0.0489837
0.0489579
0.0489414
0.0489389
0.0489456
0.0489502
0.0489495
0.0489446
0.0489374
0.0489299
0.0489238
0.0489205
0.0489215
0.048928
0.048941
0.0489611
0.048988
0.0490207
0.0490557
0.0490832
0.0490894
0.0490728
0.0490535
0.0490424
0.0490365
0.0490337
0.049032
0.0490302
0.049028
0.0490258
0.0490241
0.0490231
0.0490227
0.0490228
0.0490231
0.0490234
0.0490233
0.0490227
0.0490215
0.0490196
0.049017
0.0490138
0.04901
0.0490058
0.0490011
0.0489962
0.0489912
0.0489863
0.0489818
0.0489781
0.0489754
0.048974
0.0489739
0.0489749
0.0489741
0.0489725
0.0489734
0.0489762
0.0489805
0.0489855
0.0489909
0.0489963
0.0490014
0.0490062
0.0490111
0.0490163
0.0490225
0.04903
0.0490392
0.0490502
0.0490629
0.049077
0.049092
0.0491073
0.0491221
0.0491358
0.0491469
0.0491526
0.0491486
0.0491234
0.0487244
0.0486855
0.0486461
0.0486889
0.0488129
0.0489387
0.0490263
0.0490731
0.0490918
0.0490972
0.0490975
0.0490958
0.0490932
0.0490898
0.0490857
0.0490802
0.0490724
0.049061
0.0490444
0.0490213
0.0489924
0.0489628
0.0489441
0.0489451
0.0489548
0.0489591
0.0489567
0.0489495
0.04894
0.0489303
0.0489219
0.0489164
0.0489153
0.04892
0.0489318
0.0489515
0.0489793
0.0490142
0.0490523
0.0490827
0.0490892
0.0490704
0.0490505
0.0490405
0.0490361
0.0490341
0.0490325
0.0490302
0.0490276
0.049025
0.0490229
0.0490215
0.0490207
0.0490202
0.0490199
0.0490196
0.0490189
0.0490179
0.0490165
0.0490146
0.0490122
0.0490095
0.0490063
0.0490028
0.0489989
0.0489947
0.0489902
0.0489857
0.0489814
0.0489777
0.048975
0.0489735
0.0489733
0.0489741
0.048975
0.0489746
0.0489753
0.0489777
0.0489814
0.0489859
0.0489908
0.0489957
0.0490005
0.0490052
0.0490099
0.0490152
0.0490214
0.0490289
0.0490382
0.0490493
0.0490621
0.0490763
0.0490914
0.0491067
0.0491218
0.0491356
0.0491473
0.0491541
0.049153
0.0491305
0.0487283
0.0486936
0.0486523
0.0486796
0.0487869
0.0489067
0.0489989
0.0490553
0.0490831
0.0490939
0.0490962
0.0490955
0.0490936
0.049091
0.0490878
0.0490837
0.0490778
0.0490687
0.0490544
0.0490327
0.049003
0.0489694
0.048948
0.0489562
0.0489668
0.0489693
0.0489646
0.0489551
0.0489434
0.0489316
0.0489212
0.0489138
0.0489107
0.0489136
0.0489241
0.0489432
0.0489716
0.0490084
0.0490498
0.0490835
0.0490909
0.0490704
0.0490498
0.049041
0.0490377
0.0490361
0.0490342
0.0490315
0.0490283
0.0490252
0.0490225
0.0490203
0.0490186
0.0490173
0.0490161
0.0490148
0.0490134
0.0490118
0.04901
0.0490079
0.0490058
0.0490035
0.049001
0.0489984
0.0489956
0.0489924
0.0489889
0.0489851
0.0489811
0.0489774
0.0489745
0.0489726
0.0489722
0.0489728
0.0489741
0.0489755
0.0489767
0.048979
0.0489823
0.0489864
0.0489908
0.0489954
0.049
0.0490046
0.0490094
0.0490147
0.0490211
0.0490289
0.0490384
0.0490497
0.0490626
0.0490769
0.049092
0.0491075
0.0491226
0.0491367
0.0491487
0.0491566
0.0491578
0.0491374
0.048732
0.0487057
0.0486641
0.0486767
0.0487655
0.0488754
0.0489681
0.0490318
0.0490689
0.0490868
0.0490934
0.0490948
0.0490938
0.049092
0.0490897
0.0490868
0.0490826
0.0490758
0.049064
0.0490444
0.0490155
0.0489814
0.0489619
0.0489729
0.0489806
0.0489801
0.0489725
0.0489606
0.048947
0.0489334
0.0489215
0.0489125
0.0489077
0.0489089
0.0489179
0.0489362
0.0489648
0.0490034
0.049048
0.0490855
0.0490946
0.0490727
0.0490513
0.0490435
0.049041
0.0490396
0.0490374
0.049034
0.0490301
0.0490262
0.0490227
0.0490195
0.0490167
0.0490141
0.0490116
0.0490091
0.0490066
0.0490041
0.0490016
0.0489992
0.048997
0.0489951
0.0489934
0.0489919
0.0489904
0.0489888
0.0489867
0.0489841
0.048981
0.0489776
0.0489745
0.0489723
0.0489713
0.0489717
0.0489732
0.0489753
0.0489772
0.0489797
0.0489829
0.0489867
0.0489909
0.0489953
0.0489998
0.0490045
0.0490095
0.0490151
0.0490219
0.04903
0.0490398
0.0490514
0.0490645
0.0490788
0.049094
0.0491095
0.0491247
0.0491389
0.0491513
0.04916
0.0491631
0.0491443
0.0487355
0.0487212
0.0486809
0.0486804
0.0487499
0.0488466
0.0489357
0.0490032
0.0490479
0.0490739
0.0490868
0.0490919
0.0490931
0.0490925
0.0490911
0.0490892
0.0490864
0.0490816
0.0490725
0.049056
0.04903
0.0489985
0.0489844
0.0489924
0.0489949
0.0489904
0.0489799
0.0489658
0.0489504
0.0489355
0.0489225
0.0489123
0.0489063
0.048906
0.0489134
0.0489306
0.0489591
0.0489989
0.0490467
0.0490885
0.0491003
0.0490773
0.0490548
0.0490478
0.0490461
0.0490446
0.0490418
0.0490378
0.0490331
0.0490283
0.0490236
0.0490191
0.0490148
0.0490106
0.0490065
0.0490025
0.0489985
0.0489947
0.0489912
0.0489881
0.0489856
0.0489838
0.0489828
0.0489824
0.0489825
0.0489828
0.0489828
0.0489823
0.0489807
0.0489784
0.0489755
0.048973
0.0489714
0.0489713
0.0489725
0.0489747
0.0489772
0.04898
0.0489832
0.048987
0.0489911
0.0489955
0.0490001
0.049005
0.0490104
0.0490165
0.0490237
0.0490323
0.0490425
0.0490543
0.0490676
0.0490821
0.0490973
0.0491128
0.049128
0.0491423
0.0491549
0.0491644
0.0491692
0.0491512
0.0487389
0.0487392
0.0487018
0.0486904
0.0487407
0.048822
0.0489037
0.0489711
0.0490206
0.0490537
0.0490736
0.0490843
0.0490892
0.049091
0.0490911
0.0490903
0.0490887
0.0490857
0.0490794
0.0490667
0.0490456
0.0490196
0.0490105
0.0490115
0.0490083
0.0489996
0.0489863
0.0489703
0.0489536
0.0489378
0.0489239
0.0489129
0.048906
0.0489047
0.0489108
0.0489267
0.0489545
0.0489951
0.0490456
0.0490921
0.0491078
0.0490843
0.0490602
0.0490539
0.0490526
0.049051
0.0490476
0.0490429