/*--------------------------------*- C++ -*----------------------------------*\
| =========                 |                                                 |
| \\      /  F ield         | OpenFOAM: The Open Source CFD Toolbox           |
|  \\    /   O peration     | Version:  4.1                                   |
|   \\  /    A nd           | Web:      www.OpenFOAM.org                      |
|    \\/     M anipulation  |                                                 |
\*---------------------------------------------------------------------------*/
FoamFile
{
    version     2.0;
    format      ascii;
    class       volScalarField;
    location    "400";
    object      T;
}
// * * * * * * * * * * * * * * * * * * * * * * * * * * * * * * * * * * * * * //

dimensions      [0 0 0 1 0 0 0];

internalField   nonuniform List<scalar> 
5000
(
283.369
282.897
284.208
284.788
284.679
284.51
284.36
284.224
284.099
283.981
283.871
283.767
283.667
283.572
283.48
283.392
283.306
283.223
283.142
283.063
282.99
282.925
282.868
282.817
282.771
282.73
282.693
282.659
282.627
282.597
282.568
282.541
282.514
282.487
282.46
282.432
282.404
282.375
282.344
282.312
282.278
282.241
282.197
282.14
282.033
281.938
281.946
281.967
281.995
282.029
282.069
282.113
282.161
282.212
282.266
282.321
282.378
282.436
282.496
282.556
282.617
282.68
282.745
282.812
282.881
282.954
283.031
283.111
283.192
283.272
283.352
283.434
283.516
283.599
283.683
283.77
283.858
283.95
284.044
284.141
284.242
284.347
284.456
284.57
284.688
284.812
284.942
285.077
285.217
285.364
285.517
285.676
285.841
285.995
286.052
285.926
285.951
286.178
286.345
286.325
282.605
282.961
283.498
283.283
282.598
282.094
281.81
281.631
281.493
281.375
281.273
281.185
281.109
281.046
280.994
280.954
280.925
280.905
280.894
280.891
280.892
280.894
280.896
280.898
280.9
280.903
280.906
280.908
280.911
280.914
280.918
280.921
280.924
280.927
280.93
280.934
280.937
280.941
280.944
280.948
280.951
280.955
280.959
280.964
280.971
280.975
280.978
280.98
280.982
280.983
280.985
280.986
280.987
280.987
280.987
280.987
280.987
280.987
280.987
280.987
280.986
280.986
280.986
280.985
280.985
280.984
280.984
280.985
280.99
281.001
281.018
281.041
281.07
281.106
281.148
281.198
281.255
281.319
281.39
281.469
281.553
281.644
281.742
281.845
281.954
282.069
282.191
282.32
282.459
282.607
282.762
282.915
283.037
283.063
282.945
282.793
282.771
283.321
284.338
285.215
282.503
282.818
282.914
282.431
281.779
281.378
281.181
281.072
281.002
280.952
280.917
280.892
280.876
280.866
280.861
280.86
280.861
280.863
280.867
280.871
280.875
280.879
280.883
280.888
280.892
280.897
280.902
280.907
280.911
280.916
280.921
280.926
280.93
280.935
280.94
280.944
280.949
280.953
280.957
280.961
280.965
280.969
280.973
280.978
280.984
280.987
280.99
280.994
280.997
281.001
281.004
281.006
281.009
281.01
281.012
281.012
281.013
281.013
281.013
281.013
281.012
281.011
281.011
281.009
281.008
281.007
281.005
281.003
281.001
280.999
280.997
280.995
280.995
280.996
280.998
281.004
281.012
281.024
281.041
281.064
281.092
281.126
281.168
281.217
281.274
281.34
281.414
281.498
281.592
281.697
281.808
281.916
281.997
282.015
281.959
281.897
281.928
282.438
283.524
284.676
282.433
282.633
282.494
281.942
281.397
281.105
280.977
280.917
280.884
280.865
280.854
280.849
280.847
280.848
280.851
280.854
280.858
280.862
280.867
280.872
280.878
280.883
280.889
280.895
280.901
280.907
280.913
280.919
280.925
280.93
280.936
280.941
280.947
280.952
280.956
280.961
280.966
280.97
280.974
280.977
280.98
280.983
280.986
280.989
280.992
280.995
280.999
281.004
281.01
281.015
281.021
281.026
281.031
281.034
281.038
281.04
281.042
281.044
281.045
281.046
281.046
281.046
281.046
281.045
281.045
281.043
281.042
281.04
281.038
281.035
281.033
281.029
281.026
281.023
281.02
281.017
281.014
281.013
281.013
281.015
281.02
281.029
281.041
281.059
281.084
281.114
281.153
281.201
281.257
281.322
281.394
281.465
281.519
281.539
281.518
281.496
281.584
282.081
283.139
284.359
282.364
282.47
282.205
281.654
281.201
280.984
280.899
280.864
280.848
280.84
280.838
280.838
280.84
280.844
280.848
280.853
280.858
280.864
280.87
280.876
280.883
280.89
280.897
280.904
280.911
280.918
280.925
280.931
280.938
280.944
280.95
280.956
280.961
280.967
280.971
280.975
280.979
280.983
280.986
280.988
280.991
280.992
280.994
280.995
280.997
280.999
281.004
281.011
281.019
281.027
281.035
281.043
281.05
281.056
281.061
281.065
281.069
281.072
281.074
281.075
281.077
281.077
281.078
281.078
281.077
281.077
281.075
281.074
281.072
281.07
281.067
281.064
281.06
281.056
281.052
281.047
281.042
281.038
281.033
281.029
281.026
281.024
281.025
281.028
281.035
281.046
281.064
281.088
281.119
281.157
281.201
281.247
281.285
281.304
281.305
281.314
281.435
281.93
282.944
284.149
282.302
282.339
282.005
281.476
281.093
280.924
280.864
280.841
280.833
280.83
280.831
280.833
280.837
280.842
280.847
280.853
280.859
280.866
280.874
280.881
280.889
280.898
280.906
280.914
280.922
280.93
280.938
280.946
280.953
280.959
280.965
280.971
280.976
280.981
280.985
280.989
280.992
280.994
280.996
280.997
280.998
280.998
280.998
280.998
280.999
281.002
281.008
281.017
281.027
281.038
281.049
281.059
281.068
281.076
281.082
281.088
281.092
281.096
281.099
281.101
281.103
281.104
281.104
281.104
281.104
281.104
281.103
281.101
281.1
281.098
281.096
281.093
281.089
281.085
281.081
281.076
281.071
281.065
281.059
281.053
281.047
281.041
281.036
281.033
281.031
281.032
281.037
281.047
281.062
281.083
281.109
281.138
281.164
281.182
281.193
281.219
281.361
281.868
282.842
283.995
282.247
282.236
281.864
281.362
281.029
280.891
280.845
280.83
280.825
280.825
280.827
280.831
280.835
280.841
280.847
280.854
280.862
280.87
280.879
280.889
280.898
280.908
280.918
280.927
280.937
280.946
280.954
280.962
280.97
280.976
280.982
280.988
280.992
280.996
280.999
281.002
281.003
281.004
281.004
281.004
281.003
281.002
281.001
281
281.001
281.005
281.012
281.022
281.035
281.049
281.062
281.074
281.085
281.094
281.102
281.108
281.113
281.116
281.119
281.121
281.122
281.123
281.123
281.123
281.122
281.121
281.12
281.119
281.118
281.117
281.115
281.113
281.11
281.107
281.103
281.099
281.094
281.088
281.082
281.076
281.069
281.062
281.054
281.048
281.042
281.037
281.035
281.036
281.041
281.051
281.065
281.082
281.1
281.116
281.13
281.164
281.32
281.846
282.782
283.865
282.199
282.155
281.763
281.286
280.99
280.872
280.834
280.823
280.82
280.821
280.824
280.829
280.834
280.841
280.848
280.857
280.866
280.876
280.887
280.898
280.91
280.921
280.932
280.943
280.954
280.964
280.973
280.982
280.989
280.996
281.002
281.006
281.01
281.013
281.015
281.015
281.015
281.014
281.012
281.01
281.007
281.005
281.003
281.002
281.003
281.007
281.016
281.029
281.044
281.06
281.076
281.089
281.101
281.111
281.119
281.124
281.128
281.131
281.133
281.134
281.134
281.133
281.133
281.132
281.13
281.129
281.128
281.126
281.125
281.124
281.123
281.121
281.12
281.118
281.115
281.112
281.109
281.104
281.099
281.093
281.087
281.08
281.072
281.064
281.056
281.049
281.043
281.039
281.037
281.039
281.045
281.055
281.066
281.078
281.093
281.13
281.292
281.839
282.731
283.742
282.156
282.09
281.689
281.234
280.964
280.86
280.827
280.818
280.817
280.819
280.822
280.828
280.834
280.842
280.851
280.861
280.872
280.884
280.897
280.91
280.924
280.937
280.95
280.962
280.974
280.985
280.995
281.004
281.011
281.018
281.023
281.027
281.029
281.031
281.031
281.029
281.027
281.024
281.019
281.015
281.01
281.006
281.004
281.003
281.005
281.011
281.022
281.037
281.054
281.072
281.089
281.104
281.116
281.125
281.132
281.136
281.139
281.14
281.14
281.139
281.138
281.136
281.134
281.132
281.13
281.128
281.126
281.124
281.123
281.121
281.12
281.12
281.119
281.118
281.117
281.116
281.114
281.111
281.108
281.104
281.099
281.093
281.086
281.078
281.07
281.061
281.053
281.046
281.041
281.038
281.038
281.041
281.047
281.056
281.069
281.106
281.27
281.831
282.668
283.615
282.117
282.038
281.635
281.198
280.947
280.852
280.822
280.815
280.814
280.817
280.821
280.827
280.835
280.844
280.855
280.867
280.88
280.894
280.909
280.925
280.94
280.955
280.97
280.984
280.997
281.009
281.019
281.028
281.035
281.041
281.046
281.048
281.049
281.049
281.047
281.043
281.038
281.032
281.026
281.018
281.012
281.007
281.005
281.005
281.008
281.016
281.029
281.046
281.066
281.085
281.103
281.117
281.128
281.136
281.141
281.143
281.144
281.143
281.141
281.139
281.136
281.133
281.13
281.126
281.123
281.12
281.118
281.115
281.114
281.112
281.111
281.11
281.11
281.11
281.11
281.111
281.111
281.11
281.109
281.107
281.104
281.1
281.095
281.088
281.081
281.072
281.063
281.055
281.047
281.041
281.037
281.036
281.038
281.043
281.054
281.089
281.248
281.81
282.579
283.478
282.083
281.996
281.595
281.173
280.936
280.846
280.819
280.812
280.812
280.815
280.82
280.828
280.836
280.847
280.86
280.874
280.889
280.906
280.923
280.941
280.958
280.976
280.992
281.008
281.021
281.034
281.044
281.053
281.06
281.066
281.069
281.07
281.07
281.067
281.063
281.057
281.049
281.04
281.03
281.02
281.013
281.008
281.006
281.007
281.012
281.022
281.038
281.057
281.079
281.099
281.116
281.129
281.138
281.144
281.146
281.146
281.145
281.142
281.138
281.134
281.13
281.126
281.121
281.117
281.113
281.109
281.106
281.103
281.101
281.099
281.097
281.097
281.097
281.097
281.098
281.099
281.101
281.102
281.103
281.104
281.104
281.102
281.099
281.094
281.088
281.081
281.072
281.063
281.054
281.046
281.039
281.035
281.033
281.035
281.043
281.075
281.224
281.77
282.46
283.333
282.051
281.963
281.565
281.157
280.929
280.843
280.817
280.81
280.811
280.814
280.82
280.828
280.838
280.85
280.865
280.881
280.899
280.918
280.938
280.958
280.978
280.997
281.015
281.032
281.047
281.059
281.07
281.078
281.085
281.089
281.092
281.092
281.09
281.085
281.078
281.07
281.059
281.047
281.034
281.021
281.013
281.009
281.008
281.011
281.018
281.03
281.049
281.07
281.093
281.113
281.128
281.139
281.146
281.148
281.148
281.146
281.143
281.138
281.133
281.128
281.122
281.117
281.111
281.106
281.101
281.097
281.093
281.089
281.086
281.084
281.082
281.081
281.081
281.081
281.083
281.084
281.087
281.09
281.093
281.095
281.098
281.099
281.098
281.096
281.092
281.086
281.079
281.07
281.061
281.052
281.043
281.036
281.032
281.031
281.036
281.063
281.198
281.708
282.314
283.182
282.022
281.935
281.544
281.146
280.925
280.841
280.815
280.808
280.809
280.813
280.82
280.829
280.84
280.854
280.87
280.889
280.909
280.931
280.953
280.976
280.998
281.019
281.039
281.056
281.071
281.084
281.095
281.103
281.109
281.112
281.113
281.112
281.108
281.102
281.093
281.081
281.068
281.052
281.036
281.021
281.013
281.01
281.01
281.016
281.026
281.041
281.062
281.085
281.107
281.126
281.139
281.147
281.151
281.151
281.148
281.144
281.139
281.133
281.126
281.119
281.113
281.106
281.1
281.094
281.088
281.083
281.079
281.075
281.072
281.069
281.067
281.066
281.065
281.065
281.066
281.068
281.071
281.075
281.079
281.084
281.088
281.091
281.094
281.094
281.093
281.089
281.083
281.076
281.067
281.057
281.047
281.039
281.032
281.028
281.031
281.054
281.172
281.629
282.149
283.029
281.994
281.913
281.53
281.14
280.923
280.84
280.813
280.807
280.808
280.812
280.819
280.829
280.841
280.857
280.875
280.896
280.919
280.943
280.969
280.994
281.018
281.041
281.061
281.079
281.094
281.107
281.117
281.125
281.13
281.133
281.133
281.131
281.126
281.117
281.106
281.092
281.075
281.056
281.037
281.02
281.012
281.011
281.014
281.023
281.036
281.054
281.077
281.101
281.122
281.138
281.148
281.153
281.153
281.151
281.146
281.14
281.133
281.126
281.118
281.11
281.102
281.095
281.088
281.081
281.075
281.07
281.065
281.061
281.057
281.054
281.052
281.05
281.05
281.05
281.051
281.053
281.056
281.06
281.065
281.07
281.076
281.082
281.086
281.09
281.091
281.089
281.086
281.08
281.071
281.062
281.052
281.042
281.033
281.027
281.028
281.046
281.146
281.54
281.98
282.879
281.969
281.895
281.522
281.139
280.924
280.84
280.813
280.806
280.807
280.811
280.819
280.829
280.843
280.86
280.88
280.903
280.928
280.956
280.983
281.011
281.037
281.061
281.082
281.1
281.116
281.128
281.138
281.145
281.15
281.152
281.152
281.148
281.142
281.132
281.118
281.101
281.081
281.059
281.037
281.019
281.012
281.014
281.02
281.032
281.049
281.07
281.094
281.118
281.137
281.149
281.155
281.156
281.154
281.15
281.143
281.135
281.127
281.118
281.109
281.1
281.091
281.083
281.075
281.068
281.062
281.056
281.052
281.048
281.044
281.041
281.039
281.037
281.036
281.036
281.036
281.038
281.041
281.045
281.05
281.057
281.064
281.071
281.077
281.083
281.087
281.088
281.086
281.082
281.075
281.066
281.055
281.045
281.035
281.027
281.025
281.039
281.122
281.449
281.816
282.736
281.944
281.881
281.519
281.141
280.927
280.841
280.812
280.805
280.806
280.81
280.818
280.829
280.843
280.861
280.883
280.909
280.937
280.966
280.997
281.027
281.054
281.079
281.101
281.119
281.134
281.146
281.155
281.162
281.167
281.169
281.168
281.164
281.157
281.145
281.13
281.11
281.087
281.062
281.037
281.018
281.013
281.018
281.029
281.044
281.064
281.088
281.112
281.134
281.149
281.157
281.16
281.158
281.154
281.147
281.139
281.13
281.12
281.109
281.099
281.089
281.079
281.071
281.063
281.056
281.05
281.045
281.04
281.036
281.033
281.03
281.028
281.026
281.025
281.024
281.024
281.026
281.028
281.032
281.037
281.044
281.051
281.06
281.068
281.075
281.081
281.085
281.085
281.083
281.077
281.069
281.059
281.048
281.037
281.028
281.024
281.033
281.1
281.364
281.667
282.602
281.921
281.87
281.52
281.146
280.931
280.842
280.813
280.805
280.805
280.809
280.817
280.828
280.843
280.862
280.885
280.913
280.943
280.976
281.008
281.04
281.069
281.095
281.117
281.135
281.149
281.16
281.169
281.176
281.181
281.183
281.183
281.179
281.171
281.158
281.141
281.119
281.093
281.064
281.037
281.017
281.015
281.025
281.04
281.059
281.082
281.107
281.13
281.148
281.159
281.163
281.162
281.158
281.152
281.144
281.134
281.123
281.112
281.1
281.089
281.078
281.068
281.059
281.052
281.045
281.039
281.035
281.031
281.028
281.025
281.022
281.02
281.018
281.017
281.016
281.015
281.016
281.018
281.021
281.026
281.032
281.04
281.049
281.058
281.067
281.075
281.081
281.083
281.083
281.079
281.071
281.062
281.051
281.039
281.029
281.023
281.029
281.082
281.288
281.538
282.479
281.898
281.862
281.526
281.155
280.937
280.845
280.813
280.804
280.804
280.808
280.816
280.827
280.842
280.862
280.886
280.915
280.947
280.982
281.017
281.051
281.082
281.108
281.129
281.146
281.159
281.17
281.179
281.186
281.192
281.196
281.196
281.192
281.184
281.171
281.152
281.128
281.098
281.066
281.037
281.018
281.019
281.034
281.053
281.076
281.101
281.126
281.147
281.16
281.166
281.166
281.163
281.158
281.15
281.14
281.129
281.117
281.104
281.091
281.079
281.068
281.058
281.05
281.042
281.037
281.032
281.028
281.025
281.022
281.02
281.018
281.016
281.014
281.012
281.011
281.01
281.01
281.011
281.013
281.017
281.023
281.03
281.039
281.049
281.06
281.069
281.076
281.081
281.082
281.079
281.073
281.064
281.053
281.042
281.031
281.023
281.025
281.066
281.225
281.429
282.368
281.876
281.857
281.537
281.167
280.945
280.849
280.814
280.804
280.803
280.807
280.814
280.825
280.84
280.86
280.885
280.914
280.949
280.986
281.023
281.059
281.091
281.117
281.138
281.154
281.166
281.175
281.185
281.193
281.2
281.205
281.207
281.204
281.197
281.183
281.163
281.136
281.104
281.069
281.037
281.019
281.024
281.045
281.069
281.094
281.12
281.143
281.16
281.168
281.17
281.168
281.164
281.157
281.148
281.137
281.124
281.111
281.097
281.083
281.071
281.06
281.05
281.042
281.036
281.031
281.027
281.024
281.021
281.019
281.017
281.016
281.014
281.012
281.011
281.009
281.007
281.006
281.006
281.007
281.01
281.015
281.022
281.031
281.042
281.053
281.063
281.072
281.078
281.081
281.08
281.075
281.066
281.056
281.044
281.032
281.023
281.023
281.053
281.174
281.34
282.267
281.854
281.853
281.552
281.183
280.956
280.854
280.816
280.804
280.802
280.805
280.812
280.822
280.837
280.856
280.881
280.911
280.947
280.986
281.026
281.063
281.097
281.123
281.143
281.157
281.167
281.176
281.186
281.196
281.205
281.212
281.216
281.215
281.208
281.195
281.174
281.145
281.11
281.072
281.038
281.022
281.032
281.059
281.086
281.113
281.138
281.158
281.169
281.173
281.173
281.169
281.164
281.156
281.145
281.133
281.12
281.105
281.091
281.077
281.065
281.054
281.045
281.037
281.032
281.028
281.024
281.022
281.02
281.018
281.016
281.015
281.013
281.012
281.011
281.009
281.007
281.005
281.004
281.004
281.006
281.01
281.016
281.025
281.035
281.047
281.058
281.068
281.075
281.079
281.079
281.075
281.068
281.057
281.045
281.033
281.023
281.021
281.043
281.133
281.269
282.178
281.832
281.849
281.572
281.204
280.969
280.861
280.819
280.805
280.802
280.804
280.81
280.819
280.833
280.851
280.875
280.905
280.941
280.981
281.023
281.064
281.099
281.126
281.144
281.155
281.163
281.171
281.182
281.194
281.207
281.217
281.224
281.225
281.219
281.206
281.184
281.154
281.116
281.075
281.04
281.026
281.042
281.074
281.104
281.131
281.153
281.168
281.175
281.176
281.174
281.17
281.164
281.155
281.144
281.131
281.116
281.101
281.087
281.073
281.061
281.05
281.042
281.035
281.03
281.027
281.024
281.021
281.019
281.018
281.016
281.014
281.012
281.011
281.01
281.009
281.007
281.005
281.003
281.002
281.003
281.006
281.012
281.02
281.03
281.042
281.054
281.065
281.073
281.078
281.079
281.076
281.069
281.059
281.047
281.035
281.024
281.019
281.034
281.101
281.212
282.098
281.81
281.843
281.6
281.231
280.985
280.869
280.823
280.806
280.801
280.803
280.808
280.816
280.828
280.845
280.867
280.896
280.931
280.973
281.017
281.06
281.097
281.124
281.14
281.148
281.153
281.161
281.173
281.189
281.205
281.219
281.229
281.233
281.23
281.217
281.195
281.164
281.123
281.079
281.042
281.031
281.053
281.09
281.122
281.147
281.165
281.175
281.179
281.178
281.176
281.172
281.165
281.155
281.143
281.13
281.115
281.1
281.085
281.072
281.06
281.05
281.042
281.036
281.031
281.027
281.024
281.022
281.02
281.017
281.014
281.012
281.009
281.008
281.007
281.007
281.006
281.004
281.002
281.001
281.001
281.004
281.009
281.017
281.027
281.039
281.051
281.062
281.071
281.077
281.079
281.076
281.07
281.06
281.048
281.036
281.024
281.018
281.028
281.076
281.168
282.027
281.789
281.834
281.627
281.272
281.007
280.88
280.827
280.808
280.801
280.802
280.805
280.812
280.823
280.837
280.857
280.884
280.918
280.959
281.005
281.051
281.091
281.119
281.133
281.136
281.138
281.147
281.161
281.18
281.2
281.218
281.232
281.24
281.239
281.228
281.206
281.174
281.131
281.084
281.045
281.037
281.065
281.106
281.137
281.159
281.173
281.179
281.181
281.18
281.178
281.173
281.166
281.156
281.144
281.13
281.116
281.101
281.087
281.074
281.063
281.053
281.045
281.039
281.034
281.03
281.026
281.023
281.02
281.017
281.013
281.009
281.005
281.002
281.001
281.002
281.003
281.002
281
280.999
281
281.002
281.007
281.015
281.025
281.037
281.049
281.061
281.07
281.077
281.079
281.077
281.071
281.061
281.049
281.037
281.025
281.017
281.022
281.057
281.133
281.965
281.769
281.823
281.651
281.321
281.044
280.895
280.834
280.81
280.802
280.801
280.803
280.809
280.817
280.83
280.847
280.87
280.902
280.941
280.988
281.037
281.081
281.111
281.122
281.12
281.12
281.129
281.146
281.169
281.193
281.216
281.234
281.245
281.247
281.238
281.217
281.184
281.139
281.089
281.049
281.043
281.078
281.12
281.149
281.168
281.178
281.182
281.183
281.183
281.18
281.176
281.168
281.159
281.147
281.133
281.119
281.105
281.092
281.08
281.069
281.059
281.051
281.044
281.038
281.033
281.029
281.025
281.022
281.018
281.013
281.008
281.002
280.997
280.993
280.995
280.997
280.998
280.998
280.998
280.998
281.001
281.006
281.014
281.024
281.036
281.048
281.06
281.07
281.076
281.079
281.077
281.071
281.062
281.05
281.037
281.025
281.016
281.018
281.042
281.105
281.911
281.748
281.809
281.672
281.372
281.095
280.923
280.844
280.815
280.804
280.801
280.802
280.806
280.812
280.822
280.836
280.856
280.884
280.92
280.966
281.019
281.068
281.1
281.107
281.099
281.097
281.108
281.129
281.156
281.185
281.212
281.234
281.249
281.254
281.248
281.228
281.195
281.148
281.095
281.054
281.05
281.089
281.133
281.159
281.174
281.182
281.184
281.185
281.185
281.183
281.179
281.172
281.163
281.152
281.139
281.126
281.113
281.1
281.089
281.078
281.068
281.059
281.052
281.045
281.039
281.034
281.029
281.025
281.02
281.015
281.009
281.003
280.995
280.988
280.988
280.992
280.994
280.995
280.996
280.998
281.001
281.007
281.015
281.025
281.037
281.049
281.061
281.07
281.077
281.079
281.077
281.071
281.062
281.051
281.038
281.025
281.015
281.014
281.03
281.084
281.863
281.729
281.793
281.689
281.424
281.155
280.966
280.865
280.822
280.806
280.801
280.801
280.803
280.808
280.816
280.827
280.843
280.866
280.898
280.942
280.997
281.051
281.087
281.087
281.074
281.073
281.087
281.112
281.143
281.176
281.206
281.232
281.251
281.26
281.256
281.239
281.206
281.158
281.103
281.059
281.056
281.099
281.143
281.167
281.179
281.184
281.186
281.188
281.188
281.187
281.183
281.177
281.169
281.159
281.148
281.136
281.124
281.113
281.101
281.091
281.081
281.071
281.062
281.054
281.047
281.04
281.035
281.029
281.024
281.019
281.013
281.007
281
280.993
280.989
280.99
280.993
280.994
280.996
280.998
281.002
281.009
281.017
281.027
281.039
281.051
281.062
281.071
281.077
281.079
281.077
281.072
281.062
281.051
281.038
281.025
281.015
281.011
281.02
281.067
281.822
281.71
281.775
281.702
281.473
281.22
281.023
280.901
280.839
280.813
280.804
280.801
280.802
280.805
280.81
280.819
280.831
280.849
280.877
280.918
280.973
281.034
281.073
281.06
281.046
281.049
281.067
281.096
281.13
281.166
281.201
281.23
281.253
281.265
281.265
281.249
281.217
281.169
281.111
281.064
281.062
281.107
281.151
281.173
281.182
281.186
281.188
281.19
281.192
281.191
281.188
281.184
281.177
281.169
281.159
281.149
281.139
281.128
281.118
281.108
281.097
281.087
281.077
281.068
281.058
281.05
281.043
281.036
281.03
281.025
281.02
281.014
281.007
281.001
280.996
280.993
280.994
280.996
280.998
281.001
281.006
281.012
281.021
281.031
281.042
281.054
281.064
281.073
281.078
281.08
281.078
281.071
281.062
281.051
281.038
281.025
281.014
281.008
281.013
281.053
281.785
281.692
281.755
281.709
281.519
281.287
281.09
280.952
280.871
280.829
280.811
280.804
280.802
280.803
280.807
280.812
280.821
280.835
280.859
280.895
280.947
281.007
281.042
281.025
281.017
281.025
281.048
281.081
281.119
281.158
281.195
281.228
281.253
281.269
281.272
281.259
281.229
281.181
281.12
281.07
281.066
281.114
281.158
281.177
281.184
281.187
281.19
281.193
281.195
281.196
281.194
281.191
281.186
281.18
281.173
281.165
281.157
281.148
281.139
281.129
281.119
281.108
281.097
281.086
281.074
281.063
281.053
281.045
281.038
281.032
281.027
281.022
281.017
281.011
281.005
281.001
281
281.001
281.003
281.007
281.011
281.018
281.026
281.036
281.047
281.057
281.067
281.075
281.079
281.08
281.077
281.071
281.062
281.05
281.038
281.025
281.013
281.006
281.007
281.043
281.754
281.674
281.734
281.711
281.558
281.353
281.163
281.017
280.918
280.859
280.828
280.812
280.806
280.804
280.805
280.809
280.814
280.825
280.843
280.873
280.92
280.974
280.999
280.988
280.989
281.004
281.032
281.068
281.109
281.151
281.19
281.225
281.253
281.272
281.278
281.268
281.24
281.193
281.131
281.076
281.07
281.118
281.163
281.18
281.185
281.189
281.192
281.196
281.199
281.201
281.201
281.2
281.197
281.193
281.189
281.184
281.178
281.171
281.163
281.155
281.145
281.135
281.122
281.109
281.095
281.081
281.068
281.057
281.047
281.04
281.035
281.031
281.026
281.021
281.016
281.012
281.01
281.01
281.011
281.014
281.019
281.025
281.033
281.042
281.052
281.061
281.07
281.076
281.08
281.08
281.077
281.07
281.061
281.05
281.037
281.024
281.012
281.003
281.001
281.035
281.726
281.658
281.712
281.708
281.591
281.416
281.239
281.091
280.981
280.906
280.859
280.832
280.818
280.811
280.808
280.808
280.812
280.818
280.831
280.855
280.892
280.936
280.952
280.954
280.964
280.986
281.019
281.059
281.102
281.145
281.186
281.223
281.253
281.274
281.283
281.277
281.252
281.206
281.143
281.084
281.072
281.121
281.167
281.182
281.186
281.19
281.194
281.198
281.202
281.205
281.208
281.209
281.208
281.208
281.206
281.203
281.2
281.196
281.191
281.185
281.176
281.166
281.154
281.139
281.123
281.106
281.088
281.073
281.059
281.049
281.043
281.038
281.035
281.031
281.027
281.023
281.021
281.02
281.021
281.024
281.028
281.034
281.041
281.049
281.057
281.066
281.073
281.078
281.08
281.08
281.076
281.069
281.06
281.049
281.036
281.023
281.011
281.001
280.997
281.028
281.702
281.643
281.689
281.7
281.616
281.472
281.313
281.171
281.055
280.969
280.908
280.868
280.843
280.827
280.819
280.815
280.815
280.818
280.826
280.842
280.868
280.898
280.912
280.925
280.944
280.973
281.01
281.052
281.097
281.142
281.184
281.222
281.254
281.277
281.288
281.285
281.263
281.219
281.156
281.092
281.074
281.121
281.169
281.183
281.187
281.19
281.195
281.2
281.205
281.21
281.214
281.217
281.22
281.222
281.223
281.224
281.224
281.223
281.221
281.217
281.211
281.202
281.19
281.175
281.157
281.137
281.115
281.094
281.076
281.061
281.051
281.045
281.042
281.04
281.037
281.034
281.032
281.031
281.032
281.034
281.037
281.042
281.049
281.056
281.063
281.07
281.075
281.079
281.08
281.079
281.075
281.068
281.059
281.048
281.035
281.023
281.01
281
280.993
281.023
281.682
281.629
281.667
281.688
281.632
281.519
281.383
281.251
281.137
281.044
280.974
280.922
280.885
280.86
280.843
280.833
280.828
280.826
280.83
280.839
280.854
280.872
280.887
280.906
280.933
280.967
281.007
281.051
281.097
281.142
281.185
281.223
281.256
281.28
281.293
281.292
281.273
281.232
281.17
281.102
281.076
281.12
281.171
281.184
281.187
281.19
281.195
281.201
281.207
281.213
281.219
281.224
281.229
281.234
281.239
281.243
281.247
281.249
281.251
281.25
281.247
281.24
281.23
281.215
281.197
281.174
281.149
281.123
281.098
281.077
281.061
281.052
281.047
281.046
281.045
281.044
281.042
281.041
281.042
281.043
281.047
281.051
281.056
281.062
281.068
281.073
281.077
281.08
281.08
281.078
281.073
281.066
281.057
281.046
281.034
281.021
281.009
280.998
280.99
281.019
281.664
281.616
281.646
281.672
281.64
281.556
281.445
281.329
281.221
281.128
281.051
280.991
280.944
280.91
280.884
280.867
280.855
280.848
280.846
280.849
280.857
280.867
280.882
280.904
280.934
280.97
281.012
281.056
281.102
281.147
281.189
281.227
281.259
281.284
281.298
281.299
281.282
281.246
281.185
281.114
281.078
281.117
281.172
281.184
281.187
281.19
281.195
281.201
281.208
281.215
281.223
281.23
281.237
281.245
281.253
281.26
281.267
281.273
281.278
281.281
281.282
281.278
281.271
281.258
281.24
281.217
281.189
281.159
281.127
281.099
281.076
281.061
281.053
281.05
281.05
281.05
281.05
281.05
281.051
281.052
281.055
281.058
281.062
281.067
281.072
281.076
281.079
281.08
281.079
281.076
281.071
281.064
281.055
281.044
281.032
281.02
281.007
280.996
280.988
281.016
281.648
281.605
281.625
281.653
281.64
281.583
281.497
281.399
281.302
281.213
281.136
281.071
281.018
280.976
280.943
280.918
280.9
280.887
280.88
280.878
280.88
280.886
280.899
280.92
280.949
280.985
281.026
281.069
281.113
281.156
281.197
281.233
281.265
281.289
281.304
281.305
281.291
281.257
281.201
281.128
281.082
281.112
281.172
281.185
281.187
281.19
281.194
281.201
281.208
281.216
281.224
281.233
281.242
281.252
281.262
281.273
281.283
281.293
281.302
281.309
281.313
281.314
281.31
281.3
281.284
281.261
281.233
281.199
281.163
281.128
281.097
281.073
281.059
281.053
281.053
281.054
281.055
281.056
281.057
281.059
281.061
281.064
281.068
281.071
281.074
281.077
281.079
281.079
281.078
281.074
281.069
281.061
281.052
281.042
281.03
281.018
281.006
280.994
280.985
281.013
281.634
281.596
281.604
281.631
281.632
281.598
281.536
281.458
281.376
281.296
281.223
281.157
281.101
281.054
281.016
280.985
280.961
280.943
280.931
280.924
280.922
280.926
280.935
280.954
280.98
281.013
281.05
281.09
281.131
281.171
281.209
281.243
281.273
281.296
281.31
281.312
281.299
281.268
281.216
281.144
281.087
281.107
281.171
281.185
281.186
281.189
281.193
281.199
281.207
281.215
281.224
281.234
281.244
281.256
281.268
281.281
281.294
281.307
281.32
281.331
281.34
281.345
281.345
281.339
281.325
281.304
281.276
281.242
281.203
281.162
281.124
281.092
281.07
281.058
281.054
281.055
281.057
281.06
281.062
281.064
281.066
281.068
281.071
281.074
281.076
281.078
281.078
281.078
281.075
281.071
281.066
281.058
281.049
281.039
281.028
281.016
281.004
280.992
280.983
281.012
281.622
281.589
281.573
281.602
281.614
281.6
281.56
281.504
281.439
281.371
281.305
281.243
281.188
281.139
281.098
281.063
281.035
281.012
280.996
280.986
280.981
280.982
280.989
281.003
281.025
281.053
281.085
281.12
281.156
281.192
281.225
281.256
281.283
281.304
281.317
281.32
281.307
281.278
281.229
281.161
281.096
281.1
281.168
281.185
281.186
281.188
281.192
281.197
281.204
281.212
281.221
281.231
281.243
281.255
281.269
281.283
281.299
281.315
281.331
281.347
281.36
281.37
281.375
281.373
281.362
281.344
281.317
281.282
281.242
281.199
281.155
281.116
281.086
281.066
281.056
281.055
281.057
281.06
281.063
281.065
281.068
281.07
281.072
281.074
281.076
281.077
281.076
281.075
281.072
281.068
281.062
281.055
281.046
281.036
281.025
281.014
281.002
280.99
280.982
281.011
281.612
281.58
281.507
281.551
281.579
281.584
281.567
281.532
281.485
281.432
281.377
281.322
281.271
281.224
281.182
281.146
281.115
281.09
281.071
281.057
281.05
281.048
281.053
281.063
281.079
281.102
281.128
281.157
281.187
281.217
281.246
281.272
281.295
281.314
281.325
281.327
281.315
281.287
281.241
281.177
281.109
281.095
281.164
281.185
281.186
281.186
281.19
281.195
281.201
281.208
281.217
281.227
281.238
281.251
281.265
281.281
281.298
281.316
281.336
281.355
281.374
281.389
281.399
281.401
281.395
281.378
281.353
281.319
281.279
281.234
281.188
281.144
281.107
281.079
281.062
281.056
281.056
281.059
281.062
281.065
281.068
281.07
281.072
281.073
281.074
281.074
281.073
281.071
281.068
281.064
281.058
281.051
281.042