/*--------------------------------*- C++ -*----------------------------------*\
| =========                 |                                                 |
| \\      /  F ield         | OpenFOAM: The Open Source CFD Toolbox           |
|  \\    /   O peration     | Version:  4.1                                   |
|   \\  /    A nd           | Web:      www.OpenFOAM.org                      |
|    \\/     M anipulation  |                                                 |
\*---------------------------------------------------------------------------*/
FoamFile
{
    version     2.0;
    format      ascii;
    class       volVectorField;
    location    "400";
    object      U;
}
// * * * * * * * * * * * * * * * * * * * * * * * * * * * * * * * * * * * * * //

dimensions      [0 1 -1 0 0 0 0];

internalField   nonuniform List<vector> 
5000
(
(-0.000603239 -0.000330736 0)
(0.000154195 -0.00113635 0)
(-0.00296324 0.00232885 0)
(-0.00762131 0.00219767 0)
(-0.00971114 0.00103413 0)
(-0.0108694 0.00052353 0)
(-0.0116594 0.000370903 0)
(-0.0123138 0.00032753 0)
(-0.0129059 0.000307207 0)
(-0.0134502 0.000288894 0)
(-0.0139466 0.000268745 0)
(-0.0143925 0.000246378 0)
(-0.0147854 0.000222132 0)
(-0.0151232 0.000196502 0)
(-0.0154044 0.000169894 0)
(-0.0156288 0.000142581 0)
(-0.0157966 0.000114731 0)
(-0.0159087 8.6373e-05 0)
(-0.015966 5.73525e-05 0)
(-0.0159695 2.74134e-05 0)
(-0.0159186 -3.13858e-06 0)
(-0.0158132 -3.32596e-05 0)
(-0.0156554 -6.23664e-05 0)
(-0.0154472 -9.03387e-05 0)
(-0.0151905 -0.000117236 0)
(-0.014887 -0.00014319 0)
(-0.0145381 -0.00016836 0)
(-0.0141448 -0.000192909 0)
(-0.013708 -0.000216999 0)
(-0.0132285 -0.000240772 0)
(-0.0127067 -0.000264358 0)
(-0.0121429 -0.000287865 0)
(-0.0115376 -0.000311392 0)
(-0.010891 -0.000335038 0)
(-0.0102032 -0.000358915 0)
(-0.00947446 -0.000383172 0)
(-0.00870443 -0.000408014 0)
(-0.00789261 -0.000433743 0)
(-0.00703779 -0.000460825 0)
(-0.00613716 -0.000490067 0)
(-0.00518409 -0.000522841 0)
(-0.00416671 -0.000561443 0)
(-0.0030753 -0.000612519 0)
(-0.00191245 -0.000710649 0)
(-0.000554547 -0.00101131 0)
(0.00158677 -0.00123751 0)
(0.00322563 -0.00112508 0)
(0.00489432 -0.00100978 0)
(0.00647284 -0.000905452 0)
(0.00791552 -0.00080554 0)
(0.00921424 -0.000708694 0)
(0.0103709 -0.000616822 0)
(0.0113915 -0.00053208 0)
(0.0122852 -0.000455811 0)
(0.0130641 -0.000388462 0)
(0.0137413 -0.000329765 0)
(0.0143295 -0.000278954 0)
(0.0148401 -0.000234979 0)
(0.0152829 -0.000196667 0)
(0.0156656 -0.000162851 0)
(0.0159943 -0.000132448 0)
(0.0162733 -0.000104503 0)
(0.0165053 -7.82135e-05 0)
(0.016692 -5.29441e-05 0)
(0.0168342 -2.82351e-05 0)
(0.0169319 -3.84503e-06 0)
(0.016985 2.01165e-05 0)
(0.0169935 4.30771e-05 0)
(0.0169599 6.48006e-05 0)
(0.0168837 8.56999e-05 0)
(0.016765 0.000106042 0)
(0.016604 0.000125923 0)
(0.0164013 0.000145268 0)
(0.0161574 0.000163902 0)
(0.0158739 0.000181557 0)
(0.0155524 0.000197903 0)
(0.0151956 0.000212557 0)
(0.0148069 0.000225104 0)
(0.0143904 0.000235117 0)
(0.013951 0.000242191 0)
(0.0134945 0.000245985 0)
(0.0130271 0.000246268 0)
(0.0125554 0.000243002 0)
(0.0120859 0.000236425 0)
(0.0116244 0.000227174 0)
(0.0111753 0.000216411 0)
(0.0107404 0.000205964 0)
(0.0103178 0.000198456 0)
(0.00990004 0.000197359 0)
(0.0094728 0.000206774 0)
(0.00901398 0.000230216 0)
(0.00849694 0.000266369 0)
(0.00790567 0.000298055 0)
(0.00728127 0.000267563 0)
(0.00681248 8.07182e-05 0)
(0.00679678 -0.000226599 0)
(0.00713509 -0.000319184 0)
(0.00725912 0.000275678 0)
(0.00604882 0.0014802 0)
(0.00327656 0.00260052 0)
(-0.000487462 0.00111883 0)
(-0.00416727 0.00347148 0)
(-0.00681302 0.00518977 0)
(-0.00943405 0.00412693 0)
(-0.0111074 0.00243393 0)
(-0.0123511 0.00150203 0)
(-0.013318 0.00112479 0)
(-0.0141093 0.000963695 0)
(-0.0147868 0.00086509 0)
(-0.0153774 0.000780744 0)
(-0.015891 0.000697589 0)
(-0.0163314 0.000612423 0)
(-0.0166998 0.000525009 0)
(-0.0169967 0.000436123 0)
(-0.0172233 0.00034682 0)
(-0.0173813 0.000258133 0)
(-0.017473 0.000170902 0)
(-0.0175013 8.56249e-05 0)
(-0.0174686 2.34271e-06 0)
(-0.017378 -7.91269e-05 0)
(-0.0172353 -0.000158681 0)
(-0.0170435 -0.000235952 0)
(-0.0168043 -0.000310417 0)
(-0.016519 -0.000382153 0)
(-0.0161885 -0.000451485 0)
(-0.0158136 -0.000518823 0)
(-0.0153948 -0.000584578 0)
(-0.0149322 -0.000649124 0)
(-0.0144261 -0.000712769 0)
(-0.0138764 -0.000775753 0)
(-0.013283 -0.000838237 0)
(-0.012646 -0.000900323 0)
(-0.0119652 -0.000962078 0)
(-0.0112407 -0.00102358 0)
(-0.0104724 -0.00108496 0)
(-0.00966019 -0.00114655 0)
(-0.00880365 -0.00120891 0)
(-0.00790188 -0.0012731 0)
(-0.00695313 -0.0013409 0)
(-0.00595336 -0.0014153 0)
(-0.00489292 -0.00150121 0)
(-0.00375455 -0.00160724 0)
(-0.00252876 -0.00175596 0)
(-0.00123753 -0.00202261 0)
(0.000576887 -0.00260543 0)
(0.00217659 -0.00273678 0)
(0.00375267 -0.00260067 0)
(0.00534422 -0.0024228 0)
(0.00687841 -0.00223361 0)
(0.00830933 -0.00203363 0)
(0.00961813 -0.00182795 0)
(0.0108004 -0.00162541 0)
(0.0118593 -0.00143391 0)
(0.0128025 -0.00125857 0)
(0.013641 -0.00110176 0)
(0.0143865 -0.000963674 0)
(0.0150506 -0.000843015 0)
(0.0156437 -0.000737577 0)
(0.0161745 -0.000644734 0)
(0.0166498 -0.000561782 0)
(0.017075 -0.000486169 0)
(0.0174538 -0.000415624 0)
(0.0177885 -0.000348224 0)
(0.0180805 -0.000282422 0)
(0.0183302 -0.000217064 0)
(0.0185376 -0.000151432 0)
(0.0187018 -8.53689e-05 0)
(0.0188217 -1.9252e-05 0)
(0.0188933 4.69576e-05 0)
(0.0189161 0.000112923 0)
(0.0188892 0.000178743 0)
(0.0188121 0.000244296 0)
(0.0186847 0.000309186 0)
(0.0185071 0.000372776 0)
(0.0182798 0.000434229 0)
(0.018004 0.000492552 0)
(0.0176818 0.000546633 0)
(0.0173157 0.000595286 0)
(0.0169093 0.000637312 0)
(0.016467 0.000671568 0)
(0.0159939 0.000697073 0)
(0.0154959 0.000713139 0)
(0.0149792 0.000719548 0)
(0.0144502 0.000716773 0)
(0.0139148 0.000706265 0)
(0.0133781 0.000690777 0)
(0.0128433 0.000674704 0)
(0.012311 0.000664357 0)
(0.0117786 0.000667939 0)
(0.01124 0.000694608 0)
(0.0106879 0.000750865 0)
(0.0101204 0.000829842 0)
(0.0095572 0.000886185 0)
(0.00906495 0.00080231 0)
(0.00872604 0.000435554 0)
(0.00849545 -0.000135373 0)
(0.00833162 -0.000330215 0)
(0.00786601 0.000969985 0)
(0.00629476 0.00369077 0)
(0.00352321 0.00639641 0)
(-0.00158308 0.00396021 0)
(-0.00519814 0.00663315 0)
(-0.00755386 0.00751319 0)
(-0.00941718 0.0059453 0)
(-0.0106748 0.00385468 0)
(-0.0117299 0.00260961 0)
(-0.0126589 0.00202721 0)
(-0.0134692 0.00172796 0)
(-0.0141741 0.00152546 0)
(-0.0147856 0.00135297 0)
(-0.015312 0.00118852 0)
(-0.0157581 0.00102515 0)
(-0.0161275 0.00086133 0)
(-0.0164231 0.000697693 0)
(-0.0166478 0.000535739 0)
(-0.0168052 0.000377159 0)
(-0.0168988 0.000223413 0)
(-0.0169324 7.55395e-05 0)
(-0.016909 -6.6002e-05 0)
(-0.0168327 -0.000201432 0)
(-0.0167057 -0.000331688 0)
(-0.0165303 -0.000457463 0)
(-0.0163081 -0.000579046 0)
(-0.0160399 -0.000696972 0)
(-0.0157264 -0.000811908 0)
(-0.0153674 -0.000924539 0)
(-0.0149629 -0.0010355 0)
(-0.0145126 -0.00114533 0)
(-0.0140158 -0.00125445 0)
(-0.0134722 -0.00136315 0)
(-0.0128812 -0.00147161 0)
(-0.0122425 -0.00157988 0)
(-0.0115556 -0.00168798 0)
(-0.0108205 -0.00179592 0)
(-0.0100371 -0.00190384 0)
(-0.00920538 -0.00201219 0)
(-0.00832531 -0.00212189 0)
(-0.0073964 -0.00223473 0)
(-0.00641754 -0.00235384 0)
(-0.00538535 -0.00248444 0)
(-0.00429086 -0.00263512 0)
(-0.00312098 -0.00282317 0)
(-0.00187913 -0.0030976 0)
(-0.000539129 -0.00359666 0)
(0.00122731 -0.00421081 0)
(0.00257715 -0.0042703 0)
(0.00404974 -0.00416737 0)
(0.00553377 -0.00397034 0)
(0.00697115 -0.00371138 0)
(0.00832282 -0.00341111 0)
(0.00956633 -0.00309012 0)
(0.0106937 -0.00276826 0)
(0.0117068 -0.00246106 0)
(0.0126134 -0.00217837 0)
(0.013424 -0.00192482 0)
(0.0141503 -0.0017011 0)
(0.0148032 -0.00150523 0)
(0.0153925 -0.00133367 0)
(0.015926 -0.00118219 0)
(0.0164098 -0.00104644 0)
(0.0168483 -0.000922328 0)
(0.0172445 -0.000806231 0)
(0.0176002 -0.000695089 0)
(0.0179161 -0.000586429 0)
(0.0181924 -0.000478356 0)
(0.0184283 -0.000369529 0)
(0.0186227 -0.00025913 0)
(0.0187739 -0.000146723 0)
(0.0188802 -3.1791e-05 0)
(0.018939 8.50599e-05 0)
(0.0189483 0.000202951 0)
(0.0189072 0.000321312 0)
(0.0188149 0.000439414 0)
(0.0186708 0.000556207 0)
(0.0184747 0.000670314 0)
(0.0182268 0.000780089 0)
(0.017928 0.00088368 0)
(0.0175798 0.000979094 0)
(0.0171846 0.00106427 0)
(0.0167457 0.00113723 0)
(0.0162671 0.00119617 0)
(0.0157538 0.00123975 0)
(0.0152113 0.0012673 0)
(0.014646 0.00127918 0)
(0.0140643 0.00127715 0)
(0.0134728 0.0012648 0)
(0.0128777 0.00124796 0)
(0.0122845 0.0012348 0)
(0.0116982 0.00123537 0)
(0.0111241 0.00125937 0)
(0.0105693 0.00130999 0)
(0.0100472 0.00136892 0)
(0.00957902 0.00136838 0)
(0.00918549 0.00117683 0)
(0.00885492 0.000705901 0)
(0.00850059 0.000129814 0)
(0.00796949 0.000146729 0)
(0.00713066 0.00220305 0)
(0.00541888 0.00632643 0)
(0.00299995 0.0104193 0)
(-0.00190189 0.007156 0)
(-0.00504202 0.00944713 0)
(-0.00719432 0.0094985 0)
(-0.00872277 0.00735881 0)
(-0.00982663 0.00500365 0)
(-0.0108195 0.00360407 0)
(-0.0117393 0.002902 0)
(-0.0125683 0.0024954 0)
(-0.0133027 0.00219522 0)
(-0.013945 0.00193293 0)
(-0.0144989 0.00168448 0)
(-0.0149684 0.00144157 0)
(-0.0153576 0.00120219 0)
(-0.0156706 0.000966912 0)
(-0.0159118 0.000737293 0)
(-0.0160859 0.000514954 0)
(-0.0161974 0.000301152 0)
(-0.0162507 9.66411e-05 0)
(-0.0162493 -9.84971e-05 0)
(-0.0161965 -0.000285105 0)
(-0.0160947 -0.000464319 0)
(-0.0159454 -0.00063723 0)
(-0.0157495 -0.00080496 0)
(-0.0155071 -0.000968671 0)
(-0.0152178 -0.00112949 0)
(-0.0148809 -0.00128843 0)
(-0.0144953 -0.00144635 0)
(-0.01406 -0.00160393 0)
(-0.0135737 -0.00176163 0)
(-0.0130354 -0.00191972 0)
(-0.0124442 -0.00207828 0)
(-0.0117993 -0.0022372 0)
(-0.0111004 -0.00239629 0)
(-0.0103475 -0.00255536 0)
(-0.00954098 -0.00271439 0)
(-0.00868146 -0.00287374 0)
(-0.0077698 -0.00303448 0)
(-0.00680687 -0.00319891 0)
(-0.00579312 -0.00337119 0)
(-0.00472681 -0.0035583 0)
(-0.00360146 -0.00377221 0)
(-0.00241271 -0.00403947 0)
(-0.00117341 -0.00443291 0)
(0.000279425 -0.0051108 0)
(0.00169552 -0.00559267 0)
(0.00297276 -0.00567264 0)
(0.00432531 -0.00559232 0)
(0.005688 -0.00537644 0)
(0.0070103 -0.00505266 0)
(0.0082565 -0.00465725 0)
(0.00940484 -0.00422706 0)
(0.0104473 -0.00379374 0)
(0.0113863 -0.00338051 0)
(0.0122303 -0.00300148 0)
(0.0129905 -0.00266295 0)
(0.0136784 -0.00236547 0)
(0.0143045 -0.00210587 0)
(0.0148773 -0.00187893 0)
(0.0154035 -0.00167858 0)
(0.0158881 -0.00149876 0)
(0.016334 -0.00133384 0)
(0.0167434 -0.00117893 0)
(0.0171169 -0.00102991 0)
(0.0174546 -0.000883482 0)
(0.0177559 -0.000737079 0)
(0.0180196 -0.000588804 0)
(0.0182444 -0.000437337 0)
(0.0184282 -0.000281818 0)
(0.0185688 -0.000121733 0)
(0.0186651 4.28549e-05 0)
(0.0187116 0.000210076 0)
(0.0187073 0.000378818 0)
(0.018651 0.000548134 0)
(0.0185412 0.000716802 0)
(0.0183769 0.00088315 0)
(0.0181574 0.00104509 0)
(0.0178826 0.00120021 0)
(0.0175531 0.00134583 0)
(0.01717 0.00147909 0)
(0.0167355 0.00159713 0)
(0.0162526 0.00169726 0)
(0.0157254 0.00177721 0)
(0.0151589 0.00183547 0)
(0.0145591 0.00187165 0)
(0.0139331 0.00188697 0)
(0.0132885 0.00188466 0)
(0.012634 0.00187034 0)
(0.011979 0.00185199 0)
(0.0113341 0.00183906 0)
(0.0107113 0.00183952 0)
(0.0101251 0.00185272 0)
(0.00959202 0.00185523 0)
(0.0091256 0.00178125 0)
(0.00871894 0.00152914 0)
(0.00832444 0.00106342 0)
(0.00785479 0.000598767 0)
(0.0071842 0.000926501 0)
(0.00625184 0.00362406 0)
(0.00451412 0.00883841 0)
(0.00241812 0.0139831 0)
(-0.00177994 0.0102359 0)
(-0.00452537 0.0120534 0)
(-0.00649661 0.0112808 0)
(-0.00787018 0.00860292 0)
(-0.00893511 0.00604877 0)
(-0.00993053 0.00456348 0)
(-0.0108625 0.00378301 0)
(-0.011708 0.00328829 0)
(-0.0124615 0.00289622 0)
(-0.0131227 0.00254293 0)
(-0.0136936 0.00220634 0)
(-0.0141781 0.00187911 0)
(-0.0145809 0.00155982 0)
(-0.0149071 0.00124951 0)
(-0.0151621 0.000949977 0)
(-0.0153517 0.000662883 0)
(-0.0154811 0.00038927 0)
(-0.0155551 0.00012939 0)
(-0.0155775 -0.000117427 0)
(-0.0155506 -0.000353071 0)
(-0.015477 -0.000579739 0)
(-0.0153569 -0.000799281 0)
(-0.0151903 -0.0010136 0)
(-0.0149761 -0.0012245 0)
(-0.0147129 -0.00143357 0)
(-0.0143988 -0.00164214 0)
(-0.0140316 -0.00185121 0)
(-0.0136095 -0.00206149 0)
(-0.0131304 -0.00227334 0)
(-0.0125928 -0.00248684 0)
(-0.0119955 -0.00270176 0)
(-0.0113376 -0.0029176 0)
(-0.0106189 -0.00313371 0)
(-0.0098401 -0.00334939 0)
(-0.00900227 -0.0035641 0)
(-0.00810735 -0.00377779 0)
(-0.00715781 -0.00399127 0)
(-0.00615663 -0.00420692 0)
(-0.00510665 -0.00442944 0)
(-0.00400876 -0.00466708 0)
(-0.00286145 -0.00493531 0)
(-0.00167111 -0.00527301 0)
(-0.000420651 -0.00577343 0)
(0.0010043 -0.00646958 0)
(0.00216634 -0.00682827 0)
(0.00335713 -0.00695062 0)
(0.00458227 -0.0068914 0)
(0.00580863 -0.00665739 0)
(0.0069963 -0.00627629 0)
(0.0081132 -0.00579606 0)
(0.00914055 -0.0052683 0)
(0.0100729 -0.00473654 0)
(0.0109148 -0.00423155 0)
(0.0116766 -0.00377118 0)
(0.0123701 -0.00336268 0)
(0.0130068 -0.00300577 0)
(0.0135961 -0.00269556 0)
(0.0141453 -0.00242483 0)
(0.0146593 -0.00218557 0)
(0.0151412 -0.00197001 0)
(0.0155924 -0.00177116 0)
(0.0160135 -0.00158304 0)
(0.0164041 -0.00140071 0)
(0.0167631 -0.00122026 0)
(0.0170893 -0.00103867 0)
(0.017381 -0.000853684 0)
(0.0176365 -0.000663688 0)
(0.0178538 -0.000467579 0)
(0.0180306 -0.000264663 0)
(0.0181646 -5.44778e-05 0)
(0.0182537 0.000162002 0)
(0.0182927 0.000382509 0)
(0.0182801 0.000605577 0)
(0.0182139 0.00082963 0)
(0.0180922 0.00105267 0)
(0.0179132 0.00127219 0)
(0.0176758 0.0014852 0)
(0.0173794 0.00168834 0)
(0.017024 0.00187795 0)
(0.0166105 0.00205025 0)
(0.0161408 0.00220153 0)
(0.0156179 0.00232843 0)
(0.015046 0.00242831 0)
(0.0144304 0.00249964 0)
(0.0137782 0.00254246 0)
(0.0130977 0.00255881 0)
(0.0123986 0.00255307 0)
(0.0116925 0.00253179 0)
(0.0109927 0.00250272 0)
(0.0103147 0.00247182 0)
(0.00967531 0.00243685 0)
(0.00909083 0.00237635 0)
(0.00856947 0.00223845 0)
(0.00809643 0.00195426 0)
(0.00762077 0.00151761 0)
(0.00705728 0.00115851 0)
(0.00633357 0.00175718 0)
(0.00540327 0.00504058 0)
(0.0036977 0.0110738 0)
(0.00189059 0.0168749 0)
(-0.00155565 0.0130434 0)
(-0.0039533 0.0144056 0)
(-0.00577461 0.0129365 0)
(-0.00706633 0.00980627 0)
(-0.00812617 0.00708594 0)
(-0.00913081 0.00552559 0)
(-0.0100678 0.00467074 0)
(-0.0109166 0.00409075 0)
(-0.0116733 0.00360816 0)
(-0.012338 0.00316399 0)
(-0.0129127 0.00273912 0)
(-0.0134014 0.00232794 0)
(-0.0138096 0.00193003 0)
(-0.0141432 0.00154694 0)
(-0.0144084 0.00118057 0)
(-0.0146114 0.000832307 0)
(-0.0147582 0.000502594 0)
(-0.0148535 0.000190783 0)
(-0.0149014 -0.000104899 0)
(-0.0149028 -0.000387283 0)
(-0.0148599 -0.000659878 0)
(-0.0147719 -0.00092563 0)
(-0.0146371 -0.00118737 0)
(-0.0144532 -0.00144758 0)
(-0.0142171 -0.00170831 0)
(-0.0139258 -0.00197107 0)
(-0.0135761 -0.00223689 0)
(-0.0131651 -0.0025063 0)
(-0.0126901 -0.00277937 0)
(-0.0121493 -0.00305572 0)
(-0.0115411 -0.00333455 0)
(-0.0108652 -0.00361468 0)
(-0.0101217 -0.00389467 0)
(-0.00931202 -0.00417293 0)
(-0.00843863 -0.00444804 0)
(-0.00750505 -0.00471906 0)
(-0.00651587 -0.00498613 0)
(-0.00547661 -0.00525116 0)
(-0.00439291 -0.00551885 0)
(-0.00326907 -0.00579827 0)
(-0.00211132 -0.00611045 0)
(-0.000928302 -0.00650985 0)
(0.000362579 -0.00708468 0)
(0.00157283 -0.00764494 0)
(0.00263223 -0.00795413 0)
(0.0037161 -0.00810112 0)
(0.00481008 -0.00805271 0)
(0.00589137 -0.00779529 0)
(0.00692986 -0.00735741 0)
(0.00789991 -0.00679758 0)
(0.00878805 -0.00618109 0)
(0.00959347 -0.00556287 0)
(0.0103244 -0.00498063 0)
(0.0109932 -0.00445496 0)
(0.0116127 -0.00399292 0)
(0.0121938 -0.00359241 0)
(0.0127444 -0.00324608 0)
(0.0132695 -0.00294426 0)
(0.0137716 -0.00267685 0)
(0.0142513 -0.00243442 0)
(0.0147082 -0.0022088 0)
(0.0151407 -0.00199316 0)
(0.0155471 -0.00178206 0)
(0.0159253 -0.00157125 0)
(0.0162732 -0.00135753 0)
(0.0165889 -0.00113853 0)
(0.0168703 -0.000912559 0)
(0.0171156 -0.000678433 0)
(0.0173229 -0.000435351 0)
(0.0174899 -0.000182749 0)
(0.0176173 7.97195e-05 0)
(0.0176971 0.000349504 0)
(0.0177278 0.000624498 0)
(0.0177069 0.000902745 0)
(0.0176319 0.00118208 0)
(0.0174999 0.00145975 0)
(0.0173087 0.00173239 0)
(0.0170565 0.00199607 0)
(0.0167418 0.00224642 0)
(0.0163643 0.00247876 0)
(0.0159246 0.0026883 0)
(0.0154242 0.00287046 0)
(0.0148665 0.0030212 0)
(0.0142559 0.00313753 0)
(0.0135989 0.00321789 0)
(0.0129035 0.00326262 0)
(0.0121798 0.00327423 0)
(0.0114398 0.0032573 0)
(0.0106977 0.00321756 0)
(0.00996975 0.00315939 0)
(0.00927275 0.00308071 0)
(0.00862158 0.00296514 0)
(0.00802215 0.00277597 0)
(0.00746074 0.00246953 0)
(0.00689641 0.00205789 0)
(0.00625862 0.00177651 0)
(0.0054928 0.00259748 0)
(0.00457866 0.00642179 0)
(0.00293662 0.0130358 0)
(0.00143045 0.0191322 0)
(-0.00133025 0.0155016 0)
(-0.00343914 0.0165126 0)
(-0.00513055 0.0144859 0)
(-0.00636921 0.0109908 0)
(-0.00742622 0.00812662 0)
(-0.00842634 0.00648839 0)
(-0.00935175 0.0055548 0)
(-0.010188 0.00488847 0)
(-0.0109336 0.00431585 0)
(-0.0115891 0.00378179 0)
(-0.0121568 0.00326988 0)
(-0.0126413 0.00277634 0)
(-0.0130483 0.00230194 0)
(-0.0133844 0.00184884 0)
(-0.0136565 0.0014191 0)
(-0.0138713 0.00101374 0)
(-0.0140351 0.000632402 0)
(-0.0141526 0.000273168 0)
(-0.0142278 -6.73022e-05 0)
(-0.0142597 -0.000393062 0)
(-0.0142502 -0.000709453 0)
(-0.0141966 -0.0010208 0)
(-0.0140955 -0.00133095 0)
(-0.013943 -0.00164304 0)
(-0.0137345 -0.00195942 0)
(-0.0134655 -0.00228162 0)
(-0.0131318 -0.00261042 0)
(-0.0127297 -0.00294591 0)
(-0.0122564 -0.00328757 0)
(-0.0117096 -0.0036343 0)
(-0.0110881 -0.00398442 0)
(-0.0103917 -0.00433575 0)
(-0.00962161 -0.00468569 0)
(-0.00878013 -0.00503143 0)
(-0.00787114 -0.00537026 0)
(-0.00689998 -0.00569995 0)
(-0.00587351 -0.00601947 0)
(-0.00479984 -0.0063298 0)
(-0.00368748 -0.0066349 0)
(-0.00254599 -0.00694491 0)
(-0.00139028 -0.00729084 0)
(-0.000199417 -0.00773645 0)
(0.00103771 -0.00828031 0)
(0.00207195 -0.00869638 0)
(0.00305932 -0.00898218 0)
(0.00403573 -0.00912945 0)
(0.00499767 -0.00907242 0)
(0.00592985 -0.00878114 0)
(0.00681128 -0.0082838 0)
(0.00762519 -0.00764874 0)
(0.00836592 -0.00695399 0)
(0.00903912 -0.00626472 0)
(0.00965755 -0.00562405 0)
(0.010236 -0.00505356 0)
(0.0107874 -0.00455842 0)
(0.011321 -0.00413332 0)
(0.011842 -0.00376756 0)
(0.0123519 -0.00344861 0)
(0.01285 -0.0031642 0)
(0.013334 -0.0029035 0)
(0.0138006 -0.00265747 0)
(0.0142465 -0.00241893 0)
(0.0146684 -0.00218232 0)
(0.0150633 -0.00194348 0)
(0.0154284 -0.00169938 0)
(0.0157613 -0.00144787 0)
(0.0160602 -0.00118745 0)
(0.0163233 -0.000917152 0)
(0.0165491 -0.00063634 0)
(0.0167363 -0.000344647 0)
(0.0168846 -4.11097e-05 0)
(0.0169931 0.000273611 0)
(0.0170563 0.000596936 0)
(0.0170721 0.000926752 0)
(0.0170378 0.00126077 0)
(0.0169498 0.00159609 0)
(0.0168046 0.00192909 0)
(0.0165992 0.00225537 0)
(0.0163308 0.00256988 0)
(0.0159975 0.00286701 0)
(0.0155981 0.00314086 0)
(0.015133 0.00338548 0)
(0.014604 0.00359534 0)
(0.0140145 0.00376572 0)
(0.0133699 0.00389324 0)
(0.0126776 0.00397626 0)
(0.0119471 0.00401523 0)
(0.01119 0.00401261 0)
(0.0104202 0.0039722 0)
(0.00965291 0.00389725 0)
(0.00890392 0.00378668 0)
(0.0081865 0.00362971 0)
(0.00750592 0.00340255 0)
(0.00685229 0.00307989 0)
(0.00619635 0.0026853 0)
(0.00548123 0.00245604 0)
(0.00466109 0.0034479 0)
(0.00375732 0.00776438 0)
(0.0022138 0.0147245 0)
(0.00104934 0.0208333 0)
(-0.00113043 0.0176256 0)
(-0.00300136 0.0183982 0)
(-0.0045807 0.0159418 0)
(-0.00577835 0.0121521 0)
(-0.00682477 0.0091571 0)
(-0.00780478 0.00743616 0)
(-0.00870363 0.00642067 0)
(-0.00951425 0.00566842 0)
(-0.0102374 0.005008 0)
(-0.010874 0.00438702 0)
(-0.0114268 0.00379149 0)
(-0.0119004 0.00321946 0)
(-0.0123011 0.00267293 0)
(-0.012636 0.00215479 0)
(-0.0129126 0.00166718 0)
(-0.0131382 0.00121064 0)
(-0.013319 0.000783629 0)
(-0.01346 0.000382394 0)
(-0.0135642 1.38406e-06 0)
(-0.0136285 -0.000364769 0)
(-0.0136542 -0.000723195 0)
(-0.0136365 -0.00108023 0)
(-0.0135702 -0.00144072 0)
(-0.0134492 -0.00180831 0)
(-0.0132676 -0.0021854 0)
(-0.0130196 -0.00257321 0)
(-0.0127003 -0.00297194 0)
(-0.0123055 -0.00338093 0)
(-0.0118323 -0.00379873 0)
(-0.0112785 -0.00422324 0)
(-0.0106433 -0.00465162 0)
(-0.00992727 -0.00508042 0)
(-0.00913228 -0.00550561 0)
(-0.00826182 -0.00592286 0)
(-0.00732111 -0.0063278 0)
(-0.0063172 -0.00671655 0)
(-0.00525904 -0.00708649 0)
(-0.00415699 -0.00743706 0)
(-0.00302261 -0.00777068 0)
(-0.00187405 -0.00810038 0)
(-0.000723177 -0.00847024 0)
(0.000481485 -0.0089223 0)
(0.00155968 -0.00933981 0)
(0.00251606 -0.00966412 0)
(0.0034277 -0.00991651 0)
(0.00430077 -0.0100394 0)
(0.00513353 -0.00995106 0)
(0.00591715 -0.00961197 0)
(0.00664065 -0.00905105 0)
(0.00729842 -0.00834605 0)
(0.00789503 -0.00758653 0)
(0.00844405 -0.00684588 0)
(0.00896306 -0.00617002 0)
(0.00946825 -0.00557882 0)
(0.00997105 -0.00507326 0)
(0.0104771 -0.00464325 0)
(0.0109869 -0.00427395 0)
(0.0114977 -0.00394981 0)
(0.0120044 -0.00365678 0)
(0.0125016 -0.00338317 0)
(0.0129836 -0.00311977 0)
(0.0134453 -0.00285962 0)
(0.0138824 -0.00259761 0)
(0.014291 -0.00233011 0)
(0.0146681 -0.00205461 0)
(0.0150113 -0.00176943 0)
(0.0153186 -0.00147356 0)
(0.0155886 -0.0011664 0)
(0.0158202 -0.000847706 0)
(0.0160128 -0.00051738 0)
(0.0161655 -0.000175067 0)
(0.016282 0.000179888 0)
(0.0163573 0.000545944 0)
(0.0163905 0.000921623 0)
(0.0163794 0.0013049 0)
(0.0163206 0.00169318 0)
(0.0162102 0.00208296 0)
(0.016044 0.0024697 0)
(0.0158178 0.00284787 0)
(0.0155281 0.00321106 0)
(0.0151719 0.00355219 0)
(0.0147477 0.00386389 0)
(0.0142555 0.00413891 0)
(0.0136972 0.00437064 0)
(0.0130769 0.00455364 0)
(0.0124008 0.00468417 0)
(0.0116774 0.00476049 0)
(0.0109173 0.004783 0)
(0.010133 0.00475377 0)
(0.00933847 0.00467527 0)
(0.00854782 0.00454767 0)
(0.00777273 0.00436517 0)
(0.00701836 0.00411419 0)
(0.00627846 0.00378259 0)
(0.00553301 0.00340144 0)
(0.00473657 0.00320652 0)
(0.0038454 0.00431942 0)
(0.00294342 0.00905557 0)
(0.00154685 0.0161106 0)
(0.000761636 0.0220531 0)
(-0.000958854 0.0194655 0)
(-0.00263192 0.0200999 0)
(-0.00411459 0.0173178 0)
(-0.00527653 0.0132852 0)
(-0.00630368 0.0101643 0)
(-0.00725158 0.00835482 0)
(-0.00811326 0.00725584 0)
(-0.00888896 0.00641989 0)
(-0.00958145 0.00567544 0)
(-0.0101922 0.00497184 0)
(-0.0107241 0.00429723 0)
(-0.0111819 0.00365153 0)
(-0.0115723 0.00303816 0)
(-0.011903 0.00246082 0)
(-0.0121822 0.0019218 0)
(-0.0124176 0.00142083 0)
(-0.0126157 0.000954704 0)
(-0.0127804 0.000517512 0)
(-0.0129139 0.000101244 0)
(-0.013014 -0.000301991 0)
(-0.0130756 -0.000700868 0)
(-0.0130945 -0.00110414 0)
(-0.0130626 -0.00151751 0)
(-0.0129723 -0.00194485 0)
(-0.012816 -0.00238821 0)
(-0.0125872 -0.00284806 0)
(-0.0122806 -0.00332358 0)
(-0.011892 -0.003813 0)
(-0.0114186 -0.0043137 0)
(-0.0108588 -0.00482232 0)
(-0.0102124 -0.00533471 0)
(-0.00948044 -0.00584597 0)
(-0.00866568 -0.00635048 0)
(-0.00777248 -0.00684212 0)
(-0.00680717 -0.00731465 0)
(-0.00577824 -0.00776221 0)
(-0.00469633 -0.00818017 0)
(-0.00357334 -0.00856571 0)
(-0.00242541 -0.00891913 0)
(-0.00128097 -0.00925943 0)
(-0.000120205 -0.00963492 0)
(0.00101983 -0.0100157 0)
(0.00198776 -0.0103095 0)
(0.00288783 -0.0105627 0)
(0.00372435 -0.0107623 0)
(0.00449772 -0.0108351 0)
(0.00520569 -0.0106921 0)
(0.00584519 -0.0102905 0)
(0.00641649 -0.00966294 0)
(0.00692745 -0.00889674 0)
(0.00739475 -0.0080912 0)
(0.00784048 -0.00732457 0)
(0.0082859 -0.00664154 0)
(0.00874617 -0.00605655 0)
(0.0092282 -0.00556364 0)
(0.00973149 -0.00514657 0)
(0.0102505 -0.00478618 0)
(0.010777 -0.00446457 0)
(0.0113023 -0.00416687 0)
(0.0118181 -0.00388159 0)
(0.0123173 -0.00360026 0)
(0.012794 -0.00331685 0)
(0.0132434 -0.00302719 0)
(0.0136617 -0.00272847 0)
(0.0140457 -0.00241892 0)
(0.0143932 -0.00209751 0)
(0.0147022 -0.00176376 0)
(0.0149715 -0.00141761 0)
(0.0152001 -0.00105929 0)
(0.0153878 -0.00068921 0)
(0.0155341 -0.000307809 0)
(0.0156427 8.55325e-05 0)
(0.0157118 0.000490529 0)
(0.015742 0.000906635 0)
(0.0157328 0.00133278 0)
(0.0156822 0.00176728 0)
(0.015587 0.00220741 0)
(0.0154431 0.00264908 0)
(0.0152458 0.00308681 0)
(0.01499 0.00351372 0)
(0.0146712 0.00392177 0)
(0.0142857 0.00430216 0)
(0.0138314 0.00464581 0)
(0.0133083 0.00494404 0)
(0.0127186 0.00518915 0)
(0.0120669 0.00537511 0)
(0.0113601 0.00549796 0)
(0.0106076 0.00555608 0)
(0.00982022 0.00555002 0)
(0.00901031 0.00548164 0)
(0.00819013 0.00535231 0)
(0.00736986 0.00516039 0)
(0.00655445 0.00490017 0)
(0.00574001 0.00456929 0)
(0.00491252 0.00420452 0)
(0.00403659 0.0040375 0)
(0.00306528 0.00522444 0)
(0.00216357 0.0102672 0)
(0.000972382 0.0171549 0)
(0.000573982 0.0228772 0)
(-0.000812393 0.0210699 0)
(-0.00231749 0.0216495 0)
(-0.00371564 0.0186259 0)
(-0.00484495 0.0143873 0)
(-0.00584634 0.0111397 0)
(-0.00675443 0.00923515 0)
(-0.00757223 0.00805184 0)
(-0.00830688 0.00713544 0)
(-0.0089632 0.00631175 0)
(-0.0095432 0.00553073 0)
(-0.0100498 0.00478243 0)
(-0.010488 0.00406877 0)
(-0.0108649 0.00339478 0)
(-0.011189 0.00276512 0)
(-0.011469 0.00218209 0)
(-0.0117133 0.00164436 0)
(-0.0119284 0.00114657 0)
(-0.0121176 0.000680108 0)
(-0.0122815 0.000233973 0)
(-0.0124177 -0.000203243 0)
(-0.0125152 -0.000641897 0)
(-0.0125697 -0.00109279 0)
(-0.0125706 -0.00156237 0)
(-0.0125087 -0.0020543 0)
(-0.0123754 -0.00256976 0)
(-0.0121637 -0.00310789 0)
(-0.0118684 -0.00366645 0)
(-0.0114858 -0.00424218 0)
(-0.0110138 -0.00483113 0)
(-0.0104513 -0.00542863 0)
(-0.00979862 -0.0060292 0)
(-0.00905744 -0.00662644 0)
(-0.00823087 -0.00721306 0)
(-0.00732388 -0.00778107 0)
(-0.00634353 -0.00832209 0)
(-0.00529935 -0.00882805 0)
(-0.00420307 -0.00929178 0)
(-0.00306765 -0.00970755 0)
(-0.00191688 -0.0100733 0)
(-0.000780731 -0.0104155 0)
(0.000387918 -0.0107586 0)
(0.00141077 -0.0110188 0)
(0.00232997 -0.011218 0)
(0.00317401 -0.0113962 0)
(0.00393666 -0.0115229 0)
(0.0046134 -0.011521 0)
(0.00520148 -0.0113013 0)
(0.00570429 -0.0108244 0)
(0.00613506 -0.0101309 0)
(0.00651704 -0.0093181 0)
(0.00687999 -0.00849201 0)
(0.00725328 -0.00773043 0)
(0.00765853 -0.0070711 0)
(0.00810567 -0.00651848 0)
(0.00859359 -0.00605737 0)
(0.00911368 -0.00566516 0)
(0.00965385 -0.00531955 0)
(0.0102017 -0.00500199 0)
(0.0107459 -0.00469844 0)
(0.0112774 -0.00439889 0)
(0.0117889 -0.00409644 0)
(0.0122747 -0.0037865 0)
(0.0127305 -0.00346604 0)
(0.0131528 -0.00313321 0)
(0.013539 -0.0027869 0)
(0.0138867 -0.00242666 0)
(0.0141943 -0.00205247 0)
(0.0144602 -0.00166475 0)
(0.0146833 -0.00126424 0)
(0.0148631 -0.000851956 0)
(0.0149991 -0.000429154 0)
(0.0150938 3.96003e-06 0)
(0.0151477 0.000447514 0)
(0.0151625 0.000901521 0)
(0.0151396 0.00136595 0)
(0.0150793 0.00184038 0)
(0.0149803 0.00232342 0)
(0.0148399 0.00281224 0)
(0.014654 0.00330222 0)
(0.0144173 0.00378678 0)
(0.0141241 0.00425747 0)
(0.0137691 0.00470439 0)
(0.013348 0.00511674 0)
(0.0128586 0.00548365 0)
(0.012301 0.00579501 0)
(0.0116776 0.00604231 0)
(0.0109935 0.00621922 0)
(0.0102564 0.00632211 0)
(0.00947538 0.00635006 0)
(0.00866107 0.0063044 0)
(0.00782395 0.00618755 0)
(0.00697272 0.00600121 0)
(0.00611193 0.00574586 0)
(0.00523887 0.00542698 0)
(0.00434269 0.00508644 0)
(0.00339774 0.00494975 0)
(0.00235013 0.00616806 0)
(0.00145851 0.0113582 0)
(0.000526062 0.0178377 0)
(0.000476374 0.0234088 0)
(-0.00068686 0.0224751 0)
(-0.00204516 0.0230701 0)
(-0.00336817 0.0198751 0)
(-0.00446716 0.0154574 0)
(-0.00543915 0.0120785 0)
(-0.00630344 0.0100718 0)
(-0.00707367 0.0088035 0)
(-0.00776358 0.0078103 0)
(-0.00838022 0.0069126 0)
(-0.00892619 0.00605982 0)
(-0.00940453 0.00524362 0)
(-0.00982042 0.00446809 0)
(-0.0101814 0.00374013 0)
(-0.0104966 0.00306555 0)
(-0.0107758 0.00244659 0)
(-0.0110279 0.00188052 0)
(-0.0112594 0.0013593 0)
(-0.0114729 0.000870747 0)
(-0.0116672 0.00039974 0)
(-0.0118377 -6.93974e-05 0)
(-0.0119691 -0.000547889 0)
(-0.0120565 -0.00104835 0)
(-0.0120873 -0.00157793 0)
(-0.0120506 -0.00213949 0)
(-0.0119373 -0.00273259 0)
(-0.0117406 -0.00335446 0)
(-0.0114559 -0.00400092 0)
(-0.0110805 -0.0046671 0)
(-0.0106131 -0.0053477 0)
(-0.0100533 -0.00603687 0)
(-0.00940191 -0.00672796 0)
(-0.00866056 -0.00741323 0)
(-0.00783244 -0.00808371 0)
(-0.00692261 -0.0087294 0)
(-0.00593845 -0.00933964 0)
(-0.00489006 -0.00990375 0)
(-0.00378976 -0.0104116 0)
(-0.00265155 -0.0108539 0)
(-0.00151065 -0.011226 0)
(-0.000375393 -0.0115555 0)
(0.000750987 -0.0118179 0)
(0.00169833 -0.0119628 0)
(0.00257749 -0.0120754 0)
(0.00336506 -0.0121658 0)
(0.00405316 -0.0121996 0)
(0.00463458 -0.0121006 0)
(0.00510741 -0.0117855 0)
(0.00548326 -0.0112252 0)
(0.00579039 -0.010473 0)
(0.00606873 -0.00963592 0)
(0.0063599 -0.00882131 0)
(0.00669645 -0.00809879 0)
(0.00709471 -0.00749209 0)
(0.00755452 -0.00699174 0)
(0.00806429 -0.00657289 0)
(0.0086075 -0.00620858 0)
(0.00916746 -0.00587607 0)
(0.00972987 -0.00555858 0)
(0.0102835 -0.00524457 0)
(0.0108199 -0.00492646 0)
(0.0113331 -0.00459938 0)
(0.0118184 -0.00426021 0)
(0.0122726 -0.00390703 0)
(0.0126928 -0.00353866 0)
(0.0130769 -0.00315451 0)
(0.0134227 -0.00275443 0)
(0.0137283 -0.00233869 0)
(0.0139919 -0.00190798 0)
(0.014212 -0.00146339 0)
(0.0143873 -0.00100644 0)
(0.0145169 -0.000539043 0)
(0.0146007 -6.28415e-05 0)
(0.0146413 0.000421732 0)
(0.0146396 0.000914551 0)
(0.0145985 0.00141618 0)
(0.0145203 0.00192719 0)
(0.014406 0.00244767 0)
(0.0142553 0.00297647 0)
(0.0140658 0.00351063 0)
(0.0138335 0.00404482 0)
(0.0135527 0.00457111 0)
(0.0132173 0.00507918 0)
(0.0128215 0.00555698 0)
(0.0123609 0.00599162 0)
(0.0118332 0.00637052 0)
(0.0112388 0.00668252 0)
(0.0105808 0.0069188 0)
(0.00986452 0.00707357 0)
(0.00909764 0.00714439 0)
(0.00828895 0.00713204 0)
(0.00744727 0.00703972 0)
(0.00657998 0.0068719 0)
(0.0056911 0.0066341 0)
(0.00477843 0.00633839 0)
(0.00383257 0.00603167 0)
(0.00283778 0.0059317 0)
(0.0017317 0.00714366 0)
(0.000870465 0.0122862 0)
(0.000224149 0.0181788 0)
(0.000444088 0.0237552 0)
(-0.000577962 0.0237065 0)
(-0.00180374 0.0243774 0)
(-0.00305843 0.0210716 0)
(-0.00412943 0.0164954 0)
(-0.005071 0.0129788 0)
(-0.00589038 0.0108622 0)