/*--------------------------------*- C++ -*----------------------------------*\
| =========                 |                                                 |
| \\      /  F ield         | OpenFOAM: The Open Source CFD Toolbox           |
|  \\    /   O peration     | Version:  4.1                                   |
|   \\  /    A nd           | Web:      www.OpenFOAM.org                      |
|    \\/     M anipulation  |                                                 |
\*---------------------------------------------------------------------------*/
FoamFile
{
    version     2.0;
    format      ascii;
    class       volScalarField;
    location    "1140";
    object      mag(U);
}
// * * * * * * * * * * * * * * * * * * * * * * * * * * * * * * * * * * * * * //

dimensions      [0 1 -1 0 0 0 0];

internalField   nonuniform List<scalar> 
5000
(
0.00131283
0.00245222
0.00601749
0.00751098
0.00739377
0.00655076
0.00549887
0.00448688
0.00362495
0.00293698
0.00241021
0.0020125
0.00168568
0.00134483
0.000943173
0.000638426
0.000476319
0.000619389
0.00321525
0.0044899
0.00441878
0.00387565
0.00356353
0.00344804
0.0033548
0.00319376
0.00294375
0.00260381
0.00217759
0.00166751
0.00109093
0.000514036
0.000629643
0.00136494
0.00224263
0.00320671
0.00424195
0.00532911
0.00644334
0.00755849
0.00865012
0.00969679
0.0106806
0.0115873
0.0124062
0.0131302
0.013755
0.0142795
0.0147047
0.0150341
0.0152728
0.0154273
0.0155056
0.0155172
0.0154735
0.0153831
0.0152546
0.0150964
0.0149163
0.0147219
0.0145201
0.0143177
0.0141203
0.0139327
0.0137579
0.0135974
0.0134506
0.013315
0.0131862
0.013059
0.0129267
0.0127828
0.0126202
0.0124316
0.0122097
0.011948
0.0116402
0.0112642
0.0107041
0.00969914
0.00773692
0.00285621
0.00352085
0.00417526
0.0045947
0.00506184
0.00553333
0.00594474
0.00626636
0.00647889
0.00654886
0.00642436
0.00603458
0.00526875
0.00411219
0.00295069
0.00330926
0.00375196
0.00418512
0.00410762
0.00320083
0.00483391
0.00659619
0.00690529
0.00683541
0.00648352
0.00593425
0.00532022
0.00475347
0.0042814
0.00390745
0.0036121
0.00337074
0.00317794
0.003082
0.00317844
0.00352654
0.00400903
0.00442951
0.00401795
0.00381892
0.00377691
0.0036848
0.00352582
0.0033355
0.00312554
0.00288269
0.00259353
0.00225347
0.00186769
0.0014745
0.00117712
0.00122869
0.0017151
0.00247433
0.00338993
0.00440856
0.00549518
0.00661848
0.00775006
0.00886508
0.00994244
0.0109647
0.011918
0.0127921
0.01358
0.0142774
0.0148832
0.0153982
0.0158258
0.0161706
0.016439
0.0166381
0.0167757
0.016858
0.0168923
0.016888
0.0168539
0.0167982
0.0167282
0.0166505
0.0165706
0.0164926
0.0164192
0.0163513
0.0162879
0.0162264
0.0161624
0.0160901
0.0160026
0.0158924
0.0157513
0.0155707
0.0153419
0.0150545
0.0146952
0.0142412
0.0136469
0.012826
0.011839
0.0111543
0.00905122
0.00356438
0.00212148
0.00261065
0.0031571
0.00371024
0.0042139
0.00463142
0.00493183
0.00508821
0.00504487
0.00477456
0.00426768
0.0037146
0.00379549
0.00471524
0.0027139
0.00249861
0.00530539
0.00504465
0.00621229
0.00684627
0.0058725
0.00573993
0.00585262
0.00563128
0.00522195
0.0047892
0.00441863
0.00414307
0.0039688
0.00389707
0.00394366
0.00414634
0.00449606
0.00478834
0.00476808
0.00438568
0.00347619
0.00353435
0.00392505
0.00405762
0.00405424
0.00398198
0.00386538
0.00370582
0.00349821
0.00324001
0.00293761
0.00261246
0.0023088
0.00211277
0.00217884
0.00260254
0.00333044
0.00424642
0.005265
0.00633361
0.00741682
0.00848769
0.0095248
0.0105111
0.0114331
0.0122809
0.0130473
0.0137279
0.014321
0.014827
0.0152483
0.0155889
0.0158545
0.0160515
0.0161874
0.0162703
0.0163099
0.0163131
0.0162884
0.0162437
0.0161859
0.016121
0.0160539
0.0159882
0.0159263
0.0158688
0.015815
0.0157623
0.0157064
0.0156415
0.0155604
0.0154544
0.0153146
0.0151311
0.014894
0.0145923
0.0142123
0.0137359
0.0131508
0.0125203
0.0122746
0.0131433
0.0132835
0.00948261
0.00256258
0.00175706
0.00224424
0.00273166
0.00317461
0.00356866
0.00386811
0.00402939
0.00404299
0.00396816
0.00393198
0.00425112
0.00526119
0.00622766
0.00276632
0.00145296
0.00680822
0.00666522
0.00748899
0.00729201
0.00523934
0.0049354
0.00532716
0.00533805
0.00508835
0.00476486
0.00447853
0.00427928
0.004181
0.0041839
0.00429228
0.00451589
0.00481968
0.00504297
0.00496179
0.00453135
0.00412433
0.00430719
0.00460221
0.00478563
0.00487322
0.00489028
0.00484726
0.00474424
0.00457883
0.00435259
0.00407589
0.00377235
0.00348326
0.00327131
0.00321557
0.00341634
0.00393056
0.00467457
0.00555133
0.00649343
0.00746178
0.0084287
0.00937241
0.0102757
0.0111251
0.0119102
0.0126234
0.0132594
0.0138152
0.0142898
0.014684
0.0150005
0.0152433
0.015418
0.0155314
0.0155912
0.0156062
0.0155843
0.0155342
0.0154639
0.0153808
0.0152912
0.0152007
0.0151138
0.0150336
0.0149619
0.0148988
0.0148426
0.0147895
0.0147338
0.0146675
0.0145812
0.0144642
0.0143054
0.0140937
0.0138185
0.0134703
0.0130443
0.0125594
0.0121471
0.0123927
0.0142198
0.015811
0.0135042
0.00685117
0.00216876
0.00215272
0.00242075
0.00265032
0.00284726
0.0029863
0.00305855
0.00311328
0.00327363
0.00374217
0.00475985
0.0063121
0.00719236
0.00310904
0.000965848
0.00790941
0.0079927
0.00864696
0.00792691
0.00500259
0.00429717
0.00486734
0.00506995
0.00495961
0.00473845
0.00453772
0.00441852
0.00439629
0.0044656
0.00461825
0.00484615
0.00511401
0.0053202
0.00535143
0.00521639
0.00515961
0.0053318
0.00556014
0.00574521
0.00587211
0.00592497
0.00590165
0.00580017
0.00562334
0.00538169
0.00509573
0.0047978
0.00453353
0.00436152
0.00434307
0.00451515
0.0049586
0.0055666
0.00628827
0.00706812
0.00787586
0.00869086
0.00949507
0.010273
0.0110121
0.011702
0.0123346
0.0129039
0.0134053
0.0138358
0.0141942
0.0144806
0.0146968
0.0148462
0.0149338
0.0149664
0.0149511
0.0148964
0.0148112
0.0147041
0.0145832
0.014456
0.0143293
0.0142088
0.0140989
0.0140027
0.0139216
0.0138549
0.0137998
0.0137507
0.0137
0.0136379
0.013553
0.0134337
0.013269
0.0130498
0.0127709
0.0124367
0.0120811
0.0118559
0.0123853
0.0147329
0.0173454
0.0163226
0.0109082
0.00415852
0.00252492
0.00252996
0.00248562
0.00238173
0.00224961
0.00215952
0.00225614
0.002686
0.00359448
0.00510864
0.00703143
0.00778467
0.00383125
0.000558826
0.00867568
0.00904128
0.0096452
0.00866795
0.00510712
0.00381171
0.00445026
0.00481388
0.00482787
0.00470713
0.004599
0.00457048
0.00463498
0.00478225
0.00499974
0.00527365
0.00556329
0.00581499
0.00598087
0.0060794
0.00620871
0.00641106
0.00662794
0.00680433
0.00691433
0.00694229
0.00687972
0.0067318
0.0065116
0.00624086
0.00594979
0.00567679
0.0054674
0.00537034
0.00542915
0.00566726
0.00613227
0.00668492
0.00728053
0.00790287
0.00853853
0.00917954
0.00981655
0.0104394
0.0110386
0.0116058
0.0121336
0.0126156
0.0130462
0.0134211
0.0137367
0.0139905
0.0141813
0.0143095
0.0143771
0.0143887
0.0143488
0.0142656
0.0141477
0.014004
0.0138435
0.0136753
0.0135075
0.0133476
0.013202
0.0130753
0.0129706
0.0128886
0.0128274
0.0127822
0.0127456
0.0127077
0.0126574
0.0125832
0.0124749
0.0123251
0.0121322
0.0119058
0.0116861
0.0116279
0.0123463
0.0149917
0.0183208
0.0184328
0.0140702
0.00737449
0.00324099
0.00282336
0.00258759
0.00220386
0.00174533
0.00139722
0.00152226
0.00221125
0.00341828
0.00526481
0.00749159
0.00823857
0.00449737
0.00021706
0.00926581
0.00986766
0.0104895
0.00944007
0.00545722
0.00348904
0.0040747
0.00456742
0.00469426
0.0046766
0.00467227
0.00474875
0.00491499
0.00515911
0.0054689
0.00581322
0.00616571
0.00649493
0.00677677
0.00701798
0.00724915
0.00747714
0.00767403
0.00780766
0.0078561
0.007813
0.00767997
0.00747307
0.00721556
0.00693707
0.0066724
0.00645994
0.00633871
0.00634337
0.00649971
0.00682152
0.00732389
0.00789488
0.00839552
0.00887769
0.00934822
0.0098124
0.0102714
0.0107227
0.0111625
0.011586
0.0119882
0.0123636
0.012707
0.0130128
0.0132761
0.0134922
0.0136569
0.0137674
0.0138221
0.0138225
0.0137689
0.0136682
0.0135279
0.0133564
0.0131634
0.0129589
0.0127531
0.0125553
0.012374
0.0122162
0.0120868
0.0119881
0.0119195
0.0118768
0.0118527
0.0118374
0.01182
0.0117898
0.0117376
0.011658
0.0115522
0.011433
0.0113439
0.0114391
0.012311
0.0151443
0.0189933
0.0200193
0.0165729
0.0102854
0.00482906
0.00321218
0.00281768
0.00226368
0.00152874
0.000824248
0.000970145
0.00187592
0.00321173
0.00526282
0.00775815
0.0085854
0.00501997
0.000345758
0.00975458
0.0105349
0.0112066
0.010201
0.00596107
0.00334263
0.00374695
0.00433511
0.00456688
0.00465901
0.00477226
0.0049692
0.0052549
0.00561925
0.00602762
0.00645548
0.00688252
0.00728566
0.00764622
0.00795815
0.0082235
0.00843629
0.00857987
0.00863781
0.00860193
0.00847573
0.00827735
0.00803101
0.00776628
0.00751603
0.00731468
0.00719561
0.00718731
0.00730934
0.00757071
0.00797111
0.0085225
0.00913129
0.00955932
0.0099178
0.0102352
0.010529
0.0108101
0.0110844
0.0113545
0.011621
0.0118825
0.012136
0.012377
0.0126002
0.0127999
0.0129698
0.0131038
0.013196
0.0132416
0.0132382
0.0131815
0.0130759
0.0129265
0.0127403
0.0125268
0.0122967
0.0120615
0.0118327
0.0116213
0.0114367
0.0112863
0.011174
0.0111003
0.0110613
0.0110494
0.0110547
0.0110663
0.0110745
0.0110716
0.0110544
0.0110265
0.0110036
0.0110319
0.0112669
0.0122808
0.0152613
0.0195008
0.0212521
0.0185296
0.0126456
0.00674827
0.00389429
0.00314627
0.00247108
0.00155646
0.000523264
0.000663386
0.00168193
0.00300112
0.00516234
0.00789327
0.00883199
0.00542079
0.000640955
0.0101657
0.0110953
0.0118272
0.0109323
0.0065533
0.00338053
0.00348485
0.00412987
0.00446144
0.00467258
0.00491776
0.00525166
0.00567632
0.0061568
0.00665757
0.00716068
0.00764668
0.00809477
0.00848607
0.00880763
0.00905153
0.0092102
0.00927611
0.00924637
0.00912681
0.00893345
0.00869579
0.0084428
0.00820678
0.00802032
0.00791378
0.00791202
0.0080311
0.00827626
0.00864275
0.0091198
0.00972406
0.0103617
0.0107307
0.0109777
0.011153
0.0112858
0.011395
0.0114937
0.0115916
0.0116949
0.0118071
0.0119282
0.0120557
0.0121852
0.0123108
0.0124254
0.0125217
0.0125915
0.0126272
0.0126234
0.012571
0.0124707
0.0123246
0.0121374
0.0119171
0.0116744
0.0114218
0.0111724
0.0109398
0.0107361
0.0105713
0.0104512
0.0103771
0.0103447
0.0103458
0.0103694
0.0104048
0.0104433
0.0104795
0.0105127
0.0105491
0.0106066
0.0107349
0.0110955
0.012254
0.0153882
0.0199502
0.0222548
0.020059
0.0144796
0.00846376
0.00482846
0.00356921
0.00278731
0.00176926
0.000570295
0.000586557
0.00157874
0.00281127
0.00502615
0.00794859
0.00898999
0.00571525
0.000910816
0.0105149
0.0115882
0.0123794
0.0116294
0.00719456
0.00359423
0.0033155
0.00397149
0.00439971
0.00473905
0.0051293
0.00561331
0.00616546
0.00673775
0.0073098
0.00786265
0.00837691
0.00883231
0.00921023
0.00949659
0.00968301
0.00976595
0.00974711
0.00963553
0.00944877
0.00921609
0.00897098
0.00874539
0.00857182
0.00847966
0.0084921
0.0086232
0.00887623
0.00924415
0.00971218
0.0102631
0.0109213
0.0115724
0.0118864
0.0120293
0.0120714
0.0120522
0.0119972
0.0119259
0.011854
0.0117938
0.0117536
0.0117372
0.0117447
0.0117731
0.0118168
0.0118688
0.0119204
0.0119625
0.0119854
0.0119804
0.0119362
0.0118484
0.0117155
0.011539
0.0113247
0.0110824
0.0108245
0.0105659
0.0103221
0.0101083
0.00993706
0.00981614
0.009747
0.00972481
0.00973954
0.0097792
0.00983279
0.00989272
0.00995617
0.0100258
0.0101106
0.0102311
0.0104423
0.0109185
0.0122374
0.0155675
0.0204273
0.0231311
0.0212438
0.0158333
0.0098162
0.0057961
0.00409044
0.00314237
0.00203498
0.000797325
0.00060748
0.00149736
0.00264102
0.00490403
0.0079643
0.00907268
0.00592407
0.0010948
0.0108214
0.0120417
0.0128863
0.0122963
0.00786439
0.00395708
0.00327745
0.00388664
0.00440724
0.00488059
0.0054216
0.00603796
0.0066773
0.00731334
0.00792655
0.00849768
0.00900735
0.00943646
0.00976845
0.00999193
0.0101026
0.0101036
0.0100058
0.00982857
0.00959789
0.00935552
0.00913454
0.00896842
0.00888728
0.00891435
0.00906309
0.00933565
0.00972355
0.0102101
0.0107739
0.011394
0.0121055
0.012754
0.0130117
0.0130546
0.01297
0.0128066
0.0125956
0.0123616
0.0121256
0.0119054
0.0117141
0.0115597
0.0114451
0.011369
0.0113267
0.0113111
0.0113133
0.0113231
0.0113298
0.0113218
0.0112866
0.0112154
0.0111025
0.0109458
0.0107481
0.0105173
0.0102653
0.0100078
0.00976243
0.009547
0.00937679
0.00926141
0.00920236
0.00919333
0.00922189
0.00927428
0.0093394
0.00941127
0.00949014
0.00958236
0.00970027
0.00986792
0.0101482
0.0107378
0.0122494
0.0158448
0.0210059
0.0239538
0.0221422
0.0167546
0.0107831
0.00663518
0.00464881
0.00352491
0.00231361
0.00103202
0.000646985
0.00141236
0.0025285
0.00484071
0.00796276
0.00907831
0.00607808
0.0011729
0.0111007
0.0124742
0.0133656
0.012942
0.00855583
0.00444043
0.00339325
0.00390618
0.00450789
0.00511269
0.00577811
0.00647371
0.00716749
0.00783641
0.00846047
0.00902051
0.00949792
0.00987582
0.0101412
0.0102873
0.0103158
0.0102377
0.0100725
0.00984821
0.00960256
0.00937938
0.00921308
0.00913602
0.0091731
0.00933863
0.00963463
0.0100516
0.0105713
0.0111701
0.0118222
0.012506
0.0132676
0.0138975
0.0140962
0.0140418
0.0138355
0.0135345
0.0131752
0.0127863
0.0123938
0.01202
0.0116824
0.011393
0.0111576
0.0109771
0.0108478
0.0107629
0.0107134
0.0106883
0.0106762
0.0106639
0.0106374
0.0105845
0.0104959
0.0103652
0.010192
0.0099813
0.00974399
0.00949581
0.00925615
0.00904553
0.00888201
0.00877681
0.00873125
0.00873677
0.00877799
0.008839
0.00890863
0.00898312
0.00906644
0.00916909
0.00930716
0.00950947
0.00985128
0.0105642
0.0123215
0.0162747
0.0217491
0.0247656
0.0227772
0.0172784
0.0113897
0.0072872
0.00517885
0.00390519
0.00257541
0.00123664
0.00067799
0.00130208
0.00241034
0.00482315
0.00798312
0.00906768
0.00616015
0.00115466
0.0113594
0.0128958
0.0138276
0.0135782
0.00927034
0.00502205
0.0036742
0.00406476
0.00471547
0.00541104
0.00614195
0.00688184
0.00760026
0.00827363
0.00888209
0.00940702
0.00983138
0.0101413
0.0103282
0.010391
0.0103384
0.0101891
0.0099718
0.00972176
0.0094883
0.00931264
0.00922995
0.00926842
0.00944475
0.00976209
0.0102106
0.0107705
0.0114161
0.0121192
0.0128516
0.0135938
0.0143982
0.0149936
0.0151319
0.0149824
0.0146585
0.0142257
0.0137251
0.0131898
0.0126495
0.0121304
0.011654
0.0112354
0.0108836
0.0106013
0.0103866
0.0102331
0.0101318
0.0100715
0.0100396
0.0100223
0.0100044
0.00997081
0.00990874
0.00980818
0.00966458
0.00947991
0.00926313
0.00902978
0.00880064
0.00859891
0.00844544
0.00835299
0.00832202
0.00834109
0.00839176
0.00845601
0.00852285
0.0085912
0.00866951
0.00877295
0.00892185
0.00915157
0.00955627
0.0104201
0.0125027
0.0169226
0.0227046
0.0255676
0.023137
0.0174319
0.0116824
0.00775519
0.00564504
0.00425405
0.00279974
0.00139954
0.000697663
0.00117343
0.00229996
0.00484951
0.00803465
0.00905645
0.00617309
0.00104851
0.011605
0.0133093
0.014274
0.0142167
0.0100158
0.00568813
0.00410301
0.00434417
0.00499125
0.00571843
0.00648022
0.00723628
0.00795292
0.00860659
0.00917791
0.00964922
0.0100056
0.0102367
0.0103389
0.0103175
0.0101885
0.00997915
0.0097267
0.00947347
0.00927829
0.00917778
0.0092054
0.00938201
0.00971337
0.0101903
0.0107918
0.0114898
0.0122535
0.0130521
0.0138563
0.0146532
0.0154866
0.0160345
0.0161126
0.0158701
0.0154321
0.0148726
0.014238
0.0135649
0.0128866
0.0122325
0.0116267
0.0110871
0.0106251
0.0102459
0.00994911
0.00972948
0.00957819
0.00948374
0.00943298
0.00941112
0.00940209
0.00938848
0.00935439
0.00928606
0.00917491
0.00901943
0.00882625
0.00861032
0.00839367
0.00820223
0.00805971
0.00798023
0.00796295
0.00799298
0.00804839
0.00810934
0.00816568
0.00821987
0.00828564
0.00838345
0.00853855
0.00879564
0.00927775
0.0103447
0.0128629
0.0178616
0.0238903
0.026308
0.0231835
0.0172448
0.0117215
0.00807227
0.00603857
0.00455006
0.00297239
0.00151872
0.000706489
0.00103133
0.00220785
0.00492468
0.00812061
0.00905339
0.00612571
0.000864991
0.0118457
0.0137106
0.014697
0.0148663
0.0108022
0.00642437
0.00463399
0.004701
0.00529377
0.00601545
0.00677633
0.00752222
0.00821435
0.00882834
0.00934539
0.00974904
0.0100267
0.0101717
0.0101861
0.0100818
0.00988317
0.00962591
0.00935572
0.00912525
0.00899351
0.00899448
0.00915623
0.00948919
0.00998614
0.0106255
0.0113767
0.0122057
0.0130786
0.0139633
0.0148315
0.0156805
0.0165199
0.0170151
0.0170333
0.0166997
0.0161509
0.0154699
0.0147084
0.013907
0.0131018
0.0123243
0.0116004
0.0109499
0.0103859
0.00991582
0.00954131
0.00925879
0.0090602
0.008934
0.00886631
0.00884143
0.0088423
0.00884932
0.00884376
0.00880831
0.00873037
0.00860473
0.00843549
0.00823682
0.00803206
0.00784995
0.00771718
0.00764898
0.0076427
0.00767945
0.00773364
0.00778408
0.00782243
0.00785581
0.00790428
0.0079943
0.00815715
0.00845151
0.00904427
0.0103993
0.0134939
0.0191644
0.0252699
0.0268787
0.0228709
0.0167621
0.0115778
0.00828368
0.00636323
0.00477789
0.00308536
0.00159764
0.000703829
0.000883055
0.00214865
0.00505151
0.00824103
0.0090614
0.00602894
0.000621471
0.0120898
0.01409
0.0150788
0.01553
0.0116396
0.007221
0.00523292
0.00510738
0.00560791
0.0062873
0.00701878
0.00773193
0.00838088
0.00893936
0.00938894
0.00971451
0.00990583
0.00996037
0.00988565
0.00970123
0.00944027
0.00914787
0.00887718
0.00869704
0.00865248
0.00877931
0.00909572
0.0095987
0.0102669
0.0110674
0.0119621
0.0129134
0.013886
0.0148476
0.0157727
0.0166691
0.0174872
0.0179327
0.0178903
0.0174671
0.0168106
0.0160135
0.0151331
0.0142137
0.0132937
0.0124059
0.011577
0.010827
0.0101704
0.00961647
0.00916912
0.0088271
0.00858392
0.00842855
0.00834646
0.00832084
0.00833314
0.00836149
0.00838444
0.00838126
0.00833547
0.00823824
0.00809108
0.00790745
0.00771209
0.00753675
0.00741107
0.00735104
0.00735161
0.0073896
0.00743563
0.00746803
0.00748148
0.00748935
0.00751934
0.00760481
0.00778489
0.00813992
0.00890208
0.0106681
0.0144988
0.0208687
0.0267347
0.0271139
0.0221996
0.0160504
0.0113268
0.00843368
0.00662242
0.00492573
0.00313613
0.00163781
0.000693077
0.000738251
0.00213887
0.00523119
0.00839414
0.00908164
0.00589194
0.000366102
0.012341
0.0144339
0.0153912
0.0162014
0.0125368
0.00807335
0.00587305
0.00553344
0.00590988
0.00651831
0.00719835
0.00786153
0.00845331
0.00894474
0.00931741
0.00955761
0.00965774
0.00961937
0.00945614
0.00919594
0.00888168
0.00856889
0.00831797
0.0082052
0.00827119
0.00854601
0.00903412
0.00971636
0.0105572
0.0115141
0.0125441
0.0136077
0.01467
0.0156997
0.0166757
0.0176079
0.0183842
0.0187856
0.0186805
0.0181684
0.0174075
0.0165003
0.0155099
0.0144842
0.013463
0.0124795
0.0115595
0.0107228
0.00998395
0.00935357
0.00883817
0.00843951
0.00815373
0.00797113
0.0078769
0.00785285
0.00787826
0.00792857
0.00797946
0.00800693
0.00799084
0.00791894
0.00779038
0.00761806
0.00742836
0.00725625
0.00713423
0.00707853
0.00708098
0.00711396
0.00714449
0.00715151
0.00713445
0.00711496
0.00713003
0.00722095
0.00743765
0.00789378
0.00891351
0.0112459
0.0159854
0.0231404
0.0278602
0.026869
0.021286
0.0151945
0.011041
0.00855463
0.00681077
0.00498668
0.0031285
0.00164474
0.000676282
0.000610054
0.00219373
0.00546221
0.00857784
0.00911517
0.00572161
0.000414255
0.0126075
0.0147274
0.015598
0.0168597
0.0135019
0.00898568
0.00654272
0.00596182
0.0061854
0.00669843
0.00730924
0.00791021
0.00843551
0.00885246
0.00914243
0.00929292
0.00929903
0.00916676
0.00891615
0.00858391
0.0082235
0.00790177
0.00768725
0.00766273
0.00786259
0.00830606
0.0089795
0.00984588
0.0108568
0.0119625
0.0131176
0.0142829
0.0154247
0.0165139
0.0175353
0.0184844
0.0192105
0.0195717
0.019401
0.0188003
0.0179387
0.0169286
0.0158386
0.0147196
0.0136121
0.0125483
0.0115523
0.0106421
0.00983162
0.00913231
0.00855324
0.00809988
0.00777213
0.00756287
0.00745763
0.00743682
0.00747666
0.00754928
0.00762712
0.00768288
0.00769307
0.00764237
0.00752793
0.00736243
0.00717419
0.0070015
0.00687952
0.00682411
0.00682347
0.00684455
0.00685204
0.00682703
0.00677607
0.00673157
0.00674148
0.00685617
0.00714063
0.00775718
0.0091497
0.0122453
0.0184155
0.0253442
0.0284672
0.0261742
0.0201326
0.0143347
0.0107825
0.00865808
0.00691243
0.00495789
0.00307113
0.00162428
0.000653867
0.000516561
0.00232344
0.00574045
0.00879008
0.00916416
0.00552523
0.000805519
0.0128997
0.0149569
0.0156607
0.0174643
0.0145379
0.00997314
0.00724518
0.00638586
0.00642574
0.00682051
0.0073475
0.0078787
0.00833313
0.00867242
0.00887757
0.00893694
0.00884807
0.00862151
0.00828411
0.00788189
0.00747994
0.00715846
0.00699622
0.00708153
0.00743907
0.00807019
0.00893867
0.0099896
0.0111642
0.0124087
0.0136774
0.014933
0.0161442
0.017285
0.0183458
0.0192852
0.0199689
0.0202896
0.0200494
0.0193599
0.0184022
0.0172977
0.0161201
0.0149222
0.0137444
0.0126165
0.0115597
0.0105892
0.00971755
0.00895647
0.00831745
0.00781017
0.00743948
0.00720221
0.00708539
0.00706814
0.00712296
0.00721779
0.0073212
0.0074025
0.0074351
0.00740106
0.00729597
0.00713272
0.00694189
0.00676516
0.00664003
0.0065812
0.00657234
0.00657461
0.00655198
0.00648975
0.00640485
0.00634343
0.00636595
0.00653254
0.00692908
0.00778515
0.00970844
0.0141443
0.0213499
0.0270546
0.0285277
0.0250896
0.0188109
0.0135873
0.0105961
0.00872316
0.00691875
0.00486833
0.00297964
0.00158264
0.000620474
0.000485363
0.0025303
0.00605956
0.00902887
0.00923224
0.00531235
0.00131436
0.0132271
0.0151132
0.0155648
0.017936
0.0156304
0.0110632
0.00799978
0.00681178
0.0066309
0.00688244
0.00731116
0.00776829
0.00815255
0.00841581
0.00853791
0.00850773
0.00832481
0.00800379
0.00757862
0.0071055
0.00666303
0.00634834
0.0062546
0.00647409
0.00701442
0.00784965
0.00891798
0.0101489
0.0114772
0.0128481
0.0142178
0.015552
0.0168226
0.018007
0.0190978
0.020003
0.0206614
0.0209374
0.020623
0.0198449
0.0187968
0.0176083
0.0163568
0.015096
0.0138644
0.0126885
0.0115855
0.0105672
0.00964395
0.00882749
0.00813142
0.00756987
0.00715359
0.00688495
0.00675388
0.00673882
0.00680807
0.00692442
0.00705181
0.00715586
0.00720707
0.00718529
0.00708505
0.00691989
0.00672301
0.00653958
0.00640888
0.00634353
0.0063211
0.00629823
0.00623924
0.00613719
0.00602352
0.00596131
0.0060241
0.0062817
0.0068478
0.00805353
0.0108502
0.0171878
0.0239844
0.0281544
0.028076
0.0236933
0.0174652
0.012966
0.0105014
0.00873603
0.00681768
0.00471842
0.00287947
0.00153507
0.000573403
0.000545288
0.00280767
0.00641127
0.00929156
0.00932388
0.00509413
0.0018903
0.0135984
0.0151924
0.0153003
0.0181703
0.0167435
0.0122937
0.00884494
0.00725927
0.00680692
0.00688361
0.00719723
0.00757913
0.00790013
0.0080946
0.00814002
0.00802509
0.007751
0.00733558
0.0068193
0.00626978
0.00578256
0.00547721
0.0054734
0.00585671
0.00660603
0.00765714
0.0089235
0.0103243
0.0117925
0.0132755
0.0147327
0.0161335
0.0174536
0.0186747
0.0197721
0.0206453
0.0212878
0.0215132
0.0211193
0.0202535
0.0191226
0.0178623
0.0165524
0.0152454
0.0139767
0.0127682
0.0116323
0.010577
0.00961043
0.0087438
0.00799261
0.00737538
0.00690944
0.00660414
0.00645411
0.00643812
0.00652017
0.00665688
0.00680666
0.006931
0.00699748
0.0069841
0.00688479
0.00671433
0.00650895
0.00631734
0.00617976
0.00610525
0.00606414
0.0060101
0.0059104
0.00577036
0.00564078
0.00560444
0.00574631
0.00614362
0.00694803
0.00868086
0.0133618
0.0203507
0.0260485
0.0286483
0.0271789
0.0220987
0.0162354
0.0125339
0.0104509
0.00866447
0.00662308
0.00451431
0.00274849
0.00147037
0.000502367
0.000695671
0.00314121
0.00678532
0.00957409
0.00944351
0.00488389
0.00251605
0.0140215
0.0151973
0.0148599
0.0181347
0.0176678
0.0137519
0.00984753
0.00776901
0.00697264
0.00683123
0.00700622
0.00731166
0.00758282
0.00772174
0.00770192
0.00751102
0.00715085
0.00664154
0.00602824
0.00538985
0.00484466
0.00454748
0.00466934
0.00525425
0.00623697
0.0075071
0.00896094
0.0105153
0.012106
0.0136848
0.0152154
0.0166703
0.0180314
0.01928
0.0203575
0.0212185
0.0218462
0.0220138
0.0215356
0.0205848
0.0193807
0.0180631
0.0167114
0.0153755
0.0140858
0.0128585
0.0117009
0.0106174
0.00961367
0.00870053
0.00789501
0.00721975
0.00669892
0.00635013
0.0061747
0.00615317
0.00624551
0.00640122
0.00657214
0.00671495
0.00679414
0.00678609
0.00668464
0.00650638
0.00629119
0.00609122
0.00594665
0.00586028
0.00579617
0.00570594
0.00556441
0.00539501
0.00527331
0.00530251
0.00557271
0.00616283
0.00731033
0.0103127
0.0166491
0.0231145
0.0274933
0.0285848
0.0259252
0.0204452
0.0152399
0.0122714
0.0103895
0.00850055
0.00636066
0.00428258
0.00260394
0.00139009
0.000420748
0.000932757
0.00351209
0.00716916
0.00986982
0.00959442
0.00469895
0.00317546
0.0145005
0.015138
0.0142551
0.0178302
0.0182319
0.0153065
0.0111434
0.00842215
0.00717
0.0067466
0.00674629
0.00696765
0.00720829
0.00731112
0.00724282
0.0069896
0.00655231
0.00595144
0.00523412
0.00448838
0.00386436
0.00358331
0.00387058
0.00470607
0.0059368
0.00741478
0.00903482
0.0107198
0.012412
0.0140684
0.0156573
0.017157
0.0185501
0.0198018
0.0208648
0.0217242
0.0223338
0.0224358
0.0218695
0.0208385
0.0195735
0.0182149
0.0168392
0.0154913
0.0141951
0.0129606
0.0117901
0.0106844
0.00964751
0.00868975
0.00782943
0.00709288
0.006511
0.00611069
0.00590206
0.00586945
0.00596927
0.00614289
0.00633444
0.00649487
0.00658522
0.00658036
0.00647453
0.00628698
0.00606199
0.00585508
0.00570438
0.00560492
0.00551376
0.00538402
0.00520451
0.00502435
0.00494853
0.005096
0.00554952
0.00640024
0.00817762
0.013268
0.0198233
0.0253279
0.0283232
0.0280364
0.0244247
0.0188952
0.0145256
0.0121113
0.0102716
0.00825021
0.00605241
0.00403555
0.00244935
0.00129646
0.000394878
0.00124434
0.0038993
0.00754747
0.0101683
0.00977642
0.00456211
0.00384777
0.0150314
0.0150255
0.013522
0.0172673
0.0184097
0.0165351
0.012875
0.00937765
0.0074848
0.00667408
0.00643824
0.00655017
0.0067838
0.0068762
0.00678211
0.006486
0.00598693
0.00530247
0.00447661
0.00359891
0.00285609
0.00259871
0.00313465
0.00426932
0.00573844
0.00739304
0.00914572
0.010932
0.0127023
0.0144188
0.0160545
0.0175876
0.0189949
0.0202376
0.0213013
0.0221608
0.0227468
0.022775
0.0221187
0.0210152
0.0197043
0.0183226
0.0169408
0.0155968
0.0143066
0.0130737
0.0118961
0.0107718
0.00970348
0.00870117
0.00778427
0.00698223
0.00633228
0.00587137
0.00562073
0.00557086
0.00567572
0.00586722
0.00608022
0.00625872
0.00635981
0.00635689
0.00624523
0.00604789
0.00581453
0.00560351
0.00544809
0.00533373
0.00521201
0.00504325
0.00483869
0.00468111
0.00470533
0.00503068
0.00571539
0.00692498
0.010411
0.0165174
0.0225817
0.0269436
0.0285939
0.0270999
0.0228093
0.0175885
0.0140601
0.0119789
0.0100741
0.00792848
0.00571591
0.00377859
0.00228523
0.00119847
0.000498362
0.00160432
0.00427875
0.00790064
0.0104527
0.00998228
0.00450271
0.00450702
0.0155951
0.0148625
0.0127229
0.016464
0.0182182
0.0173278
0.0145269
0.010956
0.00809517
0.00669931
0.00612442
0.00606561
0.00631397
0.00642727
0.00633641
0.00602422
0.00548786
0.00473967
0.00381337
0.00278158
0.0018454
0.00163851
0.00257254
0.00401188
0.00566865
0.00744759
0.00929144
0.0111473
0.0129719
0.014731
0.0164019
0.0179475
0.0193531
0.0206011
0.0216669
0.0225246
0.0230807
0.0230272
0.0222814
0.0211166
0.0197772
0.0183915
0.0170212
0.0156947
0.0144202
0.0131951
0.0120135
0.0108718
0.00977164
0.00872324
0.00774678
0.0068741
0.0061481
0.00561634
0.00531373
0.00524076
0.00534903
0.00556012
0.00579721
0.00599581
0.0061083
0.00610676
0.00598841
0.0057817
0.00554288
0.00533179
0.00517381
0.00504303
0.0048892
0.00468846
0.00448497
0.00440144
0.00459102
0.00514406
0.00611386
0.00833653
0.0134649
0.0195869
0.0248266
0.0279862
0.0283823
0.0258818
0.0212253
0.016595
0.013761
0.0118156
0.00979348
0.00755429
0.00536364
0.00351409
0.00211208
0.00111172
0.000704371
0.00196826
0.00463703
0.00820416
0.010699
0.0101911
0.00455601
0.00512376
0.0161483
0.0146425
0.0119336
0.0154434
0.017686
0.0176865
0.0158035
0.0127616
0.00942122
0.0070041
0.00588626
0.00553358
0.00579716
0.0059679
0.0059152
0.0056218
0.00508493
0.0043122
0.00332635
0.00216298
0.000922609
0.000895408
0.00234652
0.00398344
0.00573815
0.00757773
0.00947019
0.0113635
0.013218
0.0149972
0.0166738
0.0182277
0.0196405
0.0208924
0.0219579
0.0228115
0.0233307
0.0231882
0.0223566
0.0211453
0.019797
0.0184267
0.0170836
0.0157861
0.0145341
0.01332
0.0121354
0.0109754
0.00984168
0.00874451
0.00770455
0.00675525
0.00594414
0.00532964
0.00496358
0.00486124
0.00497347
0.00520874
0.00547514
0.00569758
0.00582305
0.00582259
0.0056969
0.00548222
0.0052426
0.00503677
0.004878
0.00472923
0.00454585
0.00433169
0.00417463
0.00423447
0.004652
0.00547041
0.00697607
0.0109143
0.0166136
0.0222723
0.026526
0.0285015
0.0277726
0.0244992
0.0198066
0.0158968
0.0135355
0.0115872
0.00943897
0.00714544
0.00500305
0.00324408
0.0019376
0.00106321
0.000956642
0.00230051
0.00496075
0.00842644
0.0108749
0.0103725
0.00477055
0.0056792
0.0166203
0.0143496
0.0112176
0.0142456
0.0168611
0.0176457
0.0166528
0.014327
0.0112185
0.00807458
0.00590349
0.00501192
0.00522423
0.0054914
0.00551775
0.00528898
0.00480487
0.00407197
0.00310748
0.00195099
0.000725879
0.00107147
0.00255562
0.00419331
0.00594347
0.00777856
0.00966321
0.0115555
0.0134129
0.0151983
0.0168819
0.0184405
0.0198549
0.0211071
0.0221698
0.0230172
0.0234918
0.0232539
0.0223441
0.0211049
0.0197689
0.0184325
0.0171304
0.0158701
0.0146447
0.0134427
0.0122543
0.0110742
0.00990433
0.00875515
0.00764736
0.00661495
0.0057085
0.0049971
0.0045534
0.00441491
0.00453442
0.00480256
0.0051068
0.00535865
0.00549903
0.00549887
0.00536494
0.00514473
0.00491051
0.00471548
0.0045566
0.0043898
0.0041884
0.00399794
0.00395543
0.00423375
0.00491856
0.00606487
0.0089719
0.0139065
0.0195494
0.0244849
0.0276966
0.0285515
0.0268578
0.0230716
0.0186375
0.0154147
0.0133092
0.0112815
0.00902522
0.00671529
0.00463816
0.00297352
0.00177839
0.00108701
0.00122409
0.00257812
0.00520937
0.00855885
0.0109361
0.0104708
0.00519974
0.00620724
0.0169334
0.0139541
0.0105975
0.0129444
0.0158105
0.0172737
0.0170978
0.0155129
0.012905
0.00976194
0.00673253
0.00469415
0.00459426
0.00497631
0.0051275
0.00500405
0.00462566
0.00400474
0.00317549
0.00223518
0.00152336
0.00187442
0.00305964
0.00456112
0.00622868
0.00800871
0.00985694
0.0117264
0.0135706
0.0153483
0.0170267
0.0185813
0.019992
0.0212409
0.0222988
0.0231377
0.0235588
0.023221
0.022245
0.021
0.0196977
0.0184122
0.0171616
0.0159441
0.0147471
0.0135571
0.0123633
0.0111611
0.00995272
0.00874863
0.00756905
0.00644725
0.00543441
0.00460897
0.00406867
0.00388557
0.00401992
0.00433572
0.00469038
0.00497847
0.00513484
0.00513234
0.00498843
0.00476653
0.00454589
0.00436673
0.00420758
0.00402804
0.00383632
0.00373148
0.0038861
0.00443506
0.00540386
0.00755089
0.0116336
0.0169064
0.0221262