/*--------------------------------*- C++ -*----------------------------------*\
| =========                 |                                                 |
| \\      /  F ield         | OpenFOAM: The Open Source CFD Toolbox           |
|  \\    /   O peration     | Version:  4.1                                   |
|   \\  /    A nd           | Web:      www.OpenFOAM.org                      |
|    \\/     M anipulation  |                                                 |
\*---------------------------------------------------------------------------*/
FoamFile
{
    version     2.0;
    format      ascii;
    class       volScalarField;
    location    "1140";
    object      p;
}
// * * * * * * * * * * * * * * * * * * * * * * * * * * * * * * * * * * * * * //

dimensions      [0 2 -2 0 0 0 0];

internalField   nonuniform List<scalar> 
5000
(
0
-2.46837e-06
-5.10874e-06
-3.97982e-06
1.24784e-06
6.29657e-06
8.84988e-06
9.0554e-06
7.79629e-06
5.81231e-06
3.59716e-06
1.43942e-06
-5.85943e-07
-2.7312e-06
-5.72189e-06
-1.04561e-05
-1.60546e-05
-2.0542e-05
-2.01394e-05
-1.34268e-05
-3.80408e-06
2.60777e-06
7.35669e-06
1.21228e-05
1.73666e-05
2.30192e-05
2.89248e-05
3.49131e-05
4.08225e-05
4.64553e-05
5.15988e-05
5.61216e-05
6.00692e-05
6.32573e-05
6.53706e-05
6.61774e-05
6.53967e-05
6.27826e-05
5.82126e-05
5.17112e-05
4.34329e-05
3.36329e-05
2.26355e-05
1.08031e-05
-1.49334e-06
-1.38981e-05
-2.60899e-05
-3.7795e-05
-4.87938e-05
-5.89239e-05
-6.80778e-05
-7.61997e-05
-8.32798e-05
-8.93451e-05
-9.44382e-05
-9.86154e-05
-0.000101952
-0.000104524
-0.000106401
-0.000107644
-0.000108311
-0.000108457
-0.000108131
-0.000107382
-0.000106253
-0.000104788
-0.000103027
-0.000101007
-9.87565e-05
-9.62985e-05
-9.36473e-05
-9.08113e-05
-8.77953e-05
-8.4602e-05
-8.12313e-05
-7.76834e-05
-7.39732e-05
-7.01492e-05
-6.61774e-05
-6.11809e-05
-5.25115e-05
-5.32591e-05
-6.031e-05
-6.3731e-05
-6.67376e-05
-6.94846e-05
-7.16527e-05
-7.31388e-05
-7.38965e-05
-7.37783e-05
-7.24686e-05
-6.94892e-05
-6.41372e-05
-5.62625e-05
-4.72597e-05
-4.06376e-05
-3.77119e-05
-4.69589e-05
-5.53106e-05
-5.56116e-05
-0.0984258
-0.0984297
-0.0984338
-0.0984366
-0.0984358
-0.0984338
-0.0984322
-0.0984314
-0.0984314
-0.0984318
-0.0984323
-0.0984328
-0.0984334
-0.0984343
-0.098436
-0.0984383
-0.0984398
-0.0984366
-0.0984314
-0.0984274
-0.0984235
-0.0984194
-0.0984152
-0.0984111
-0.098407
-0.0984028
-0.0983984
-0.098394
-0.0983895
-0.0983852
-0.0983812
-0.0983778
-0.0983748
-0.0983725
-0.0983711
-0.098371
-0.0983724
-0.0983755
-0.0983805
-0.0983872
-0.0983956
-0.0984054
-0.0984162
-0.0984278
-0.0984396
-0.0984515
-0.098463
-0.098474
-0.0984841
-0.0984933
-0.0985014
-0.0985084
-0.0985143
-0.0985191
-0.0985228
-0.0985257
-0.0985277
-0.098529
-0.0985297
-0.0985298
-0.0985294
-0.0985285
-0.0985272
-0.0985256
-0.0985236
-0.0985213
-0.0985188
-0.0985159
-0.0985128
-0.0985094
-0.0985056
-0.0985015
-0.0984971
-0.0984922
-0.0984869
-0.098481
-0.0984747
-0.0984676
-0.0984596
-0.0984511
-0.0984438
-0.0984542
-0.0984721
-0.0984788
-0.098484
-0.0984895
-0.0984947
-0.0984994
-0.0985033
-0.0985062
-0.0985078
-0.0985076
-0.0985052
-0.0985005
-0.0984948
-0.0984906
-0.0984914
-0.0984972
-0.0985004
-0.0984964
-0.196869
-0.196874
-0.196882
-0.196888
-0.19689
-0.19689
-0.196889
-0.196889
-0.196889
-0.196889
-0.19689
-0.19689
-0.196891
-0.196891
-0.196891
-0.19689
-0.196888
-0.196882
-0.196877
-0.196877
-0.196878
-0.196876
-0.196873
-0.196869
-0.196865
-0.196861
-0.196857
-0.196852
-0.196848
-0.196843
-0.196839
-0.196836
-0.196833
-0.196831
-0.196829
-0.196829
-0.19683
-0.196834
-0.196839
-0.196846
-0.196854
-0.196864
-0.196875
-0.196887
-0.196899
-0.196911
-0.196922
-0.196933
-0.196943
-0.196953
-0.196961
-0.196968
-0.196973
-0.196978
-0.196982
-0.196984
-0.196986
-0.196987
-0.196988
-0.196987
-0.196987
-0.196986
-0.196984
-0.196982
-0.19698
-0.196978
-0.196976
-0.196973
-0.19697
-0.196966
-0.196962
-0.196958
-0.196953
-0.196947
-0.196941
-0.196934
-0.196926
-0.196916
-0.196906
-0.196895
-0.196886
-0.196893
-0.196913
-0.196926
-0.19693
-0.196936
-0.196942
-0.196947
-0.196952
-0.196956
-0.196958
-0.196958
-0.196957
-0.196954
-0.196949
-0.196946
-0.196947
-0.196951
-0.196953
-0.196949
-0.295321
-0.295327
-0.295336
-0.295343
-0.295346
-0.295346
-0.295346
-0.295346
-0.295347
-0.295347
-0.295348
-0.295348
-0.295348
-0.295348
-0.295348
-0.295347
-0.295344
-0.295339
-0.295336
-0.295335
-0.295335
-0.295334
-0.295331
-0.295328
-0.295324
-0.29532
-0.295315
-0.295311
-0.295306
-0.295302
-0.295297
-0.295294
-0.29529
-0.295288
-0.295287
-0.295287
-0.295288
-0.295292
-0.295297
-0.295304
-0.295313
-0.295323
-0.295334
-0.295346
-0.295358
-0.29537
-0.295382
-0.295393
-0.295403
-0.295412
-0.29542
-0.295427
-0.295433
-0.295438
-0.295441
-0.295444
-0.295446
-0.295447
-0.295447
-0.295447
-0.295446
-0.295445
-0.295443
-0.295441
-0.295439
-0.295437
-0.295435
-0.295432
-0.295429
-0.295426
-0.295422
-0.295417
-0.295412
-0.295407
-0.295401
-0.295393
-0.295385
-0.295376
-0.295366
-0.295356
-0.295347
-0.295348
-0.295361
-0.295375
-0.295381
-0.295386
-0.295392
-0.295398
-0.295403
-0.295407
-0.295409
-0.29541
-0.295409
-0.295407
-0.295404
-0.295401
-0.295402
-0.295403
-0.295404
-0.295402
-0.393778
-0.393783
-0.393792
-0.393799
-0.393802
-0.393802
-0.393803
-0.393803
-0.393804
-0.393805
-0.393805
-0.393806
-0.393806
-0.393806
-0.393806
-0.393805
-0.393803
-0.393799
-0.393797
-0.393795
-0.393794
-0.393793
-0.39379
-0.393787
-0.393783
-0.393779
-0.393774
-0.393769
-0.393764
-0.39376
-0.393755
-0.393751
-0.393748
-0.393746
-0.393745
-0.393746
-0.393747
-0.39375
-0.393756
-0.393763
-0.393772
-0.393783
-0.393794
-0.393806
-0.393818
-0.39383
-0.393842
-0.393853
-0.393863
-0.393872
-0.39388
-0.393887
-0.393892
-0.393897
-0.393901
-0.393903
-0.393905
-0.393906
-0.393906
-0.393906
-0.393905
-0.393904
-0.393902
-0.3939
-0.393898
-0.393896
-0.393894
-0.393891
-0.393888
-0.393885
-0.393882
-0.393878
-0.393873
-0.393868
-0.393862
-0.393855
-0.393848
-0.393839
-0.39383
-0.393821
-0.393811
-0.393808
-0.393815
-0.393825
-0.393834
-0.393839
-0.393844
-0.393849
-0.393854
-0.393858
-0.39386
-0.393861
-0.393861
-0.393859
-0.393857
-0.393854
-0.393854
-0.393854
-0.393855
-0.393854
-0.492236
-0.49224
-0.492248
-0.492254
-0.492257
-0.492258
-0.492259
-0.49226
-0.492261
-0.492262
-0.492263
-0.492264
-0.492264
-0.492264
-0.492264
-0.492263
-0.492262
-0.49226
-0.492258
-0.492256
-0.492254
-0.492252
-0.492249
-0.492246
-0.492242
-0.492238
-0.492233
-0.492228
-0.492223
-0.492218
-0.492214
-0.49221
-0.492207
-0.492205
-0.492204
-0.492205
-0.492206
-0.49221
-0.492215
-0.492223
-0.492232
-0.492243
-0.492254
-0.492266
-0.492278
-0.49229
-0.492302
-0.492313
-0.492323
-0.492332
-0.49234
-0.492346
-0.492352
-0.492356
-0.49236
-0.492362
-0.492364
-0.492365
-0.492365
-0.492364
-0.492363
-0.492362
-0.492361
-0.492359
-0.492357
-0.492355
-0.492353
-0.49235
-0.492348
-0.492345
-0.492342
-0.492338
-0.492334
-0.492329
-0.492324
-0.492318
-0.492311
-0.492304
-0.492295
-0.492287
-0.492278
-0.492272
-0.492273
-0.492279
-0.492288
-0.492292
-0.492297
-0.492301
-0.492305
-0.492308
-0.49231
-0.492312
-0.492312
-0.492311
-0.492309
-0.492307
-0.492305
-0.492304
-0.492306
-0.492304
-0.590694
-0.590698
-0.590704
-0.59071
-0.590713
-0.590714
-0.590715
-0.590716
-0.590718
-0.590719
-0.59072
-0.590721
-0.590722
-0.590723
-0.590723
-0.590722
-0.590721
-0.59072
-0.590718
-0.590716
-0.590714
-0.590712
-0.590709
-0.590705
-0.590701
-0.590697
-0.590692
-0.590687
-0.590682
-0.590677
-0.590673
-0.590669
-0.590666
-0.590664
-0.590664
-0.590665
-0.590666
-0.59067
-0.590676
-0.590684
-0.590693
-0.590704
-0.590716
-0.590728
-0.59074
-0.590752
-0.590763
-0.590774
-0.590783
-0.590792
-0.5908
-0.590806
-0.590812
-0.590816
-0.590819
-0.590821
-0.590823
-0.590823
-0.590823
-0.590823
-0.590822
-0.590821
-0.590819
-0.590817
-0.590816
-0.590814
-0.590812
-0.590809
-0.590807
-0.590805
-0.590802
-0.590799
-0.590795
-0.590791
-0.590786
-0.590781
-0.590775
-0.590768
-0.590761
-0.590753
-0.590745
-0.590737
-0.590734
-0.590735
-0.590741
-0.590746
-0.590749
-0.590753
-0.590756
-0.590759
-0.590761
-0.590762
-0.590762
-0.590761
-0.59076
-0.590758
-0.590756
-0.590755
-0.590756
-0.590754
-0.689152
-0.689155
-0.68916
-0.689165
-0.689168
-0.68917
-0.689171
-0.689173
-0.689174
-0.689176
-0.689178
-0.689179
-0.68918
-0.689181
-0.689181
-0.689181
-0.689181
-0.68918
-0.689178
-0.689176
-0.689174
-0.689172
-0.689169
-0.689165
-0.689161
-0.689157
-0.689152
-0.689147
-0.689142
-0.689137
-0.689133
-0.689129
-0.689126
-0.689124
-0.689124
-0.689125
-0.689128
-0.689132
-0.689138
-0.689146
-0.689156
-0.689166
-0.689178
-0.68919
-0.689202
-0.689213
-0.689225
-0.689235
-0.689245
-0.689253
-0.68926
-0.689267
-0.689272
-0.689276
-0.689279
-0.689281
-0.689282
-0.689282
-0.689282
-0.689281
-0.68928
-0.689279
-0.689277
-0.689276
-0.689274
-0.689272
-0.68927
-0.689268
-0.689266
-0.689264
-0.689262
-0.689259
-0.689256
-0.689252
-0.689248
-0.689244
-0.689239
-0.689233
-0.689227
-0.68922
-0.689212
-0.689203
-0.689196
-0.689193
-0.689195
-0.6892
-0.689202
-0.689204
-0.689207
-0.689209
-0.68921
-0.689211
-0.689211
-0.689211
-0.68921
-0.689208
-0.689206
-0.689205
-0.689206
-0.689204
-0.78761
-0.787612
-0.787616
-0.78762
-0.787623
-0.787625
-0.787627
-0.787629
-0.787631
-0.787633
-0.787635
-0.787637
-0.787638
-0.787639
-0.78764
-0.78764
-0.78764
-0.787639
-0.787638
-0.787637
-0.787635
-0.787632
-0.787629
-0.787626
-0.787622
-0.787617
-0.787613
-0.787608
-0.787603
-0.787598
-0.787594
-0.78759
-0.787587
-0.787586
-0.787586
-0.787587
-0.78759
-0.787594
-0.7876
-0.787609
-0.787618
-0.787629
-0.787641
-0.787653
-0.787664
-0.787676
-0.787687
-0.787697
-0.787706
-0.787714
-0.787721
-0.787727
-0.787732
-0.787736
-0.787738
-0.78774
-0.787741
-0.787741
-0.787741
-0.78774
-0.787739
-0.787737
-0.787736
-0.787734
-0.787732
-0.78773
-0.787729
-0.787727
-0.787725
-0.787723
-0.787721
-0.787719
-0.787717
-0.787714
-0.78771
-0.787707
-0.787702
-0.787698
-0.787692
-0.787686
-0.787679
-0.787669
-0.787658
-0.78765
-0.787649
-0.787652
-0.787654
-0.787655
-0.787657
-0.787659
-0.78766
-0.78766
-0.787661
-0.78766
-0.78766
-0.787658
-0.787656
-0.787654
-0.787655
-0.787654
-0.886067
-0.886069
-0.886072
-0.886076
-0.886078
-0.886081
-0.886083
-0.886085
-0.886088
-0.88609
-0.886092
-0.886094
-0.886096
-0.886097
-0.886099
-0.886099
-0.886099
-0.886099
-0.886099
-0.886097
-0.886096
-0.886093
-0.886091
-0.886087
-0.886084
-0.886079
-0.886075
-0.88607
-0.886065
-0.88606
-0.886056
-0.886052
-0.88605
-0.886048
-0.886049
-0.88605
-0.886053
-0.886057
-0.886064
-0.886072
-0.886082
-0.886093
-0.886104
-0.886116
-0.886127
-0.886139
-0.886149
-0.886159
-0.886168
-0.886176
-0.886182
-0.886188
-0.886192
-0.886196
-0.886198
-0.886199
-0.8862
-0.8862
-0.886199
-0.886198
-0.886197
-0.886196
-0.886194
-0.886192
-0.88619
-0.886189
-0.886187
-0.886186
-0.886184
-0.886183
-0.886181
-0.886179
-0.886177
-0.886175
-0.886172
-0.886169
-0.886166
-0.886162
-0.886158
-0.886152
-0.886145
-0.886134
-0.88612
-0.886107
-0.886103
-0.886103
-0.886105
-0.886106
-0.886107
-0.886108
-0.886109
-0.886109
-0.886109
-0.886109
-0.886109
-0.886108
-0.886106
-0.886104
-0.886104
-0.886103
-0.984524
-0.984526
-0.984528
-0.984531
-0.984534
-0.984536
-0.984539
-0.984541
-0.984544
-0.984547
-0.984549
-0.984552
-0.984554
-0.984556
-0.984557
-0.984558
-0.984559
-0.984559
-0.984559
-0.984559
-0.984557
-0.984555
-0.984553
-0.98455
-0.984546
-0.984542
-0.984537
-0.984533
-0.984528
-0.984523
-0.984519
-0.984515
-0.984513
-0.984512
-0.984512
-0.984514
-0.984517
-0.984521
-0.984528
-0.984537
-0.984546
-0.984557
-0.984568
-0.98458
-0.984591
-0.984602
-0.984612
-0.984621
-0.98463
-0.984637
-0.984643
-0.984649
-0.984653
-0.984656
-0.984658
-0.984659
-0.984659
-0.984659
-0.984658
-0.984657
-0.984656
-0.984654
-0.984652
-0.98465
-0.984649
-0.984647
-0.984646
-0.984644
-0.984643
-0.984642
-0.984641
-0.984639
-0.984638
-0.984636
-0.984634
-0.984632
-0.984629
-0.984626
-0.984623
-0.984618
-0.984611
-0.984599
-0.984581
-0.984564
-0.984556
-0.984554
-0.984555
-0.984556
-0.984556
-0.984557
-0.984558
-0.984558
-0.984558
-0.984558
-0.984558
-0.984557
-0.984555
-0.984553
-0.984553
-0.984553
-1.08298
-1.08298
-1.08298
-1.08299
-1.08299
-1.08299
-1.08299
-1.083
-1.083
-1.083
-1.08301
-1.08301
-1.08301
-1.08301
-1.08302
-1.08302
-1.08302
-1.08302
-1.08302
-1.08302
-1.08302
-1.08302
-1.08302
-1.08301
-1.08301
-1.08301
-1.083
-1.083
-1.08299
-1.08299
-1.08298
-1.08298
-1.08298
-1.08298
-1.08298
-1.08298
-1.08298
-1.08299
-1.08299
-1.083
-1.08301
-1.08302
-1.08303
-1.08304
-1.08305
-1.08306
-1.08307
-1.08308
-1.08309
-1.0831
-1.0831
-1.08311
-1.08311
-1.08312
-1.08312
-1.08312
-1.08312
-1.08312
-1.08312
-1.08312
-1.08311
-1.08311
-1.08311
-1.08311
-1.08311
-1.08311
-1.0831
-1.0831
-1.0831
-1.0831
-1.0831
-1.0831
-1.0831
-1.0831
-1.0831
-1.08309
-1.08309
-1.08309
-1.08309
-1.08308
-1.08308
-1.08306
-1.08304
-1.08302
-1.08301
-1.083
-1.083
-1.08301
-1.08301
-1.08301
-1.08301
-1.08301
-1.08301
-1.08301
-1.08301
-1.08301
-1.083
-1.083
-1.083
-1.083
-1.18144
-1.18144
-1.18144
-1.18144
-1.18145
-1.18145
-1.18145
-1.18145
-1.18146
-1.18146
-1.18146
-1.18147
-1.18147
-1.18147
-1.18148
-1.18148
-1.18148
-1.18148
-1.18148
-1.18148
-1.18148
-1.18148
-1.18148
-1.18148
-1.18147
-1.18147
-1.18147
-1.18146
-1.18146
-1.18145
-1.18145
-1.18144
-1.18144
-1.18144
-1.18144
-1.18144
-1.18145
-1.18145
-1.18146
-1.18147
-1.18148
-1.18149
-1.1815
-1.18151
-1.18152
-1.18153
-1.18154
-1.18155
-1.18155
-1.18156
-1.18157
-1.18157
-1.18157
-1.18158
-1.18158
-1.18158
-1.18158
-1.18158
-1.18158
-1.18157
-1.18157
-1.18157
-1.18157
-1.18157
-1.18157
-1.18156
-1.18156
-1.18156
-1.18156
-1.18156
-1.18156
-1.18156
-1.18156
-1.18156
-1.18156
-1.18156
-1.18156
-1.18155
-1.18155
-1.18155
-1.18154
-1.18152
-1.1815
-1.18147
-1.18146
-1.18146
-1.18145
-1.18145
-1.18146
-1.18146
-1.18146
-1.18146
-1.18146
-1.18146
-1.18146
-1.18146
-1.18145
-1.18145
-1.18145
-1.18145
-1.2799
-1.2799
-1.2799
-1.2799
-1.2799
-1.27991
-1.27991
-1.27991
-1.27992
-1.27992
-1.27992
-1.27993
-1.27993
-1.27993
-1.27994
-1.27994
-1.27994
-1.27994
-1.27994
-1.27995
-1.27995
-1.27995
-1.27994
-1.27994
-1.27994
-1.27994
-1.27993
-1.27993
-1.27992
-1.27992
-1.27991
-1.27991
-1.27991
-1.27991
-1.27991
-1.27991
-1.27991
-1.27992
-1.27992
-1.27993
-1.27994
-1.27995
-1.27996
-1.27997
-1.27998
-1.27999
-1.28
-1.28001
-1.28001
-1.28002
-1.28003
-1.28003
-1.28003
-1.28004
-1.28004
-1.28004
-1.28004
-1.28004
-1.28004
-1.28003
-1.28003
-1.28003
-1.28003
-1.28003
-1.28002
-1.28002
-1.28002
-1.28002
-1.28002
-1.28002
-1.28002
-1.28002
-1.28002
-1.28002
-1.28002
-1.28002
-1.28002
-1.28002
-1.28001
-1.28001
-1.28
-1.27998
-1.27995
-1.27993
-1.27991
-1.27991
-1.2799
-1.2799
-1.2799
-1.2799
-1.27991
-1.27991
-1.27991
-1.27991
-1.27991
-1.2799
-1.2799
-1.2799
-1.2799
-1.2799
-1.37835
-1.37836
-1.37836
-1.37836
-1.37836
-1.37836
-1.37837
-1.37837
-1.37837
-1.37838
-1.37838
-1.37838
-1.37839
-1.37839
-1.3784
-1.3784
-1.3784
-1.37841
-1.37841
-1.37841
-1.37841
-1.37841
-1.37841
-1.37841
-1.3784
-1.3784
-1.3784
-1.37839
-1.37839
-1.37838
-1.37838
-1.37837
-1.37837
-1.37837
-1.37837
-1.37837
-1.37838
-1.37838
-1.37839
-1.3784
-1.37841
-1.37842
-1.37843
-1.37844
-1.37844
-1.37845
-1.37846
-1.37847
-1.37848
-1.37848
-1.37849
-1.37849
-1.37849
-1.3785
-1.3785
-1.3785
-1.3785
-1.3785
-1.37849
-1.37849
-1.37849
-1.37849
-1.37849
-1.37848
-1.37848
-1.37848
-1.37848
-1.37848
-1.37848
-1.37848
-1.37848
-1.37848
-1.37848
-1.37848
-1.37848
-1.37848
-1.37848
-1.37848
-1.37848
-1.37847
-1.37846
-1.37844
-1.37841
-1.37838
-1.37836
-1.37836
-1.37835
-1.37835
-1.37835
-1.37835
-1.37836
-1.37836
-1.37836
-1.37836
-1.37836
-1.37835
-1.37835
-1.37835
-1.37835
-1.37835
-1.47681
-1.47681
-1.47682
-1.47682
-1.47682
-1.47682
-1.47682
-1.47683
-1.47683
-1.47683
-1.47684
-1.47684
-1.47685
-1.47685
-1.47686
-1.47686
-1.47686
-1.47687
-1.47687
-1.47687
-1.47687
-1.47687
-1.47687
-1.47687
-1.47687
-1.47687
-1.47686
-1.47686
-1.47685
-1.47685
-1.47684
-1.47684
-1.47684
-1.47684
-1.47684
-1.47684
-1.47684
-1.47685
-1.47685
-1.47686
-1.47687
-1.47688
-1.47689
-1.4769
-1.47691
-1.47692
-1.47692
-1.47693
-1.47694
-1.47694
-1.47695
-1.47695
-1.47695
-1.47695
-1.47696
-1.47696
-1.47696
-1.47695
-1.47695
-1.47695
-1.47695
-1.47695
-1.47694
-1.47694
-1.47694
-1.47694
-1.47694
-1.47694
-1.47694
-1.47694
-1.47694
-1.47694
-1.47694
-1.47694
-1.47694
-1.47694
-1.47694
-1.47694
-1.47694
-1.47693
-1.47692
-1.47689
-1.47686
-1.47683
-1.47681
-1.47681
-1.47681
-1.4768
-1.4768
-1.4768
-1.47681
-1.47681
-1.47681
-1.47681
-1.47681
-1.47681
-1.4768
-1.4768
-1.4768
-1.4768
-1.57527
-1.57527
-1.57527
-1.57528
-1.57528
-1.57528
-1.57528
-1.57529
-1.57529
-1.57529
-1.5753
-1.5753
-1.57531
-1.57531
-1.57532
-1.57532
-1.57533
-1.57533
-1.57533
-1.57534
-1.57534
-1.57534
-1.57534
-1.57534
-1.57533
-1.57533
-1.57533
-1.57532
-1.57532
-1.57531
-1.57531
-1.57531
-1.5753
-1.5753
-1.5753
-1.5753
-1.57531
-1.57531
-1.57532
-1.57533
-1.57533
-1.57534
-1.57535
-1.57536
-1.57537
-1.57538
-1.57539
-1.57539
-1.5754
-1.5754
-1.57541
-1.57541
-1.57541
-1.57541
-1.57541
-1.57541
-1.57541
-1.57541
-1.57541
-1.57541
-1.57541
-1.57541
-1.5754
-1.5754
-1.5754
-1.5754
-1.5754
-1.5754
-1.5754
-1.5754
-1.5754
-1.5754
-1.5754
-1.5754
-1.5754
-1.5754
-1.5754
-1.5754
-1.5754
-1.57539
-1.57538
-1.57534
-1.57531
-1.57528
-1.57527
-1.57526
-1.57526
-1.57526
-1.57525
-1.57526
-1.57526
-1.57526
-1.57526
-1.57526
-1.57526
-1.57526
-1.57525
-1.57525
-1.57525
-1.57525
-1.67373
-1.67373
-1.67373
-1.67374
-1.67374
-1.67374
-1.67374
-1.67375
-1.67375
-1.67375
-1.67376
-1.67376
-1.67377
-1.67377
-1.67378
-1.67378
-1.67379
-1.67379
-1.6738
-1.6738
-1.6738
-1.6738
-1.6738
-1.6738
-1.6738
-1.6738
-1.67379
-1.67379
-1.67378
-1.67378
-1.67377
-1.67377
-1.67377
-1.67377
-1.67377
-1.67377
-1.67377
-1.67378
-1.67378
-1.67379
-1.6738
-1.67381
-1.67382
-1.67382
-1.67383
-1.67384
-1.67385
-1.67385
-1.67386
-1.67386
-1.67387
-1.67387
-1.67387
-1.67387
-1.67387
-1.67387
-1.67387
-1.67387
-1.67387
-1.67387
-1.67387
-1.67386
-1.67386
-1.67386
-1.67386
-1.67386
-1.67386
-1.67386
-1.67386
-1.67386
-1.67386
-1.67386
-1.67386
-1.67386
-1.67386
-1.67386
-1.67386
-1.67386
-1.67386
-1.67385
-1.67383
-1.67379
-1.67375
-1.67373
-1.67372
-1.67371
-1.67371
-1.67371
-1.67371
-1.67371
-1.67371
-1.67371
-1.67371
-1.67371
-1.67371
-1.67371
-1.67371
-1.67371
-1.6737
-1.6737
-1.77219
-1.77219
-1.77219
-1.7722
-1.7722
-1.7722
-1.7722
-1.77221
-1.77221
-1.77221
-1.77222
-1.77222
-1.77223
-1.77223
-1.77224
-1.77224
-1.77225
-1.77225
-1.77226
-1.77226
-1.77227
-1.77227
-1.77227
-1.77227
-1.77226
-1.77226
-1.77226
-1.77225
-1.77225
-1.77224
-1.77224
-1.77224
-1.77223
-1.77223
-1.77223
-1.77223
-1.77224
-1.77224
-1.77225
-1.77225
-1.77226
-1.77227
-1.77228
-1.77229
-1.77229
-1.7723
-1.77231
-1.77231
-1.77232
-1.77232
-1.77233
-1.77233
-1.77233
-1.77233
-1.77233
-1.77233
-1.77233
-1.77233
-1.77233
-1.77233
-1.77232
-1.77232
-1.77232
-1.77232
-1.77232
-1.77232
-1.77232
-1.77232
-1.77232
-1.77232
-1.77232
-1.77232
-1.77232
-1.77232
-1.77232
-1.77232
-1.77232
-1.77232
-1.77232
-1.7723
-1.77227
-1.77223
-1.7722
-1.77218
-1.77217
-1.77216
-1.77216
-1.77216
-1.77216
-1.77216
-1.77216
-1.77216
-1.77216
-1.77216
-1.77216
-1.77216
-1.77216
-1.77216
-1.77216
-1.77216
-1.87065
-1.87065
-1.87065
-1.87066
-1.87066
-1.87066
-1.87066
-1.87067
-1.87067
-1.87067
-1.87068
-1.87068
-1.87069
-1.87069
-1.8707
-1.8707
-1.87071
-1.87072
-1.87072
-1.87072
-1.87073
-1.87073
-1.87073
-1.87073
-1.87073
-1.87072
-1.87072
-1.87072
-1.87071
-1.87071
-1.8707
-1.8707
-1.8707
-1.87069
-1.87069
-1.8707
-1.8707
-1.8707
-1.87071
-1.87072
-1.87072
-1.87073
-1.87074
-1.87075
-1.87075
-1.87076
-1.87077
-1.87077
-1.87078
-1.87078
-1.87078
-1.87079
-1.87079
-1.87079
-1.87079
-1.87079
-1.87079
-1.87079
-1.87079
-1.87079
-1.87078
-1.87078
-1.87078
-1.87078
-1.87078
-1.87078
-1.87077
-1.87077
-1.87077
-1.87078
-1.87078
-1.87078
-1.87078
-1.87078
-1.87078
-1.87078
-1.87078
-1.87078
-1.87077
-1.87075
-1.87072
-1.87068
-1.87065
-1.87063
-1.87062
-1.87062
-1.87061
-1.87061
-1.87061
-1.87061
-1.87061
-1.87061
-1.87061
-1.87061
-1.87061
-1.87061
-1.87061
-1.87061
-1.87061
-1.87061
-1.9691
-1.9691
-1.96911
-1.96911
-1.96912
-1.96912
-1.96912
-1.96912
-1.96913
-1.96913
-1.96913
-1.96914
-1.96914
-1.96915
-1.96916
-1.96916
-1.96917
-1.96918
-1.96918
-1.96919
-1.96919
-1.96919
-1.96919
-1.96919
-1.96919
-1.96919
-1.96918
-1.96918
-1.96917
-1.96917
-1.96916
-1.96916
-1.96916
-1.96916
-1.96916
-1.96916
-1.96916
-1.96917
-1.96917
-1.96918
-1.96919
-1.96919
-1.9692
-1.96921
-1.96921
-1.96922
-1.96923
-1.96923
-1.96924
-1.96924
-1.96924
-1.96925
-1.96925
-1.96925
-1.96925
-1.96925
-1.96925
-1.96925
-1.96925
-1.96924
-1.96924
-1.96924
-1.96924
-1.96924
-1.96923
-1.96923
-1.96923
-1.96923
-1.96923
-1.96923
-1.96924
-1.96924
-1.96924
-1.96924
-1.96924
-1.96924
-1.96924
-1.96923
-1.96922
-1.96919
-1.96916
-1.96913
-1.9691
-1.96908
-1.96907
-1.96907
-1.96907
-1.96906
-1.96906
-1.96906
-1.96906
-1.96906
-1.96906
-1.96906
-1.96906
-1.96906
-1.96907
-1.96907
-1.96906
-1.96906
-2.06756
-2.06756
-2.06756
-2.06757
-2.06758
-2.06758
-2.06758
-2.06758
-2.06759
-2.06759
-2.06759
-2.0676
-2.0676
-2.06761
-2.06761
-2.06762
-2.06763
-2.06763
-2.06764
-2.06765
-2.06765
-2.06765
-2.06765
-2.06765
-2.06765
-2.06765
-2.06764
-2.06764
-2.06763
-2.06763
-2.06763
-2.06762
-2.06762
-2.06762
-2.06762
-2.06762
-2.06762
-2.06763
-2.06763
-2.06764
-2.06765
-2.06765
-2.06766
-2.06767
-2.06767
-2.06768
-2.06769
-2.06769
-2.0677
-2.0677
-2.0677
-2.06771
-2.06771
-2.06771
-2.06771
-2.06771
-2.06771
-2.06771
-2.0677
-2.0677
-2.0677
-2.0677
-2.0677
-2.06769
-2.06769
-2.06769
-2.06769
-2.06769
-2.06769
-2.06769
-2.06769
-2.06769
-2.0677
-2.0677
-2.0677
-2.06769
-2.06769
-2.06769
-2.06767
-2.06764
-2.0676
-2.06757
-2.06755
-2.06754
-2.06753
-2.06752
-2.06752
-2.06752
-2.06751
-2.06751
-2.06752
-2.06752
-2.06752
-2.06752
-2.06752
-2.06752
-2.06752
-2.06752
-2.06752
-2.06752
-2.16602
-2.16602
-2.16602
-2.16603
-2.16603
-2.16604
-2.16604
-2.16604
-2.16605
-2.16605
-2.16605
-2.16605
-2.16606
-2.16607
-2.16607
-2.16608
-2.16609
-2.16609
-2.1661
-2.1661
-2.16611
-2.16611
-2.16611
-2.16611
-2.16611
-2.16611
-2.1661
-2.1661
-2.16609
-2.16609
-2.16608
-2.16608
-2.16608
-2.16608
-2.16608
-2.16608
-2.16608
-2.16609
-2.16609
-2.1661
-2.16611
-2.16611
-2.16612
-2.16613
-2.16613
-2.16614
-2.16615
-2.16615
-2.16616
-2.16616
-2.16616
-2.16616
-2.16617
-2.16617
-2.16617
-2.16617
-2.16617
-2.16617
-2.16616
-2.16616
-2.16616
-2.16616
-2.16615
-2.16615
-2.16615
-2.16615
-2.16615
-2.16615
-2.16615
-2.16615
-2.16615
-2.16615
-2.16615
-2.16615
-2.16615
-2.16615
-2.16615
-2.16613
-2.16611
-2.16608
-2.16605
-2.16602
-2.166
-2.16599
-2.16598
-2.16597
-2.16597
-2.16597
-2.16597
-2.16597
-2.16597
-2.16597
-2.16597
-2.16597
-2.16597
-2.16597
-2.16598
-2.16598
-2.16598
-2.16598
-2.26447
-2.26447
-2.26447
-2.26448
-2.26449
-2.2645
-2.2645
-2.2645
-2.2645
-2.26451
-2.26451
-2.26451
-2.26452
-2.26452
-2.26453
-2.26454
-2.26454
-2.26455
-2.26455
-2.26456
-2.26456
-2.26457
-2.26457
-2.26457
-2.26457
-2.26456
-2.26456
-2.26456
-2.26455
-2.26455
-2.26454
-2.26454
-2.26454
-2.26454
-2.26454
-2.26454
-2.26454
-2.26455
-2.26455
-2.26456
-2.26457
-2.26457
-2.26458
-2.26459
-2.26459
-2.2646
-2.2646
-2.26461
-2.26461
-2.26462
-2.26462
-2.26462
-2.26463
-2.26463
-2.26463
-2.26463
-2.26463
-2.26462
-2.26462
-2.26462
-2.26462
-2.26462
-2.26461
-2.26461
-2.26461
-2.26461
-2.26461
-2.26461
-2.26461
-2.26461
-2.26461
-2.26461
-2.26461
-2.26461
-2.26461
-2.26461
-2.2646
-2.26458
-2.26456
-2.26453
-2.26449
-2.26447
-2.26445
-2.26444
-2.26443
-2.26443
-2.26442
-2.26442
-2.26442
-2.26442
-2.26442
-2.26442
-2.26442
-2.26442
-2.26443
-2.26443
-2.26443
-2.26444
-2.26444
-2.26444
-2.36292
-2.36292
-2.36293
-2.36293
-2.36294
-2.36295
-2.36296
-2.36296
-2.36296
-2.36296
-2.36296
-2.36297
-2.36297
-2.36298
-2.36298
-2.36299
-2.363
-2.363
-2.36301
-2.36301
-2.36302
-2.36302
-2.36302
-2.36302
-2.36302
-2.36302
-2.36302
-2.36301
-2.36301
-2.363
-2.363
-2.363
-2.36299
-2.36299
-2.36299
-2.36299
-2.363
-2.363
-2.36301
-2.36302
-2.36302
-2.36303
-2.36304
-2.36304
-2.36305
-2.36306
-2.36306
-2.36307
-2.36307
-2.36308
-2.36308
-2.36308
-2.36309
-2.36309
-2.36309
-2.36309
-2.36309
-2.36308
-2.36308
-2.36308
-2.36308
-2.36307
-2.36307
-2.36307
-2.36307
-2.36307
-2.36307
-2.36307
-2.36307
-2.36307
-2.36307
-2.36307
-2.36307
-2.36307
-2.36307
-2.36306
-2.36305
-2.36303
-2.363
-2.36297
-2.36294
-2.36292
-2.3629
-2.36289
-2.36289
-2.36288
-2.36288
-2.36288
-2.36287
-2.36287
-2.36287
-2.36288
-2.36288
-2.36288
-2.36288
-2.36288
-2.36289
-2.3629
-2.3629
-2.3629
-2.46137
-2.46137
-2.46138
-2.46138
-2.46139
-2.4614
-2.46141
-2.46142
-2.46142
-2.46142
-2.46142
-2.46142
-2.46143
-2.46143
-2.46144
-2.46144
-2.46145
-2.46146
-2.46146
-2.46147
-2.46147
-2.46147
-2.46148
-2.46148
-2.46147
-2.46147
-2.46147
-2.46146
-2.46146
-2.46146
-2.46145
-2.46145
-2.46145
-2.46145
-2.46145
-2.46145
-2.46145
-2.46146
-2.46147
-2.46147
-2.46148
-2.46149
-2.4615
-2.4615
-2.46151
-2.46152
-2.46152
-2.46153
-2.46153
-2.46154
-2.46154
-2.46154
-2.46155
-2.46155
-2.46155
-2.46155
-2.46155
-2.46154
-2.46154
-2.46154
-2.46153
-2.46153
-2.46153
-2.46153
-2.46153
-2.46153
-2.46153
-2.46153
-2.46153
-2.46153
-2.46153
-2.46153
-2.46153
-2.46152
-2.46152
-2.46151
-2.46149
-2.46147
-2.46144
-2.46142
-2.46139
-2.46137
-2.46136
-2.46135
-2.46134
-2.46134
-2.46133
-2.46133
-2.46133
-2.46133
-2.46133
-2.46133
-2.46133
-2.46133
-2.46133
-2.46134
-2.46135
-2.46135
-2.46136
-2.46135
-2.55982
-2.55983
-2.55983
-2.55983
-2.55984
-2.55985
-2.55986
-2.55987
-2.55988
-2.55988
-2.55988
-2.55988
-2.55988
-2.55988
-2.55989
-2.5599
-2.5599
-2.55991
-2.55991
-2.55992
-2.55992
-2.55992
-2.55993
-2.55993
-2.55993
-2.55992
-2.55992
-2.55992
-2.55991
-2.55991
-2.5599
-2.5599
-2.5599
-2.5599
-2.5599
-2.5599
-2.55991
-2.55991
-2.55992
-2.55993
-2.55994
-2.55994
-2.55995
-2.55996
-2.55997
-2.55997
-2.55998
-2.55999
-2.55999
-2.56
-2.56
-2.56
-2.56001
-2.56001
-2.56001
-2.56001
-2.56
-2.56
-2.56
-2.56
-2.55999
-2.55999
-2.55999
-2.55999
-2.55999
-2.55998
-2.55998
-2.55998
-2.55999
-2.55999
-2.55999
-2.55998
-2.55998
-2.55998
-2.55997
-2.55996
-2.55994
-2.55992
-2.55989
-2.55986
-2.55984
-2.55982
-2.55981
-2.5598
-2.55979
-2.55979
-2.55979
-2.55978
-2.55978
-2.55978
-2.55978
-2.55978
-2.55978
-2.55979
-2.55979
-2.55979
-2.5598
-2.55981
-2.55981
-2.55981
-2.65827
-2.65828
-2.65828
-2.65828
-2.65829
-2.6583
-2.65831
-2.65832
-2.65833
-2.65833
-2.65833
-2.65833
-2.65833
-2.65834
-2.65834
-2.65835
-2.65835
-2.65836
-2.65836
-2.65837
-2.65837
-2.65837
-2.65837
-2.65837
-2.65837
-2.65837
-2.65837
-2.65837
-2.65836
-2.65836
-2.65835
-2.65835
-2.65835
-2.65835
-2.65835
-2.65836
-2.65836
-2.65837
-2.65837
-2.65838
-2.65839
-2.6584
-2.65841
-2.65842
-2.65842
-2.65843
-2.65844
-2.65845
-2.65845
-2.65846
-2.65846
-2.65847
-2.65847
-2.65847
-2.65847
-2.65847
-2.65846
-2.65846
-2.65846
-2.65846
-2.65845
-2.65845
-2.65845
-2.65845
-2.65844
-2.65844
-2.65844
-2.65844
-2.65844
-2.65844
-2.65844
-2.65844
-2.65844
-2.65843
-2.65842
-2.65841
-2.65839
-2.65836
-2.65833
-2.65831
-2.65829
-2.65827
-2.65826
-2.65826
-2.65825
-2.65824
-2.65824
-2.65824
-2.65824
-2.65824
-2.65824
-2.65824
-2.65824
-2.65824
-2.65824
-2.65825
-2.65825
-2.65826
-2.65826
-2.65826
-2.75672
-2.75672
-2.75672
-2.75673
-2.75674
-2.75675
-2.75676
-2.75677
-2.75678
-2.75678
-2.75679
-2.75678
-2.75679
-2.75679
-2.75679
-2.75679
-2.7568
-2.75681
-2.75681
-2.75681
-2.75682
-2.75682
-2.75682
-2.75682
-2.75682
-2.75682
-2.75682
-2.75681
-2.75681
-2.75681
-2.7568
-2.7568
-2.7568
-2.7568
-2.7568
-2.75681
-2.75681
-2.75682
-2.75683
-2.75684
-2.75684
-2.75685
-2.75686
-2.75687
-2.75688
-2.75689
-2.7569
-2.75691
-2.75691
-2.75692
-2.75692
-2.75693
-2.75693
-2.75693
-2.75693
-2.75693
-2.75692
-2.75692
-2.75692
-2.75691
-2.75691
-2.75691
-2.75691
-2.7569
-2.7569
-2.7569
-2.7569
-2.7569
-2.7569
-2.7569
-2.7569
-2.7569
-2.7569
-2.75689
-2.75687
-2.75686
-2.75683
-2.75681
-2.75678
-2.75676
-2.75674
-2.75673
-2.75672
-2.75671
-2.7567
-2.7567
-2.75669
-2.75669
-2.75669
-2.75669
-2.75669
-2.75669
-2.75669
-2.75669
-2.75669
-2.7567
-2.7567
-2.75671
-2.75671
-2.75671
-2.85517
-2.85517
-2.85517
-2.85518
-2.85519
-2.8552
-2.85521
-2.85522
-2.85523
-2.85523
-2.85524
-2.85524
-2.85524
-2.85524
-2.85524
-2.85524
-2.85525
-2.85525
-2.85526
-2.85526
-2.85526
-2.85527
-2.85527
-2.85527
-2.85527
-2.85526
-2.85526
-2.85526
-2.85525
-2.85525
-2.85525
-2.85525
-2.85525
-2.85525
-2.85525
-2.85525
-2.85526
-2.85527
-2.85528
-2.85529
-2.8553
-2.85531
-2.85532
-2.85533
-2.85534
-2.85535
-2.85536
-2.85536
-2.85537
-2.85538
-2.85538
-2.85539
-2.85539
-2.85539
-2.85539
-2.85539
-2.85538
-2.85538
-2.85538
-2.85537
-2.85537
-2.85537
-2.85536
-2.85536
-2.85536
-2.85536
-2.85536
-2.85536
-2.85536
-2.85536
-2.85536
-2.85536
-2.85535
-2.85534
-2.85532
-2.8553
-2.85528
-2.85525
-2.85523
-2.85521
-2.85519
-2.85518
-2.85517
-2.85516
-2.85516
-2.85515
-2.85515
-2.85515
-2.85514
-2.85514
-2.85514
-2.85514
-2.85514
-2.85514
-2.85514
-2.85515
-2.85515
-2.85515
-2.85515
-2.85515
-2.95362
-2.95362
-2.95362
-2.95363
-2.95363
-2.95364
-2.95365
-2.95366
-2.95367
-2.95368
-2.95369
-2.95369
-2.95369
-2.95369
-2.95369
-2.95369
-2.95369
-2.9537
-2.9537
-2.95371
-2.95371
-2.95371
-2.95371
-2.95371
-2.95371
-2.95371
-2.9537
-2.9537
-2.9537
-2.9537
-2.95369
-2.95369
-2.95369
-2.95369
-2.9537
-2.9537
-2.95371
-2.95372
-2.95373
-2.95374
-2.95375
-2.95376
-2.95377
-2.95378
-2.95379
-2.9538
-2.95381
-2.95382
-2.95383
-2.95384
-2.95384
-2.95385
-2.95385
-2.95385
-2.95385
-2.95385
-2.95384
-2.95384
-2.95384
-2.95383
-2.95383
-2.95383
-2.95382
-2.95382
-2.95382
-2.95382
-2.95382
-2.95382
-2.95382
-2.95382
-2.95382
-2.95381
-2.9538
-2.95379
-2.95377
-2.95375
-2.95372
-2.9537
-2.95367
-2.95366
-2.95364
-2.95363
-2.95362
-2.95362
-2.95361
-2.95361
-2.9536
-2.9536
-2.9536
-2.9536
-2.9536
-2.9536
-2.9536
-2.9536
-2.9536
-2.9536
-2.9536
-2.95359
-2.95359
-2.95359
-3.05207
-3.05207
-3.05207
-3.05208
-3.05208
-3.05209
-3.0521
-3.05211
-3.05212
-3.05212
-3.05213
-3.05213
-3.05213
-3.05213
-3.05214
-3.05214
-3.05214