/*--------------------------------*- C++ -*----------------------------------*\
| =========                 |                                                 |
| \\      /  F ield         | OpenFOAM: The Open Source CFD Toolbox           |
|  \\    /   O peration     | Version:  4.1                                   |
|   \\  /    A nd           | Web:      www.OpenFOAM.org                      |
|    \\/     M anipulation  |                                                 |
\*---------------------------------------------------------------------------*/
FoamFile
{
    version     2.0;
    format      ascii;
    class       surfaceScalarField;
    location    "1140";
    object      phi;
}
// * * * * * * * * * * * * * * * * * * * * * * * * * * * * * * * * * * * * * //

dimensions      [0 3 -1 0 0 0 0];

internalField   nonuniform List<scalar> 
9850
(
-1.82118e-06
1.82118e-06
-3.87603e-06
2.05485e-06
-6.62379e-06
2.74776e-06
-7.53009e-06
9.06302e-07
-7.03155e-06
-4.98545e-07
-6.00181e-06
-1.02974e-06
-4.92417e-06
-1.07764e-06
-3.98294e-06
-9.41226e-07
-3.2192e-06
-7.63741e-07
-2.62643e-06
-5.92771e-07
-2.17942e-06
-4.47005e-07
-1.83435e-06
-3.45069e-07
-1.51934e-06
-3.15012e-07
-1.13688e-06
-3.82465e-07
-6.06946e-07
-5.2993e-07
-2.85191e-08
-5.78427e-07
3.8781e-08
-6.73002e-08
-1.38325e-06
1.42203e-06
-3.75292e-06
2.36967e-06
-4.6838e-06
9.30879e-07
-4.10762e-06
-5.76178e-07
-3.64674e-06
-4.60885e-07
-3.47729e-06
-1.69448e-07
-3.40284e-06
-7.44521e-08
-3.28313e-06
-1.19708e-07
-3.07938e-06
-2.03748e-07
-2.78179e-06
-2.97588e-07
-2.3945e-06
-3.87292e-07
-1.91399e-06
-4.80514e-07
-1.34362e-06
-5.70369e-07
-6.84741e-07
-6.58877e-07
5.051e-08
-7.35251e-07
8.51693e-07
-8.01183e-07
1.72042e-06
-8.68729e-07
2.66127e-06
-9.40852e-07
3.67433e-06
-1.01305e-06
4.74751e-06
-1.07318e-06
5.85847e-06
-1.11096e-06
6.98139e-06
-1.12292e-06
8.09116e-06
-1.10977e-06
9.16515e-06
-1.07399e-06
1.0184e-05
-1.01881e-06
1.11318e-05
-9.4779e-07
1.19963e-05
-8.64522e-07
1.27688e-05
-7.7249e-07
1.34437e-05
-6.74943e-07
1.40185e-05
-5.74832e-07
1.44933e-05
-4.74776e-07
1.48704e-05
-3.77051e-07
1.5154e-05
-2.83603e-07
1.53501e-05
-1.96083e-07
1.5466e-05
-1.1593e-07
1.55106e-05
-4.46374e-08
1.54944e-05
1.62027e-08
1.54268e-05
6.75855e-08
1.53172e-05
1.09628e-07
1.51739e-05
1.4334e-07
1.50047e-05
1.69128e-07
1.48175e-05
1.87261e-07
1.46194e-05
1.98083e-07
1.44173e-05
2.02053e-07
1.42175e-05
1.99845e-07
1.40251e-05
1.92421e-07
1.3844e-05
1.81083e-07
1.36765e-05
1.67472e-07
1.3523e-05
1.53467e-07
1.3382e-05
1.41033e-07
1.325e-05
1.31993e-07
1.31222e-05
1.2784e-07
1.29926e-05
1.29633e-07
1.28546e-05
1.37997e-07
1.27013e-05
1.53249e-07
1.25257e-05
1.75616e-07
1.23203e-05
2.05347e-07
1.20781e-05
2.4228e-07
1.17928e-05
2.85271e-07
1.14547e-05
3.3813e-07
1.10046e-05
4.50028e-07
1.01468e-05
8.57788e-07
7.9404e-06
2.20644e-06
3.1001e-06
4.8403e-06
-2.00053e-06
5.10063e-06
-3.9539e-06
1.95337e-06
-4.38681e-06
4.32914e-07
-4.81405e-06
4.27241e-07
-5.29055e-06
4.76503e-07
-5.73608e-06
4.45523e-07
-6.10037e-06
3.64292e-07
-6.36188e-06
2.61509e-07
-6.49595e-06
1.3407e-07
-6.45981e-06
-3.61354e-08
-6.21012e-06
-2.49697e-07
-5.65953e-06
-5.50582e-07
-4.68917e-06
-9.70367e-07
-3.10227e-06
-1.5869e-06
-6.38815e-07
-2.46346e-06
2.81988e-06
-3.4587e-06
4.10096e-06
-1.28108e-06
3.61809e-06
4.82874e-07
3.61809e-06
-2.13101e-06
3.95219e-06
-4.56247e-06
4.48632e-06
-6.14738e-06
4.33267e-06
-6.82252e-06
1.58144e-06
-6.62305e-06
-6.98009e-07
-6.07198e-06
-1.58081e-06
-5.46272e-06
-1.68691e-06
-4.89407e-06
-1.50987e-06
-4.41097e-06
-1.24684e-06
-4.02284e-06
-9.80901e-07
-3.71466e-06
-7.5518e-07
-3.46163e-06
-5.98104e-07
-3.24756e-06
-5.29076e-07
-3.08489e-06
-5.45138e-07
-3.03536e-06
-5.79464e-07
-3.18906e-06
-4.24727e-07
-3.56943e-06
3.1307e-07
-3.76406e-06
1.61666e-06
-3.77297e-06
2.37858e-06
-3.80473e-06
9.62635e-07
-3.71909e-06
-6.61819e-07
-3.72592e-06
-4.54047e-07
-3.60823e-06
-2.87144e-07
-3.42454e-06
-2.58137e-07
-3.21929e-06
-3.24956e-07
-2.98211e-06
-4.40937e-07
-2.69757e-06
-5.82119e-07
-2.34589e-06
-7.38977e-07
-1.91726e-06
-9.0914e-07
-1.40018e-06
-1.08745e-06
-7.88649e-07
-1.27041e-06
-8.19585e-08
-1.44194e-06
7.08693e-07
-1.59183e-06
1.57876e-06
-1.7388e-06
2.53127e-06
-1.89336e-06
3.56677e-06
-2.04855e-06
4.6723e-06
-2.17871e-06
5.82281e-06
-2.26147e-06
6.99051e-06
-2.29062e-06
8.14948e-06
-2.26874e-06
9.27698e-06
-2.20148e-06
1.03538e-05
-2.09566e-06
1.13646e-05
-1.95853e-06
1.22974e-05
-1.79732e-06
1.31438e-05
-1.61897e-06
1.38988e-05
-1.42991e-06
1.45599e-05
-1.23596e-06
1.51275e-05
-1.04231e-06
1.56039e-05
-8.5345e-07
1.59935e-05
-6.7321e-07
1.63022e-05
-5.04776e-07
1.6537e-05
-3.50755e-07
1.67056e-05
-2.13249e-07
1.68153e-05
-9.34962e-08
1.68736e-05
9.25849e-09
1.68883e-05
9.4947e-08
1.68688e-05
1.62818e-07
1.68237e-05
2.14292e-07
1.67606e-05
2.50318e-07
1.66867e-05
2.71996e-07
1.6608e-05
2.80785e-07
1.65292e-05
2.78581e-07
1.64538e-05
2.67806e-07
1.63835e-05
2.51402e-07
1.63182e-05
2.32778e-07
1.62561e-05
2.15601e-07
1.61936e-05
2.03548e-07
1.61256e-05
1.99976e-07
1.60458e-05
2.07638e-07
1.59469e-05
2.28536e-07
1.5821e-05
2.63932e-07
1.56596e-05
3.14559e-07
1.54542e-05
3.8103e-07
1.51952e-05
4.64393e-07
1.48706e-05
5.66863e-07
1.44615e-05
6.94368e-07
1.39291e-05
8.70502e-07
1.31841e-05
1.19509e-06
1.2029e-05
2.01285e-06
1.01648e-05
4.07061e-06
7.44917e-06
7.55597e-06
2.96967e-06
9.58013e-06
-1.1686e-06
6.09164e-06
-2.29759e-06
1.56191e-06
-2.77744e-06
9.07085e-07
-3.3345e-06
1.03356e-06
-3.89033e-06
1.00136e-06
-4.37558e-06
8.4954e-07
-4.75157e-06
6.37497e-07
-4.98432e-06
3.66818e-07
-5.04786e-06
2.74094e-08
-4.88011e-06
-4.17454e-07
-4.42431e-06
-1.00638e-06
-3.59238e-06
-1.80229e-06
-2.2837e-06
-2.89558e-06
-4.30309e-07
-4.31684e-06
1.57425e-06
-5.46326e-06
2.45564e-06
-2.16247e-06
2.15549e-06
7.83028e-07
5.77357e-06
-1.88879e-06
5.84098e-06
-3.7778e-06
6.37533e-06
-5.0554e-06
5.61027e-06
-5.64006e-06
2.1661e-06
-5.7045e-06
-6.33567e-07
-5.477e-06
-1.80832e-06
-5.11708e-06
-2.04683e-06
-4.73943e-06
-1.88752e-06
-4.40864e-06
-1.57762e-06
-4.1519e-06
-1.23765e-06
-3.97548e-06
-9.316e-07
-3.88157e-06
-6.92009e-07
-3.88227e-06
-5.28378e-07
-4.00206e-06
-4.2535e-07
-4.25627e-06
-3.25251e-07
-4.5874e-06
-9.35932e-08
-4.72401e-06
4.49673e-07
-4.34915e-06
1.24181e-06
-3.54959e-06
1.57902e-06
-3.26297e-06
6.76021e-07
-3.76007e-06
-1.64726e-07
-4.00707e-06
-2.07044e-07
-4.05906e-06
-2.35151e-07
-4.00871e-06
-3.08492e-07
-3.89986e-06
-4.33804e-07
-3.73916e-06
-6.01634e-07
-3.51824e-06
-8.03043e-07
-3.22487e-06
-1.03234e-06
-2.84875e-06
-1.28526e-06
-2.37864e-06
-1.55756e-06
-1.80622e-06
-1.84283e-06
-1.11746e-06
-2.13071e-06
-3.03409e-07
-2.40588e-06
6.07421e-07
-2.64963e-06
1.60103e-06
-2.88697e-06
2.68497e-06
-3.13249e-06
3.84218e-06
-3.33592e-06
5.04079e-06
-3.46008e-06
6.2492e-06
-3.49903e-06
7.44094e-06
-3.46048e-06
8.59417e-06
-3.35471e-06
9.69108e-06
-3.19256e-06
1.07175e-05
-2.98498e-06
1.16628e-05
-2.74263e-06
1.25195e-05
-2.47563e-06
1.32829e-05
-2.19334e-06
1.39512e-05
-1.90422e-06
1.45247e-05
-1.61583e-06
1.5006e-05
-1.33478e-06
1.53995e-05
-1.0667e-06
1.5711e-05
-8.16278e-07
1.59476e-05
-5.87288e-07
1.61169e-05
-3.82554e-07
1.62272e-05
-2.03858e-07
1.62883e-05
-5.18506e-08
1.63094e-05
7.39152e-08
1.62981e-05
1.74058e-07
1.62629e-05
2.49544e-07
1.62112e-05
3.02035e-07
1.61496e-05
3.33566e-07
1.60837e-05
3.46716e-07
1.60176e-05
3.44636e-07
1.59543e-05
3.31112e-07
1.58952e-05
3.10542e-07
1.584e-05
2.87888e-07
1.57872e-05
2.68436e-07
1.57332e-05
2.57554e-07
1.56729e-05
2.60272e-07
1.55996e-05
2.80907e-07
1.55054e-05
3.22782e-07
1.53812e-05
3.88156e-07
1.52173e-05
4.78444e-07
1.50035e-05
5.94777e-07
1.47289e-05
7.39018e-07
1.43802e-05
9.15614e-07
1.39385e-05
1.13601e-06
1.33756e-05
1.43342e-06
1.26549e-05
1.91579e-06
1.1742e-05
2.92574e-06
1.05603e-05
5.25232e-06
8.88606e-06
9.23022e-06
6.28e-06
1.21862e-05
2.09103e-06
1.02806e-05
-8.15478e-07
4.46841e-06
-1.50653e-06
1.59814e-06
-2.09986e-06
1.62689e-06
-2.67846e-06
1.57996e-06
-3.20774e-06
1.37882e-06
-3.63796e-06
1.06772e-06
-3.92513e-06
6.53991e-07
-4.00836e-06
1.10635e-07
-3.89257e-06
-5.33238e-07
-3.53594e-06
-1.36301e-06
-2.89027e-06
-2.44796e-06
-1.88982e-06
-3.89603e-06
-5.52993e-07
-5.65367e-06
6.87871e-07
-6.70412e-06
1.33733e-06
-2.81192e-06
1.3651e-06
7.55258e-07
7.13867e-06
-1.51409e-06
7.35506e-06
-2.97807e-06
7.83931e-06
-4.12406e-06
6.75626e-06
-4.77963e-06
2.82167e-06
-5.01416e-06
-3.99032e-07
-4.96686e-06
-1.85562e-06
-4.77883e-06
-2.23486e-06
-4.5543e-06
-2.11205e-06
-4.3555e-06
-1.77642e-06
-4.21235e-06
-1.3808e-06
-4.13633e-06
-1.00762e-06
-4.13334e-06
-6.94994e-07
-4.212e-06
-4.49718e-07
-4.38233e-06
-2.5502e-07
-4.63837e-06
-6.9216e-08
-4.90729e-06
1.75336e-07
-5.00014e-06
5.42518e-07
-4.70089e-06
9.42558e-07
-4.16395e-06
1.04208e-06
-4.09765e-06
6.09714e-07
-4.46937e-06
2.06994e-07
-4.70497e-06
2.85629e-08
-4.83191e-06
-1.08214e-07
-4.87223e-06
-2.68169e-07
-4.84061e-06
-4.65422e-07
-4.73637e-06
-7.05875e-07
-4.55058e-06
-9.88832e-07
-4.27222e-06
-1.31071e-06
-3.89156e-06
-1.66592e-06
-3.40211e-06
-2.04701e-06
-2.80025e-06
-2.44469e-06
-2.08275e-06
-2.8482e-06
-1.24351e-06
-3.24512e-06
-2.74486e-07
-3.61865e-06
7.9186e-07
-3.95332e-06
1.94369e-06
-4.28433e-06
3.15989e-06
-4.55211e-06
4.40602e-06
-4.70621e-06
5.64892e-06
-4.74193e-06
6.86348e-06
-4.67505e-06
8.03029e-06
-4.52153e-06
9.13393e-06
-4.2962e-06
1.01623e-05
-4.01332e-06
1.11062e-05
-3.68656e-06
1.19593e-05
-3.32874e-06
1.27177e-05
-2.9517e-06
1.33796e-05
-2.56618e-06
1.39456e-05
-2.18179e-06
1.44178e-05
-1.80698e-06
1.48002e-05
-1.44909e-06
1.50982e-05
-1.11431e-06
1.53186e-05
-8.07728e-07
1.54693e-05
-5.33219e-07
1.55589e-05
-2.93445e-07
1.55969e-05
-8.98146e-08
1.55929e-05
7.79173e-08
1.55559e-05
2.10987e-07
1.54947e-05
3.10814e-07
1.5417e-05
3.79651e-07
1.53302e-05
4.20421e-07
1.52402e-05
4.36727e-07
1.51519e-05
4.32883e-07
1.50691e-05
4.13938e-07
1.4994e-05
3.85667e-07
1.49273e-05
3.54524e-07
1.48683e-05
3.2749e-07
1.4814e-05
3.1186e-07
1.47595e-05
3.14743e-07
1.46978e-05
3.4259e-07
1.462e-05
4.0066e-07
1.45154e-05
4.92764e-07
1.43724e-05
6.21381e-07
1.4179e-05
7.8823e-07
1.39225e-05
9.9543e-07
1.35904e-05
1.24775e-06
1.3169e-05
1.55747e-06
1.26447e-05
1.95765e-06
1.20131e-05
2.54742e-06
1.12974e-05
3.64139e-06
1.05086e-05
6.04117e-06
9.44376e-06
1.0295e-05
7.62278e-06
1.40072e-05
4.56682e-06
1.33366e-05
8.5624e-07
8.179e-06
-6.57139e-07
3.11152e-06
-1.24508e-06
2.21483e-06
-1.79948e-06
2.13436e-06
-2.29937e-06
1.87871e-06
-2.69831e-06
1.46665e-06
-2.95545e-06
9.11132e-07
-3.05572e-06
2.10911e-07
-2.98292e-06
-6.06045e-07
-2.74761e-06
-1.59832e-06
-2.32055e-06
-2.87502e-06
-1.63642e-06
-4.58016e-06
-7.08508e-07
-6.58158e-06
7.33325e-08
-7.48596e-06
7.47217e-07
-3.48581e-06
9.72502e-07
5.29973e-07
8.11117e-06
-1.17746e-06
8.53252e-06
-2.35921e-06
9.02105e-06
-3.39703e-06
7.79408e-06
-4.10689e-06
3.53154e-06
-4.46128e-06
-4.46432e-08
-4.54604e-06
-1.77086e-06
-4.4964e-06
-2.28449e-06
-4.40695e-06
-2.2015e-06
-4.33197e-06
-1.85141e-06
-4.29833e-06
-1.41444e-06
-4.31705e-06
-9.88906e-07
-4.39254e-06
-6.19495e-07
-4.5276e-06
-3.14665e-07
-4.72241e-06
-6.02071e-08
-4.96299e-06
1.71363e-07
-5.19675e-06
4.09101e-07
-5.31861e-06
6.64372e-07
-5.24929e-06
8.73236e-07
-5.10486e-06
8.97653e-07
-5.18798e-06
6.92839e-07
-5.43469e-06
4.53703e-07
-5.65636e-06
2.50226e-07
-5.81128e-06
4.67125e-08
-5.89119e-06
-1.88262e-07
-5.88477e-06
-4.71838e-07
-5.78162e-06
-8.09029e-07
-5.57159e-06
-1.19886e-06
-5.24706e-06
-1.63524e-06
-4.80416e-06
-2.10882e-06
-4.2429e-06
-2.60827e-06
-3.56628e-06
-3.12131e-06
-2.77878e-06
-3.63571e-06
-1.88371e-06
-4.14019e-06
-8.79777e-07
-4.62258e-06
2.26119e-07
-5.05921e-06
1.43406e-06
-5.49227e-06
2.69254e-06
-5.81059e-06
3.96622e-06
-5.97989e-06
5.22376e-06
-5.99947e-06
6.44235e-06
-5.89363e-06
7.60528e-06
-5.68446e-06
8.69972e-06
-5.39063e-06
9.71569e-06
-5.0293e-06
1.06458e-05
-4.61663e-06
1.14848e-05
-4.16775e-06
1.22296e-05
-3.69651e-06
1.28789e-05
-3.21546e-06
1.34329e-05
-2.73577e-06
1.38932e-05
-2.26738e-06
1.42632e-05
-1.81899e-06
1.4547e-05
-1.39818e-06
1.47506e-05
-1.01135e-06
1.48811e-05
-6.63682e-07
1.49467e-05
-3.59031e-07
1.49567e-05
-9.98267e-08
1.49209e-05
1.13697e-07
1.48492e-05
2.82726e-07
1.4751e-05
4.09014e-07
1.46353e-05
4.95333e-07
1.45103e-05
5.45375e-07
1.43833e-05
5.63738e-07
1.42604e-05
5.55861e-07
1.41463e-05
5.28024e-07
1.40446e-05
4.87366e-07
1.39572e-05
4.41886e-07
1.38843e-05
4.0038e-07
1.38239e-05
3.72228e-07
1.37717e-05
3.6696e-07
1.37207e-05
3.93579e-07
1.36616e-05
4.59799e-07
1.35829e-05
5.71478e-07
1.34718e-05
7.32478e-07
1.33149e-05
9.45097e-07
1.30992e-05
1.21118e-06
1.28126e-05
1.53433e-06
1.24453e-05
1.92478e-06
1.19912e-05
2.41175e-06
1.14548e-05
3.08378e-06
1.08682e-05
4.22806e-06
1.02805e-05
6.62886e-06
9.56625e-06
1.10093e-05
8.25677e-06
1.53166e-05
5.9021e-06
1.56912e-05
2.5067e-06
1.15744e-05
4.71997e-08
5.57102e-06
-5.94884e-07
2.85691e-06
-1.07697e-06
2.61645e-06
-1.51149e-06
2.31324e-06
-1.85349e-06
1.80865e-06
-2.07013e-06
1.12778e-06
-2.15869e-06
2.99466e-07
-2.13037e-06
-6.34361e-07
-2.01593e-06
-1.71277e-06
-1.80164e-06
-3.08931e-06
-1.40016e-06
-4.98164e-06
-7.81277e-07
-7.20047e-06
-2.64962e-07
-8.00228e-06
4.13823e-07
-4.16459e-06
7.40987e-07
2.02809e-07
8.85216e-06
-9.22543e-07
9.45507e-06
-1.89273e-06
9.99124e-06
-2.84255e-06
8.74389e-06
-3.58057e-06
4.26956e-06
-4.01638e-06
3.91167e-07
-4.20557e-06
-1.58167e-06
-4.27437e-06
-2.2157e-06
-4.30684e-06
-2.16903e-06
-4.34811e-06
-1.81014e-06
-4.42007e-06
-1.34249e-06
-4.53158e-06
-8.77393e-07
-4.68599e-06
-4.65084e-07
-4.88514e-06
-1.15522e-07
-5.12773e-06
1.82391e-07
-5.39649e-06
4.40118e-07
-5.65508e-06
6.67695e-07
-5.85493e-06
8.64218e-07
-5.97544e-06
9.93746e-07
-6.07761e-06
9.99828e-07
-6.2615e-06
8.76726e-07
-6.49636e-06
6.88564e-07
-6.71037e-06
4.64238e-07
-6.86074e-06
1.97077e-07
-6.92261e-06
-1.26389e-07
-6.87888e-06
-5.15563e-07
-6.71746e-06
-9.7045e-07
-6.4324e-06
-1.48392e-06
-6.0227e-06
-2.04495e-06
-5.49118e-06
-2.64034e-06
-4.8433e-06
-3.25614e-06
-4.08608e-06
-3.87853e-06
-3.22728e-06
-4.49451e-06
-2.27525e-06
-5.09222e-06
-1.2373e-06
-5.66054e-06
-1.05384e-07
-6.19112e-06
1.11299e-06
-6.71065e-06
2.39039e-06
-7.08798e-06
3.67055e-06
-7.26006e-06
4.92322e-06
-7.25214e-06
6.12823e-06
-7.09864e-06
7.27137e-06
-6.8276e-06
8.34211e-06
-6.46137e-06
9.33255e-06
-6.01973e-06
1.0237e-05
-5.52105e-06
1.10516e-05
-4.98238e-06
1.17744e-05
-4.41928e-06
1.24046e-05
-3.84565e-06
1.29426e-05
-3.27381e-06
1.33898e-05
-2.7146e-06
1.37485e-05
-2.17765e-06
1.40218e-05
-1.67145e-06
1.42139e-05
-1.20353e-06
1.43306e-05
-7.80325e-07
1.43786e-05
-4.07075e-07
1.43664e-05
-8.76044e-08
1.43032e-05
1.76876e-07
1.41992e-05
3.86713e-07
1.40647e-05
5.4356e-07
1.39096e-05
6.50374e-07
1.37436e-05
7.11367e-07
1.35754e-05
7.31955e-07
1.34127e-05
7.18614e-07
1.32619e-05
6.78844e-07
1.3128e-05
6.21192e-07
1.30146e-05
5.55294e-07
1.29231e-05
4.91895e-07
1.28526e-05
4.42719e-07
1.27995e-05
4.20038e-07
1.27573e-05
4.35826e-07
1.27164e-05
5.00703e-07
1.26649e-05
6.22963e-07
1.25893e-05
8.08082e-07
1.24755e-05
1.05888e-06
1.23102e-05
1.37649e-06
1.2082e-05
1.76257e-06
1.17826e-05
2.22412e-06
1.14084e-05
2.78595e-06
1.09632e-05
3.529e-06
1.04713e-05
4.71991e-06
9.99117e-06
7.10904e-06
9.46368e-06
1.15368e-05
8.485e-06
1.62953e-05
6.60231e-06
1.75739e-05
3.88357e-06
1.42931e-05
1.06486e-06
8.38973e-06
-7.36417e-08
3.99541e-06
-4.72103e-07
3.01491e-06
-8.31756e-07
2.67289e-06
-1.12085e-06
2.09774e-06
-1.30265e-06
1.30958e-06
-1.3795e-06
3.76315e-07
-1.37599e-06
-6.37871e-07
-1.35483e-06
-1.73393e-06
-1.31576e-06
-3.12838e-06
-1.14241e-06
-5.155e-06
-7.56038e-07
-7.58683e-06
-3.62243e-07
-8.39607e-06
2.26515e-07
-4.75335e-06
5.84694e-07
-1.5537e-07
9.43686e-06
-7.39461e-07
1.01945e-05
-1.54633e-06
1.07981e-05
-2.42178e-06
9.61934e-06
-3.17108e-06
5.01886e-06
-3.66372e-06
8.83806e-07
-3.94059e-06
-1.3048e-06
-4.11433e-06
-2.04196e-06
-4.25864e-06
-2.02471e-06
-4.40945e-06
-1.65933e-06
-4.58366e-06
-1.16827e-06
-4.78847e-06
-6.72589e-07
-5.02812e-06
-2.25434e-07
-5.30722e-06
1.63587e-07
-5.61862e-06
4.93784e-07
-5.94544e-06
7.66942e-07
-6.26692e-06
9.89178e-07
-6.55919e-06
1.15648e-06
-6.81387e-06
1.24842e-06
-7.05336e-06
1.23932e-06
-7.30216e-06
1.12553e-06
-7.53968e-06
9.26083e-07
-7.72706e-06
6.51625e-07
-7.83079e-06
3.008e-07
-7.82705e-06
-1.30131e-07
-7.70216e-06
-6.40455e-07
-7.45051e-06
-1.2221e-06
-7.07265e-06
-1.86178e-06
-6.57293e-06
-2.54467e-06
-5.95784e-06
-3.25543e-06
-5.23491e-06
-3.97908e-06
-4.4121e-06
-4.70134e-06
-3.49765e-06
-5.40896e-06
-2.50003e-06
-6.08984e-06
-1.42653e-06
-6.73404e-06
-2.82973e-07
-7.33468e-06
9.22654e-07
-7.91628e-06
2.20228e-06
-8.3676e-06
3.47295e-06
-8.53073e-06
4.70565e-06
-8.48484e-06
5.8833e-06
-8.27629e-06
6.99401e-06
-7.93831e-06
8.02928e-06
-7.49665e-06
8.98305e-06
-6.9735e-06
9.85126e-06
-6.38926e-06
1.06316e-05
-5.76274e-06
1.13233e-05
-5.11096e-06
1.19266e-05
-4.44895e-06
1.24425e-05
-3.78973e-06
1.28726e-05
-3.14466e-06
1.32186e-05
-2.52366e-06
1.34828e-05
-1.93563e-06
1.36679e-05
-1.38867e-06
1.37777e-05
-8.90131e-07
1.38171e-05
-4.46497e-07
1.37927e-05
-6.31177e-08
1.37123e-05
2.57277e-07
1.35856e-05
5.1338e-07
1.34231e-05
7.06013e-07
1.32357e-05
8.3777e-07
1.30341e-05
9.12962e-07
1.28286e-05
9.37488e-07
1.26286e-05
9.1864e-07
1.24424e-05
8.65027e-07
1.2277e-05
7.86601e-07
1.21375e-05
6.94762e-07
1.2027e-05
6.02443e-07
1.19457e-05
5.2403e-07
1.18908e-05
4.74912e-07
1.18562e-05
4.70462e-07
1.18322e-05
5.24621e-07
1.18067e-05
6.48475e-07
1.17655e-05
8.49303e-07
1.1694e-05
1.13034e-06
1.15789e-05
1.49162e-06
1.14092e-05
1.93231e-06
1.11774e-05
2.4559e-06
1.08799e-05
3.08341e-06
1.05171e-05
3.89185e-06
1.01009e-05
5.13611e-06
9.67769e-06
7.53224e-06
9.22973e-06
1.19847e-05
8.43247e-06
1.70926e-05
6.89525e-06
1.91112e-05
4.65988e-06
1.65285e-05
2.13556e-06
1.09141e-05
5.37684e-07
5.59329e-06
3.31535e-08
3.51944e-06
-2.62793e-07
2.96884e-06
-5.16167e-07
2.35112e-06
-6.79382e-07
1.47279e-06
-7.43994e-07
4.40928e-07
-7.52068e-07
-6.29797e-07
-7.8869e-07
-1.69731e-06
-8.71242e-07
-3.04583e-06
-8.61194e-07
-5.16504e-06
-6.40151e-07
-7.80788e-06
-3.37849e-07
-8.69838e-06
1.28434e-07
-5.21963e-06
4.70991e-07
-4.97927e-07
9.90785e-06
-6.11954e-07
1.08065e-05
-1.29583e-06
1.1482e-05
-2.10521e-06
1.04287e-05
-2.85406e-06
5.76771e-06
-3.39059e-06
1.42034e-06
-3.74672e-06
-9.48668e-07
-4.01663e-06
-1.77205e-06
-4.26484e-06
-1.7765e-06
-4.51937e-06
-1.4048e-06
-4.7934e-06
-8.94248e-07
-5.09442e-06
-3.71562e-07
-5.43037e-06
1.10516e-07
-5.79829e-06
5.31505e-07
-6.18591e-06
8.81404e-07
-6.58249e-06
1.16352e-06
-6.97343e-06
1.38011e-06
-7.342e-06
1.52505e-06
-7.67783e-06
1.58426e-06
-7.98044e-06
1.54193e-06
-8.24685e-06
1.39194e-06
-8.4584e-06
1.13763e-06
-8.58939e-06
7.82616e-07
-8.61688e-06
3.28288e-07
-8.52461e-06
-2.22403e-07
-8.3065e-06
-8.58561e-07
-7.96401e-06
-1.56459e-06
-7.50189e-06
-2.3239e-06
-6.92667e-06
-3.11989e-06
-6.24559e-06
-3.93651e-06
-5.46619e-06
-4.75848e-06
-4.59607e-06
-5.57146e-06
-3.64298e-06
-6.36206e-06
-2.6148e-06
-7.11802e-06
-1.51993e-06
-7.82891e-06
-3.68727e-07
-8.48588e-06
8.33345e-07
-9.11835e-06
2.0958e-06
-9.63006e-06
3.34314e-06
-9.77806e-06
4.54472e-06
-9.68642e-06
5.6849e-06
-9.41648e-06
6.75386e-06
-9.00726e-06
7.74488e-06
-8.48767e-06
8.65352e-06
-7.88214e-06
9.47723e-06
-7.21297e-06
1.02152e-05
-6.50067e-06
1.08678e-05
-5.76358e-06
1.14365e-05
-5.01767e-06
1.19233e-05
-4.2765e-06
1.23301e-05
-3.55153e-06
1.26591e-05
-2.85261e-06
1.29119e-05
-2.18846e-06
1.30904e-05
-1.56718e-06
1.31968e-05
-9.96445e-07
1.32338e-05
-4.83533e-07
1.32058e-05
-3.50902e-08
1.31186e-05
3.44406e-07
1.29808e-05
6.51258e-07
1.28021e-05
8.84688e-07
1.25936e-05
1.04625e-06
1.23668e-05
1.13972e-06
1.21333e-05
1.17098e-06
1.19042e-05
1.14775e-06
1.16898e-05
1.07948e-06
1.14989e-05
9.77479e-07
1.13387e-05
8.55013e-07
1.12136e-05
7.27519e-07
1.11251e-05
6.12511e-07
1.1071e-05
5.29039e-07
1.10451e-05
4.96387e-07
1.10375e-05
5.32171e-07
1.10356e-05
6.50421e-07
1.10247e-05
8.602e-07
1.099e-05
1.16501e-06
1.09182e-05
1.5634e-06
1.07989e-05
2.0516e-06
1.06253e-05
2.62951e-06
1.03933e-05
3.3154e-06
1.00987e-05
4.18648e-06
9.73919e-06
5.49562e-06
9.33737e-06
7.93406e-06
8.89067e-06
1.24314e-05
8.16026e-06
1.7823e-05
6.84923e-06
2.04222e-05
5.00712e-06
1.83706e-05
2.94536e-06
1.29758e-05
1.26077e-06
7.27788e-06
5.564e-07
4.2238e-06
2.24714e-07
3.30052e-06
-2.38809e-08
2.59971e-06
-1.93049e-07
1.64196e-06
-2.59337e-07
5.07216e-07
-2.77297e-07
-6.11838e-07
-3.42779e-07
-1.63182e-06
-4.89793e-07
-2.89881e-06
-5.74535e-07
-5.0803e-06
-4.65911e-07
-7.9165e-06
-2.56841e-07
-8.90745e-06
9.47652e-08
-5.57124e-06
3.91664e-07
-7.94826e-07
1.02995e-05
-5.27008e-07
1.13335e-05
-1.12214e-06
1.20771e-05
-1.8736e-06
1.11802e-05
-2.61525e-06
6.50936e-06
-3.18834e-06
1.99342e-06
-3.62113e-06
-5.15877e-07
-3.98042e-06
-1.41276e-06
-4.32582e-06
-1.4311e-06
-4.67921e-06
-1.05141e-06
-5.05264e-06
-5.20825e-07
-5.45602e-06
3.18219e-08
-5.88897e-06
5.43462e-07
-6.33795e-06
9.80487e-07
-6.79512e-06
1.33858e-06
-7.2516e-06
1.62e-06
-7.69351e-06
1.82203e-06
-8.10486e-06
1.9364e-06
-8.47124e-06
1.95063e-06
-8.78161e-06
1.8523e-06
-9.02405e-06
1.63438e-06
-9.18245e-06
1.29604e-06
-9.23974e-06
8.39904e-07
-9.18221e-06
2.70756e-07
-9.00185e-06
-4.02762e-07
-8.69996e-06
-1.16045e-06
-8.28153e-06
-1.98303e-06
-7.75273e-06
-2.8527e-06
-7.12027e-06
-3.75234e-06
-6.39106e-06
-4.66572e-06
-5.57203e-06
-5.57751e-06
-4.67023e-06
-6.47325e-06
-3.69296e-06
-7.33933e-06
-2.6479e-06
-8.16308e-06
-1.54375e-06
-8.93305e-06
-3.90631e-07
-9.639e-06
8.08683e-07
-1.03177e-05
2.04468e-06
-1.08661e-05
3.25931e-06
-1.09927e-05
4.42172e-06
-1.08488e-05
5.5173e-06
-1.05121e-05
6.53797e-06
-1.00279e-05
7.47865e-06
-9.42835e-06
8.33636e-06
-8.73985e-06
9.10995e-06
-7.98656e-06
9.79985e-06
-7.19057e-06
1.04078e-05
-6.3715e-06
1.09362e-05
-5.54611e-06
1.1388e-05
-4.72832e-06
1.1766e-05
-3.92954e-06
1.20727e-05
-3.15926e-06
1.23099e-05
-2.42568e-06
1.24791e-05
-1.73637e-06
1.25814e-05
-1.09876e-06
1.26182e-05
-5.20345e-07
1.25917e-05
-8.5352e-09
1.25053e-05
4.30729e-07
1.23659e-05
7.90674e-07
1.21822e-05
1.06845e-06
1.19645e-05
1.26386e-06
1.17248e-05
1.37947e-06
1.14753e-05
1.42047e-06
1.12286e-05
1.39448e-06
1.09966e-05
1.31147e-06
1.07901e-05
1.18392e-06
1.06181e-05
1.02707e-06
1.04863e-05
8.59253e-07
1.03972e-05
7.01685e-07
1.03485e-05
5.77747e-07
1.03337e-05
5.11191e-07
1.03423e-05
5.23566e-07
1.03609e-05
6.3182e-07
1.03745e-05
8.46519e-07
1.03685e-05
1.17103e-06
1.03299e-05
1.60203e-06
1.0249e-05
2.13252e-06
1.01196e-05
2.75891e-06
9.93675e-06
3.49821e-06
9.69106e-06
4.43217e-06
9.36503e-06
5.82166e-06
8.95243e-06
8.34665e-06
8.44746e-06
1.29364e-05
7.69399e-06
1.85765e-05
6.51671e-06
2.15995e-05
5.00383e-06
1.98835e-05
3.36944e-06
1.46102e-05
1.89727e-06
8.75005e-06
1.05813e-06
5.06295e-06
6.71403e-07
3.68725e-06
3.9442e-07
2.8767e-06
2.03115e-07
1.83327e-06
1.11202e-07
5.9913e-07
5.80316e-08
-5.58667e-07
-3.035e-08
-1.54344e-06
-1.8914e-07
-2.74002e-06
-3.02425e-07
-4.96702e-06
-2.61834e-07
-7.95709e-06
-1.43883e-07
-9.0254e-06
1.13766e-07
-5.82889e-06
3.37989e-07
-1.01905e-06
1.06375e-05
-4.74147e-07
1.18076e-05
-1.00887e-06
1.26118e-05
-1.71293e-06
1.18842e-05
-2.44623e-06
7.24266e-06
-3.05256e-06
2.59976e-06
-3.55731e-06
-1.11274e-08
-4.00287e-06
-9.67206e-07
-4.43937e-06
-9.94599e-07
-4.88769e-06
-6.03092e-07
-5.36082e-06
-4.76934e-08
-5.86004e-06
5.31043e-07
-6.36918e-06
1.05259e-06
-6.87958e-06
1.49089e-06
-7.38639e-06
1.84539e-06
-7.87929e-06
2.1129e-06
-8.34367e-06
2.28641e-06
-8.76288e-06
2.35562e-06
-9.12083e-06
2.30857e-06
-9.40332e-06
2.13479e-06
-9.5973e-06
1.82836e-06
-9.6902e-06
1.38894e-06
-9.67143e-06
8.21138e-07
-9.53436e-06
1.33681e-07
-9.27871e-06
-6.58406e-07
-8.90947e-06
-1.52968e-06
-8.43264e-06
-2.45986e-06
-7.85444e-06
-3.4309e-06
-7.18113e-06
-4.42565e-06
-6.41899e-06
-5.42786e-06
-5.57439e-06
-6.42212e-06
-4.65391e-06
-7.39374e-06
-3.66455e-06
-8.32869e-06
-2.6139e-06
-9.21372e-06
-1.51048e-06
-1.00365e-05
-3.63828e-07
-1.07856e-05
8.26107e-07
-1.15076e-05
2.0304e-06
-1.20704e-05
3.20538e-06
-1.21677e-05
4.32251e-06
-1.1966e-05
5.36833e-06
-1.15579e-05
6.3362e-06
-1.09958e-05
7.2225e-06
-1.03147e-05
8.02563e-06
-9.54298e-06
8.74576e-06
-8.70668e-06
9.38454e-06
-7.82935e-06
9.94476e-06
-6.93172e-06
1.04298e-05
-6.03119e-06
1.08434e-05
-5.14189e-06
1.11889e-05
-4.27507e-06
1.14694e-05
-3.43971e-06
1.1687e-05
-2.64332e-06
1.18434e-05
-1.89268e-06
1.19391e-05
-1.19453e-06
1.19748e-05
-5.56011e-07
1.1951e-05
1.52665e-08
1.18697e-05
5.11974e-07
1.17355e-05
9.24954e-07
1.15553e-05
1.24861e-06
1.13388e-05
1.48036e-06
1.10974e-05
1.62089e-06
1.08438e-05
1.67405e-06
1.05915e-05
1.64677e-06
1.03539e-05
1.54909e-06
1.01433e-05
1.39448e-06
9.9701e-06
1.20031e-06
9.84113e-06
9.88213e-07
9.75896e-06
7.83863e-07
9.72105e-06
6.15656e-07
9.72002e-06
5.1222e-07
9.74443e-06
4.99158e-07
9.78009e-06
5.9616e-07
9.81173e-06
8.14873e-07
9.82481e-06
1.15795e-06
9.80718e-06
1.61966e-06
9.75028e-06
2.18943e-06
9.64869e-06
2.8605e-06
9.49632e-06
3.65058e-06
9.27749e-06
4.651e-06
8.95831e-06
6.14084e-06
8.50158e-06
8.80339e-06
7.88754e-06
1.35504e-05
7.04077e-06
1.94232e-05
5.93037e-06
2.27099e-05
4.70346e-06
2.11104e-05
3.47505e-06
1.58386e-05
2.31897e-06
9.90612e-06
1.48843e-06
5.8935e-06
1.02636e-06
4.14931e-06
7.17736e-07
3.18532e-06
5.03503e-07
2.0475e-06
3.76374e-07
7.26258e-07
2.85241e-07
-4.67535e-07
1.75369e-07
-1.43357e-06
2.61152e-08
-2.59077e-06
-5.87019e-08
-4.8822e-06
-5.04915e-08
-7.9653e-06
3.44333e-09
-9.07933e-06
1.73294e-07
-5.99874e-06
3.01449e-07
-1.1472e-06
1.09389e-05
-4.4404e-07
1.22517e-05
-9.40445e-07
1.31082e-05
-1.61008e-06
1.25539e-05
-2.33951e-06
7.97209e-06
-2.98031e-06
3.24056e-06
-3.54847e-06
5.57028e-07
-4.07943e-06
-4.36245e-07
-4.6001e-06
-4.73927e-07
-5.13875e-06
-6.44419e-08
-5.69901e-06
5.12565e-07
-6.26351e-06
1.09554e-06
-6.82056e-06
1.60964e-06
-7.36856e-06
2.0389e-06
-7.90023e-06
2.37706e-06
-8.40371e-06
2.61638e-06
-8.86389e-06
2.74659e-06
-9.26436e-06
2.75609e-06
-9.58946e-06
2.63367e-06
-9.8256e-06
2.37093e-06
-9.96159e-06
1.96434e-06
-9.9887e-06
1.41605e-06
-9.90108e-06
7.33516e-07
-9.69662e-06
-7.07813e-08
-9.381e-06
-9.74026e-07
-8.96075e-06
-1.94993e-06
-8.44158e-06
-2.97904e-06
-7.82916e-06
-4.04331e-06
-7.12912e-06
-5.12569e-06
-6.34708e-06
-6.2099e-06
-5.48889e-06
-7.28031e-06
-4.56081e-06
-8.32182e-06
-3.5697e-06
-9.3198e-06
-2.52312e-06
-1.02603e-05
-1.42952e-06
-1.11301e-05
-2.97813e-07
-1.19174e-05
8.73825e-07
-1.26792e-05
2.04036e-06
-1.32369e-05
3.16965e-06
-1.3297e-05
4.23659e-06
-1.30329e-05
5.22875e-06
-1.255e-05
6.14061e-06
-1.19077e-05
6.96986e-06
-1.11439e-05
7.71627e-06
-1.02894e-05
8.38134e-06
-9.37175e-06
8.96793e-06
-8.41594e-06
9.47976e-06
-7.44355e-06
9.92098e-06
-6.47241e-06
1.02957e-05
-5.51662e-06
1.06078e-05
-4.58714e-06
1.08605e-05
-3.69243e-06
1.10564e-05
-2.83927e-06
1.11973e-05
-2.03357e-06
1.1284e-05
-1.28119e-06
1.13165e-05
-5.8854e-07
1.12948e-05
3.70056e-08
1.12199e-05
5.86876e-07
1.10943e-05
1.05051e-06
1.09236e-05
1.41936e-06
1.07159e-05
1.68804e-06
1.0482e-05
1.85474e-06
1.02348e-05
1.92133e-06
9.98805e-06
1.89349e-06
9.75621e-06
1.78093e-06
9.55271e-06
1.59798e-06
9.38872e-06
1.3643e-06
9.27159e-06
1.10534e-06
9.20357e-06
8.5189e-07
9.18118e-06
6.38038e-07
9.19575e-06
4.97656e-07
9.23455e-06
4.60351e-07
9.28264e-06
5.48079e-07
9.32459e-06
7.72917e-07
9.34642e-06
1.13612e-06
9.33708e-06
1.62901e-06
9.28932e-06
2.23719e-06
9.19852e-06
2.95129e-06
9.05691e-06
3.79218e-06
8.84125e-06
4.86667e-06
8.49932e-06
6.48277e-06
7.9618e-06
9.34091e-06
7.19171e-06
1.43205e-05
6.1989e-06
2.04161e-05
5.12113e-06
2.37876e-05
4.16788e-06
2.20636e-05
3.33476e-06
1.66717e-05
2.51095e-06
1.07299e-05
1.78816e-06
6.61629e-06
1.28829e-06
4.64918e-06
9.46789e-07
3.52682e-06
7.20375e-07
2.27392e-06
5.71077e-07
8.75557e-07
4.4389e-07
-3.40347e-07
3.07073e-07
-1.29675e-06
1.76935e-07
-2.46063e-06
1.27291e-07
-4.83255e-06
1.36149e-07
-7.97416e-06
1.32135e-07
-9.07532e-06
2.44868e-07
-6.11147e-06
2.73559e-07
-1.1759e-06
1.12125e-05
-4.28213e-07
1.26799e-05
-9.01277e-07
1.35813e-05
-1.55084e-06
1.32034e-05
-2.28494e-06
8.7062e-06
-2.96348e-06
3.9191e-06
-3.58924e-06
1.18279e-06
-4.20047e-06
1.74986e-07
-4.80081e-06
1.2642e-07
-5.41129e-06
5.46034e-07
-6.02073e-06
1.12201e-06
-6.61627e-06
1.69108e-06
-7.19751e-06
2.19088e-06
-7.75959e-06
2.60098e-06
-8.29325e-06
2.91072e-06
-8.78578e-06
3.1089e-06
-9.2223e-06
3.18311e-06
-9.58751e-06
3.1213e-06
-9.8674e-06
2.91355e-06
-1.00503e-05
2.55386e-06
-1.01277e-05
2.04171e-06
-1.00941e-05
1.3825e-06
-9.94784e-06
5.87211e-07
-9.69071e-06
-3.27907e-07
-9.33113e-06
-1.33361e-06
-8.87512e-06
-2.40594e-06
-8.32802e-06
-3.52613e-06
-7.69482e-06
-4.67652e-06
-6.98037e-06
-5.84015e-06
-6.18967e-06
-7.0006e-06
-5.3282e-06
-8.14178e-06
-4.40206e-06
-9.24796e-06
-3.41812e-06
-1.03037e-05
-2.38404e-06
-1.12944e-05
-1.30844e-06
-1.22057e-05
-1.98863e-07
-1.30269e-05
9.44971e-07
-1.38231e-05
2.06616e-06
-1.43581e-05
3.14423e-06
-1.4375e-05
4.15677e-06
-1.40454e-05
5.09205e-06
-1.34853e-05
5.9454e-06
-1.2761e-05
6.71577e-06
-1.19143e-05
7.40435e-06
-1.0978e-05
8.01401e-06
-9.98142e-06
8.54882e-06
-8.95075e-06
9.01337e-06
-7.9081e-06
9.41228e-06
-6.87132e-06
9.74989e-06
-5.85422e-06
1.003e-05
-4.86728e-06
1.0256e-05
-3.9184e-06
1.04305e-05
-3.01372e-06
1.05553e-05
-2.15841e-06
1.06316e-05
-1.35746e-06
1.06595e-05
-6.1649e-07
1.06389e-05
5.76483e-08
1.057e-05
6.55769e-07
1.04544e-05
1.16608e-06
1.02962e-05
1.57755e-06
1.01024e-05
1.88185e-06
9.88286e-06
2.07428e-06
9.64995e-06
2.15424e-06
9.41777e-06
2.12566e-06
9.2011e-06
1.9976e-06
9.01393e-06
1.78515e-06
8.8677e-06
1.51053e-06
8.7695e-06
1.20354e-06
8.72072e-06
9.0067e-07
8.71657e-06
6.42188e-07
8.74674e-06
4.67486e-07
8.79714e-06
4.09958e-07
8.85208e-06
4.93134e-07
8.89621e-06
7.28789e-07
8.91631e-06
1.11601e-06
8.90273e-06
1.64259e-06
8.8497e-06
2.29022e-06
8.75315e-06
3.04784e-06
8.60267e-06
3.94266e-06
8.3654e-06
5.10394e-06
7.96824e-06
6.87993e-06
7.3092e-06
9.99994e-06
6.33817e-06
1.52915e-05
5.16704e-06
2.15872e-05
4.1264e-06
2.48283e-05
3.46613e-06
2.27239e-05
3.02042e-06
1.71175e-05
2.51232e-06
1.1238e-05