/*--------------------------------*- C++ -*----------------------------------*\
| =========                 |                                                 |
| \\      /  F ield         | OpenFOAM: The Open Source CFD Toolbox           |
|  \\    /   O peration     | Version:  4.1                                   |
|   \\  /    A nd           | Web:      www.OpenFOAM.org                      |
|    \\/     M anipulation  |                                                 |
\*---------------------------------------------------------------------------*/
FoamFile
{
    version     2.0;
    format      ascii;
    class       volVectorField;
    location    "1140";
    object      U;
}
// * * * * * * * * * * * * * * * * * * * * * * * * * * * * * * * * * * * * * //

dimensions      [0 1 -1 0 0 0 0];

internalField   nonuniform List<vector> 
5000
(
(-0.00114404 0.00064397 0)
(-0.00234949 0.00070234 0)
(-0.00578029 0.00167286 0)
(-0.00749758 0.000448474 0)
(-0.0073835 -0.000389597 0)
(-0.00651115 -0.000719229 0)
(-0.00544785 -0.000747333 0)
(-0.00443912 -0.000652961 0)
(-0.00358593 -0.00053044 0)
(-0.00290783 -0.000412807 0)
(-0.00238992 -0.000312089 0)
(-0.00199811 -0.000240215 0)
(-0.00167156 -0.00021773 0)
(-0.00131756 -0.00026948 0)
(-0.000854377 -0.000399519 0)
(-0.00033482 -0.000543583 0)
(0.000146549 -0.000453215 0)
(-0.00015525 0.000599617 0)
(-0.00281351 0.00155629 0)
(-0.00445633 0.000548028 0)
(-0.0044062 -0.000333186 0)
(-0.00386624 -0.000269907 0)
(-0.00356277 -7.35982e-05 0)
(-0.00344802 -1.19295e-05 0)
(-0.00335458 -3.87752e-05 0)
(-0.0031925 -8.96481e-05 0)
(-0.00294016 -0.000145315 0)
(-0.0025962 -0.000198855 0)
(-0.00216268 -0.000254402 0)
(-0.00163889 -0.000307621 0)
(-0.00103002 -0.00035945 0)
(-0.000319007 -0.000403072 0)
(0.000451611 -0.000438746 0)
(0.00127936 -0.000475713 0)
(0.00218263 -0.000515293 0)
(0.00315866 -0.000553054 0)
(0.00420169 -0.000583056 0)
(0.00529515 -0.000600618 0)
(0.00641498 -0.000603873 0)
(0.00753519 -0.000593033 0)
(0.00863135 -0.00056944 0)
(0.00968202 -0.00053498 0)
(0.0106693 -0.000491765 0)
(0.0115789 -0.000441938 0)
(0.0124002 -0.000387558 0)
(0.013126 -0.00033053 0)
(0.0137523 -0.000272559 0)
(0.0142778 -0.00021513 0)
(0.0147039 -0.000159515 0)
(0.0150338 -0.000106776 0)
(0.0152727 -5.77888e-05 0)
(0.0154273 -1.32902e-05 0)
(0.0155056 2.60023e-05 0)
(0.0155171 5.92522e-05 0)
(0.0154733 8.60993e-05 0)
(0.0153827 0.000107451 0)
(0.0152541 0.000123988 0)
(0.0150958 0.000136161 0)
(0.0149156 0.000144228 0)
(0.0147211 0.000148387 0)
(0.0145194 0.000148868 0)
(0.0143169 0.000145996 0)
(0.0141196 0.000140256 0)
(0.013932 0.000132328 0)
(0.0137573 0.000123088 0)
(0.0135969 0.00011354 0)
(0.0134502 0.000104711 0)
(0.0133146 9.75246e-05 0)
(0.0131859 9.27105e-05 0)
(0.0130586 9.07514e-05 0)
(0.0129264 9.18994e-05 0)
(0.0127825 9.62533e-05 0)
(0.0126198 0.00010387 0)
(0.012431 0.000114773 0)
(0.012209 0.000128568 0)
(0.0119472 0.000143792 0)
(0.0116391 0.000161153 0)
(0.0112623 0.000210245 0)
(0.0106946 0.000451787 0)
(0.00960089 0.00137701 0)
(0.00695457 0.00339027 0)
(-0.00101724 0.00266893 0)
(-0.00346451 0.000627353 0)
(-0.00417184 0.000169126 0)
(-0.00459172 0.000165618 0)
(-0.005059 0.000169505 0)
(-0.00553164 0.000136615 0)
(-0.00594417 8.25137e-05 0)
(-0.00626634 1.81467e-05 0)
(-0.00647861 -5.9927e-05 0)
(-0.00654687 -0.00016146 0)
(-0.00641703 -0.000306813 0)
(-0.00601232 -0.0005178 0)
(-0.005203 -0.00082975 0)
(-0.00390027 -0.00130307 0)
(-0.00217177 -0.0019975 0)
(0.00130725 -0.00304012 0)
(0.00344076 -0.00149611 0)
(0.00417073 -0.000346708 0)
(0.0036877 0.00180926 0)
(-0.00124287 0.00294968 0)
(-0.00336918 0.00346631 0)
(-0.0056337 0.00343092 0)
(-0.00681033 0.00114124 0)
(-0.00680205 -0.000674464 0)
(-0.00633483 -0.0013806 0)
(-0.00575682 -0.00144026 0)
(-0.00516701 -0.00126756 0)
(-0.00463919 -0.00103601 0)
(-0.00420394 -0.000810703 0)
(-0.0038574 -0.000623425 0)
(-0.00357733 -0.000499979 0)
(-0.00333837 -0.000466015 0)
(-0.00313363 -0.000528829 0)
(-0.00301919 -0.000619011 0)
(-0.00314132 -0.000484336 0)
(-0.00351038 0.000337222 0)
(-0.00357592 0.00181248 0)
(-0.00367028 0.00247983 0)
(-0.00390096 0.000962513 0)
(-0.00375461 -0.000697859 0)
(-0.00374231 -0.00051004 0)
(-0.00367662 -0.000245403 0)
(-0.00352162 -0.000172075 0)
(-0.00332777 -0.000227005 0)
(-0.00310818 -0.000328955 0)
(-0.00284775 -0.000447458 0)
(-0.00252986 -0.000571159 0)
(-0.00214127 -0.00070221 0)
(-0.00167074 -0.000834787 0)
(-0.00111212 -0.000968159 0)
(-0.000447922 -0.00108857 0)
(0.000308899 -0.00118922 0)
(0.00113428 -0.00128645 0)
(0.00204329 -0.00139546 0)
(0.00303615 -0.00150778 0)
(0.00410732 -0.00160165 0)
(0.00523792 -0.0016617 0)
(0.00640085 -0.00168325 0)
(0.00756858 -0.00166733 0)
(0.00871626 -0.00161757 0)
(0.00982263 -0.00153882 0)
(0.0108702 -0.00143645 0)
(0.0118452 -0.00131587 0)
(0.0127374 -0.00118228 0)
(0.01354 -0.0010405 0)
(0.0142493 -0.000894898 0)
(0.0148643 -0.000749339 0)
(0.0153863 -0.000607161 0)
(0.0158188 -0.000471201 0)
(0.016167 -0.000343835 0)
(0.0164374 -0.00022705 0)
(0.0166377 -0.000122598 0)
(0.0167756 -3.18419e-05 0)
(0.0168579 4.5507e-05 0)
(0.016892 0.000109381 0)
(0.0168872 0.000160493 0)
(0.0168527 0.000199588 0)
(0.0167967 0.000227236 0)
(0.0167264 0.000244098 0)
(0.0166486 0.000251029 0)
(0.0165687 0.000249197 0)
(0.0164909 0.000240181 0)
(0.0164177 0.000226009 0)
(0.01635 0.000209131 0)
(0.0162868 0.000192286 0)
(0.0162254 0.000178273 0)
(0.0161615 0.000169687 0)
(0.0160892 0.000168687 0)
(0.0160017 0.000176856 0)
(0.0158912 0.000195206 0)
(0.0157497 0.000224337 0)
(0.0155685 0.000264752 0)
(0.0153386 0.000317152 0)
(0.0150496 0.000382495 0)
(0.0146879 0.000462777 0)
(0.0142297 0.000570557 0)
(0.0136246 0.000778882 0)
(0.0127518 0.00137776 0)
(0.0114415 0.00304176 0)
(0.0093819 0.00603316 0)
(0.00502998 0.00752488 0)
(0.0002493 0.00355565 0)
(-0.00197591 0.0007723 0)
(-0.00252204 0.000674359 0)
(-0.00306183 0.000769751 0)
(-0.00363558 0.000740549 0)
(-0.0041664 0.000630923 0)
(-0.004606 0.000484511 0)
(-0.00492277 0.00029881 0)
(-0.00508792 5.46845e-05 0)
(-0.00503731 -0.000276024 0)
(-0.0047177 -0.000734654 0)
(-0.00404102 -0.00137232 0)
(-0.00292933 -0.00228413 0)
(-0.00139166 -0.00353115 0)
(0.000547761 -0.00468332 0)
(0.00212651 -0.00168619 0)
(0.00234414 0.000864912 0)
(0.00268452 0.00457608 0)
(-0.00105755 0.00493255 0)
(-0.00292805 0.00547897 0)
(-0.00470901 0.00496957 0)
(-0.00557674 0.00184019 0)
(-0.00569494 -0.000717225 0)
(-0.00558472 -0.00175046 0)
(-0.00529471 -0.00191764 0)
(-0.0049224 -0.00174319 0)
(-0.00456406 -0.00145115 0)
(-0.00426797 -0.00114401 0)
(-0.0040495 -0.000875563 0)
(-0.00391082 -0.000675933 0)
(-0.00385681 -0.000558667 0)
(-0.00391014 -0.000513071 0)
(-0.00411933 -0.000472525 0)
(-0.00448856 -0.000259654 0)
(-0.00477201 0.000395234 0)
(-0.0045236 0.00150719 0)
(-0.00385535 0.00209057 0)
(-0.00336769 0.000861687 0)
(-0.00350779 -0.000432482 0)
(-0.00391007 -0.000342521 0)
(-0.00404805 -0.000278543 0)
(-0.00404306 -0.000300994 0)
(-0.00396244 -0.000393991 0)
(-0.00382859 -0.000532008 0)
(-0.00363928 -0.000699139 0)
(-0.00338377 -0.000887456 0)
(-0.00304987 -0.0010936 0)
(-0.00262752 -0.00131366 0)
(-0.00210835 -0.00154266 0)
(-0.00148439 -0.00176837 0)
(-0.000738459 -0.00197951 0)
(0.000146737 -0.00217389 0)
(0.00109561 -0.00236069 0)
(0.00212969 -0.00256052 0)
(0.00325038 -0.0027326 0)
(0.00443256 -0.00284124 0)
(0.00564077 -0.00288034 0)
(0.0068454 -0.00285478 0)
(0.0080222 -0.00277222 0)
(0.00915122 -0.00264139 0)
(0.0102164 -0.00247146 0)
(0.0112052 -0.0022715 0)
(0.0121085 -0.00205014 0)
(0.0129203 -0.0018154 0)
(0.0136373 -0.00157454 0)
(0.0142588 -0.00133402 0)
(0.0147862 -0.00109946 0)
(0.0152231 -0.000875644 0)
(0.0155746 -0.00066654 0)
(0.0158473 -0.000475354 0)
(0.0160486 -0.00030456 0)
(0.0161867 -0.000155665 0)
(0.0162702 -2.82778e-05 0)
(0.0163097 7.75097e-05 0)
(0.0163123 0.000161944 0)
(0.0162869 0.000225921 0)
(0.0162415 0.000270657 0)
(0.0161832 0.000297688 0)
(0.016118 0.000309041 0)
(0.0160509 0.00030727 0)
(0.0159855 0.000295535 0)
(0.0159238 0.00027758 0)
(0.0158667 0.000257642 0)
(0.0158132 0.000240254 0)
(0.0157606 0.000229935 0)
(0.0157047 0.000230817 0)
(0.0156396 0.000246319 0)
(0.0155579 0.000278944 0)
(0.0154509 0.000330281 0)
(0.0153093 0.000401246 0)
(0.0151231 0.000492618 0)
(0.0148817 0.000605858 0)
(0.0145733 0.000744358 0)
(0.0141827 0.000916902 0)
(0.0136874 0.00115234 0)
(0.0130584 0.00155608 0)
(0.0122734 0.00247384 0)
(0.0113505 0.00467263 0)
(0.0101038 0.00840593 0)
(0.00755711 0.0109243 0)
(0.00425587 0.00847393 0)
(3.9226e-05 0.00256228 0)
(-0.00127802 0.00120578 0)
(-0.00181645 0.00131799 0)
(-0.00241572 0.00127526 0)
(-0.00298135 0.00109074 0)
(-0.00347343 0.0008189 0)
(-0.00384007 0.000464919 0)
(-0.00402935 1.6223e-05 0)
(-0.00400621 -0.000544098 0)
(-0.00375913 -0.00127092 0)
(-0.00323878 -0.00222952 0)
(-0.00238734 -0.00351747 0)
(-0.00117145 -0.00512912 0)
(-6.35961e-05 -0.00622733 0)
(0.0011958 -0.00249451 0)
(0.00119139 0.000831681 0)
(0.00205025 0.00649218 0)
(-0.000821495 0.0066144 0)
(-0.00232566 0.00711872 0)
(-0.00381822 0.00621245 0)
(-0.0046086 0.00249228 0)
(-0.00490528 -0.000544436 0)
(-0.00498917 -0.00186728 0)
(-0.00487383 -0.00217727 0)
(-0.00466394 -0.00203445 0)
(-0.00444802 -0.00170849 0)
(-0.00427431 -0.00133698 0)
(-0.00416238 -0.000993416 0)
(-0.00411983 -0.00071258 0)
(-0.00415374 -0.000501404 0)
(-0.00427856 -0.000343008 0)
(-0.00451188 -0.000190127 0)
(-0.00481943 4.88168e-05 0)
(-0.00502084 0.000471958 0)
(-0.00485584 0.00101992 0)
(-0.00435857 0.00123935 0)
(-0.00407851 0.000613019 0)
(-0.00430697 4.42318e-05 0)
(-0.00460135 -8.91709e-05 0)
(-0.00478222 -0.000180497 0)
(-0.00486415 -0.000297126 0)
(-0.00486908 -0.000454901 0)
(-0.00480298 -0.000653698 0)
(-0.00466004 -0.000889859 0)
(-0.00442957 -0.00115958 0)
(-0.00410086 -0.00145876 0)
(-0.00366576 -0.00178189 0)
(-0.0031194 -0.00212132 0)
(-0.00245976 -0.00246631 0)
(-0.00168702 -0.00280275 0)
(-0.000800411 -0.00311436 0)
(0.000260045 -0.00340643 0)
(0.00136508 -0.0036859 0)
(0.00253865 -0.00392516 0)
(0.00377552 -0.00406973 0)
(0.00502592 -0.00411154 0)
(0.006259 -0.00406239 0)
(0.00745352 -0.00393549 0)
(0.00859225 -0.00374371 0)
(0.00966134 -0.00349979 0)
(0.0106501 -0.00321604 0)
(0.0115507 -0.00290407 0)
(0.012358 -0.00257463 0)
(0.0130693 -0.00223745 0)
(0.0136838 -0.00190121 0)
(0.0142029 -0.00157354 0)
(0.0146298 -0.00126096 0)
(0.0149691 -0.000968938 0)
(0.0152271 -0.000701857 0)
(0.0154111 -0.000463008 0)
(0.0155293 -0.00025451 0)
(0.015591 -7.7278e-05 0)
(0.015606 6.89276e-05 0)
(0.0155832 0.000185047 0)
(0.0155318 0.000272401 0)
(0.0154604 0.000332956 0)
(0.0153763 0.00036921 0)
(0.0152863 0.000384259 0)
(0.0151959 0.000381845 0)
(0.0151094 0.000366384 0)
(0.0150297 0.000342961 0)
(0.0149586 0.000317252 0)
(0.0148959 0.000295362 0)
(0.0148399 0.000283543 0)
(0.0147867 0.000287789 0)
(0.0147304 0.00031337 0)
(0.014663 0.000364471 0)
(0.0145744 0.00044403 0)
(0.0144536 0.000553912 0)
(0.0142885 0.000695498 0)
(0.0140668 0.00087086 0)
(0.0137758 0.0010849 0)
(0.0134025 0.00135007 0)
(0.012933 0.00170072 0)
(0.0123574 0.00224315 0)
(0.0116866 0.00331275 0)
(0.0109958 0.00571574 0)
(0.0102297 0.009877 0)
(0.00866456 0.0132255 0)
(0.00627221 0.0119592 0)
(0.00251 0.00637483 0)
(-0.000494434 0.00211165 0)
(-0.00097424 0.00191965 0)
(-0.00155101 0.0018586 0)
(-0.00209093 0.00162856 0)
(-0.00255042 0.0012658 0)
(-0.00288266 0.000779918 0)
(-0.00305414 0.000164133 0)
(-0.00305487 -0.000600225 0)
(-0.0028914 -0.00153507 0)
(-0.00255115 -0.00273779 0)
(-0.00198084 -0.0043281 0)
(-0.00111435 -0.00621296 0)
(-0.000459617 -0.00717766 0)
(0.000581217 -0.00305423 0)
(0.000633311 0.000729233 0)
(0.00166619 0.00773192 0)
(-0.000620579 0.00796857 0)
(-0.00180985 0.00845544 0)
(-0.00309534 0.00729758 0)
(-0.00386746 0.00317311 0)
(-0.00429024 -0.000243898 0)
(-0.00450539 -0.00184185 0)
(-0.00452296 -0.00229068 0)
(-0.00445089 -0.002188 0)
(-0.00436511 -0.00184356 0)
(-0.0043083 -0.0014246 0)
(-0.0042987 -0.001022 0)
(-0.0043438 -0.000677359 0)
(-0.00444781 -0.000398251 0)
(-0.00461515 -0.000169167 0)
(-0.00484595 4.35617e-05 0)
(-0.00510606 0.00028502 0)
(-0.00528888 0.000576443 0)
(-0.00528314 0.000852229 0)
(-0.00513697 0.000906781 0)
(-0.00512141 0.000626721 0)
(-0.00532166 0.000328671 0)
(-0.0055584 0.000139007 0)
(-0.00574512 -3.34405e-05 0)
(-0.00586774 -0.000226425 0)
(-0.00590701 -0.000460963 0)
(-0.0058546 -0.000743677 0)
(-0.0056997 -0.00107489 0)
(-0.00543306 -0.00145046 0)
(-0.0050489 -0.00186312 0)
(-0.00454543 -0.00230337 0)
(-0.00392431 -0.0027602 0)
(-0.00318951 -0.00322179 0)
(-0.00234754 -0.00367585 0)
(-0.00141124 -0.00410739 0)
(-0.000368704 -0.00450007 0)
(0.000853687 -0.00488456 0)
(0.00205416 -0.00517373 0)
(0.00332244 -0.00533889 0)
(0.00459583 -0.00536997 0)
(0.00583825 -0.00528621 0)
(0.00703221 -0.00510677 0)
(0.00816386 -0.00484848 0)
(0.00922172 -0.00452713 0)
(0.010197 -0.00415773 0)
(0.0110834 -0.00375433 0)
(0.0118767 -0.0033299 0)
(0.0125747 -0.00289618 0)
(0.013177 -0.00246369 0)
(0.0136843 -0.00204175 0)
(0.0140993 -0.00163847 0)
(0.0144256 -0.00126081 0)
(0.0146683 -0.000914552 0)
(0.0148339 -0.000604188 0)
(0.0149301 -0.000332899 0)
(0.014966 -0.000102508 0)
(0.0149508 8.70442e-05 0)
(0.0148945 0.00023714 0)
(0.0148071 0.000349479 0)
(0.0146979 0.000426621 0)
(0.0145755 0.000471911 0)
(0.0144477 0.000489457 0)
(0.0143211 0.000484141 0)
(0.0142013 0.000461622 0)
(0.0140924 0.000428346 0)
(0.0139973 0.000391517 0)
(0.013917 0.000358995 0)
(0.0138508 0.000339057 0)
(0.0137956 0.000339963 0)
(0.0137458 0.000369326 0)
(0.0136932 0.000433505 0)
(0.0136273 0.000537231 0)
(0.0135357 0.000683611 0)
(0.0134052 0.000874621 0)
(0.0132223 0.00111226 0)
(0.0129744 0.00140093 0)
(0.0126501 0.00175235 0)
(0.0122408 0.00219849 0)
(0.0117438 0.00283464 0)
(0.0111732 0.00396494 0)
(0.0106101 0.00638913 0)
(0.0100861 0.0107392 0)
(0.00909687 0.0147685 0)
(0.00728859 0.014605 0)
(0.00430522 0.0100226 0)
(0.000724287 0.00409496 0)
(-0.000439894 0.00248631 0)
(-0.000863038 0.0023782 0)
(-0.00133708 0.00209537 0)
(-0.0017342 0.00163254 0)
(-0.00201075 0.00100876 0)
(-0.00214569 0.000243961 0)
(-0.00216165 -0.000646097 0)
(-0.002083 -0.00169579 0)
(-0.00191931 -0.00303917 0)
(-0.0016139 -0.00484701 0)
(-0.00105246 -0.00695221 0)
(-0.000631398 -0.00775902 0)
(0.000195452 -0.00382626 0)
(0.00036659 0.00042178 0)
(0.00140317 0.00856146 0)
(-0.000474161 0.00902884 0)
(-0.00141255 0.00954121 0)
(-0.0025342 0.00828922 0)
(-0.0032993 0.00389837 0)
(-0.00380842 0.00015824 0)
(-0.00411335 -0.00169859 0)
(-0.00424176 -0.00227616 0)
(-0.00429093 -0.00221275 0)
(-0.0043251 -0.00185758 0)
(-0.00437965 -0.00140339 0)
(-0.00446946 -0.00095562 0)
(-0.00460076 -0.000562183 0)
(-0.00477659 -0.00023265 0)
(-0.00499953 4.53423e-05 0)
(-0.00526554 0.000292433 0)
(-0.00553871 0.000522433 0)
(-0.0057678 0.000739345 0)
(-0.00591281 0.000899708 0)
(-0.00600976 0.000917525 0)
(-0.00616068 0.000770762 0)
(-0.00638586 0.000567888 0)
(-0.00661816 0.000359932 0)
(-0.00680309 0.000130212 0)
(-0.00691284 -0.000143266 0)
(-0.00692606 -0.000474501 0)
(-0.00682487 -0.000866978 0)
(-0.00660173 -0.00131692 0)
(-0.00625336 -0.00181559 0)
(-0.00578097 -0.00235133 0)
(-0.00518898 -0.0029111 0)
(-0.00448382 -0.00348157 0)
(-0.00367286 -0.00405 0)
(-0.00276365 -0.00460465 0)
(-0.00176752 -0.00513338 0)
(-0.000735273 -0.00561936 0)
(0.000528082 -0.00610949 0)
(0.00175395 -0.00645072 0)
(0.00302404 -0.00662278 0)
(0.00429939 -0.00663104 0)
(0.00553297 -0.00650328 0)
(0.0067097 -0.00626448 0)
(0.00781904 -0.00593526 0)
(0.00885182 -0.00553413 0)
(0.0098011 -0.0050784 0)
(0.0106621 -0.0045842 0)
(0.011432 -0.0040663 0)
(0.0121093 -0.003538 0)
(0.012694 -0.00301116 0)
(0.0131869 -0.00249628 0)
(0.0135899 -0.00200267 0)
(0.0139056 -0.0015385 0)
(0.0141377 -0.00111083 0)
(0.0142911 -0.00072552 0)
(0.0143719 -0.000387101 0)
(0.0143884 -9.86321e-05 0)
(0.0143481 0.000139245 0)
(0.0142618 0.000327499 0)
(0.01414 0.00046799 0)
(0.0139926 0.000563696 0)
(0.0138297 0.000618651 0)
(0.0136604 0.000637928 0)
(0.0134929 0.000627521 0)
(0.0133344 0.000594328 0)
(0.0131907 0.000546177 0)
(0.0130661 0.000491849 0)
(0.0129631 0.000441057 0)
(0.0128822 0.000404282 0)
(0.0128214 0.000392344 0)
(0.0127755 0.000415643 0)
(0.0127364 0.000483226 0)
(0.0126934 0.000602071 0)
(0.0126335 0.000776819 0)
(0.0125426 0.00101007 0)
(0.0124066 0.00130339 0)
(0.0122129 0.00165954 0)
(0.0119513 0.00208744 0)
(0.0116151 0.00261449 0)
(0.011203 0.00332551 0)
(0.010723 0.00449721 0)
(0.0102389 0.00689888 0)
(0.0098317 0.0113176 0)
(0.00915671 0.0158684 0)
(0.00777527 0.0167126 0)
(0.00534306 0.0130163 0)
(0.00222618 0.00703045 0)
(0.000101714 0.00323939 0)
(-0.000308751 0.00280643 0)
(-0.00069301 0.00249306 0)
(-0.00102645 0.00195023 0)
(-0.00125388 0.00121408 0)
(-0.00135644 0.000335101 0)
(-0.00137898 -0.000644735 0)
(-0.00136167 -0.00174227 0)
(-0.00134285 -0.00314347 0)
(-0.00125635 -0.00511271 0)
(-0.000922992 -0.00743451 0)
(-0.000646532 -0.00821317 0)
(3.16776e-05 -0.00449726 0)
(0.000213157 4.09787e-05 0)
(0.00120225 0.00918749 0)
(-0.000374995 0.00986054 0)
(-0.00111952 0.0104296 0)
(-0.00210562 0.00920224 0)
(-0.00286312 0.00464583 0)
(-0.00343222 0.000627102 0)
(-0.0038037 -0.00146117 0)
(-0.00402912 -0.00215118 0)
(-0.00418761 -0.00212132 0)
(-0.00433311 -0.00175919 0)
(-0.00449388 -0.00127876 0)
(-0.00468138 -0.000797045 0)
(-0.00490132 -0.000366406 0)
(-0.00515911 2.73201e-06 0)
(-0.00545955 0.000319648 0)
(-0.0057836 0.000586074 0)
(-0.00611226 0.000810093 0)
(-0.0064191 0.000989602 0)
(-0.00668695 0.00109968 0)
(-0.00693057 0.00110415 0)
(-0.00718032 0.000996626 0)
(-0.00743291 0.000812063 0)
(-0.00765286 0.000569556 0)
(-0.00780312 0.000266301 0)
(-0.00785538 -0.000106701 0)
(-0.0077933 -0.000554518 0)
(-0.00760469 -0.00107267 0)
(-0.00728854 -0.00165046 0)
(-0.00684771 -0.00227444 0)
(-0.00628795 -0.00292995 0)
(-0.00561645 -0.00360228 0)
(-0.00484108 -0.00427724 0)
(-0.00396974 -0.0049417 0)
(-0.00300996 -0.00558377 0)
(-0.00197211 -0.00619331 0)
(-0.000896047 -0.00676241 0)
(0.000313279 -0.00731719 0)
(0.00158222 -0.00773471 0)
(0.00283306 -0.00790307 0)
(0.00409313 -0.0078778 0)
(0.00530341 -0.00769825 0)
(0.00644988 -0.00739474 0)
(0.00752474 -0.00699137 0)
(0.008521 -0.00650917 0)
(0.00943342 -0.00596753 0)
(0.0102588 -0.00538442 0)
(0.0109957 -0.00477614 0)
(0.0116438 -0.00415719 0)
(0.0122038 -0.00354034 0)
(0.0126771 -0.00293675 0)
(0.0130654 -0.00235633 0)
(0.0133705 -0.00180793 0)
(0.0135949 -0.00129948 0)
(0.0137418 -0.000838013 0)
(0.0138155 -0.000429462 0)
(0.0138223 -7.84165e-05 0)
(0.0137672 0.000213194 0)
(0.0136609 0.000445088 0)
(0.0135137 0.000618681 0)
(0.013336 0.000736911 0)
(0.0131388 0.000804168 0)
(0.0129326 0.000826217 0)
(0.0127273 0.000810017 0)
(0.012532 0.000763661 0)
(0.0123544 0.00069641 0)
(0.0122005 0.000618755 0)
(0.0120746 0.000542458 0)
(0.0119785 0.000480467 0)
(0.0119112 0.000446505 0)
(0.0118681 0.00045417 0)
(0.0118414 0.000515641 0)
(0.01182 0.000640506 0)
(0.0117905 0.000835096 0)
(0.0117382 0.00110251 0)
(0.0116485 0.00144347 0)
(0.0115089 0.00185847 0)
(0.01131 0.00235283 0)
(0.011046 0.00294955 0)
(0.0107141 0.00372722 0)
(0.010315 0.00494519 0)
(0.00988659 0.00733588 0)
(0.00951923 0.0117786 0)
(0.0089976 0.0167268 0)
(0.00788435 0.0184013 0)
(0.00588024 0.0154946 0)
(0.00328515 0.0097467 0)
(0.00102796 0.00471839 0)
(0.000167931 0.00320779 0)
(-0.00014542 0.00281393 0)
(-0.000435177 0.00222146 0)
(-0.000633035 0.00139151 0)
(-0.00071412 0.000411604 0)
(-0.000738921 -0.000628632 0)
(-0.000757262 -0.00171629 0)
(-0.000837706 -0.00310056 0)
(-0.000906446 -0.00518418 0)
(-0.000725707 -0.00772413 0)
(-0.000563825 -0.00856687 0)
(-1.11791e-05 -0.00501995 0)
(0.000110917 -0.000327484 0)
(0.00104034 0.00969895 0)
(-0.000311818 0.0105302 0)
(-0.000911439 0.0111695 0)
(-0.00178407 0.0100438 0)
(-0.00252926 0.00539789 0)
(-0.0031403 0.00114528 0)
(-0.00356878 -0.0011417 0)
(-0.00388365 -0.00192625 0)
(-0.0041426 -0.00192231 0)
(-0.00439207 -0.00155436 0)
(-0.00465457 -0.00105334 0)
(-0.00493931 -0.000544238 0)
(-0.00525428 -8.08705e-05 0)
(-0.00560971 0.000327344 0)
(-0.00599027 0.000669932 0)
(-0.00638528 0.00094943 0)
(-0.00678229 0.00117031 0)
(-0.00716358 0.00132813 0)
(-0.00751565 0.001407 0)
(-0.00783623 0.00138769 0)
(-0.00812579 0.00126388 0)
(-0.00837143 0.00104409 0)
(-0.00854838 0.000734405 0)
(-0.00863131 0.000335123 0)
(-0.00860055 -0.00015423 0)
(-0.00844438 -0.000728241 0)
(-0.00816254 -0.00137387 0)
(-0.00775814 -0.00207566 0)
(-0.00723716 -0.00281756 0)
(-0.00660665 -0.0035837 0)
(-0.00587408 -0.00435888 0)
(-0.00504702 -0.00512878 0)
(-0.00413303 -0.00588009 0)
(-0.00313945 -0.00660078 0)
(-0.00207515 -0.00728075 0)
(-0.000969797 -0.0079119 0)
(0.000208969 -0.00851994 0)
(0.00149442 -0.00900817 0)
(0.00271739 -0.00916496 0)
(0.00394935 -0.00909754 0)
(0.00512519 -0.00885951 0)
(0.00623175 -0.00848674 0)
(0.00726318 -0.00800656 0)
(0.00821432 -0.00744233 0)
(0.00908155 -0.0068154 0)
(0.00986311 -0.00614544 0)
(0.0105589 -0.00545016 0)
(0.0111699 -0.00474507 0)
(0.0116978 -0.00404351 0)
(0.0121448 -0.00335693 0)
(0.0125129 -0.0026953 0)
(0.012804 -0.00206756 0)
(0.0130198 -0.00148192 0)
(0.0131621 -0.000946052 0)
(0.0132333 -0.000466956 0)
(0.0132381 -5.06929e-05 0)
(0.0131781 0.000299025 0)
(0.013063 0.000579889 0)
(0.0129022 0.000792061 0)
(0.0127057 0.000937786 0)
(0.0124851 0.00102127 0)
(0.0122519 0.00104854 0)
(0.0120177 0.00102722 0)
(0.0117932 0.000966414 0)
(0.0115882 0.000876781 0)
(0.0114107 0.000770632 0)
(0.0112668 0.000662066 0)
(0.0111596 0.000566905 0)
(0.0110889 0.000502214 0)
(0.0110507 0.0004852 0)
(0.0110366 0.000531584 0)
(0.0110353 0.00065391 0)
(0.0110328 0.000860342 0)
(0.0110141 0.00115429 0)
(0.0109646 0.00153524 0)
(0.0108717 0.00200106 0)
(0.0107268 0.00255342 0)
(0.0105245 0.00321168 0)
(0.0102607 0.00405227 0)
(0.00992779 0.00532745 0)
(0.00953581 0.00773865 0)
(0.009158 0.0122081 0)
(0.00867075 0.0174671 0)
(0.00770319 0.0198068 0)
(0.00601922 0.0175247 0)
(0.0038887 0.0120328 0)
(0.00190606 0.00647349 0)
(0.000745625 0.00382224 0)
(0.000344551 0.00312735 0)
(6.37088e-05 0.00247026 0)
(-0.000138919 0.00155025 0)
(-0.000222903 0.000473412 0)
(-0.000256024 -0.000611991 0)
(-0.000292786 -0.00165625 0)
(-0.000425185 -0.00297085 0)
(-0.000580294 -0.00512962 0)
(-0.000491121 -0.00787797 0)
(-0.000426305 -0.0088217 0)
(4.72554e-06 -0.00542078 0)
(5.37944e-05 -0.000638693 0)
(0.000906447 0.0101253 0)
(-0.000274241 0.0110919 0)
(-0.000771102 0.0118021 0)
(-0.00155042 0.0108218 0)
(-0.00227884 0.00614431 0)
(-0.00292094 0.00170179 0)
(-0.00340378 -0.000747328 0)
(-0.0038036 -0.00160888 0)
(-0.00415579 -0.00162293 0)
(-0.00450272 -0.0012484 0)
(-0.00486346 -0.000728805 0)
(-0.00524812 -0.000192895 0)
(-0.00566802 0.000306857 0)
(-0.00611214 0.000740242 0)
(-0.00656658 0.00109693 0)
(-0.00702614 0.00138157 0)
(-0.00747872 0.00159389 0)
(-0.0079084 0.001727 0)
(-0.00829986 0.00176797 0)
(-0.00864143 0.00170293 0)
(-0.00892224 0.00152443 0)
(-0.00912736 0.00123248 0)
(-0.00923894 0.000829546 0)
(-0.00924088 0.000318704 0)
(-0.00912207 -0.00029417 0)
(-0.00887809 -0.000992997 0)
(-0.00851592 -0.00175955 0)
(-0.0080401 -0.00257637 0)
(-0.00745725 -0.00342647 0)
(-0.00677423 -0.00429363 0)
(-0.00599798 -0.00516256 0)
(-0.00513548 -0.00601889 0)
(-0.00419383 -0.00684912 0)
(-0.00318023 -0.00764085 0)
(-0.00210249 -0.00838312 0)
(-0.000986076 -0.00906633 0)
(0.000182739 -0.00972234 0)
(0.00145986 -0.0102584 0)
(0.00265263 -0.0103976 0)
(0.00384782 -0.0102812 0)
(0.00498118 -0.00997888 0)
(0.00604098 -0.0095329 0)
(0.00702274 -0.00897366 0)
(0.00792287 -0.00832667 0)
(0.0087392 -0.00761515 0)
(0.00947135 -0.00686042 0)
(0.0101204 -0.00608149 0)
(0.0106886 -0.00529474 0)
(0.0111787 -0.00451394 0)
(0.0115936 -0.00375056 0)
(0.011936 -0.00301431 0)
(0.0122081 -0.00231373 0)
(0.0124116 -0.00165673 0)
(0.0125475 -0.00105099 0)
(0.0126171 -0.000504032 0)
(0.0126233 -2.28627e-05 0)
(0.012565 0.00038682 0)
(0.0124499 0.000720203 0)
(0.0122859 0.000975422 0)
(0.0120825 0.00115331 0)
(0.0118506 0.00125722 0)
(0.0116026 0.00129282 0)
(0.0113512 0.00126792 0)
(0.0111086 0.00119233 0)
(0.0108865 0.00107798 0)
(0.010695 0.000939111 0)
(0.0105415 0.000792523 0)
(0.0104305 0.000657443 0)
(0.0103622 0.000554901 0)
(0.0103323 0.000506253 0)
(0.0103321 0.000531071 0)
(0.0103493 0.000644913 0)
(0.0103694 0.000857679 0)
(0.0103773 0.00117284 0)
(0.0103585 0.00158809 0)
(0.0103012 0.00209825 0)
(0.0101973 0.00270155 0)
(0.0100417 0.00341525 0)
(0.0098283 0.00431775 0)
(0.00954097 0.00566395 0)
(0.00916267 0.00813666 0)
(0.00873498 0.0126688 0)
(0.00819551 0.0181892 0)
(0.00727311 0.0210328 0)
(0.00582543 0.0191945 0)
(0.00410864 0.0138845 0)
(0.00250209 0.00808546 0)
(0.00134149 0.00463837 0)
(0.000793895 0.00347979 0)
(0.000488271 0.00274421 0)
(0.00026355 0.00174952 0)
(0.000148729 0.00055056 0)
(9.01413e-05 -0.000579589 0)
(3.16377e-05 -0.00157842 0)
(-0.000116734 -0.00280885 0)
(-0.000294796 -0.0050175 0)
(-0.000249649 -0.00794467 0)
(-0.000260734 -0.00898621 0)
(5.81727e-05 -0.00571496 0)
(3.30215e-05 -0.000910217 0)
(0.000794222 0.0104849 0)
(-0.00025403 0.0115854 0)
(-0.000682976 0.0123605 0)
(-0.00138895 0.0115461 0)
(-0.00209972 0.00688134 0)
(-0.00276786 0.00229292 0)
(-0.00330414 -0.000274178 0)
(-0.00378444 -0.00120446 0)
(-0.00422446 -0.00122939 0)
(-0.00466297 -0.000845747 0)
(-0.00512021 -0.000305145 0)
(-0.00560714 0.000263078 0)
(-0.00611519 0.000785754 0)
(-0.00662528 0.00122592 0)
(-0.00713588 0.00158506 0)
(-0.00763883 0.00186269 0)
(-0.00812123 0.00205381 0)
(-0.00856687 0.00214906 0)
(-0.00895905 0.00213626 0)
(-0.00928277 0.00200383 0)
(-0.00952451 0.00174483 0)
(-0.00967105 0.00135815 0)
(-0.00971023 0.000847119 0)
(-0.00963305 0.000218435 0)
(-0.00943463 -0.000516829 0)
(-0.00911912 -0.00133345 0)
(-0.00869399 -0.002212 0)
(-0.00816437 -0.00313447 0)
(-0.00753657 -0.00408365 0)
(-0.00681687 -0.0050433 0)
(-0.00601157 -0.00599808 0)
(-0.0051271 -0.00693343 0)
(-0.00417026 -0.00783558 0)
(-0.00314813 -0.00869158 0)
(-0.00206769 -0.00948953 0)
(-0.000953979 -0.0102186 0)
(0.000208573 -0.0109193 0)
(0.00146135 -0.0114797 0)
(0.00262103 -0.0115938 0)
(0.00377312 -0.0114222 0)
(0.00485824 -0.0110506 0)
(0.00586645 -0.010528 0)
(0.0067943 -0.00988789 0)
(0.00763959 -0.00915772 0)
(0.00840155 -0.00836252 0)
(0.00908109 -0.00752518 0)
(0.00968049 -0.0066659 0)
(0.0102029 -0.00580182 0)
(0.010652 -0.00494698 0)
(0.0110314 -0.00411277 0)
(0.0113443 -0.00330842 0)
(0.0115934 -0.00254182 0)
(0.0117806 -0.00182018 0)
(0.011907 -0.00115066 0)
(0.0119732 -0.000540693 0)
(0.0119804 2.36386e-06 0)
(0.0119269 0.000471071 0)
(0.0118173 0.0008581 0)
(0.0116581 0.00115897 0)
(0.0114571 0.00137239 0)
(0.0112249 0.00150016 0)
(0.0109739 0.00154695 0)
(0.0107172 0.00152017 0)
(0.0104687 0.00142993 0)
(0.0102413 0.00128922 0)
(0.0100467 0.00111433 0)
(0.0098939 0.000925128 0)
(0.00978784 0.000744912 0)
(0.00972856 0.000599424 0)
(0.00971118 0.000514735 0)
(0.00972595 0.00051441 0)
(0.00975972 0.000616829 0)
(0.00979742 0.000833285 0)
(0.00982364 0.00116697 0)
(0.00982456 0.00161344 0)
(0.00978951 0.0021639 0)
(0.00971137 0.00281317 0)
(0.00958499 0.00357823 0)
(0.00940164 0.00454436 0)
(0.00913578 0.00597919 0)
(0.00874398 0.00856139 0)
(0.00822955 0.0132144 0)
(0.00757018 0.0189728 0)
(0.00661531 0.022165 0)
(0.0053461 0.0205601 0)
(0.00401248 0.0153164 0)
(0.0028057 0.00940669 0)
(0.0018125 0.00550542 0)
(0.00118857 0.00391395 0)
(0.000823196 0.00303263 0)
(0.000578101 0.00195114 0)
(0.000438721 0.000665771 0)
(0.000337121 -0.000505353 0)
(0.000238894 -0.00147818 0)
(9.22289e-05 -0.00263941 0)
(-6.13513e-05 -0.00490365 0)
(-2.58741e-05 -0.00796426 0)
(-8.04973e-05 -0.00907232 0)
(0.000145088 -0.0059223 0)
(3.84408e-05 -0.00109412 0)
(0.000699173 0.0107988 0)
(-0.000244877 0.0120392 0)
(-0.000632258 0.0128708 0)
(-0.00128444 0.012229 0)
(-0.00198147 0.00761068 0)
(-0.00267543 0.00291558 0)
(-0.0032668 0.000263922 0)
(-0.00381968 -0.000718298 0)
(-0.00434316 -0.000748843 0)
(-0.00486788 -0.000352022 0)
(-0.00541727 0.000216553 0)
(-0.00598399 0.000805456 0)
(-0.00654453 0.00132496 0)
(-0.0070982 0.00176085 0)
(-0.00764062 0.00210978 0)
(-0.00816164 0.00236606 0)
(-0.00864741 0.00252083 0)
(-0.00908175 0.00256295 0)
(-0.0094482 0.00248072 0)
(-0.00973193 0.00226456 0)
(-0.0099205 0.0019095 0)
(-0.0100039 0.00141617 0)
(-0.00997457 0.000790541 0)
(-0.00982847 4.33236e-05 0)
(-0.00956391 -0.000806973 0)
(-0.00919368 -0.00173263 0)
(-0.00872196 -0.00271425 0)
(-0.00815424 -0.00373375 0)
(-0.00749618 -0.00477399 0)
(-0.00675336 -0.00581875 0)
(-0.00593148 -0.00685253 0)
(-0.00503656 -0.00786051 0)
(-0.00407518 -0.00882839 0)
(-0.00305439 -0.00974258 0)
(-0.00198047 -0.0105903 0)
(-0.000880911 -0.0113598 0)
(0.000272839 -0.0121024 0)
(0.00148828 -0.0126669 0)
(0.00261021 -0.0127472 0)
(0.00371394 -0.0125152 0)
(0.00474648 -0.0120703 0)
(0.00569953 -0.0114684 0)
(0.00657055 -0.0107461 0)
(0.0073586 -0.00993275 0)
(0.00806435 -0.00905522 0)
(0.00868997 -0.0081378 0)
(0.00923884 -0.00720172 0)
(0.00971497 -0.00626465 0)
(0.0101226 -0.00534079 0)
(0.0104656 -0.00444127 0)
(0.0107478 -0.00357483 0)
(0.0109721 -0.00274861 0)
(0.0111407 -0.00196895 0)
(0.0112548 -0.00124216 0)
(0.0113152 -0.000575085 0)
(0.0113218 2.49086e-05 0)
(0.0112732 0.000549295 0)
(0.0111717 0.000988579 0)
(0.0110219 0.00133545 0)
(0.0108303 0.00158595 0)
(0.0106064 0.00173964 0)
(0.0103622 0.00179952 0)
(0.0101112 0.00177201 0)
(0.00986799 0.00166708 0)
(0.00964672 0.00149865 0)
(0.00946011 0.00128517 0)
(0.00931781 0.00105009 0)
(0.00922491 0.00082147 0)
(0.00918074 0.000630419 0)
(0.00917928 0.000508163 0)
(0.00920927 0.00048231 0)
(0.00925651 0.000573761 0)
(0.00930554 0.000794545 0)
(0.00934113 0.00114686 0)
(0.0093502 0.00162372 0)
(0.00932341 0.0022126 0)
(0.00925499 0.00290523 0)
(0.00913974 0.00372033 0)
(0.00896505 0.0047555 0)
(0.00869415 0.00630173 0)
(0.00825718 0.00904799 0)
(0.00761751 0.0138935 0)
(0.00678281 0.0198807 0)
(0.00574339 0.023255 0)
(0.00462977 0.0216528 0)
(0.00367348 0.016347 0)
(0.00286458 0.0103956 0)