/*--------------------------------*- C++ -*----------------------------------*\
| =========                 |                                                 |
| \\      /  F ield         | OpenFOAM: The Open Source CFD Toolbox           |
|  \\    /   O peration     | Version:  4.1                                   |
|   \\  /    A nd           | Web:      www.OpenFOAM.org                      |
|    \\/     M anipulation  |                                                 |
\*---------------------------------------------------------------------------*/
FoamFile
{
    version     2.0;
    format      ascii;
    class       volScalarField;
    location    "1060";
    object      mag(U);
}
// * * * * * * * * * * * * * * * * * * * * * * * * * * * * * * * * * * * * * //

dimensions      [0 1 -1 0 0 0 0];

internalField   nonuniform List<scalar> 
5000
(
0.00529429
0.00588319
0.0067535
0.00688345
0.00669136
0.00629543
0.00568755
0.00488499
0.00394132
0.00293031
0.00192842
0.00103758
0.000768485
0.00167425
0.00266398
0.00367427
0.00465878
0.0055964
0.00647976
0.00730538
0.00807071
0.00877403
0.00941463
0.00999278
0.0105095
0.0109663
0.0113651
0.0117079
0.0119967
0.0122336
0.0124204
0.012559
0.0126515
0.0126998
0.0127067
0.0126771
0.0126125
0.0125151
0.0123873
0.0122316
0.012051
0.0118484
0.011627
0.0113899
0.0111395
0.0108771
0.0106021
0.0103107
0.00999599
0.00964805
0.00925763
0.00882591
0.00838512
0.0080272
0.00791372
0.00811406
0.00843104
0.00829451
0.00786007
0.00352045
0.00470283
0.00579844
0.00706384
0.00822168
0.00933894
0.0104405
0.0115264
0.0125802
0.0135735
0.0144699
0.0152299
0.0158133
0.0161809
0.016294
0.0161222
0.015642
0.0148389
0.0137127
0.0122724
0.0105396
0.00856313
0.00643132
0.00427406
0.0022049
0.00125845
0.00230594
0.0036278
0.00480596
0.00574872
0.00645346
0.00694103
0.00724293
0.00739983
0.00745658
0.00745251
0.00741911
0.00734962
0.00710759
0.00619472
0.00562456
0.00707775
0.00494978
0.00535455
0.00561673
0.00562895
0.00539728
0.0049384
0.00428119
0.00349432
0.00267574
0.00197715
0.00165958
0.00203501
0.00268691
0.00350668
0.00441141
0.00534087
0.0062599
0.0071491
0.00799731
0.00879753
0.00954544
0.0102386
0.010876
0.0114577
0.0119844
0.0124572
0.0128775
0.0132466
0.0135658
0.0138365
0.0140596
0.0142363
0.0143676
0.0144544
0.0144956
0.0144941
0.014451
0.0143678
0.0142462
0.0140882
0.013896
0.0136719
0.0134186
0.0131385
0.012834
0.012507
0.0121585
0.0117897
0.0114023
0.0110018
0.0106033
0.0102387
0.00995003
0.0097379
0.00958251
0.00943169
0.0090354
0.00964582
0.00898903
0.00509129
0.00538228
0.00681216
0.00816156
0.00941795
0.0106153
0.0117628
0.0128492
0.0138488
0.0147268
0.0154447
0.0159649
0.016254
0.0162816
0.0160262
0.0155013
0.0147039
0.0136418
0.0123305
0.0107999
0.00910664
0.00734371
0.00564164
0.00413221
0.00282397
0.00283097
0.00360543
0.00454376
0.00536731
0.00599906
0.00642573
0.00665812
0.00672381
0.00665389
0.00649065
0.00626687
0.00599366
0.00564195
0.00523288
0.00754907
0.00959768
0.00488678
0.00412968
0.00444884
0.00467384
0.00460537
0.00433928
0.00392795
0.00343877
0.00297396
0.00270115
0.0027524
0.00306508
0.00357353
0.00424464
0.00501692
0.00583932
0.00667573
0.00750227
0.00830347
0.0090693
0.0097933
0.0104715
0.0111017
0.0116829
0.0122149
0.012698
0.0131329
0.0135203
0.0138607
0.0141549
0.0144035
0.0146066
0.0147647
0.0148775
0.0149447
0.0149667
0.0149445
0.0148791
0.0147713
0.0146224
0.0144335
0.014206
0.0139416
0.0136424
0.0133114
0.0129525
0.0125714
0.0121758
0.0117758
0.0113824
0.0110037
0.0106364
0.0102613
0.0098572
0.00940009
0.00886736
0.00863275
0.0107418
0.0129274
0.00998558
0.00576649
0.00619968
0.00728537
0.00843208
0.00956785
0.0106686
0.0117109
0.0126647
0.0134954
0.0141673
0.0146484
0.014913
0.0149385
0.0147213
0.0142876
0.0136443
0.0128091
0.011804
0.0106615
0.00943104
0.00817803
0.00697509
0.00587344
0.00473506
0.00421312
0.00430649
0.00475022
0.00527797
0.00574093
0.00607111
0.00624062
0.00624022
0.00606905
0.00574729
0.00529611
0.00473918
0.00426054
0.00507719
0.0102521
0.0117253
0.00545505
0.00370343
0.0037375
0.00393475
0.00400615
0.00400295
0.00393521
0.00377677
0.00359155
0.00354467
0.00368915
0.00396535
0.00440275
0.00496891
0.00562492
0.00633583
0.0070729
0.00781424
0.00854411
0.0092515
0.0099289
0.0105713
0.0111755
0.0117396
0.0122625
0.0127436
0.0131827
0.0135798
0.0139346
0.0142471
0.014517
0.014744
0.0149277
0.0150675
0.015163
0.015213
0.0152177
0.0151777
0.0150933
0.0149653
0.0147943
0.0145811
0.0143271
0.0140338
0.0137038
0.0133409
0.0129505
0.0125401
0.0121188
0.0116946
0.0112687
0.0108287
0.0103461
0.00979002
0.00914465
0.00848713
0.00840821
0.0113265
0.0153467
0.0145006
0.00917392
0.00637338
0.0066967
0.00748279
0.00839909
0.00934437
0.0102614
0.0111058
0.0118386
0.012426
0.0128423
0.013071
0.0131008
0.0129424
0.0126433
0.012218
0.0116911
0.0110862
0.0104264
0.00973062
0.0090058
0.00824568
0.00742942
0.0064249
0.00567972
0.00531635
0.00527473
0.00542501
0.0056391
0.00582174
0.00591093
0.00586345
0.00566254
0.00530411
0.00480418
0.00421016
0.00383971
0.00558867
0.0125359
0.0133762
0.00608516
0.00366553
0.00327095
0.00333857
0.00356112
0.0039041
0.00421233
0.00429763
0.00426442
0.00432872
0.00451925
0.00481743
0.00522609
0.00572118
0.00628015
0.00688313
0.00751237
0.00815262
0.0087916
0.00941979
0.0100301
0.0106173
0.0111776
0.0117083
0.0122077
0.0126741
0.0131066
0.0135041
0.0138657
0.0141903
0.0144771
0.0147249
0.0149325
0.0150989
0.0152229
0.0153034
0.0153388
0.0153292
0.0152745
0.015175
0.015031
0.0148431
0.0146123
0.0143399
0.0140279
0.0136791
0.0132976
0.0128882
0.0124562
0.0120047
0.011531
0.0110218
0.0104538
0.00980428
0.00907091
0.00834957
0.00828943
0.0114265
0.0165095
0.0175183
0.0137378
0.00855949
0.00670446
0.00692084
0.00747555
0.0081375
0.00880925
0.00943225
0.00996651
0.0103868
0.0106809
0.0108467
0.010887
0.0108208
0.0107099
0.0105683
0.0104227
0.0102916
0.0101744
0.0100374
0.00981565
0.0094329
0.00883052
0.00792548
0.00707949
0.00641984
0.00598699
0.00576021
0.00568135
0.00567346
0.00566016
0.00557512
0.00537929
0.00505304
0.00460993
0.00411485
0.00394517
0.00618312
0.0143073
0.0147269
0.0066818
0.00379928
0.00295345
0.00283213
0.0032499
0.00401123
0.00464324
0.0048476
0.0048902
0.00503704
0.00529311
0.00563963
0.0060477
0.00649742
0.00697762
0.00748116
0.00800181
0.00853329
0.00906934
0.00960411
0.0101323
0.0106495
0.0111519
0.0116363
0.0121001
0.012541
0.0129569
0.013346
0.0137063
0.0140361
0.0143335
0.0145967
0.0148238
0.0150132
0.015163
0.0152721
0.0153381
0.0153599
0.0153371
0.0152693
0.0151566
0.0149993
0.014798
0.0145536
0.0142677
0.0139421
0.0135792
0.0131817
0.0127516
0.0122887
0.0117885
0.0112396
0.0106253
0.00993142
0.00916267
0.00841134
0.00827776
0.0112161
0.0167527
0.0192146
0.0171995
0.0126713
0.00840718
0.00690117
0.00700888
0.00732281
0.00764497
0.00792618
0.00813653
0.00827485
0.00835962
0.00841664
0.00846849
0.00853042
0.00866903
0.00887496
0.00916501
0.00954525
0.00998066
0.0103754
0.0105979
0.0105256
0.0100793
0.00925928
0.00835728
0.00749683
0.00676442
0.00620585
0.00583167
0.00561231
0.00548444
0.0053715
0.00521246
0.00496998
0.00464867
0.00431089
0.00432695
0.0067811
0.0157651
0.0158852
0.00723372
0.00399582
0.0027229
0.00237833
0.00307838
0.00429429
0.00512848
0.00535449
0.00545225
0.00568393
0.00603101
0.00643764
0.00685976
0.00727931
0.00769358
0.00810613
0.00852148
0.00894271
0.00937077
0.00980474
0.0102424
0.0106808
0.0111166
0.0115464
0.011967
0.0123752
0.0127679
0.0131422
0.0134954
0.0138246
0.0141271
0.0144004
0.014642
0.0148495
0.0150208
0.0151539
0.0152472
0.015298
0.0153056
0.0152694
0.0151888
0.0150637
0.0148944
0.0146814
0.0144256
0.0141281
0.0137901
0.0134128
0.0129962
0.0125389
0.0120361
0.0114792
0.0108572
0.010162
0.00940221
0.00866071
0.00842903
0.0108734
0.0163402
0.0198264
0.0194242
0.0162612
0.0120344
0.00859066
0.00717091
0.00708088
0.00705078
0.00693076
0.00670084
0.00640057
0.00611502
0.00595258
0.00599949
0.00624805
0.00673356
0.00735774
0.00811057
0.00898734
0.00992625
0.0107753
0.0113576
0.0115229
0.0111824
0.010446
0.0095007
0.0084937
0.00753024
0.00669447
0.00604843
0.00561713
0.00537242
0.00524374
0.00515052
0.0050306
0.00486665
0.00469911
0.00486101
0.00738955
0.017035
0.0168955
0.00772687
0.00419097
0.0025345
0.00196343
0.0030752
0.00471471
0.00558736
0.00579139
0.00595506
0.00629166
0.00674037
0.00720959
0.00764855
0.00804268
0.00839692
0.00872406
0.00903809
0.00935076
0.00967028
0.0100012
0.0103449
0.0107006
0.0110658
0.0114371
0.0118107
0.0121826
0.0125488
0.0129052
0.0132479
0.0135732
0.0138775
0.0141574
0.0144097
0.0146315
0.0148202
0.0149733
0.0150897
0.0151656
0.0152002
0.0151926
0.0151421
0.0150484
0.0149111
0.0147304
0.0145068
0.0142407
0.0139326
0.0135827
0.0131904
0.012754
0.0122698
0.0117323
0.011135
0.0104751
0.00976404
0.00907385
0.00877543
0.0105795
0.0155089
0.0195846
0.0205311
0.0188146
0.0155485
0.0118796
0.00900358
0.00767323
0.00714427
0.00668882
0.00603644
0.00521746
0.00434212
0.00366765
0.00360126
0.00413066
0.00511808
0.00622727
0.00742371
0.00872045
0.01006
0.0112582
0.0120994
0.0124192
0.0121745
0.0114845
0.0105073
0.00938512
0.00823836
0.00717426
0.00629056
0.00566244
0.00530912
0.00518076
0.00517976
0.00520882
0.00521531
0.00520749
0.00547733
0.00800483
0.0181718
0.017782
0.00815115
0.00434602
0.00235288
0.00160644
0.00327246
0.00520805
0.00596407
0.00615377
0.00640956
0.00687145
0.00742129
0.00794635
0.00839593
0.0087618
0.00905661
0.00930113
0.00951731
0.00972448
0.00993751
0.0101663
0.010416
0.0106882
0.0109815
0.0112928
0.0116179
0.0119519
0.0122897
0.0126264
0.0129569
0.0132764
0.0135805
0.013865
0.0141258
0.0143596
0.0145631
0.0147335
0.0148691
0.0149673
0.0150257
0.0150439
0.0150211
0.0149568
0.0148507
0.0147025
0.0145123
0.0142803
0.0140064
0.0136907
0.0133324
0.0129303
0.0124823
0.0119857
0.0114383
0.0108419
0.0102104
0.00960525
0.00929377
0.0104829
0.014515
0.0187292
0.0206974
0.0203159
0.0182409
0.0152288
0.012073
0.00963948
0.00816533
0.00723366
0.00629736
0.0051155
0.00370878
0.0022626
0.00123418
0.00238919
0.00404737
0.00563117
0.00718437
0.00878042
0.0103947
0.0118243
0.0128084
0.0132239
0.0130525
0.0123888
0.0113757
0.0101564
0.00886003
0.00760799
0.00652279
0.00572234
0.0052776
0.00516975
0.00528478
0.00547864
0.00565435
0.0057872
0.00613523
0.0086218
0.0192054
0.0185641
0.00850492
0.00444196
0.0021532
0.00136718
0.00369851
0.00566791
0.00623294
0.00644457
0.00682994
0.00742638
0.00806761
0.00863382
0.00908207
0.00941291
0.00964639
0.00980987
0.00993172
0.0100375
0.0101479
0.0102775
0.0104353
0.010625
0.0108467
0.0110974
0.0113728
0.0116673
0.011975
0.0122898
0.0126058
0.0129174
0.0132192
0.0135061
0.0137737
0.0140178
0.0142347
0.0144213
0.0145749
0.0146942
0.014775
0.0148173
0.0148207
0.0147847
0.0147089
0.0145934
0.0144379
0.0142426
0.0140073
0.0137319
0.0134161
0.0130595
0.0126613
0.0122217
0.0117419
0.0112275
0.0106943
0.0101943
0.00991583
0.0106343
0.0136156
0.0175263
0.0201393
0.0208694
0.0199753
0.0179086
0.015197
0.0124764
0.0102363
0.00858793
0.00723494
0.00584668
0.0042897
0.00259634
0.000957218
0.00181581
0.00376978
0.00561395
0.00737728
0.00913913
0.0108732
0.0123949
0.0134744
0.013957
0.0138222
0.0131584
0.0121023
0.0107971
0.00937618
0.00796918
0.00671657
0.00577276
0.00526057
0.0051977
0.00545018
0.00581648
0.00615271
0.00640654
0.00681147
0.00923848
0.020158
0.0192589
0.00879367
0.00447534
0.00192004
0.00134002
0.00436367
0.00596678
0.00639825
0.00668328
0.00722388
0.00795342
0.00866744
0.00925535
0.00968858
0.00997736
0.010148
0.0102329
0.0102652
0.0102756
0.0102892
0.0103249
0.0103948
0.0105047
0.0106559
0.0108459
0.0110701
0.0113226
0.0115968
0.0118861
0.0121836
0.0124831
0.0127786
0.0130645
0.0133357
0.0135875
0.013816
0.0140175
0.0141887
0.0143292
0.0144325
0.0144991
0.0145289
0.0145214
0.0144767
0.0143949
0.0142761
0.0141203
0.0139277
0.0136983
0.0134323
0.0131298
0.0127917
0.0124199
0.0120185
0.0115952
0.0111672
0.0107777
0.0105577
0.0109752
0.0129893
0.0162494
0.0190992
0.0206499
0.0207958
0.0197261
0.0177554
0.0153216
0.0128678
0.0107014
0.00885331
0.00716289
0.0054904
0.00384149
0.00260331
0.00284224
0.00430427
0.00605496
0.00784299
0.00965205
0.011434
0.0130005
0.0141104
0.0146086
0.0144731
0.0137865
0.0126813
0.0112989
0.00977345
0.00823904
0.0068497
0.00579265
0.00524176
0.00525281
0.00566168
0.00620221
0.00668717
0.00704447
0.00749152
0.00985311
0.0210454
0.0198819
0.00902847
0.00445806
0.00167775
0.00157519
0.00501778
0.00610038
0.00648438
0.00688164
0.00759749
0.00844481
0.00920607
0.00979549
0.010202
0.0104444
0.0105535
0.010565
0.0105152
0.0104386
0.0103641
0.0103138
0.0103022
0.0103371
0.0104203
0.0105499
0.0107215
0.0109288
0.011165
0.0114231
0.0116958
0.0119766
0.0122592
0.0125376
0.0128065
0.0130611
0.0132969
0.0135102
0.013697
0.0138582
0.0139849
0.0140769
0.0141342
0.0141569
0.014145
0.0140989
0.0140192
0.0139062
0.0137603
0.0135818
0.0133713
0.0131296
0.0128583
0.0125607
0.012242
0.0119115
0.0115858
0.0113001
0.011145
0.0113936
0.0126694
0.0151239
0.0178293
0.0198662
0.0208391
0.020689
0.0195434
0.0176752
0.0154311
0.0131362
0.0109819
0.00900256
0.00716967
0.00552293
0.00436342
0.00427029
0.00528874
0.00680585
0.00849311
0.0102632
0.0120305
0.0135868
0.0146812
0.015156
0.01499
0.0142637
0.013106
0.0116551
0.0100429
0.00840462
0.00690565
0.00576486
0.00520757
0.00532507
0.00590677
0.00661914
0.00723994
0.0076855
0.00816407
0.010462
0.0218783
0.0204476
0.00922348
0.00440402
0.00142811
0.00233166
0.00531597
0.00614316
0.00649738
0.00705906
0.00795431
0.008889
0.0096694
0.0102437
0.0106168
0.0108134
0.0108665
0.0108132
0.0106922
0.0105404
0.0103896
0.0102644
0.0101808
0.0101476
0.0101674
0.0102385
0.0103565
0.0105154
0.0107082
0.010928
0.0111678
0.0114209
0.011681
0.0119424
0.0121999
0.0124486
0.0126842
0.0129028
0.0131007
0.0132746
0.0134242
0.013542
0.0136286
0.0136839
0.0137077
0.0137005
0.013663
0.0135961
0.0135004
0.0133768
0.0132261
0.0130493
0.0128486
0.0126274
0.0123914
0.0121496
0.011917
0.0117214
0.0116248
0.0117849
0.0125676
0.0142633
0.0165505
0.0187383
0.0202793
0.0208984
0.0205427
0.019339
0.017533
0.0154125
0.0132197
0.0111048
0.00915119
0.0074581
0.00627209
0.00590214
0.00649984
0.00770336
0.0092062
0.0108792
0.0125938
0.0141064
0.0151512
0.0155726
0.015355
0.0145794
0.0133706
0.0118617
0.0101795
0.0084582
0.00687318
0.00567678
0.00514813
0.00540678
0.00617484
0.00705344
0.00779656
0.00831668
0.00881856
0.0110591
0.0226634
0.0209681
0.0093923
0.00432592
0.001176
0.00330156
0.00549903
0.00608785
0.00647172
0.00724207
0.00829113
0.00927262
0.0100477
0.0105973
0.0109371
0.0110942
0.0111014
0.0109961
0.010818
0.0106059
0.0103937
0.0102073
0.0100637
0.00997214
0.00993514
0.00995116
0.0100159
0.0101237
0.0102681
0.0104423
0.0106398
0.0108544
0.0110804
0.0113126
0.0115462
0.011777
0.0120013
0.0122153
0.0124159
0.012599
0.0127664
0.012907
0.0130215
0.0131093
0.0131698
0.0132032
0.0132101
0.0131917
0.0131489
0.0130827
0.012994
0.0128841
0.0127547
0.0126091
0.0124522
0.0122917
0.01214
0.012018
0.0119676
0.0120798
0.0125568
0.0136552
0.0154073
0.017465
0.0193032
0.0204964
0.0208255
0.0202776
0.0189978
0.0172193
0.015186
0.0131005
0.0111185
0.00938959
0.00813803
0.00753791
0.00774908
0.00860298
0.00987348
0.0114192
0.0130621
0.0145104
0.0154821
0.0158307
0.015551
0.0147252
0.0134726
0.0119188
0.0101835
0.00839711
0.00674591
0.00551974
0.00505756
0.0054932
0.00645724
0.00749338
0.00834446
0.00892609
0.00944436
0.0116368
0.0234042
0.0214521
0.00954347
0.00423074
0.000902911
0.00411294
0.00559039
0.0059637
0.00646053
0.00744798
0.00859504
0.009584
0.010339
0.0108633
0.0111769
0.0113059
0.0112813
0.0111399
0.0109216
0.0106662
0.010409
0.0101767
0.00998674
0.00984778
0.00976214
0.0097281
0.0097415
0.00979696
0.00988854
0.0100102
0.0101561
0.0103209
0.0104998
0.0106887
0.0108838
0.011082
0.0112806
0.0114767
0.0116679
0.0118501
0.0120274
0.0121855
0.0123247
0.0124435
0.0125406
0.0126154
0.0126681
0.0126996
0.012711
0.0127033
0.0126773
0.012634
0.0125746
0.0125013
0.0124177
0.0123294
0.0122456
0.0121811
0.0121633
0.012245
0.0125344
0.0132118
0.0144481
0.0161944
0.0180844
0.0196404
0.020508
0.0205423
0.0197878
0.0184149
0.0166467
0.0147019
0.0127739
0.0110427
0.00971744
0.00893208
0.00881883
0.00934548
0.0103852
0.0118079
0.0133801
0.0147542
0.0156391
0.0159068
0.0155664
0.0146991
0.0134159
0.0118329
0.0100604
0.00822382
0.00652195
0.00528882
0.00493452
0.00558257
0.00674706
0.00792873
0.00887215
0.00950227
0.0100307
0.0121865
0.0241024
0.0219047
0.00967987
0.00412035
0.000596931
0.00465863
0.00555753
0.00581645
0.00650128
0.00766271
0.00884622
0.00981758
0.0105505
0.0110576
0.0113578
0.0114738
0.0114344
0.0112744
0.0110337
0.0107524
0.0104665
0.0102033
0.00997996
0.0098045
0.00967859
0.00960016
0.00956502
0.00956811
0.00960395
0.00966722
0.00975297
0.00985698
0.00997578
0.0101066
0.0102475
0.0103969
0.0105536
0.0107163
0.0108837
0.0110523
0.011228
0.0113962
0.0115545
0.0117008
0.0118329
0.0119487
0.0120476
0.0121297
0.0121958
0.0122465
0.0122826
0.0123041
0.0123116
0.012306
0.0122888
0.0122633
0.0122352
0.012214
0.0122167
0.0122737
0.0124421
0.0128364
0.0136467
0.0150085
0.0167637
0.0184822
0.0197257
0.0202325
0.0199485
0.0189778
0.0175101
0.0157602
0.0139354
0.0122305
0.0108427
0.00992763
0.00955224
0.00980274
0.0106538
0.0119899
0.0135073
0.0148042
0.0155972
0.0157883
0.0154007
0.0145099
0.0132136
0.0116175
0.00982187
0.00794571
0.00620324
0.00498235
0.00478282
0.00567583
0.00703866
0.00835019
0.00936881
0.0100341
0.0105668
0.0126991
0.0247583
0.02233
0.00980234
0.00399573
0.000301576
0.00489018
0.00539207
0.00569274
0.00658889
0.00784521
0.00902679
0.0099761
0.0106969
0.0112018
0.0115052
0.0116256
0.011589
0.011428
0.0111816
0.0108904
0.0105901
0.0103085
0.0100625
0.00985946
0.00970035
0.00958269
0.00950201
0.00945342
0.00943174
0.00943219
0.00945062
0.00948406
0.00953059
0.00958927
0.00966021
0.00974423
0.00984235
0.00995538
0.0100835
0.0102255
0.0103804
0.0105513
0.0107233
0.0108939
0.0110594
0.0112158
0.011361
0.011494
0.0116148
0.0117234
0.0118199
0.0119037
0.0119742
0.0120307
0.0120729
0.0121013
0.0121182
0.0121288
0.0121424
0.0121759
0.0122591
0.0124618
0.0129475
0.0139319
0.0154392
0.0171544
0.0186161
0.0194714
0.0195747
0.0189631
0.0177867
0.016244
0.0145412
0.0128764
0.0114396
0.0104076
0.00985193
0.00990006
0.0106342
0.0119411
0.0134237
0.0146419
0.0153466
0.0154786
0.0150692
0.0141792
0.0128887
0.0112937
0.00948512
0.00757443
0.00579481
0.00460137
0.00461236
0.00577612
0.00732717
0.00874904
0.00982405
0.0105108
0.0110426
0.0131659
0.0253714
0.0227327
0.00991458
0.00386081
0.00033164
0.00478916
0.0051101
0.00559669
0.00668698
0.00797591
0.00913057
0.010071
0.0107982
0.0113199
0.011645
0.0117872
0.0117695
0.0116235
0.0113859
0.0110977
0.0107938
0.0105027
0.0102415
0.0100167
0.0098291
0.00967576
0.00955179
0.00945231
0.00937204
0.00930656
0.00925216
0.0092071
0.0091709
0.0091446
0.00913089
0.00913355
0.00915665
0.0092038
0.00927765
0.00937928
0.00950681
0.00966707
0.00984354
0.0100335
0.0102305
0.0104276
0.0106199
0.0108048
0.0109806
0.0111467
0.011302
0.0114453
0.0115747
0.011688
0.0117828
0.0118572
0.0119106
0.0119441
0.0119619
0.011972
0.0119894
0.0120566
0.012302
0.0129569
0.0141697
0.0157638
0.0173075
0.0183899
0.018787
0.0184719
0.0175524
0.0162034
0.0146206
0.0129983
0.0115239
0.0103793
0.00969817
0.0096221
0.0103329
0.0116715
0.0131294
0.0142668
0.014898
0.015002
0.0146052
0.0137423
0.0124733
0.010888
0.00907125
0.00712489
0.00530489
0.00415031
0.00443603
0.00588667
0.00760778
0.00911668
0.0102278
0.0109225
0.0114492
0.0135794
0.025941
0.0231193
0.0100243
0.00372155
0.0007638
0.00445038
0.00475236
0.00550041
0.00674228
0.0080422
0.00918454
0.0101316
0.0108823
0.0114367
0.0117983
0.0119775
0.0119943
0.0118774
0.0116605
0.0113839
0.0110839
0.010788
0.0105148
0.0102709
0.0100569
0.00986927
0.00970295
0.00955288
0.00941333
0.00927997
0.00914901
0.00901965
0.00889255
0.00877044
0.0086588
0.00856495
0.00849678
0.0084618
0.00846625
0.00851425
0.00860521
0.00874731
0.00892255
0.00912828
0.00935558
0.00959418
0.00983568
0.0100744
0.0103069
0.0105306
0.0107439
0.0109442
0.0111288
0.011294
0.0114356
0.0115496
0.0116328
0.0116831
0.0117007
0.0116882
0.0116519
0.0116179
0.0116846
0.0120691
0.0129881
0.0143916
0.015913
0.0171162
0.0177164
0.0176293
0.0169207
0.0157385
0.0142616
0.0126757
0.011167
0.00992515
0.00914882
0.00902091
0.00980645
0.011216
0.0126394
0.0136975
0.0142854
0.0144045
0.0140577
0.0132444
0.0120045
0.0104293
0.00860286
0.00661368
0.0047392
0.00364719
0.00427777
0.00601231
0.00787536
0.00944433
0.0105708
0.0112608
0.0117794
0.013934
0.0264666
0.0234963
0.0101414
0.00359166
0.00114174
0.00395953
0.00437839
0.00539066
0.00673658
0.00804622
0.0091997
0.0101779
0.0109729
0.0115776
0.0119902
0.0122175
0.0122771
0.0121962
0.012009
0.0117528
0.0114619
0.0111617
0.0108773
0.0106133
0.0103719
0.0101494
0.00994015
0.00973917
0.00953978
0.00933776
0.00912833
0.0089114
0.008688
0.00846182
0.00824096
0.00803646
0.00786068
0.00772622
0.00764459
0.00762457
0.0076684
0.00778654
0.00795833
0.00818025
0.00844042
0.00872442
0.00901945
0.0093161
0.00960803
0.00989108
0.0101621
0.0104179
0.0106547
0.0108678
0.0110515
0.0112001
0.0113083
0.0113715
0.0113871
0.0113539
0.0112732
0.011161
0.0110931
0.0112629
0.0119157
0.0131002
0.014529
0.0157689
0.0164928
0.0165688
0.0160235
0.0149756
0.0135838
0.012021
0.0104707
0.00913578
0.00827576
0.00818563
0.00913671
0.0106131
0.0119786
0.012975
0.0135671
0.0137497
0.0134851
0.0127339
0.0115193
0.00994507
0.00810176
0.00605903
0.00411027
0.00311749
0.00416355
0.00615562
0.0081233
0.00972316
0.0108448
0.0115195
0.0120291
0.0142265
0.0269486
0.0238698
0.0102738
0.00348132
0.0013675
0.0033511
0.00403041
0.00526354
0.006679
0.00801217
0.00920192
0.0102326
0.0110892
0.0117587
0.0122347
0.0125208
0.0126317
0.0125923
0.0124352
0.0121978
0.0119162
0.0116188
0.0113228
0.0110352
0.0107636
0.0105037
0.0102493
0.00999659
0.00973695
0.00946679
0.00917902
0.00887412
0.0085525
0.00821752
0.00787911
0.0075516
0.00725183
0.00699848
0.00681057
0.00670457
0.00668823
0.00677673
0.00694536
0.0071884
0.00748912
0.00782707
0.00818367
0.00854487
0.00890108
0.00924613
0.00957577
0.00988619
0.010173
0.0104308
0.010653
0.0108326
0.0109626
0.0110369
0.0110506
0.0110001
0.0108838
0.0107111
0.010542
0.0105457
0.0109727
0.0119397
0.0132371
0.0144533
0.015238
0.0154219
0.0149966
0.0140514
0.0127217
0.0111633
0.00955363
0.00811361
0.00717141
0.0072378
0.00839976
0.00989047
0.0111864
0.0121664
0.0128209
0.0131079
0.012944
0.0122544
0.0110501
0.00945818
0.00758689
0.0054799
0.00343177
0.00260617
0.00412026
0.00631444
0.00834322
0.00994508
0.0110442
0.0116956
0.0121974
0.014457
0.0273882
0.0242446
0.0104278
0.00340664
0.00136189
0.002773
0.00374378
0.00513091
0.00659559
0.00796856
0.00921472
0.0103143
0.011246
0.0119915
0.0125407
0.0128939
0.0130628
0.0130696
0.0129455
0.0127268
0.0124496
0.0121447
0.0118342
0.0115283
0.0112235
0.0109227
0.0106203
0.0103146
0.00999436
0.00965803
0.00929436
0.00890424
0.00848679
0.00804318
0.00758377
0.00712472
0.00668612
0.00629259
0.00597279
0.00575548
0.00565953
0.00571042
0.00587835
0.00615253
0.00650805
0.00691453
0.00734514
0.00778028
0.00820702
0.00861754
0.00900699
0.00937143
0.00970647
0.0100064
0.0102642
0.0104721
0.0106221
0.010707
0.0107206
0.0106578
0.010515
0.010298
0.0100555
0.00993605
0.0101826
0.0109531
0.0121051
0.0132605
0.0140609
0.0143105
0.0139709
0.0131023
0.0118139
0.0102387
0.00854301
0.00697014
0.00598572
0.00631145
0.00762722
0.0090707
0.0103303
0.0113629
0.0121297
0.0125414
0.012479
0.0118392
0.010621
0.00898519
0.00707334
0.00489807
0.00273303
0.0021939
0.00415986
0.00648071
0.00852635
0.0101043
0.0111668
0.0117902
0.0122876
0.0146286
0.0277882
0.0246245
0.0106094
0.00340323
0.00115144
0.00237428
0.00355215
0.00501906
0.00651984
0.00794308
0.00925755
0.0104362
0.0114517
0.0122814
0.0129113
0.0133382
0.0135703
0.0136272
0.0135378
0.0133374
0.0130627
0.0127463
0.0124124
0.0120747
0.0117374
0.0113992
0.0110464
0.010687
0.0103064
0.0099067
0.00947166
0.00900232
0.00849624
0.00795049
0.00737397
0.00678235
0.00619603
0.00564266
0.00516011
0.00479423
0.00458651
0.00457888
0.0047528
0.00507724
0.00551156
0.00600847
0.00652966
0.00704965
0.00755315
0.0080319
0.00848147
0.00889867
0.0092797
0.00961915
0.00990998
0.0101441
0.0103131
0.0104091
0.0104254
0.0103561
0.0101969
0.00995139
0.00966087
0.00945745
0.0095702
0.0101771
0.0111887
0.0122659
0.0130548
0.0133431
0.0130665
0.0122575
0.0109963
0.00938341
0.00755861
0.00580944
0.00485717
0.00545215
0.00679952
0.0082059
0.00951372
0.0106615
0.0115608
0.0120914
0.0121157
0.0115067
0.0102464
0.0085356
0.00657097
0.00433635
0.00205848
0.00196313
0.00427048
0.006643
0.00866574
0.0101986
0.0112147
0.011809
0.0123065
0.0147472
0.028152
0.0250137
0.0108239
0.00350925
0.0010652
0.00227748
0.00349181
0.00496346
0.00648432
0.00795779
0.00934317
0.0106045
0.0117084
0.0126276
0.0133438
0.0138499
0.0141504
0.014261
0.0142083
0.0140261
0.0137516
0.0134196
0.0130574
0.0126821
0.0123008
0.0119147
0.0115195
0.0111107
0.0106712
0.0102112
0.00971234
0.00917143
0.00858809
0.00795343
0.00727269
0.00655913
0.00582966
0.00510811
0.00443427
0.00386909
0.0034897
0.0033866
0.00357251
0.00398067
0.00453216
0.00514864
0.00577813
0.00639169
0.00697479
0.00752112
0.00802832
0.00849491
0.00891827
0.0092937
0.00961449
0.00987262
0.0100597
0.0101678
0.0101902
0.0101209
0.00995572
0.00969754
0.00938333
0.00913235
0.00915717
0.00964042
0.0105304
0.0115292
0.0122971
0.0126118
0.0123873
0.0116299
0.0103904
0.00871498
0.00666286
0.00468998
0.0038509
0.00458057
0.00593469
0.00741491
0.00885327
0.0101358
0.011151
0.0117733
0.0118593
0.0112596
0.00993054
0.00811251
0.0060826
0.00380982
0.00145031
0.00194928
0.00442763
0.00678811
0.00875766
0.0102315
0.0111958
0.0117619
0.0122645
0.0148209
0.0284844
0.0254164
0.0110791
0.00377499
0.00158466
0.00251226
0.00359536
0.00499927
0.00651402
0.00802575
0.00947594
0.0108178
0.0120109
0.0130226
0.0138297
0.0144202
0.0147942
0.0149632
0.0149502
0.0147872
0.0145115
0.0141603
0.013765
0.0133469
0.0129171
0.0124787
0.0120299
0.0115676
0.011084
0.0105725
0.0100196
0.00941551
0.00876885
0.00806434
0.00730184
0.0064897
0.00564148
0.00476985
0.00390196
0.00309147
0.0024387
0.00214586
0.00235196
0.00291444
0.00364104
0.00440585
0.00515242
0.00585797
0.00651457
0.00712094
0.00767819
0.00818719
0.00864676
0.00905298
0.00939963
0.00967898
0.00988293
0.0100039
0.0100355
0.00997249
0.00981137
0.00955577
0.00924074
0.00897574
0.00895609
0.00935914
0.0101577
0.0110962
0.0118528
0.0121965
0.0120202
0.0113031
0.0100649
0.00824423
0.00575524
0.00358845
0.00282047
0.0036598
0.00518761
0.00684754
0.0084291
0.00981587
0.010906
0.011581
0.0116978
0.0110859
0.00966809
0.00771458
0.00560351
0.00331858
0.000925002
0.00210317
0.00461813
0.00691206
0.00879751
0.0102016
0.0111192
0.011662
0.0121738
0.0148592
0.0287901
0.0258386
0.0113888
0.00424811
0.00252779
0.00306147
0.00386405
0.00514883
0.00662178
0.00814938
0.00965105
0.0110666
0.012347
0.0134525
0.0143543
0.0150347
0.0154882
0.0157215
0.0157531
0.0156121
0.0153356
0.0149631
0.0145306
0.014065
0.0135821
0.0130887
0.0125855
0.0120696
0.0115347
0.010974
0.0103777
0.00973621
0.0090426
0.00829078
0.00747614
0.00659843
0.00567359
0.00470505
0.00370016
0.00267725
0.00167624
0.000909376
0.00116147
0.0020428
0.00298995
0.00389444
0.00473506
0.00550835
0.00621732
0.00686619
0.00745925
0.00799916
0.00848577
0.00891545
0.00928238
0.00957913
0.009798
0.00993201
0.00997548
0.00992419
0.0097759
0.00953581
0.00923897
0.00898773
0.00896305
0.00933821
0.0100996
0.011018
0.0117798
0.0121425
0.0119806
0.0112501
0.00993493
0.00787919
0.00473166
0.00249718
0.00168515
0.00294237
0.00476347
0.00658352
0.00825603
0.00969418
0.0108112
0.0114951
0.0116076
0.0109627
0.00944589
0.00733878
0.0051249
0.00284815
0.00048423
0.00235635
0.00480123
0.00699356
0.00879194
0.0101257
0.0109964
0.0115205
0.0120471
0.0148713
0.0290742
0.0262861
0.0117687
0.00493835
0.00360359
0.00376824
0.00430105
0.00541315
0.0068069
0.00832036
0.00985455
0.0113335
0.0126969
0.0138969
0.014897
0.0156732
0.0162137
0.0165191
0.0166024
0.0164889
0.0162143
0.0158204
0.0153483
0.0148314
0.0142918
0.0137407
0.0131817
0.0126138
0.0120317
0.0114279
0.0107923
0.0101152
0.00938945
0.00860923
0.00777224
0.00687982
0.00593516
0.00494408
0.00391286
0.00285071
0.0017804
0.000747118
0.000812574
0.00181467
0.00281138
0.00374316
0.00460353
0.00539396
0.00611875
0.00678352
0.00739268
0.00794844
0.00845019
0.00889423
0.00927444
0.00958349
0.00981415
0.00996013
0.0100166
0.00998029
0.00985065
0.00963584
0.00937526
0.00917253
0.0092002
0.00961633
0.0104073
0.0113365
0.0120893
0.0124201
0.0121896
0.0113238
0.00974514
0.00724529
0.00394206
0.00171266
0.000794013
0.00270487
0.00471128
0.00660199
0.00830492
0.00974564
0.0108442
0.0114925
0.0115623
0.0108627
0.00924512
0.00698133
0.00464069
0.00237983
0.000313473
0.00263241
0.00496899
0.00705431
0.00875896
0.01002
0.010844
0.0113487
0.0118954
0.0148654
0.0293408
0.0267634
0.0122319
0.00582072
0.00475062
0.00463835
0.00491329
0.00577896
0.00705618
0.0085205
0.0100639
0.0115931
0.013034
0.0143281
0.0154304
0.0163092
0.0169457
0.0173333
0.0174785
0.0174011
0.0171345
0.0167219
0.0162099
0.0156396
0.0150406
0.0144298
0.0138145
0.0131955
0.012569
0.0119273
0.0112608
0.01056
0.00981706
0.00902706
0.00818857
0.00730409
0.00638013
0.00542633
0.00445808
0.00350536
0.00263512
0.00200969
0.00192367
0.00243477
0.00318595
0.00399003
0.00477829
0.00552641
0.00622657
0.00687834
0.00748204
0.008037
0.00854076
0.00898879
0.00937432
0.00969015
0.00992942
0.0100864
0.0101572
0.0101394
0.0100345
0.00985548
0.00965026
0.00953292
0.00967999
0.0102271
0.011106
0.012043
0.0127254
0.0129185
0.0124796
0.0113139
0.00931921
0.00640593
0.0034165
0.00137
0.000794256
0.00291023
0.00495454
0.00684667
0.0085355
0.00994241
0.0109824
0.0115522
0.011539
0.0107602
0.00904399
0.00663612
0.00415014
0.00190224
0.000597091
0.00292117
0.00513833
0.00710604
0.0087099
0.00989532
0.0106722
0.0111574
0.0117269
0.0148479
0.0295936
0.0272726
0.0127859
0.00685099
0.00593473
0.00559192
0.0056029
0.00624071
0.00734049
0.0087224
0.0102487
0.0118126