/*--------------------------------*- C++ -*----------------------------------*\
| =========                 |                                                 |
| \\      /  F ield         | OpenFOAM: The Open Source CFD Toolbox           |
|  \\    /   O peration     | Version:  4.1                                   |
|   \\  /    A nd           | Web:      www.OpenFOAM.org                      |
|    \\/     M anipulation  |                                                 |
\*---------------------------------------------------------------------------*/
FoamFile
{
    version     2.0;
    format      ascii;
    class       volScalarField;
    location    "1060";
    object      p_rgh;
}
// * * * * * * * * * * * * * * * * * * * * * * * * * * * * * * * * * * * * * //

dimensions      [0 2 -2 0 0 0 0];

internalField   nonuniform List<scalar> 
5000
(
0.0492003
0.0491952
0.0491961
0.0491992
0.0492034
0.049208
0.0492129
0.0492175
0.0492211
0.0492235
0.0492245
0.0492247
0.0492245
0.0492237
0.0492213
0.0492174
0.0492124
0.0492063
0.0491994
0.0491917
0.0491835
0.0491749
0.049166
0.0491569
0.0491478
0.0491388
0.04913
0.0491214
0.049113
0.0491051
0.0490975
0.0490904
0.0490837
0.0490774
0.0490716
0.0490664
0.0490617
0.0490575
0.0490538
0.0490506
0.0490478
0.0490454
0.0490433
0.0490415
0.0490399
0.0490385
0.0490371
0.0490357
0.0490343
0.049033
0.0490319
0.0490312
0.0490312
0.0490327
0.0490365
0.049041
0.0490422
0.0490414
0.0490447
0.0490614
0.0490661
0.0490553
0.049045
0.0490353
0.0490259
0.0490166
0.0490074
0.0489984
0.0489899
0.0489827
0.0489774
0.048975
0.0489763
0.0489821
0.0489927
0.0490084
0.0490285
0.0490523
0.0490781
0.0491043
0.0491283
0.0491479
0.049161
0.0491673
0.0491695
0.0491704
0.0491686
0.0491646
0.0491598
0.0491548
0.0491503
0.0491464
0.0491432
0.0491405
0.0491383
0.0491363
0.0491342
0.049132
0.0491314
0.0491372
0.0491972
0.0492208
0.0492364
0.0492408
0.0492405
0.0492411
0.0492428
0.0492451
0.0492471
0.0492485
0.049249
0.049249
0.0492487
0.0492477
0.0492457
0.0492426
0.0492385
0.0492335
0.0492277
0.0492212
0.0492142
0.0492069
0.0491993
0.0491917
0.0491841
0.0491766
0.0491693
0.0491623
0.0491557
0.0491495
0.0491437
0.0491385
0.0491337
0.0491295
0.0491257
0.0491224
0.0491194
0.0491168
0.0491146
0.0491127
0.0491112
0.04911
0.0491091
0.0491083
0.0491077
0.0491071
0.0491064
0.0491056
0.0491046
0.0491034
0.0491026
0.0491026
0.0491049
0.04911
0.0491159
0.0491208
0.0491218
0.0491027
0.0490609
0.0490466
0.0490791
0.0490805
0.0490708
0.0490607
0.0490507
0.0490408
0.0490309
0.0490211
0.0490117
0.0490033
0.0489967
0.0489928
0.0489922
0.0489957
0.0490039
0.0490175
0.0490359
0.0490581
0.0490827
0.0491079
0.0491317
0.0491519
0.0491668
0.0491761
0.0491817
0.0491847
0.0491854
0.0491841
0.0491822
0.0491805
0.0491797
0.04918
0.0491814
0.0491836
0.0491857
0.0491873
0.0491873
0.0491818
0.0491628
0.0491342
0.0491736
0.0492241
0.0492409
0.049241
0.0492396
0.0492396
0.0492408
0.0492424
0.0492438
0.0492445
0.0492447
0.0492446
0.0492445
0.0492435
0.0492416
0.0492388
0.0492349
0.0492301
0.0492245
0.0492182
0.0492114
0.0492043
0.0491969
0.0491895
0.0491821
0.0491748
0.0491677
0.049161
0.0491545
0.0491485
0.0491429
0.0491378
0.0491332
0.0491291
0.0491257
0.0491228
0.0491206
0.0491189
0.0491178
0.0491172
0.0491172
0.0491176
0.0491184
0.0491196
0.0491211
0.0491227
0.0491245
0.0491262
0.0491278
0.0491293
0.0491307
0.0491324
0.0491349
0.0491385
0.0491424
0.0491449
0.0491431
0.0491219
0.0490588
0.0490101
0.0490382
0.0490855
0.04908
0.0490705
0.0490601
0.049049
0.0490372
0.049025
0.0490127
0.0490013
0.0489917
0.0489851
0.0489824
0.0489846
0.0489922
0.0490052
0.049023
0.0490447
0.0490689
0.049094
0.0491181
0.0491391
0.0491554
0.0491664
0.0491735
0.0491777
0.0491794
0.049179
0.0491778
0.0491767
0.0491764
0.0491773
0.0491794
0.0491825
0.0491864
0.0491905
0.0491939
0.049193
0.04917
0.0491077
0.0491458
0.0492214
0.0492397
0.0492388
0.0492372
0.0492368
0.0492375
0.0492384
0.0492388
0.0492388
0.0492386
0.0492386
0.0492385
0.0492376
0.0492359
0.0492333
0.0492296
0.049225
0.0492195
0.0492134
0.0492068
0.0491998
0.0491926
0.0491854
0.0491781
0.049171
0.0491641
0.0491574
0.0491511
0.0491452
0.0491397
0.0491347
0.0491302
0.0491263
0.049123
0.0491202
0.0491181
0.0491166
0.0491157
0.0491155
0.0491158
0.0491167
0.0491181
0.04912
0.0491223
0.0491249
0.0491278
0.0491308
0.0491339
0.0491369
0.0491398
0.0491426
0.0491456
0.0491486
0.0491516
0.0491534
0.0491503
0.049128
0.0490542
0.0489736
0.0489794
0.0490434
0.0490767
0.0490694
0.0490593
0.0490474
0.049034
0.0490197
0.0490051
0.0489914
0.0489798
0.0489716
0.0489678
0.0489692
0.0489763
0.0489888
0.0490061
0.0490272
0.0490512
0.0490766
0.0491014
0.0491238
0.0491419
0.0491548
0.0491636
0.0491693
0.0491721
0.0491726
0.049172
0.0491715
0.0491717
0.049173
0.0491756
0.0491795
0.0491843
0.0491896
0.0491944
0.0491957
0.0491704
0.0490761
0.0491202
0.0492175
0.049237
0.0492361
0.0492344
0.0492338
0.0492339
0.0492338
0.0492331
0.0492321
0.0492316
0.0492318
0.0492317
0.0492311
0.0492296
0.0492271
0.0492237
0.0492193
0.049214
0.0492081
0.0492016
0.0491948
0.0491878
0.0491807
0.0491736
0.0491666
0.0491598
0.0491532
0.049147
0.0491412
0.0491357
0.0491308
0.0491263
0.0491225
0.0491192
0.0491165
0.0491144
0.0491131
0.0491123
0.0491122
0.0491127
0.0491138
0.0491155
0.0491177
0.0491204
0.0491235
0.0491269
0.0491305
0.0491343
0.0491381
0.0491419
0.0491455
0.049149
0.0491523
0.0491552
0.0491569
0.0491536
0.0491315
0.0490542
0.0489499
0.0489244
0.0489746
0.0490403
0.0490618
0.049053
0.0490409
0.0490265
0.0490106
0.0489943
0.0489788
0.0489657
0.0489563
0.0489516
0.0489525
0.0489592
0.0489713
0.048988
0.0490085
0.0490321
0.0490576
0.0490834
0.0491073
0.0491273
0.0491423
0.049153
0.0491603
0.0491642
0.0491656
0.0491657
0.0491656
0.0491662
0.049168
0.0491711
0.0491755
0.0491811
0.0491872
0.0491931
0.0491956
0.0491695
0.049047
0.0490967
0.0492133
0.0492339
0.0492332
0.0492316
0.0492309
0.0492305
0.0492291
0.0492268
0.0492249
0.0492243
0.0492246
0.0492247
0.0492243
0.0492231
0.0492209
0.0492176
0.0492134
0.0492083
0.0492026
0.0491963
0.0491897
0.0491828
0.0491759
0.0491689
0.0491621
0.0491554
0.0491489
0.0491428
0.0491369
0.0491315
0.0491266
0.0491221
0.0491182
0.0491149
0.0491122
0.0491101
0.0491088
0.0491081
0.049108
0.0491087
0.0491099
0.0491118
0.0491142
0.0491172
0.0491205
0.0491243
0.0491283
0.0491326
0.0491369
0.0491412
0.0491455
0.0491495
0.0491533
0.0491565
0.0491584
0.0491557
0.0491354
0.0490603
0.0489419
0.0488852
0.0489098
0.0489719
0.0490286
0.0490445
0.049033
0.0490179
0.0490008
0.0489829
0.0489659
0.0489513
0.0489409
0.0489357
0.0489364
0.0489431
0.048955
0.048971
0.0489904
0.0490132
0.0490387
0.0490653
0.0490907
0.0491126
0.0491296
0.0491423
0.049151
0.0491559
0.0491581
0.0491589
0.0491593
0.0491602
0.0491623
0.0491658
0.0491707
0.049177
0.0491839
0.0491907
0.0491943
0.0491681
0.0490205
0.0490746
0.0492091
0.0492308
0.0492304
0.0492291
0.0492283
0.0492273
0.0492242
0.0492202
0.0492175
0.0492169
0.0492173
0.0492177
0.0492176
0.0492166
0.0492146
0.0492115
0.0492075
0.0492026
0.049197
0.049191
0.0491845
0.0491779
0.0491711
0.0491644
0.0491577
0.0491511
0.0491448
0.0491387
0.0491329
0.0491275
0.0491226
0.0491181
0.0491141
0.0491107
0.0491079
0.0491058
0.0491043
0.0491036
0.0491035
0.0491042
0.0491055
0.0491075
0.04911
0.0491132
0.0491168
0.0491208
0.0491251
0.0491297
0.0491344
0.0491392
0.0491439
0.0491485
0.0491527
0.0491564
0.0491588
0.0491571
0.0491404
0.0490728
0.0489496
0.0488665
0.0488609
0.0489058
0.0489669
0.049014
0.0490254
0.0490104
0.0489924
0.0489732
0.0489547
0.0489388
0.0489272
0.0489216
0.0489227
0.04893
0.048942
0.0489569
0.0489747
0.0489961
0.0490212
0.0490484
0.0490751
0.0490986
0.0491176
0.049132
0.0491418
0.0491476
0.0491505
0.0491518
0.0491526
0.0491538
0.0491561
0.0491598
0.0491652
0.049172
0.0491797
0.0491873
0.0491921
0.0491663
0.0489953
0.0490538
0.0492051
0.049228
0.049228
0.0492271
0.0492264
0.0492244
0.0492191
0.0492134
0.0492102
0.0492096
0.0492102
0.0492108
0.049211
0.0492101
0.0492083
0.0492053
0.0492014
0.0491966
0.0491912
0.0491854
0.0491791
0.0491727
0.0491662
0.0491596
0.0491532
0.0491468
0.0491406
0.0491347
0.049129
0.0491237
0.0491187
0.0491142
0.0491102
0.0491067
0.0491039
0.0491017
0.0491001
0.0490993
0.0490991
0.0490997
0.049101
0.049103
0.0491056
0.0491088
0.0491126
0.0491167
0.0491213
0.0491262
0.0491312
0.0491364
0.0491415
0.0491465
0.0491512
0.0491553
0.0491582
0.0491578
0.0491455
0.0490903
0.0489721
0.0488701
0.0488345
0.0488546
0.0489052
0.0489618
0.0489993
0.0490036
0.0489875
0.0489671
0.0489473
0.0489299
0.0489167
0.04891
0.0489116
0.0489209
0.0489333
0.0489468
0.0489624
0.0489818
0.049006
0.0490336
0.0490612
0.0490864
0.0491069
0.0491223
0.0491329
0.0491393
0.0491428
0.0491445
0.0491456
0.0491469
0.0491493
0.0491532
0.049159
0.0491663
0.0491748
0.0491833
0.0491892
0.0491642
0.0489711
0.0490341
0.0492015
0.0492258
0.0492262
0.0492257
0.0492253
0.0492213
0.0492137
0.0492066
0.0492031
0.0492025
0.0492033
0.0492042
0.0492045
0.0492037
0.0492018
0.0491988
0.0491949
0.0491902
0.0491849
0.0491792
0.0491732
0.0491671
0.0491608
0.0491545
0.0491483
0.0491421
0.0491361
0.0491303
0.0491248
0.0491196
0.0491147
0.0491102
0.0491062
0.0491028
0.0490999
0.0490976
0.049096
0.0490951
0.0490949
0.0490954
0.0490967
0.0490986
0.0491012
0.0491044
0.0491082
0.0491125
0.0491172
0.0491223
0.0491276
0.049133
0.0491384
0.0491437
0.0491488
0.0491533
0.0491568
0.0491577
0.0491497
0.0491089
0.0490061
0.0488948
0.048833
0.0488256
0.0488568
0.0489074
0.0489561
0.0489829
0.0489823
0.0489661
0.0489462
0.0489272
0.048912
0.048902
0.0489013
0.048917
0.0489291
0.0489403
0.0489533
0.0489706
0.0489937
0.0490214
0.0490499
0.049076
0.0490976
0.0491137
0.0491247
0.0491314
0.0491352
0.0491371
0.0491383
0.0491397
0.0491421
0.0491461
0.0491521
0.0491599
0.0491691
0.0491786
0.0491857
0.0491616
0.0489478
0.0490157
0.0491985
0.0492242
0.0492251
0.049225
0.0492247
0.0492176
0.0492079
0.0491999
0.0491961
0.0491958
0.0491969
0.0491979
0.049198
0.0491971
0.049195
0.0491918
0.0491879
0.0491832
0.049178
0.0491724
0.0491666
0.0491607
0.0491547
0.0491487
0.0491427
0.0491368
0.049131
0.0491254
0.04912
0.0491149
0.0491101
0.0491057
0.0491017
0.0490983
0.0490954
0.0490932
0.0490916
0.0490907
0.0490905
0.049091
0.0490923
0.0490942
0.0490968
0.0491
0.0491038
0.0491082
0.049113
0.0491182
0.0491236
0.0491292
0.0491349
0.0491405
0.0491458
0.0491507
0.0491546
0.0491566
0.0491522
0.049125
0.0490449
0.0489365
0.0488557
0.0488216
0.0488287
0.0488639
0.0489101
0.0489488
0.0489665
0.0489634
0.0489488
0.0489315
0.0489166
0.048907
0.0489084
0.0489188
0.0489282
0.0489363
0.0489465
0.0489622
0.0489846
0.0490122
0.0490415
0.0490684
0.0490903
0.0491065
0.0491173
0.049124
0.0491277
0.0491295
0.0491307
0.049132
0.0491344
0.0491384
0.0491446
0.0491529
0.0491628
0.0491732
0.0491816
0.0491587
0.0489253
0.0489985
0.0491961
0.0492233
0.0492248
0.0492248
0.0492233
0.0492134
0.0492019
0.049193
0.0491894
0.0491897
0.049191
0.0491918
0.0491916
0.0491903
0.0491878
0.0491844
0.0491803
0.0491755
0.0491704
0.0491649
0.0491593
0.0491536
0.0491478
0.0491421
0.0491363
0.0491306
0.0491251
0.0491196
0.0491144
0.0491094
0.0491046
0.0491003
0.0490964
0.049093
0.0490901
0.0490879
0.0490864
0.0490856
0.0490855
0.0490862
0.0490875
0.0490895
0.0490922
0.0490955
0.0490994
0.0491038
0.0491087
0.0491139
0.0491195
0.0491252
0.0491311
0.0491368
0.0491424
0.0491475
0.0491519
0.0491547
0.049153
0.0491364
0.0490806
0.048987
0.0488978
0.0488417
0.048824
0.0488385
0.048873
0.0489118
0.0489404
0.0489518
0.0489484
0.0489374
0.0489259
0.0489189
0.0489212
0.0489256
0.0489291
0.0489334
0.0489414
0.0489561
0.0489785
0.0490068
0.0490367
0.0490638
0.0490854
0.0491009
0.049111
0.0491171
0.0491203
0.0491219
0.0491228
0.049124
0.0491262
0.0491302
0.0491365
0.0491452
0.0491559
0.0491673
0.049177
0.0491555
0.0489033
0.0489823
0.0491944
0.049223
0.049225
0.0492256
0.0492205
0.0492087
0.0491952
0.049186
0.0491833
0.0491841
0.0491854
0.0491858
0.0491851
0.0491832
0.0491803
0.0491766
0.0491722
0.0491673
0.0491622
0.0491568
0.0491514
0.0491459
0.0491403
0.0491348
0.0491293
0.0491238
0.0491184
0.0491131
0.049108
0.049103
0.0490984
0.0490941
0.0490902
0.0490868
0.0490839
0.0490818
0.0490803
0.0490796
0.0490796
0.0490804
0.0490819
0.0490841
0.049087
0.0490905
0.0490945
0.0490991
0.0491041
0.0491095
0.0491152
0.0491211
0.0491271
0.049133
0.0491387
0.049144
0.0491487
0.0491521
0.0491524
0.0491432
0.0491079
0.0490364
0.048951
0.0488811
0.0488416
0.0488339
0.0488512
0.0488816
0.0489118
0.0489322
0.0489398
0.0489378
0.0489321
0.0489281
0.0489292
0.0489297
0.0489289
0.0489306
0.0489376
0.0489524
0.0489759
0.0490054
0.0490359
0.0490627
0.0490831
0.0490971
0.0491058
0.0491107
0.049113
0.0491141
0.0491147
0.0491156
0.0491176
0.0491215
0.049128
0.0491371
0.0491485
0.049161
0.049172
0.0491519
0.0488819
0.048967
0.0491931
0.0492231
0.0492254
0.0492268
0.0492175
0.0492026
0.0491876
0.0491792
0.049178
0.0491792
0.0491801
0.0491798
0.0491784
0.0491758
0.0491724
0.0491683
0.0491637
0.0491588
0.0491536
0.0491483
0.049143
0.0491377
0.0491324
0.0491271
0.0491218
0.0491166
0.0491113
0.0491062
0.0491012
0.0490963
0.0490917
0.0490873
0.0490834
0.04908
0.0490771
0.0490748
0.0490733
0.0490726
0.0490728
0.0490737
0.0490755
0.0490779
0.049081
0.0490848
0.0490891
0.049094
0.0490992
0.0491049
0.0491107
0.0491168
0.0491229
0.049129
0.0491349
0.0491404
0.0491453
0.0491492
0.0491508
0.0491465
0.049126
0.0490771
0.0490052
0.048932
0.0488769
0.0488489
0.0488472
0.0488642
0.0488888
0.0489111
0.0489252
0.0489309
0.0489311
0.04893
0.0489297
0.0489284
0.0489264
0.0489276
0.0489353
0.0489518
0.0489775
0.0490087
0.0490395
0.049065
0.0490834
0.049095
0.0491016
0.0491048
0.049106
0.0491063
0.0491064
0.049107
0.0491088
0.0491126
0.0491191
0.0491286
0.0491408
0.0491544
0.0491667
0.049148
0.0488609
0.0489523
0.049192
0.0492234
0.0492257
0.0492276
0.0492132
0.0491947
0.0491794
0.0491732
0.0491734
0.0491747
0.0491748
0.0491737
0.0491714
0.0491682
0.0491643
0.0491598
0.049155
0.04915
0.0491449
0.0491397
0.0491346
0.0491295
0.0491244
0.0491194
0.0491143
0.0491093
0.0491043
0.0490993
0.0490944
0.0490896
0.049085
0.0490806
0.0490766
0.0490731
0.0490701
0.0490677
0.0490661
0.0490653
0.0490654
0.0490664
0.0490683
0.049071
0.0490744
0.0490785
0.0490831
0.0490883
0.049094
0.0490999
0.0491061
0.0491124
0.0491187
0.049125
0.0491311
0.0491368
0.049142
0.0491462
0.0491488
0.0491476
0.0491367
0.0491063
0.0490523
0.0489851
0.0489228
0.0488793
0.04886
0.0488617
0.0488765
0.0488951
0.0489108
0.0489205
0.048925
0.0489262
0.0489256
0.0489243
0.0489233
0.048926
0.0489359
0.0489556
0.0489843
0.0490172
0.0490475
0.0490708
0.049086
0.0490944
0.0490982
0.0490994
0.0490992
0.0490985
0.049098
0.0490983
0.0490998
0.0491035
0.0491101
0.04912
0.0491329
0.0491476
0.0491613
0.0491439
0.0488404
0.0489382
0.049191
0.0492237
0.049226
0.0492269
0.0492066
0.0491853
0.0491715
0.0491682
0.0491695
0.0491702
0.0491694
0.0491673
0.0491642
0.0491604
0.049156
0.0491513
0.0491464
0.0491413
0.0491362
0.0491312
0.0491263
0.0491214
0.0491167
0.0491119
0.0491072
0.0491025
0.0490977
0.0490929
0.0490882
0.0490835
0.0490789
0.0490745
0.0490704
0.0490667
0.0490635
0.0490609
0.0490591
0.049058
0.049058
0.0490589
0.0490608
0.0490636
0.0490672
0.0490716
0.0490767
0.0490823
0.0490883
0.0490946
0.0491012
0.0491079
0.0491145
0.0491211
0.0491275
0.0491334
0.0491389
0.0491435
0.0491469
0.0491477
0.0491426
0.0491252
0.0490884
0.0490331
0.0489716
0.0489191
0.0488857
0.048873
0.0488764
0.0488883
0.0489016
0.0489122
0.0489186
0.0489214
0.0489215
0.0489213
0.0489224
0.0489279
0.0489413
0.0489652
0.0489974
0.0490314
0.04906
0.0490796
0.0490905
0.0490949
0.0490956
0.0490945
0.0490927
0.0490909
0.0490897
0.0490895
0.0490908
0.0490943
0.049101
0.0491114
0.0491251
0.049141
0.0491559
0.0491397
0.0488202
0.0489244
0.0491901
0.049224
0.0492267
0.0492239
0.0491976
0.0491751
0.0491648
0.0491644
0.0491658
0.0491655
0.0491636
0.0491606
0.0491568
0.0491525
0.0491478
0.0491429
0.0491379
0.0491328
0.0491278
0.049123
0.0491184
0.0491139
0.0491094
0.0491051
0.0491007
0.0490963
0.0490919
0.0490874
0.0490828
0.0490783
0.0490737
0.0490693
0.0490652
0.0490613
0.0490579
0.049055
0.0490529
0.0490515
0.0490511
0.0490518
0.0490536
0.0490564
0.0490601
0.0490647
0.04907
0.049076
0.0490824
0.0490892
0.0490962
0.0491033
0.0491104
0.0491173
0.049124
0.0491304
0.0491362
0.0491413
0.0491453
0.0491475
0.049146
0.0491368
0.0491135
0.0490719
0.049017
0.0489619
0.0489192
0.0488948
0.0488873
0.0488913
0.0489002
0.0489093
0.048916
0.0489196
0.0489208
0.0489217
0.0489256
0.0489348
0.0489529
0.0489819
0.0490174
0.0490511
0.0490761
0.0490905
0.0490962
0.0490961
0.0490934
0.04909
0.0490866
0.0490836
0.0490816
0.0490809
0.0490819
0.0490854
0.0490923
0.0491031
0.0491177
0.0491346
0.0491508
0.0491357
0.0488006
0.048911
0.0491893
0.0492246
0.0492281
0.0492192
0.0491868
0.0491659
0.0491603
0.0491613
0.0491618
0.0491602
0.0491573
0.0491535
0.0491492
0.0491446
0.0491397
0.0491347
0.0491297
0.0491248
0.04912
0.0491154
0.0491111
0.0491069
0.0491029
0.049099
0.049095
0.049091
0.049087
0.0490828
0.0490784
0.049074
0.0490696
0.0490652
0.049061
0.049057
0.0490534
0.0490503
0.0490478
0.0490461
0.0490454
0.0490456
0.0490471
0.0490497
0.0490533
0.049058
0.0490635
0.0490697
0.0490765
0.0490837
0.0490912
0.0490988
0.0491063
0.0491137
0.0491209
0.0491277
0.0491339
0.0491395
0.0491442
0.0491474
0.0491482
0.0491441
0.0491303
0.0491008
0.0490552
0.0490024
0.0489554
0.0489226
0.0489061
0.0489025
0.0489064
0.0489128
0.0489187
0.0489226
0.048925
0.0489275
0.0489343
0.048948
0.048972
0.0490065
0.0490441
0.0490752
0.0490946
0.0491025
0.0491022
0.0490976
0.0490916
0.049086
0.0490811
0.0490768
0.0490739
0.0490727
0.0490735
0.0490769
0.0490841
0.0490954
0.0491109
0.0491289
0.0491462
0.0491318
0.0487814
0.048898
0.0491887
0.0492253
0.0492305
0.0492127
0.0491757
0.0491592
0.0491572
0.0491581
0.0491572
0.0491544
0.0491506
0.0491463
0.0491416
0.0491368
0.0491319
0.0491269
0.049122
0.0491172
0.0491126
0.0491084
0.0491044
0.0491006
0.0490971
0.0490936
0.0490901
0.0490865
0.0490828
0.049079
0.0490749
0.0490707
0.0490664
0.0490621
0.0490578
0.0490538
0.04905
0.0490467
0.049044
0.049042
0.0490408
0.0490406
0.0490416
0.0490439
0.0490473
0.0490518
0.0490574
0.0490638
0.0490709
0.0490785
0.0490864
0.0490945
0.0491025
0.0491105
0.0491181
0.0491254
0.0491322
0.0491383
0.0491436
0.0491477
0.0491501
0.0491492
0.0491416
0.0491215
0.0490852
0.0490376
0.0489899
0.0489523
0.0489291
0.0489191
0.0489181
0.0489217
0.0489263
0.0489304
0.0489342
0.0489393
0.0489494
0.0489684
0.0489993
0.0490387
0.049076
0.0491018
0.0491135
0.0491141
0.0491079
0.049099
0.0490902
0.0490827
0.0490764
0.0490708
0.0490668
0.049065
0.0490656
0.0490692
0.0490766
0.0490886
0.049105
0.049124
0.0491423
0.0491285
0.0487628
0.0488853
0.049188
0.0492261
0.0492335
0.0492033
0.0491662
0.0491546
0.0491543
0.0491542
0.0491518
0.0491481
0.0491436
0.0491389
0.049134
0.0491291
0.0491242
0.0491194
0.0491147
0.0491101
0.0491058
0.0491019
0.0490983
0.0490949
0.0490918
0.0490888
0.0490857
0.0490826
0.0490793
0.0490758
0.0490721
0.0490681
0.049064
0.0490597
0.0490555
0.0490514
0.0490476
0.0490441
0.0490412
0.0490389
0.0490374
0.0490368
0.0490374
0.0490392
0.0490423
0.0490466
0.0490521
0.0490585
0.0490658
0.0490737
0.049082
0.0490906
0.0490991
0.0491076
0.0491158
0.0491236
0.0491309
0.0491376
0.0491436
0.0491485
0.049152
0.0491533
0.0491496
0.0491362
0.049108
0.0490663
0.0490204
0.0489805
0.0489529
0.0489381
0.0489331
0.048934
0.0489376
0.0489421
0.0489477
0.0489562
0.0489705
0.0489962
0.0490347
0.0490773
0.0491106
0.049128
0.0491309
0.0491242
0.0491128
0.0491002
0.049089
0.0490801
0.0490726
0.0490656
0.0490604
0.0490581
0.0490586
0.0490624
0.0490703
0.049083
0.0491002
0.0491201
0.0491393
0.0491257
0.0487449
0.0488726
0.0491871
0.0492269
0.0492362
0.0491916
0.0491584
0.049151
0.0491507
0.0491491
0.0491455
0.049141
0.0491361
0.0491312
0.0491263
0.0491215
0.0491168
0.0491122
0.0491077
0.0491035
0.0490994
0.0490958
0.0490926
0.0490896
0.0490869
0.0490843
0.0490817
0.049079
0.0490762
0.049073
0.0490696
0.0490659
0.0490619
0.0490578
0.0490537
0.0490496
0.0490458
0.0490423
0.0490393
0.0490368
0.0490351
0.0490342
0.0490343
0.0490357
0.0490384
0.0490424
0.0490477
0.0490541
0.0490615
0.0490696
0.0490782
0.0490872
0.0490962
0.0491052
0.0491139
0.0491223
0.0491302
0.0491375
0.0491441
0.0491497
0.0491542
0.0491569
0.0491559
0.049147
0.049125
0.049089
0.0490458
0.0490056
0.0489754
0.0489571
0.0489491
0.048948
0.048951
0.0489566
0.0489649
0.0489776
0.0489973
0.0490316
0.0490774
0.0491189
0.049144
0.049151
0.0491452
0.0491323
0.0491167
0.0491012
0.0490881
0.0490783
0.0490701
0.0490616
0.0490549
0.049052
0.0490526
0.0490569
0.0490654
0.0490787
0.0490968
0.0491176
0.0491374
0.0491236
0.0487277
0.0488598
0.049186
0.0492275
0.0492346
0.0491791
0.0491518
0.0491471
0.0491459
0.0491428
0.0491383
0.0491332
0.0491281
0.0491232
0.0491184
0.0491138
0.0491094
0.0491051
0.049101
0.0490971
0.0490934
0.04909
0.049087
0.0490845
0.0490821
0.04908
0.0490778
0.0490756
0.0490731
0.0490704
0.0490673
0.0490638
0.0490601
0.0490562
0.0490521
0.0490482
0.0490444
0.049041
0.049038
0.0490355
0.0490337
0.0490325
0.0490324
0.0490334
0.0490356
0.0490393
0.0490443
0.0490506
0.049058
0.0490662
0.0490751
0.0490844
0.0490939
0.0491033
0.0491126
0.0491215
0.04913
0.0491378
0.049145
0.0491514
0.0491566
0.0491604
0.0491612
0.0491554
0.049138
0.0491066
0.0490665
0.0490268
0.0489953
0.0489749
0.0489648
0.0489626
0.0489657
0.0489731
0.048985
0.0490028
0.0490302
0.0490752
0.0491249
0.0491592
0.0491724
0.0491688
0.0491557
0.0491382
0.0491195
0.0491018
0.0490874
0.0490774
0.0490689
0.0490589
0.0490506
0.0490472
0.0490482
0.049053
0.0490621
0.0490762
0.049095
0.0491164
0.0491366
0.0491223
0.0487112
0.0488469
0.0491844
0.0492274
0.0492254
0.0491669
0.0491455
0.0491421
0.0491395
0.0491351
0.0491299
0.0491246
0.0491194
0.0491146
0.0491101
0.0491058
0.0491018
0.049098
0.0490943
0.0490907
0.0490874
0.0490844
0.0490816
0.0490792
0.0490772
0.0490755
0.0490738
0.049072
0.04907
0.0490676
0.0490649
0.0490619
0.0490584
0.0490547
0.0490508
0.049047
0.0490434
0.0490401
0.0490373
0.049035
0.0490331
0.0490319
0.0490314
0.049032
0.0490339
0.0490372
0.0490419
0.0490481
0.0490554
0.0490637
0.0490728
0.0490824
0.0490922
0.0491021
0.0491118
0.0491212
0.0491302
0.0491386
0.0491463
0.0491533
0.0491592
0.0491638
0.0491659
0.0491623
0.0491481
0.0491206
0.0490832
0.0490447
0.0490127
0.048991
0.0489797
0.048977
0.048981
0.0489911
0.0490073
0.0490312
0.0490705
0.0491267
0.049172
0.0491929
0.049193
0.0491809
0.0491628
0.0491424
0.0491215
0.049102
0.0490867
0.049077
0.0490691
0.0490581
0.0490478
0.0490441
0.0490455
0.0490509
0.0490606
0.0490753
0.0490948
0.0491166
0.049137
0.0491218
0.0486954
0.0488336
0.0491822
0.0492258
0.0492096
0.049155
0.0491389
0.0491354
0.0491314
0.049126
0.0491203
0.0491148
0.0491097
0.0491051
0.0491009
0.0490972
0.0490937
0.0490904
0.0490872
0.0490842
0.0490812
0.0490785
0.049076
0.0490739
0.0490722
0.0490706
0.0490694
0.049068
0.0490666
0.0490647
0.0490625
0.0490599
0.0490568
0.0490533
0.0490497
0.0490461
0.0490426
0.0490396
0.0490371
0.049035
0.0490334
0.0490321
0.0490314
0.0490317
0.0490332
0.0490361
0.0490406
0.0490465
0.0490538
0.0490622
0.0490714
0.0490812
0.0490913
0.0491016
0.0491117
0.0491215
0.0491309
0.0491398
0.049148
0.0491554
0.0491619
0.0491671
0.0491701
0.049168
0.0491563
0.0491317
0.0490969
0.0490596
0.0490276
0.0490053
0.0489933
0.0489908
0.0489965
0.0490099
0.0490314
0.0490656
0.0491235
0.0491816
0.0492116
0.0492161
0.0492056
0.0491881
0.0491674
0.0491451
0.0491225
0.0491017
0.0490858
0.0490769
0.0490706
0.0490594
0.0490473
0.0490432
0.049045
0.0490507
0.0490609
0.0490762
0.0490961
0.0491181
0.0491384
0.0491221
0.0486803
0.0488199
0.0491793
0.0492217
0.0491909
0.0491434
0.049131
0.0491267
0.0491213
0.0491151
0.0491091
0.0491036
0.0490987
0.0490944
0.0490907
0.0490875
0.0490847
0.0490821
0.0490796
0.0490771
0.0490746
0.0490722
0.04907
0.0490682
0.0490667
0.0490656
0.0490646
0.0490637
0.0490628
0.0490616
0.04906
0.0490578
0.0490552
0.0490521
0.0490488
0.0490454
0.0490422
0.0490394
0.0490373
0.0490357
0.0490344
0.0490332
0.0490322
0.0490322
0.0490333
0.0490359
0.0490401
0.0490459
0.0490531
0.0490615
0.0490708
0.0490808
0.0490912
0.0491017
0.0491121
0.0491223
0.049132
0.0491413
0.0491498
0.0491576
0.0491645
0.0491702
0.0491739
0.0491728
0.0491629
0.0491407
0.0491082
0.0490722
0.0490404
0.0490176
0.0490054
0.0490034
0.0490112
0.049029
0.0490605
0.0491171
0.0491888
0.0492283
0.0492367
0.0492284
0.0492122
0.0491923
0.0491701
0.0491465
0.0491226
0.0491006
0.0490842
0.0490765
0.0490729
0.0490626
0.0490495
0.0490448
0.0490463
0.0490522
0.0490628
0.0490786
0.0490987
0.0491208
0.0491407
0.049123
0.0486659
0.0488057
0.0491755
0.0492142
0.0491693
0.0491316
0.0491213
0.0491158
0.0491091
0.0491024
0.0490961
0.0490906
0.0490858
0.0490819
0.0490788
0.0490763
0.0490744
0.0490727
0.049071
0.0490692
0.0490672
0.0490652
0.0490633
0.0490618
0.0490607
0.0490599
0.0490595
0.0490591
0.0490587
0.0490581
0.0490571
0.0490557
0.0490537
0.0490511
0.0490482
0.049045
0.049042
0.0490395
0.0490378
0.0490369
0.0490363
0.0490352
0.049034
0.0490334
0.0490342
0.0490365
0.0490406
0.0490462
0.0490534
0.0490618
0.0490712
0.0490813
0.0490919
0.0491026
0.0491132
0.0491236
0.0491336
0.049143
0.0491519
0.0491599
0.049167
0.0491731
0.0491771
0.0491768
0.0491682
0.0491479
0.0491172
0.0490823
0.0490506
0.0490273
0.0490149
0.0490141
0.0490249
0.0490505
0.0491082
0.0491874
0.0492414
0.0492534
0.0492475
0.0492336
0.0492155
0.0491947
0.0491717
0.0491468
0.0491216
0.0490985
0.0490816
0.0490751
0.0490752
0.0490673
0.0490539
0.0490482
0.0490493
0.0490553
0.0490662
0.049082
0.0491023
0.0491243
0.0491438
0.0491244
0.048652
0.0487909
0.0491705
0.0492029
0.0491498
0.0491183
0.0491094
0.0491024
0.0490947
0.0490873
0.0490808
0.0490753
0.0490708
0.0490673
0.0490648
0.0490632
0.0490623
0.0490617
0.0490611
0.0490602
0.049059
0.0490575
0.049056
0.0490547
0.049054
0.0490537
0.0490538
0.0490541
0.0490544
0.0490545
0.0490543
0.0490535
0.0490522
0.0490502
0.0490477
0.049045
0.0490423
0.04904
0.0490385
0.0490382
0.0490386
0.049038
0.0490361
0.0490351
0.0490356
0.0490378
0.0490418
0.0490474
0.0490546
0.0490631
0.0490725
0.0490827
0.0490934
0.0491042
0.0491149
0.0491254
0.0491355
0.0491451
0.049154
0.0491621
0.0491694
0.0491756
0.0491798
0.0491799
0.0491719
0.0491526
0.049123
0.0490884
0.0490563
0.0490329
0.0490218
0.0490242
0.0490416
0.0490817
0.0491769
0.0492429
0.0492638
0.0492616
0.0492513
0.0492362
0.0492177
0.0491964
0.0491724
0.0491462
0.0491195
0.0490952
0.0490777
0.0490719
0.0490762
0.0490727
0.0490596
0.0490529
0.0490536
0.0490595
0.0490704
0.0490863
0.0491064
0.0491283
0.0491473
0.0491262
0.0486385
0.0487752
0.0491638
0.049188
0.0491316
0.0491043
0.0490949
0.0490864
0.0490777
0.0490698
0.0490629
0.0490573
0.0490529
0.0490499
0.0490482
0.0490477
0.049048
0.0490489
0.0490497
0.04905
0.0490497
0.0490489
0.0490478
0.0490469
0.0490465
0.0490467
0.0490475
0.0490485
0.0490497
0.0490507
0.0490514
0.0490516
0.049051
0.0490497
0.0490477
0.0490453
0.0490428
0.0490407
0.0490393
0.0490391
0.0490399
0.0490402
0.0490377
0.0490366
0.0490372
0.0490396
0.0490437
0.0490495
0.0490568
0.0490653
0.0490748
0.049085
0.0490957
0.0491065
0.0491172
0.0491277
0.0491378
0.0491473
0.0491561
0.0491642
0.0491715
0.0491775
0.0491815
0.0491812
0.0491728
0.0491531
0.0491231
0.0490882
0.0490568
0.0490356
0.0490289
0.0490391
0.0490702
0.0491332
0.0492313
0.049266
0.0492703
0.0492645
0.0492535
0.0492384
0.0492198
0.0491979
0.0491726
0.0491447
0.0491162
0.0490905
0.0490721
0.0490665
0.0490747
0.049078
0.049066
0.0490585
0.0490586
0.0490642
0.0490751
0.0490909
0.0491108
0.0491324
0.0491511
0.0491282
0.0486253
0.0487584
0.049155
0.04917
0.0491129
0.0490882
0.0490773
0.0490676
0.0490579
0.0490493
0.049042
0.0490362
0.049032
0.0490294
0.0490285
0.0490292
0.0490311
0.0490337
0.0490363
0.0490383
0.0490393
0.0490394
0.0490389
0.0490384
0.0490385
0.0490392
0.0490406
0.0490424
0.0490445
0.0490466
0.0490484
0.0490496
0.04905
0.0490496
0.0490483
0.0490464
0.0490441
0.049042
0.0490405
0.0490396
0.0490394
0.0490392
0.0490386
0.0490384
0.0490396
0.0490423
0.0490467
0.0490526
0.04906
0.0490685
0.049078
0.0490881
0.0490987
0.0491094
0.04912
0.0491303
0.0491402
0.0491495
0.0491582
0.0491661
0.0491731
0.0491788
0.0491822
0.0491805
0.04917
0.0491479
0.0491161
0.0490817
0.0490534
0.0490381
0.0490403
0.0490636
0.0491128
0.0491913
0.04926
0.0492731
0.0492734
0.049267
0.0492564
0.0492416
0.0492227
0.0491995
0.0491723
0.0491422
0.0491116
0.0490843
0.0490648
0.0490587
0.0490695
0.0490815
0.0490721
0.049064
0.0490636
0.0490691
0.04908
0.0490957
0.0491153
0.0491366
0.0491551
0.0491304
0.0486123
0.0487403
0.049144
0.0491496
0.0490931
0.0490698
0.0490574
0.0490459
0.0490352
0.0490257
0.0490178
0.0490117
0.0490075
0.0490054
0.0490054
0.0490075
0.0490112
0.0490159
0.0490207
0.0490249
0.0490277
0.049029
0.0490294
0.0490294
0.0490298
0.0490311
0.0490331
0.0490358
0.049039
0.0490422
0.0490452
0.0490476
0.0490492
0.0490498
0.0490494
0.0490481
0.0490462
0.0490442
0.0490424
0.0490411
0.0490404
0.0490401
0.0490404
0.0490411
0.049043
0.0490461
0.0490508
0.0490569
0.0490642
0.0490727
0.0490821
0.0490921
0.0491024
0.0491129
0.0491232
0.0491332
0.0491428
0.0491518
0.0491601
0.0491677
0.0491742
0.0491792
0.049181
0.0491764
0.0491616
0.0491357
0.049103
0.0490717
0.0490503
0.0490452
0.0490606
0.0490994
0.049162
0.0492357
0.0492722
0.0492778
0.0492775
0.0492716
0.0492612
0.0492464
0.0492264
0.0492013
0.0491714
0.0491384
0.0491053
0.0490762
0.0490555
0.0490485
0.0490599
0.0490818
0.0490778
0.0490691
0.0490683
0.0490738
0.0490848
0.0491005
0.0491199
0.0491407
0.0491591
0.0491325
0.0485995
0.048721
0.0491306
0.0491273
0.0490717
0.0490487
0.0490346
0.0490213
0.0490095
0.0489989
0.0489902
0.0489836
0.0489794
0.0489778
0.0489787
0.0489822
0.0489879
0.0489951
0.0490027
0.0490097
0.0490149
0.049018
0.0490194
0.04902
0.0490209
0.0490226
0.0490252
0.0490288
0.0490329
0.0490373
0.0490416
0.0490454
0.0490484
0.0490503
0.049051
0.0490505
0.0490493
0.0490475
0.0490458
0.0490443
0.0490434
0.0490432
0.0490438
0.0490452
0.0490475
0.0490511
0.049056
0.0490622