/*--------------------------------*- C++ -*----------------------------------*\
| =========                 |                                                 |
| \\      /  F ield         | OpenFOAM: The Open Source CFD Toolbox           |
|  \\    /   O peration     | Version:  4.1                                   |
|   \\  /    A nd           | Web:      www.OpenFOAM.org                      |
|    \\/     M anipulation  |                                                 |
\*---------------------------------------------------------------------------*/
FoamFile
{
    version     2.0;
    format      ascii;
    class       volScalarField;
    location    "1060";
    object      T;
}
// * * * * * * * * * * * * * * * * * * * * * * * * * * * * * * * * * * * * * //

dimensions      [0 0 0 1 0 0 0];

internalField   nonuniform List<scalar> 
5000
(
285.68
285.349
285.105
284.872
284.64
284.462
284.325
284.228
284.167
284.137
284.127
284.123
284.107
284.101
284.123
284.155
284.193
284.235
284.28
284.329
284.381
284.437
284.496
284.559
284.625
284.694
284.766
284.842
284.921
285.003
285.089
285.178
285.271
285.368
285.469
285.567
285.664
285.759
285.855
285.951
286.047
286.145
286.245
286.348
286.453
286.561
286.673
286.788
286.908
287.032
287.16
287.291
287.417
287.498
287.453
287.365
287.481
287.688
287.957
286.668
285.657
285.408
285.203
285.023
284.866
284.726
284.6
284.488
284.385
284.29
284.201
284.117
284.035
283.955
283.877
283.813
283.761
283.72
283.688
283.665
283.652
283.652
283.672
283.731
283.821
283.88
283.951
284.038
284.142
284.268
284.416
284.587
284.78
284.99
285.2
285.409
285.619
285.833
286.065
286.392
284.86
283.709
283.066
282.85
282.83
282.828
282.83
282.834
282.84
282.846
282.851
282.855
282.857
282.857
282.857
282.856
282.855
282.854
282.853
282.852
282.851
282.85
282.85
282.849
282.849
282.849
282.849
282.85
282.85
282.851
282.853
282.855
282.857
282.859
282.863
282.873
282.89
282.911
282.939
282.971
283.009
283.052
283.101
283.156
283.217
283.287
283.366
283.456
283.555
283.661
283.763
283.839
283.852
283.779
283.684
283.627
283.704
284.427
285.959
286.342
284.687
284.077
283.864
283.721
283.603
283.498
283.402
283.314
283.235
283.168
283.114
283.073
283.047
283.038
283.042
283.044
283.045
283.044
283.041
283.037
283.032
283.026
283.02
283.014
283.006
282.999
282.993
282.985
282.975
282.965
282.953
282.941
282.93
282.924
282.94
282.983
283.082
283.36
284.114
285.445
284.511
283.308
282.878
282.813
282.811
282.817
282.826
282.837
282.85
282.862
282.872
282.878
282.88
282.88
282.879
282.878
282.876
282.873
282.871
282.868
282.865
282.862
282.859
282.857
282.854
282.851
282.849
282.846
282.844
282.842
282.84
282.838
282.837
282.835
282.834
282.834
282.834
282.834
282.836
282.839
282.843
282.849
282.857
282.868
282.882
282.899
282.922
282.951
282.985
283.025
283.065
283.097
283.108
283.094
283.072
283.078
283.174
283.665
284.992
285.916
284.984
283.679
283.454
283.339
283.258
283.196
283.147
283.111
283.088
283.075
283.071
283.073
283.079
283.085
283.088
283.089
283.087
283.082
283.076
283.067
283.058
283.048
283.04
283.033
283.027
283.022
283.017
283.011
283.002
282.991
282.978
282.962
282.945
282.929
282.916
282.91
282.926
283.033
283.586
285.03
284.31
283.148
282.839
282.809
282.811
282.82
282.832
282.849
282.869
282.887
282.9
282.906
282.908
282.907
282.906
282.903
282.901
282.897
282.894
282.891
282.887
282.884
282.881
282.877
282.874
282.871
282.868
282.865
282.862
282.859
282.856
282.853
282.851
282.848
282.846
282.844
282.842
282.84
282.839
282.838
282.837
282.837
282.838
282.84
282.842
282.846
282.852
282.86
282.871
282.885
282.899
282.913
282.923
282.927
282.929
282.946
283.029
283.376
284.431
285.503
285.179
283.972
283.293
283.192
283.138
283.105
283.088
283.082
283.085
283.094
283.104
283.115
283.124
283.129
283.13
283.128
283.124
283.116
283.106
283.094
283.079
283.065
283.052
283.043
283.038
283.035
283.032
283.028
283.022
283.014
283.002
282.988
282.97
282.951
282.931
282.914
282.908
282.953
283.362
284.786
284.177
283.066
282.826
282.807
282.811
282.821
282.836
282.859
282.886
282.909
282.924
282.929
282.929
282.927
282.924
282.921
282.917
282.912
282.908
282.905
282.901
282.897
282.894
282.891
282.888
282.885
282.882
282.879
282.876
282.873
282.87
282.868
282.865
282.862
282.86
282.857
282.854
282.852
282.849
282.847
282.845
282.843
282.842
282.841
282.841
282.841
282.842
282.843
282.847
282.851
282.857
282.863
282.869
282.875
282.882
282.9
282.964
283.221
284.056
285.118
285.202
284.399
283.496
283.126
283.086
283.074
283.076
283.088
283.105
283.124
283.141
283.154
283.163
283.166
283.165
283.161
283.155
283.146
283.134
283.118
283.098
283.078
283.062
283.05
283.044
283.041
283.04
283.038
283.035
283.029
283.02
283.006
282.99
282.969
282.947
282.924
282.908
282.925
283.241
284.621
284.083
283.019
282.82
282.806
282.81
282.82
282.838
282.867
282.901
282.928
282.942
282.945
282.944
282.94
282.935
282.93
282.924
282.919
282.914
282.91
282.905
282.902
282.898
282.895
282.892
282.89
282.887
282.884
282.882
282.88
282.877
282.875
282.873
282.871
282.868
282.866
282.864
282.861
282.859
282.856
282.854
282.851
282.849
282.847
282.845
282.844
282.843
282.842
282.842
282.843
282.845
282.848
282.851
282.856
282.862
282.876
282.923
283.114
283.77
284.755
285.099
284.66
283.919
283.296
283.058
283.057
283.072
283.096
283.123
283.149
283.171
283.187
283.195
283.195
283.19
283.183
283.177
283.17
283.158
283.14
283.116
283.091
283.069
283.054
283.047
283.044
283.044
283.044
283.043
283.039
283.032
283.021
283.005
282.985
282.961
282.935
282.912
282.914
283.166
284.501
284.014
282.99
282.818
282.806
282.809
282.817
282.838
282.875
282.915
282.944
282.956
282.957
282.954
282.947
282.94
282.933
282.926
282.92
282.914
282.909
282.905
282.9
282.897
282.894
282.891
282.888
282.886
282.883
282.881
282.879
282.877
282.876
282.874
282.872
282.87
282.869
282.867
282.865
282.863
282.861
282.859
282.857
282.854
282.852
282.85
282.848
282.846
282.844
282.843
282.842
282.842
282.843
282.845
282.847
282.852
282.863
282.896
283.032
283.53
284.404
284.901
284.757
284.24
283.648
283.208
283.044
283.063
283.096
283.132
283.165
283.193
283.212
283.22
283.216
283.203
283.192
283.188
283.186
283.178
283.16
283.133
283.102
283.075
283.057
283.048
283.046
283.046
283.047
283.048
283.046
283.042
283.033
283.018
282.998
282.973
282.945
282.917
282.909
283.115
284.409
283.96
282.971
282.817
282.805
282.807
282.814
282.838
282.884
282.929
282.957
282.966
282.965
282.959
282.951
282.942
282.933
282.926
282.918
282.912
282.907
282.902
282.897
282.893
282.89
282.886
282.884
282.881
282.879
282.877
282.875
282.873
282.871
282.869
282.868
282.867
282.865
282.864
282.863
282.862
282.86
282.859
282.857
282.855
282.853
282.851
282.849
282.848
282.846
282.844
282.843
282.842
282.842
282.842
282.843
282.847
282.854
282.877
282.969
283.327
284.06
284.629
284.71
284.416
283.949
283.483
283.164
283.063
283.084
283.127
283.168
283.204
283.231
283.243
283.233
283.207
283.191
283.191
283.197
283.195
283.178
283.147
283.111
283.08
283.059
283.049
283.046
283.046
283.048
283.05
283.051
283.049
283.042
283.029
283.01
282.985
282.955
282.924
282.907
283.079
284.335
283.917
282.959
282.817
282.806
282.805
282.811
282.842
282.895
282.942
282.968
282.975
282.971
282.962
282.952
282.942
282.933
282.925
282.917
282.911
282.905
282.899
282.894
282.89
282.886
282.883
282.88
282.877
282.874
282.871
282.869
282.867
282.865
282.863
282.862
282.86
282.859
282.858
282.857
282.856
282.855
282.854
282.853
282.852
282.851
282.849
282.848
282.847
282.845
282.844
282.842
282.841
282.84
282.84
282.841
282.843
282.848
282.864
282.924
283.162
283.734
284.305
284.544
284.448
284.137
283.739
283.377
283.154
283.089
283.108
283.151
283.195
283.233
283.261
283.264
283.201
283.183
283.191
283.205
283.209
283.192
283.158
283.118
283.084
283.061
283.048
283.045
283.046
283.049
283.052
283.055
283.054
283.049
283.038
283.02
282.995
282.963
282.93
282.908
283.051
284.273
283.883
282.951
282.818
282.807
282.805
282.811
282.852
282.908
282.954
282.978
282.981
282.974
282.963
282.953
282.943
282.933
282.925
282.917
282.911
282.905
282.899
282.894
282.89
282.885
282.881
282.878
282.874
282.871
282.868
282.866
282.863
282.861
282.858
282.856
282.854
282.853
282.851
282.85
282.849
282.848
282.847
282.846
282.846
282.845
282.845
282.844
282.843
282.842
282.841
282.84
282.839
282.838
282.838
282.838
282.84
282.843
282.854
282.893
283.041
283.447
283.961
284.29
284.353
284.199
283.911
283.585
283.314
283.16
283.114
283.13
283.167
283.203
283.229
283.22
283.186
283.177
283.195
283.216
283.222
283.205
283.168
283.124
283.085
283.06
283.047
283.043
283.045
283.049
283.053
283.057
283.058
283.055
283.046
283.029
283.004
282.972
282.936
282.909
283.03
284.219
283.855
282.946
282.821
282.809
282.807
282.817
282.866
282.924
282.968
282.986
282.985
282.976
282.965
282.954
282.944
282.935
282.927
282.92
282.913
282.907
282.902
282.897
282.892
282.887
282.883
282.879
282.875
282.872
282.868
282.865
282.862
282.859
282.856
282.854
282.851
282.849
282.847
282.845
282.843
282.842
282.841
282.84
282.839
282.839
282.838
282.838
282.838
282.837
282.837
282.836
282.836
282.836
282.835
282.836
282.837
282.839
282.847
282.871
282.96
283.222
283.634
283.99
284.164
284.148
283.982
283.734
283.479
283.282
283.173
283.139
283.147
283.168
283.182
283.169
283.163
283.178
283.208
283.233
283.239
283.217
283.175
283.125
283.084
283.057
283.044
283.041
283.043
283.049
283.054
283.059
283.061
283.06
283.053
283.037
283.012
282.98
282.942
282.911
283.014
284.173
283.831
282.944
282.824
282.813
282.811
282.83
282.883
282.942
282.982
282.994
282.988
282.977
282.966
282.956
282.947
282.939
282.931
282.925
282.918
282.912
282.907
282.902
282.897
282.892
282.887
282.883
282.879
282.874
282.871
282.867
282.863
282.86
282.857
282.854
282.851
282.848
282.845
282.843
282.84
282.838
282.837
282.835
282.834
282.833
282.833
282.832
282.832
282.832
282.832
282.832
282.832
282.832
282.832
282.832
282.834
282.836
282.841
282.857
282.909
283.066
283.36
283.686
283.92
284.01
283.959
283.805
283.603
283.411
283.271
283.193
283.164
283.161
283.162
283.156
283.167
283.198
283.234
283.258
283.259
283.229
283.178
283.123
283.079
283.051
283.039
283.038
283.042
283.049
283.055
283.061
283.064
283.064
283.058
283.044
283.02
282.986
282.947
282.913
283.001
284.132
283.811
282.943
282.828
282.817
282.815
282.847
282.905
282.963
282.996
282.999
282.99
282.979
282.969
282.96
282.952
282.945
282.938
282.931
282.925
282.919
282.914
282.908
282.903
282.898
282.893
282.888
282.883
282.879
282.874
282.87
282.866
282.862
282.859
282.855
282.852
282.849
282.846
282.843
282.84
282.838
282.835
282.833
282.831
282.83
282.829
282.828
282.828
282.827
282.827
282.827
282.827
282.828
282.828
282.829
282.83
282.832
282.836
282.847
282.877
282.967
283.157
283.418
283.663
283.821
283.863
283.801
283.669
283.514
283.376
283.277
283.221
283.197
283.188
283.19
283.208
283.241
283.274
283.291
283.28
283.237
283.176
283.116
283.07
283.044
283.035
283.036
283.041
283.049
283.056
283.063
283.067
283.068
283.063
283.05
283.026
282.993
282.952
282.916
282.991
284.095
283.794
282.943
282.832
282.822
282.819
282.866
282.931
282.986
283.007
283.003
282.992
282.982
282.974
282.966
282.959
282.952
282.945
282.939
282.933
282.927
282.921
282.916
282.91
282.905
282.899
282.894
282.888
282.883
282.878
282.873
282.868
282.864
282.86
282.856
282.853
282.85
282.847
282.844
282.841
282.838
282.836
282.833
282.831
282.829
282.827
282.825
282.824
282.824
282.823
282.823
282.823
282.824
282.824
282.825
282.826
282.828
282.832
282.839
282.858
282.908
283.022
283.209
283.428
283.614
283.721
283.737
283.677
283.573
283.46
283.366
283.301
283.264
283.25
283.254
283.272
283.3
283.322
283.325
283.297
283.239
283.168
283.103
283.058
283.036
283.03
283.034
283.041
283.05
283.058
283.064
283.069
283.071
283.067
283.055
283.032
282.998
282.957
282.918
282.983
284.062
283.779
282.944
282.837
282.827
282.827
282.891
282.96
283.005
283.014
283.005
282.995
282.987
282.98
282.973
282.966
282.96
282.954
282.947
282.941
282.935
282.929
282.923
282.917
282.911
282.904
282.898
282.892
282.886
282.88
282.874
282.869
282.864
282.86
282.856
282.852
282.849
282.846
282.844
282.841
282.839
282.836
282.834
282.831
282.829
282.826
282.824
282.822
282.821
282.82
282.82
282.82
282.82
282.821
282.822
282.823
282.825
282.828
282.833
282.845
282.874
282.94
283.063
283.237
283.42
283.563
283.636
283.639
283.588
283.513
283.438
283.378
283.341
283.325
283.328
283.342
283.36
283.368
283.353
283.305
283.231
283.15
283.085
283.044
283.027
283.026
283.033
283.042
283.051
283.06
283.067
283.072
283.074
283.07
283.059
283.036
283.002
282.96
282.92
282.976
284.033
283.766
282.946
282.842
282.831
282.84
282.921
282.989
283.02
283.018
283.008
283
282.993
282.987
282.981
282.975
282.969
282.962
282.956
282.95
282.943
282.937
282.93
282.923
282.916
282.908
282.901
282.894
282.886
282.88
282.873
282.867
282.862
282.857
282.853
282.849
282.846
282.843
282.841
282.839
282.837
282.836
282.833
282.831
282.829
282.826
282.824
282.822
282.82
282.818
282.817
282.817
282.817
282.817
282.818
282.819
282.821
282.824
282.828
282.836
282.854
282.892
282.97
283.097
283.257
283.41
283.52
283.57
283.568
283.532
283.484
283.44
283.409
283.395
283.397
283.406
283.412
283.403
283.368
283.299
283.21
283.124
283.062
283.029
283.02
283.024
283.033
283.044
283.053
283.062
283.069
283.074
283.076
283.073
283.062
283.04
283.006
282.963
282.921
282.971
284.007
283.755
282.948
282.847
282.835
282.859
282.953
283.013
283.028
283.02
283.012
283.006
283.001
282.996
282.99
282.984
282.978
282.971
282.964
282.957
282.95
282.943
282.935
282.927
282.919
282.91
282.902
282.893
282.885
282.877
282.87
282.863
282.857
282.851
282.847
282.843
282.84
282.837
282.836
282.835
282.834
282.833
282.831
282.83
282.828
282.826
282.824
282.821
282.819
282.817
282.816
282.815
282.814
282.814
282.815
282.816
282.818
282.82
282.824
282.83
282.842
282.865
282.913
283.002
283.132
283.278
283.405
283.488
283.525
283.524
283.504
283.479
283.459
283.45
283.449
283.453
283.447
283.422
283.365
283.275
283.175
283.091
283.038
283.016
283.014
283.023
283.035
283.046
283.056
283.064
283.072
283.077
283.079
283.076
283.065
283.042
283.008
282.965
282.922
282.966
283.983
283.744
282.95
282.851
282.837
282.883
282.984
283.028
283.031
283.023
283.017
283.013
283.01
283.005
282.999
282.993
282.986
282.979
282.971
282.964
282.956
282.948
282.939
282.93
282.921
282.911
282.901
282.891
282.882
282.873
282.864
282.856
282.85
282.844
282.839
282.835
282.832
282.829
282.828
282.827
282.827
282.827
282.827
282.827
282.826
282.825
282.823
282.821
282.818
282.816
282.814
282.813
282.812
282.812
282.812
282.813
282.815
282.817
282.82
282.825
282.834
282.848
282.879
282.941
283.043
283.174
283.303
283.406
283.47
283.499
283.504
283.497
283.489
283.485
283.483
283.479
283.461
283.418
283.339
283.233
283.13
283.055
283.016
283.005
283.011
283.025
283.038
283.049
283.058
283.067
283.075
283.08
283.081
283.078
283.067
283.044
283.009
282.966
282.923
282.963
283.963
283.735
282.953
282.856
282.838
282.912
283.008
283.036
283.033
283.028
283.025
283.022
283.019
283.014
283.008
283.001
282.994
282.986
282.978
282.969
282.961
282.952
282.942
282.932
282.921
282.91
282.899
282.888
282.877
282.867
282.858
282.849
282.842
282.835
282.83
282.825
282.822
282.82
282.819
282.818
282.819
282.82
282.821
282.822
282.822
282.822
282.821
282.819
282.817
282.815
282.813
282.812
282.811
282.81
282.81
282.811
282.812
282.814
282.817
282.822
282.828
282.838
282.859
282.903
282.983
283.096
283.221
283.332
283.413
283.464
283.489
283.499
283.502
283.501
283.497
283.484
283.454
283.392
283.291
283.175
283.079
283.021
282.998
282.999
283.012
283.028
283.042
283.052
283.06
283.07
283.078
283.083
283.084
283.08
283.068
283.044
283.009
282.966
282.923
282.96
283.944
283.726
282.956
282.859
282.838
282.945
283.025
283.041
283.037
283.034
283.033
283.032
283.029
283.024
283.017
283.009
283.001
282.992
282.983
282.974
282.965
282.955
282.944
282.933
282.921
282.909
282.897
282.885
282.873
282.862
282.851
282.842
282.834
282.826
282.82
282.816
282.812
282.81
282.809
282.809
282.81
282.811
282.814
282.816
282.817
282.818
282.818
282.817
282.816
282.814
282.812
282.81
282.809
282.808
282.808
282.808
282.81
282.812
282.814
282.818
282.824
282.832
282.847
282.88
282.943
283.04
283.157
283.269
283.361
283.426
283.466
283.488
283.499
283.501
283.493
283.47
283.426
283.342
283.223
283.109
283.031
282.994
282.987
282.997
283.014
283.032
283.046
283.055
283.062
283.073
283.083
283.087
283.087
283.081
283.068
283.044
283.008
282.965
282.922
282.957
283.928
283.718
282.958
282.862
282.847
282.974
283.037
283.045
283.043
283.043
283.043
283.042
283.038
283.033
283.025
283.016
283.007
282.997
282.987
282.978
282.968
282.957
282.946
282.934
282.921
282.908
282.894
282.881
282.869
282.856
282.845
282.835
282.826
282.818
282.812
282.807
282.803
282.8
282.799
282.799
282.8
282.802
282.805
282.808
282.811
282.813
282.814
282.815
282.814
282.813
282.811
282.809
282.808
282.807
282.806
282.806
282.807
282.809
282.812
282.816
282.821
282.827
282.84
282.865
282.917
283.001
283.109
283.219
283.315
283.389
283.439
283.47
283.485
283.487
283.473
283.44
283.378
283.269
283.142
283.044
282.992
282.977
282.983
282.999
283.018
283.037
283.051
283.057
283.063
283.075
283.087
283.091
283.089
283.082
283.067
283.042
283.006
282.963
282.921
282.955
283.914
283.709
282.96
282.866
282.871
283
283.046
283.05
283.051
283.052
283.053
283.052
283.048
283.041
283.033
283.023
283.013
283.002
282.992
282.981
282.97
282.959
282.947
282.934
282.921
282.907
282.893
282.879
282.865
282.852
282.84
282.829
282.82
282.811
282.805
282.799
282.795
282.791
282.789
282.789
282.79
282.793
282.796
282.801
282.805
282.808
282.81
282.811
282.811
282.811
282.809
282.808
282.806
282.805
282.804
282.805
282.806
282.807
282.81
282.813
282.818
282.824
282.835
282.856
282.9
282.974
283.073
283.18
283.276
283.354
283.41
283.445
283.463
283.462
283.441
283.395
283.308
283.175
283.059
282.992
282.968
282.969
282.982
283.001
283.022
283.042
283.056
283.06
283.063
283.076
283.091
283.094
283.09
283.082
283.066
283.04
283.003
282.96
282.919
282.954
283.901
283.702
282.962
282.871
282.905
283.02
283.053
283.057
283.06
283.063
283.064
283.062
283.057
283.05
283.041
283.03
283.019
283.007
282.996
282.984
282.972
282.961
282.948
282.935
282.922
282.908
282.893
282.878
282.863
282.849
282.837
282.825
282.815
282.806
282.798
282.792
282.788
282.784
282.781
282.78
282.781
282.784
282.788
282.793
282.798
282.802
282.806
282.808
282.809
282.808
282.807
282.806
282.805
282.803
282.803
282.803
282.804
282.806
282.808
282.812
282.816
282.822
282.832
282.85
282.889
282.955
283.046
283.148
283.243
283.322
283.38
283.418
283.435
283.429
283.398
283.332
283.207
283.073
282.991
282.959
282.956
282.966
282.983
283.004
283.027
283.048
283.061
283.063
283.062
283.075
283.092
283.095
283.09
283.08
283.063
283.036
282.999
282.956
282.917
282.953
283.89
283.694
282.964
282.88
282.941
283.037
283.06
283.065
283.069
283.073
283.074
283.072
283.067
283.059
283.049
283.038
283.025
283.013
283
282.988
282.975
282.963
282.951
282.937
282.923
282.909
282.893
282.878
282.863
282.848
282.834
282.822
282.811
282.802
282.794
282.788
282.782
282.778
282.775
282.773
282.773
282.775
282.78
282.786
282.792
282.797
282.801
282.804
282.806
282.806
282.805
282.804
282.803
282.802
282.801
282.801
282.802
282.804
282.807
282.81
282.815
282.821
282.83
282.847
282.881
282.941
283.026
283.122
283.215
283.294
283.353
283.39
283.403
283.39
283.341
283.23
283.08
282.986
282.95
282.944
282.952
282.966
282.984
283.006
283.031
283.053
283.067
283.067
283.061
283.071
283.089
283.093
283.088
283.077
283.059
283.031
282.994
282.953
282.915
282.951
283.88
283.686
282.966
282.892
282.978
283.05
283.068
283.074
283.08
283.084
283.085
283.083
283.077
283.069
283.058
283.046
283.033
283.019
283.005
282.992
282.979
282.967
282.954
282.94
282.926
282.911
282.895
282.88
282.864
282.849
282.834
282.821
282.809
282.799
282.791
282.784
282.779
282.774
282.77
282.767
282.765
282.768
282.773
282.78
282.787
282.793
282.798
282.801
282.803
282.804
282.803
282.802
282.801
282.8
282.8
282.8
282.801
282.803
282.806
282.809
282.814
282.82
282.829
282.845
282.877
282.932
283.011
283.102
283.193
283.271
283.33
283.364
283.372
283.343
283.244
283.092
282.979
282.941
282.933
282.938
282.949
282.964
282.984
283.008
283.035
283.06
283.075
283.073
283.06
283.066
283.084
283.089
283.084
283.073
283.054
283.026
282.989
282.949
282.913
282.951
283.87
283.678
282.968
282.908
283.006
283.063
283.076
283.084
283.091
283.096
283.096
283.094
283.088
283.079
283.068
283.055
283.041
283.026
283.011
282.997
282.984
282.971
282.958
282.945
282.93
282.915
282.899
282.883
282.866
282.85
282.835
282.821
282.809
282.799
282.79
282.783
282.777
282.772
282.768
282.764
282.76
282.762
282.768
282.776
282.784
282.79
282.795
282.799
282.801
282.801
282.801
282.8
282.799
282.799
282.798
282.799
282.8
282.802
282.805
282.809
282.814
282.82
282.829
282.844
282.874
282.927
283.002
283.091
283.18
283.257
283.312
283.339
283.333
283.276
283.107
282.983
282.935
282.925
282.925
282.932
282.944
282.961
282.982
283.009
283.039
283.066
283.083
283.081
283.062
283.059
283.076
283.083
283.079
283.067
283.048
283.02
282.984
282.945
282.911
282.95
283.862
283.669
282.97
282.927
283.027
283.073
283.085
283.095
283.102
283.107
283.108
283.106
283.1
283.091
283.08
283.066
283.051
283.035
283.019
283.004
282.99
282.977
282.964
282.951
282.936
282.921
282.905
282.888
282.871
282.854
282.838
282.823
282.81
282.799
282.79
282.783
282.777
282.772
282.768
282.764
282.76
282.76
282.767
282.775
282.782
282.789
282.793
282.797
282.799
282.799
282.799
282.798
282.798
282.797
282.797
282.798
282.799
282.801
282.805
282.809
282.814
282.821
282.83
282.846
282.877
282.929
283.003
283.091
283.177
283.247
283.292
283.304
283.272
283.173
283.001
282.935
282.918
282.915
282.917
282.925
282.937
282.955
282.98
283.01
283.043
283.074
283.093
283.091
283.066
283.053
283.067
283.075
283.072
283.061
283.041
283.014
282.979
282.941
282.908
282.949
283.854
283.66
282.973
282.947
283.044
283.083
283.096
283.106
283.114
283.119
283.12
283.118
283.113
283.104
283.093
283.078
283.062
283.045
283.028
283.012
282.997
282.983
282.971
282.958
282.944
282.929
282.912
282.895
282.877
282.86
282.843
282.827
282.813
282.801
282.791
282.784
282.778
282.774
282.77
282.767
282.765
282.766
282.77
282.777
282.783
282.788
282.792
282.795
282.797
282.797
282.797
282.797
282.796
282.796
282.796
282.797
282.799
282.801
282.805
282.81
282.815
282.823
282.833
282.852
282.886
282.941
283.017
283.102
283.18
283.238
283.265
283.252
283.187
283.062
282.944
282.916
282.906
282.904
282.907
282.914
282.928
282.948
282.977
283.011
283.048
283.081
283.103
283.103
283.076
283.048
283.058
283.067
283.065
283.054
283.035
283.008
282.974
282.938
282.906
282.949
283.847
283.651
282.976
282.966
283.058
283.093
283.107
283.118
283.126
283.131
283.133
283.132
283.127
283.119
283.107
283.093
283.076
283.057
283.039
283.021
283.005
282.991
282.979
282.966
282.953
282.938
282.922
282.904
282.886
282.868
282.85
282.833
282.818
282.805
282.794
282.786
282.78
282.776
282.773
282.772
282.771
282.772
282.774
282.779
282.783
282.788
282.791
282.793
282.795
282.795
282.795
282.795
282.795
282.795
282.795
282.796
282.799
282.802
282.806
282.811
282.817
282.826
282.839
282.863
282.903
282.965
283.04
283.118
283.182
283.22
283.223
283.181
283.093
282.977
282.916
282.901
282.892
282.89
282.892
282.901
282.916
282.941
282.973
283.013
283.054
283.09
283.114
283.116
283.089
283.047
283.048
283.059
283.057
283.046
283.028
283.001
282.969
282.935
282.905
282.949
283.84
283.642
282.98
282.984
283.071
283.103
283.118
283.13
283.138
283.144
283.147
283.146
283.142
283.134
283.123
283.109
283.092
283.072
283.052
283.032
283.015
283
282.987
282.976
282.963
282.949
282.933
282.916
282.897
282.878
282.859
282.841
282.824
282.81
282.799
282.79
282.783
282.779
282.777
282.775
282.775
282.776
282.778
282.781
282.784
282.787
282.79
282.792
282.793
282.794
282.794
282.794
282.794
282.794
282.795
282.797
282.799
282.803
282.808
282.814
282.821
282.832
282.85
282.882
282.931
282.996
283.066
283.13
283.175
283.188
283.164
283.101
283.009
282.926
282.896
282.883
282.875
282.871
282.874
282.885
282.904
282.933
282.971
283.016
283.061
283.1
283.125
283.13
283.106
283.052
283.04
283.05
283.049
283.039
283.021
282.996
282.965
282.932
282.903
282.948
283.834
283.633
282.984
283
283.082
283.113
283.129
283.141
283.151
283.157
283.16
283.161
283.158
283.151
283.141
283.127
283.11
283.089
283.067
283.045
283.026
283.01
282.997
282.986
282.974
282.961
282.946
282.929
282.91
282.89
282.87
282.851
282.833
282.818
282.805
282.795
282.787
282.783
282.78
282.779
282.779
282.779
282.781
282.783
282.785
282.787
282.789
282.791
282.792
282.792
282.792
282.793
282.793
282.794
282.795
282.798
282.801
282.805
282.811
282.818
282.828
282.844
282.87
282.91
282.964
283.027
283.087
283.132
283.153
283.141
283.096
283.024
282.946
282.895
282.876
282.861
282.852
282.849
282.854
282.868
282.892
282.927
282.971
283.022
283.07
283.111
283.137
283.143
283.124
283.064
283.033
283.042
283.042
283.032
283.014
282.99
282.961
282.93
282.902
282.948
283.827
283.624
282.989
283.015
283.093
283.122
283.139
283.153
283.163
283.169
283.174
283.175
283.174
283.168
283.159
283.146
283.13
283.109
283.085
283.06
283.038
283.02
283.007
282.996
282.986
282.974
282.96
282.944
282.925
282.905
282.884
282.864
282.845
282.828
282.813
282.801
282.793
282.787
282.783
282.782
282.781
282.781
282.782
282.784
282.785
282.787
282.789
282.79
282.791
282.791
282.792
282.792
282.793
282.794
282.797
282.799
282.804
282.809
282.816
282.826
282.841
282.864
282.898
282.944
282.998
283.052
283.095
283.119
283.116
283.084
283.027
282.959
282.902
282.87
282.853
282.835
282.826
282.824
282.832
282.852
282.882
282.924
282.976
283.032
283.083
283.125
283.151
283.157
283.14
283.085
283.03
283.034
283.034
283.025
283.008
282.985
282.957
282.927
282.901
282.948
283.822
283.615
282.994
283.027
283.102
283.131
283.149
283.164
283.175
283.182
283.188
283.19
283.189
283.185
283.178
283.166
283.151
283.13
283.105
283.078
283.053
283.032
283.017
283.007
282.998
282.988
282.976
282.96
282.942
282.922
282.901
282.88
282.86
282.841
282.824
282.81
282.8
282.792
282.788
282.785
282.784
282.784
282.784
282.785
282.786
282.787
282.788
282.789
282.79
282.791
282.792
282.793
282.794
282.796
282.799
282.803
282.808
282.815
282.825
282.84
282.861
282.891
282.93
282.977
283.025
283.065
283.09
283.092
283.069
283.024
282.965
282.908
282.868
282.843
282.82
282.805
282.797
282.799
282.812
282.838
282.876
282.927
282.986
283.047
283.1
283.141
283.166
283.171
283.155
283.108
283.032
283.027
283.027
283.018
283.002
282.979
282.953
282.925
282.9
282.948
283.816
283.608
282.999
283.037
283.11
283.139
283.158
283.174
283.186
283.195
283.201
283.205
283.205
283.202
283.195
283.185
283.172
283.153
283.128
283.099
283.07
283.045
283.028
283.017
283.009
283.002
282.991
282.978
282.961
282.942
282.921
282.9
282.878
282.858
282.839
282.823
282.81
282.8
282.794
282.789
282.787
282.786
282.786
282.786
282.787
282.788
282.789
282.79
282.791
282.792
282.793
282.794
282.796
282.799
282.803
282.809
282.816
282.826
282.841
282.861
282.888
282.922
282.963
283.005
283.041
283.065
283.071
283.054
283.017
282.966
282.912
282.868
282.836
282.812
282.786
282.773
282.768
282.775
282.796
282.829
282.875
282.936
283.003
283.068
283.121
283.159
283.181
283.184
283.167
283.124
283.039
283.022
283.02
283.011
282.996
282.975
282.95
282.924
282.899
282.949
283.811
283.602
283.003
283.045
283.116
283.146
283.166
283.183
283.196
283.207
283.214
283.219
283.221
283.217
283.211
283.203
283.192
283.177
283.153
283.123
283.09
283.06
283.039
283.026
283.02
283.015
283.007
282.995
282.981
282.963
282.943
282.922
282.9
282.878
282.858
282.84
282.825
282.812
282.803
282.796
282.792
282.79
282.789
282.789
282.789
282.79
282.791
282.791
282.793
282.794
282.796
282.798
282.801
282.805
282.811
282.819
282.83
282.844
282.863
282.888
282.919
282.954
282.99
283.023
283.045
283.053
283.041
283.011
282.966
282.915
282.868
282.832
282.803
282.773
282.751
282.741
282.742
282.755
282.783
282.825
282.882
282.953
283.028
283.094
283.145
283.179
283.196
283.197
283.178
283.132
283.051
283.018
283.014
283.005
282.99
282.97
282.947
282.922
282.899
282.949
283.806
283.597
283.007
283.051
283.122
283.152
283.173
283.191
283.206
283.218
283.228
283.235
283.238
283.234
283.226
283.218
283.209
283.198
283.179
283.15
283.114
283.079
283.051
283.036
283.029
283.026
283.021
283.013
283.001
282.985
282.967
282.947
282.925
282.903
282.882
282.862
282.844
282.829
282.817
282.808
282.802
282.797
282.795
282.794
282.794
282.794
282.795
282.796
282.797
282.799
282.802
282.805
282.81
282.816
282.824
282.835
282.85
282.868
282.891
282.918
282.949
282.981
283.009
283.03
283.038
283.03
283.005
282.965
282.918
282.87
282.83
282.796
282.765
282.733
282.716
282.711
282.719
282.74
282.777
282.827
282.897
282.979
283.059
283.125
283.171
283.198
283.21
283.206
283.182
283.137
283.064
283.018
283.008
283
282.985
282.966
282.944
282.921
282.899
282.949
283.802
283.594
283.01
283.054
283.126
283.157
283.179
283.198
283.215
283.23
283.245
283.254
283.258
283.253
283.241
283.23
283.222
283.216
283.204
283.179
283.142
283.101
283.066
283.045
283.037
283.036
283.034
283.029
283.02
283.008
282.992
282.973
282.953
282.932
282.91
282.889
282.87
282.853
282.838
282.826
282.817
282.81
282.806
282.804
282.803
282.802
282.803
282.804
282.806
282.809
282.812
282.817
282.824
282.833
282.844
282.858
282.876
282.897
282.921
282.948
282.975
283
283.018
283.026
283.02
283
282.965
282.921
282.874
282.83
282.793
282.759
282.723
282.696
282.684
282.686
282.701
282.731
282.776
282.837
282.921
283.014
283.097
283.158
283.196
283.214
283.219
283.21
283.185
283.141
283.074
283.021
283.004
282.994
282.98
282.962