/*--------------------------------*- C++ -*----------------------------------*\
| =========                 |                                                 |
| \\      /  F ield         | OpenFOAM: The Open Source CFD Toolbox           |
|  \\    /   O peration     | Version:  4.1                                   |
|   \\  /    A nd           | Web:      www.OpenFOAM.org                      |
|    \\/     M anipulation  |                                                 |
\*---------------------------------------------------------------------------*/
FoamFile
{
    version     2.0;
    format      ascii;
    class       volVectorField;
    location    "1060";
    object      U;
}
// * * * * * * * * * * * * * * * * * * * * * * * * * * * * * * * * * * * * * //

dimensions      [0 1 -1 0 0 0 0];

internalField   nonuniform List<vector> 
5000
(
(-0.00445858 0.00285491 0)
(-0.00581778 0.000874884 0)
(-0.00675203 0.000140857 0)
(-0.00688277 -9.65584e-05 0)
(-0.00668809 -0.000209213 0)
(-0.00628755 -0.000314768 0)
(-0.00567153 -0.0004266 0)
(-0.00485664 -0.00052554 0)
(-0.0038967 -0.000591347 0)
(-0.00286457 -0.000617221 0)
(-0.00182676 -0.000617861 0)
(-0.000821062 -0.000634367 0)
(0.000320514 -0.000698455 0)
(0.00151077 -0.000721573 0)
(0.00257723 -0.000674287 0)
(0.00362169 -0.000619377 0)
(0.00462388 -0.000569166 0)
(0.00557193 -0.00052272 0)
(0.00646209 -0.000478222 0)
(0.00729242 -0.000434887 0)
(0.00806115 -0.000392588 0)
(0.00876698 -0.000351463 0)
(0.00940947 -0.000311724 0)
(0.00998904 -0.000273565 0)
(0.0105068 -0.000237123 0)
(0.0109644 -0.00020247 0)
(0.0113638 -0.000169611 0)
(0.0117071 -0.000138501 0)
(0.0119962 -0.000109061 0)
(0.0122333 -8.12018e-05 0)
(0.0124203 -5.48494e-05 0)
(0.012559 -2.99772e-05 0)
(0.0126515 -6.66381e-06 0)
(0.0126998 1.4779e-05 0)
(0.0127067 3.38083e-05 0)
(0.012677 5.05723e-05 0)
(0.0126124 6.56628e-05 0)
(0.0125149 7.93084e-05 0)
(0.0123869 9.15013e-05 0)
(0.0122312 0.000102136 0)
(0.0120504 0.000111115 0)
(0.0118478 0.0001184 0)
(0.0116263 0.000124068 0)
(0.0113892 0.000128386 0)
(0.0111387 0.00013192 0)
(0.0108763 0.000135635 0)
(0.0106011 0.000140959 0)
(0.0103096 0.000149681 0)
(0.00999465 0.000163526 0)
(0.00964631 0.000183012 0)
(0.00925536 0.000204996 0)
(0.00882322 0.000217753 0)
(0.00838287 0.000194357 0)
(0.00802662 9.68268e-05 0)
(0.0079133 -8.16266e-05 0)
(0.00810996 -0.000257862 0)
(0.00842851 -0.000206259 0)
(0.00827929 0.000502091 0)
(0.00735349 0.00277613 0)
(-0.000589374 0.00347077 0)
(-0.00454257 0.00121727 0)
(-0.0057571 0.00069118 0)
(-0.00703889 0.000593108 0)
(-0.00820234 0.00056358 0)
(-0.00932253 0.000553414 0)
(-0.0104261 0.000546554 0)
(-0.0115141 0.000532656 0)
(-0.0125701 0.0005048 0)
(-0.0135657 0.00045862 0)
(-0.0144646 0.00039197 0)
(-0.0152269 0.000304662 0)
(-0.0158121 0.000197634 0)
(-0.0161807 7.16466e-05 0)
(-0.0162939 -7.50018e-05 0)
(-0.0161203 -0.000247261 0)
(-0.0156359 -0.000437762 0)
(-0.0148252 -0.000637935 0)
(-0.0136869 -0.000841975 0)
(-0.0122278 -0.00104458 0)
(-0.0104665 -0.00123918 0)
(-0.00844527 -0.00141583 0)
(-0.00624081 -0.00155379 0)
(-0.00396297 -0.00160076 0)
(-0.00167736 -0.0014311 0)
(0.000610101 -0.00110067 0)
(0.00210992 -0.000930374 0)
(0.00354332 -0.000778347 0)
(0.00476486 -0.000627221 0)
(0.00572844 -0.000482453 0)
(0.00644388 -0.00035142 0)
(0.00693688 -0.000240011 0)
(0.00724132 -0.000152501 0)
(0.00739926 -9.11724e-05 0)
(0.00745638 -5.42503e-05 0)
(0.00745243 -3.50663e-05 0)
(0.00741907 -2.42585e-05 0)
(0.00734962 9.22254e-06 0)
(0.00710507 0.000189158 0)
(0.006125 0.000926826 0)
(0.00473843 0.00303034 0)
(-0.00350032 0.00615161 0)
(-0.00429606 0.00245849 0)
(-0.00531955 0.000611213 0)
(-0.00561642 -5.88626e-05 0)
(-0.00561565 -0.000386816 0)
(-0.00535108 -0.00070463 0)
(-0.00482899 -0.00103377 0)
(-0.00407413 -0.00131532 0)
(-0.00315828 -0.00149518 0)
(-0.00216748 -0.00156895 0)
(-0.00116927 -0.00159434 0)
(-0.000101344 -0.00165648 0)
(0.00108969 -0.00171867 0)
(0.00209068 -0.00168776 0)
(0.00311307 -0.0016142 0)
(0.00413572 -0.00153504 0)
(0.00513834 -0.00145685 0)
(0.0061066 -0.00137687 0)
(0.00703121 -0.00129298 0)
(0.00790598 -0.00120518 0)
(0.00872665 -0.00111456 0)
(0.00949051 -0.00102257 0)
(0.0101962 -0.000930561 0)
(0.0108435 -0.000839664 0)
(0.0114331 -0.000750699 0)
(0.011966 -0.000664198 0)
(0.0124437 -0.000580441 0)
(0.0128678 -0.000499513 0)
(0.0132399 -0.000421362 0)
(0.0135614 -0.000345868 0)
(0.0138338 -0.000272911 0)
(0.0140582 -0.000202444 0)
(0.0142357 -0.000134604 0)
(0.0143674 -6.98875e-05 0)
(0.0144544 -9.10818e-06 0)
(0.0144955 4.79522e-05 0)
(0.0144938 0.000101563 0)
(0.0144502 0.000151924 0)
(0.0143664 0.000198855 0)
(0.0142441 0.000241995 0)
(0.0140854 0.000280956 0)
(0.0138924 0.000315442 0)
(0.0136676 0.000345389 0)
(0.0134135 0.000371168 0)
(0.0131326 0.000393838 0)
(0.0128273 0.000415404 0)
(0.0124993 0.000438941 0)
(0.0121495 0.000468354 0)
(0.0117788 0.000507292 0)
(0.0113887 0.000556334 0)
(0.010985 0.000606992 0)
(0.0105845 0.000630992 0)
(0.0102227 0.000570964 0)
(0.00994344 0.000362255 0)
(0.00973789 1.25791e-05 0)
(0.0095773 -0.000316235 0)
(0.0094298 -0.000188657 0)
(0.00893071 0.00137144 0)
(0.00810039 0.00523694 0)
(0.00404938 0.00802528 0)
(-0.00210261 0.00463684 0)
(-0.00479279 0.00244911 0)
(-0.0065207 0.00197128 0)
(-0.0079608 0.0017991 0)
(-0.00925874 0.0017244 0)
(-0.0104811 0.00168311 0)
(-0.0116482 0.00163811 0)
(-0.0127536 0.00156447 0)
(-0.0137732 0.00144516 0)
(-0.014672 0.00126961 0)
(-0.0154101 0.00103342 0)
(-0.0159479 0.000737476 0)
(-0.0162495 0.000385918 0)
(-0.0162815 -1.70828e-05 0)
(-0.0160195 -0.000466336 0)
(-0.0154728 -0.000939948 0)
(-0.0146353 -0.00141909 0)
(-0.01351 -0.00189168 0)
(-0.0121052 -0.00234647 0)
(-0.0104392 -0.00276759 0)
(-0.00855134 -0.00313138 0)
(-0.006509 -0.00340044 0)
(-0.00441497 -0.00351229 0)
(-0.00239926 -0.00336434 0)
(-0.000149081 -0.00282003 0)
(0.00153902 -0.00237609 0)
(0.0030063 -0.0019903 0)
(0.00425122 -0.00160403 0)
(0.00522547 -0.00122576 0)
(0.00593539 -0.000871652 0)
(0.00640144 -0.00055817 0)
(0.00665132 -0.000300806 0)
(0.00672288 -0.000111968 0)
(0.00665388 9.16863e-06 0)
(0.00649021 7.55733e-05 0)
(0.00626591 0.000109724 0)
(0.00599036 0.000198828 0)
(0.00560001 0.000686637 0)
(0.004565 0.00255809 0)
(0.00377195 0.00653917 0)
(-0.00270182 0.00920954 0)
(-0.00292499 0.00391472 0)
(-0.00394523 0.00122042 0)
(-0.00444495 0.000186081 0)
(-0.00465274 -0.000443535 0)
(-0.00448345 -0.00105265 0)
(-0.00401041 -0.00165711 0)
(-0.00328437 -0.00215447 0)
(-0.00241175 -0.00245125 0)
(-0.00150031 -0.00256779 0)
(-0.00059977 -0.00263372 0)
(0.000472779 -0.00271149 0)
(0.001404 -0.00272461 0)
(0.00235726 -0.00268578 0)
(0.00333632 -0.00262412 0)
(0.00432317 -0.00254552 0)
(0.0053002 -0.00245061 0)
(0.00625232 -0.00233962 0)
(0.00716806 -0.00221427 0)
(0.00803934 -0.00207764 0)
(0.00886084 -0.00193334 0)
(0.00962929 -0.00178484 0)
(0.0103431 -0.00163506 0)
(0.0110017 -0.00148627 0)
(0.0116058 -0.00134007 0)
(0.012156 -0.00119749 0)
(0.0126538 -0.00105906 0)
(0.0131003 -0.000924959 0)
(0.0134969 -0.000795089 0)
(0.0138446 -0.000669228 0)
(0.0141444 -0.000547116 0)
(0.0143971 -0.000428551 0)
(0.0146033 -0.000313486 0)
(0.0147633 -0.000202116 0)
(0.0148772 -9.48219e-05 0)
(0.0149447 8.58363e-06 0)
(0.0149663 0.000107629 0)
(0.0149432 0.000202214 0)
(0.0148762 0.000292071 0)
(0.0147665 0.000376714 0)
(0.0146153 0.000455581 0)
(0.0144238 0.000528161 0)
(0.0141936 0.000594148 0)
(0.0139263 0.000653643 0)
(0.0136241 0.000707396 0)
(0.0132898 0.00075702 0)
(0.0129275 0.000805031 0)
(0.0125423 0.000854431 0)
(0.012142 0.000907279 0)
(0.0117365 0.000961297 0)
(0.0113381 0.00100331 0)
(0.0109582 0.000999762 0)
(0.0105987 0.000894925 0)
(0.010241 0.000644896 0)
(0.00985309 0.00028482 0)
(0.00940008 -1.48122e-05 0)
(0.00886338 0.000265531 0)
(0.00831572 0.002318 0)
(0.00791208 0.0072654 0)
(0.00580054 0.011553 0)
(0.00171092 0.00983791 0)
(-0.00298916 0.00493125 0)
(-0.00504565 0.00360242 0)
(-0.00655296 0.00318361 0)
(-0.0078853 0.00298696 0)
(-0.00912772 0.00286851 0)
(-0.0103073 0.00275291 0)
(-0.0114204 0.00259203 0)
(-0.012444 0.00235452 0)
(-0.0133431 0.00202191 0)
(-0.014078 0.00158754 0)
(-0.0146103 0.00105572 0)
(-0.0149065 0.000439795 0)
(-0.0149366 -0.000240654 0)
(-0.0146897 -0.000964316 0)
(-0.0141845 -0.00171296 0)
(-0.0134204 -0.00246173 0)
(-0.0124043 -0.00319479 0)
(-0.0111427 -0.0038955 0)
(-0.0096488 -0.00453514 0)
(-0.00795411 -0.00506721 0)
(-0.00611546 -0.00542968 0)
(-0.00422216 -0.00555205 0)
(-0.00239298 -0.00536385 0)
(-0.0004276 -0.00471571 0)
(0.00124503 -0.00402496 0)
(0.00267083 -0.00337824 0)
(0.00388956 -0.00272689 0)
(0.00484868 -0.00208503 0)
(0.00554804 -0.00147566 0)
(0.00600036 -0.000924183 0)
(0.00622402 -0.000454826 0)
(0.00623965 -8.44481e-05 0)
(0.00606612 0.000188623 0)
(0.00573525 0.000371822 0)
(0.00527313 0.000492782 0)
(0.00469308 0.000659431 0)
(0.00404953 0.0013242 0)
(0.00306624 0.00404673 0)
(0.0029387 0.0098219 0)
(-0.00218105 0.0115206 0)
(-0.00216312 0.00500784 0)
(-0.00319072 0.00188009 0)
(-0.00369112 0.000586931 0)
(-0.00391583 -0.000385347 0)
(-0.00377878 -0.00133043 0)
(-0.00332135 -0.00223433 0)
(-0.00261211 -0.00294326 0)
(-0.00179991 -0.00332029 0)
(-0.000996725 -0.00345048 0)
(-0.000163611 -0.0035409 0)
(0.000739589 -0.00361425 0)
(0.0015849 -0.00363484 0)
(0.00249477 -0.00362772 0)
(0.00343769 -0.00358781 0)
(0.00439367 -0.00351218 0)
(0.00534488 -0.0034022 0)
(0.00627573 -0.00326206 0)
(0.0071741 -0.00309752 0)
(0.00803149 -0.00291494 0)
(0.00884247 -0.00272048 0)
(0.00960391 -0.00251953 0)
(0.0103144 -0.00231644 0)
(0.0109736 -0.00211446 0)
(0.0115822 -0.00191582 0)
(0.012141 -0.00172185 0)
(0.012651 -0.00153322 0)
(0.0131134 -0.00135005 0)
(0.0135291 -0.00117212 0)
(0.0138987 -0.000999043 0)
(0.0142229 -0.000830347 0)
(0.0145017 -0.000665633 0)
(0.0147354 -0.000504638 0)
(0.0149237 -0.000347285 0)
(0.0150663 -0.000193646 0)
(0.015163 -4.39271e-05 0)
(0.0152127 0.000101135 0)
(0.0152158 0.000240816 0)
(0.0151731 0.000374782 0)
(0.015085 0.000502553 0)
(0.0149523 0.000623544 0)
(0.0147759 0.00073717 0)
(0.0145568 0.000842954 0)
(0.0142962 0.000940653 0)
(0.013996 0.0010304 0)
(0.0136586 0.00111277 0)
(0.0132878 0.00118873 0)
(0.0128891 0.00125915 0)
(0.0124701 0.00132356 0)
(0.0120403 0.00137749 0)
(0.0116094 0.00140829 0)
(0.0111826 0.00139083 0)
(0.0107514 0.00129108 0)
(0.0102886 0.00108957 0)
(0.00975572 0.000818827 0)
(0.0091242 0.00061127 0)
(0.00843811 0.000910891 0)
(0.00787267 0.0029528 0)
(0.00771556 0.00829221 0)
(0.0067684 0.0137735 0)
(0.00433832 0.0138364 0)
(0.000266516 0.00917005 0)
(-0.00335176 0.00542086 0)
(-0.0049008 0.00456377 0)
(-0.00616201 0.00424521 0)
(-0.00735081 0.0040633 0)
(-0.00849397 0.00389483 0)
(-0.00958411 0.00366612 0)
(-0.0105944 0.00333141 0)
(-0.0114868 0.00286435 0)
(-0.0122195 0.00225571 0)
(-0.012753 0.00151188 0)
(-0.0130546 0.000653434 0)
(-0.0130976 -0.000288377 0)
(-0.0128792 -0.00127779 0)
(-0.0124362 -0.002279 0)
(-0.0117729 -0.00326773 0)
(-0.0108977 -0.00423345 0)
(-0.00981116 -0.00516187 0)
(-0.00851634 -0.00601509 0)
(-0.00703383 -0.00672386 0)
(-0.00541012 -0.00719965 0)
(-0.00372652 -0.00735557 0)
(-0.00208303 -0.00713143 0)
(-0.000356621 -0.00641499 0)
(0.00117974 -0.00555585 0)
(0.00252644 -0.00467768 0)
(0.0036806 -0.00377836 0)
(0.00459522 -0.00288352 0)
(0.00526325 -0.00202427 0)
(0.00568954 -0.00123364 0)
(0.00588608 -0.000541473 0)
(0.00586334 3.5852e-05 0)
(0.00564104 0.000493038 0)
(0.0052384 0.000832348 0)
(0.00468081 0.00108175 0)
(0.00399078 0.00134129 0)
(0.00325314 0.00203973 0)
(0.00222967 0.00512463 0)
(0.00239214 0.0123055 0)
(-0.00182122 0.0132516 0)
(-0.00170484 0.00584146 0)
(-0.00270031 0.0024788 0)
(-0.003128 0.000956404 0)
(-0.0033225 -0.000327152 0)
(-0.00317942 -0.00160402 0)
(-0.00270899 -0.0028113 0)
(-0.00201197 -0.00370077 0)
(-0.00128404 -0.00410133 0)
(-0.000596984 -0.00422243 0)
(0.000164212 -0.0043256 0)
(0.000916345 -0.00442537 0)
(0.00172616 -0.00449756 0)
(0.00259724 -0.00453502 0)
(0.00350544 -0.00452149 0)
(0.00442937 -0.00445207 0)
(0.00535014 -0.00433053 0)
(0.0062521 -0.00416496 0)
(0.00712347 -0.00396502 0)
(0.00795622 -0.00374042 0)
(0.00874545 -0.00349994 0)
(0.00948863 -0.00325093 0)
(0.0101849 -0.00299913 0)
(0.0108343 -0.00274868 0)
(0.0114378 -0.00250232 0)
(0.0119963 -0.00226159 0)
(0.012511 -0.00202715 0)
(0.0129826 -0.00179899 0)
(0.0134117 -0.00157669 0)
(0.0137989 -0.00135959 0)
(0.0141439 -0.001147 0)
(0.0144467 -0.000938263 0)
(0.0147066 -0.000732911 0)
(0.0149231 -0.000530679 0)
(0.0150952 -0.000331532 0)
(0.0152223 -0.000135648 0)
(0.0153033 5.64332e-05 0)
(0.0153369 0.000243164 0)
(0.0153233 0.000423882 0)
(0.0152628 0.000597935 0)
(0.0151557 0.0007646 0)
(0.0150026 0.000923122 0)
(0.0148043 0.00107278 0)
(0.0145618 0.00121296 0)
(0.0142768 0.00134321 0)
(0.0139513 0.00146321 0)
(0.0135884 0.00157263 0)
(0.0131922 0.00167072 0)
(0.0127681 0.00175537 0)
(0.0123223 0.0018216 0)
(0.0118598 0.00185949 0)
(0.0113812 0.00185299 0)
(0.0108765 0.00178343 0)
(0.010324 0.00164247 0)
(0.00969597 0.00145327 0)
(0.00897534 0.00131329 0)
(0.00819909 0.00157802 0)
(0.00756821 0.00338185 0)
(0.00753406 0.00859084 0)
(0.00737836 0.014769 0)
(0.00618868 0.0163887 0)
(0.00351652 0.0132801 0)
(-0.000351743 0.00855226 0)
(-0.00311413 0.00593734 0)
(-0.00433167 0.00539765 0)
(-0.00539698 0.00517266 0)
(-0.00644366 0.00496973 0)
(-0.00746099 0.00468365 0)
(-0.00841731 0.00425632 0)
(-0.00927246 0.00365413 0)
(-0.00998314 0.00286746 0)
(-0.0105089 0.00190885 0)
(-0.0108163 0.000812601 0)
(-0.0108808 -0.000369259 0)
(-0.0107043 -0.00158355 0)
(-0.0103395 -0.00279221 0)
(-0.00979358 -0.00397178 0)
(-0.00907607 -0.00512425 0)
(-0.0081804 -0.00624489 0)
(-0.00709802 -0.00728951 0)
(-0.00583873 -0.00816448 0)
(-0.00444038 -0.00875386 0)
(-0.00297882 -0.00895021 0)
(-0.00152992 -0.00869698 0)
(-2.18408e-05 -0.00792545 0)
(0.00133113 -0.00695322 0)
(0.00256369 -0.00588573 0)
(0.00362051 -0.00476822 0)
(0.00446343 -0.00364113 0)
(0.00507918 -0.0025455 0)
(0.00546535 -0.00152252 0)
(0.00562732 -0.000608779 0)
(0.00557229 0.000177386 0)
(0.0053154 0.000826605 0)
(0.00487372 0.00133421 0)
(0.00427618 0.00172214 0)
(0.00355228 0.00207686 0)
(0.00280656 0.00277265 0)
(0.00174466 0.00593187 0)
(0.0020146 0.0141647 0)
(-0.00155224 0.0146448 0)
(-0.00138694 0.00653627 0)
(-0.00232543 0.00300449 0)
(-0.00266577 0.00127142 0)
(-0.00281671 -0.000295165 0)
(-0.00264013 -0.00189514 0)
(-0.00212996 -0.003399 0)
(-0.00145638 -0.00440892 0)
(-0.000836126 -0.00477494 0)
(-0.000248258 -0.00488389 0)
(0.000415482 -0.00501988 0)
(0.00109803 -0.00517796 0)
(0.00187151 -0.00532004 0)
(0.00270711 -0.00540798 0)
(0.0035805 -0.00542186 0)
(0.00446905 -0.00535862 0)
(0.00535352 -0.00522566 0)
(0.00621892 -0.00503527 0)
(0.00705448 -0.00480118 0)
(0.00785322 -0.00453651 0)
(0.00861123 -0.00425271 0)
(0.00932683 -0.00395908 0)
(0.00999988 -0.00366262 0)
(0.0106311 -0.00336821 0)
(0.0112216 -0.00307891 0)
(0.0117726 -0.00279631 0)
(0.012285 -0.00252091 0)
(0.0127596 -0.00225241 0)
(0.0131968 -0.00199007 0)
(0.0135963 -0.0017329 0)
(0.0139579 -0.00147987 0)
(0.0142806 -0.00123006 0)
(0.0145635 -0.000982766 0)
(0.0148054 -0.000737571 0)
(0.015005 -0.000494345 0)
(0.0151609 -0.000253267 0)
(0.0152721 -1.48675e-05 0)
(0.0153366 0.000219217 0)
(0.0153534 0.000447465 0)
(0.0153225 0.000668917 0)
(0.0152438 0.000882609 0)
(0.0151176 0.00108756 0)
(0.0149444 0.00128278 0)
(0.0147251 0.00146733 0)
(0.0144609 0.00164031 0)
(0.0141536 0.00180078 0)
(0.0138054 0.00194763 0)
(0.0134191 0.00207925 0)
(0.012998 0.002193 0)
(0.0125453 0.00228445 0)
(0.0120626 0.00234663 0)
(0.0115478 0.0023701 0)
(0.0109921 0.00234563 0)
(0.0103797 0.00227132 0)
(0.00969252 0.00216523 0)
(0.0089196 0.00209648 0)
(0.00808368 0.00232482 0)
(0.00735576 0.00379659 0)
(0.00732304 0.00849547 0)
(0.00771343 0.0148713 0)
(0.00750673 0.0176876 0)
(0.00603581 0.0161056 0)
(0.00321479 0.0122567 0)
(-0.000105416 0.00840652 0)
(-0.00238419 0.00647625 0)
(-0.00337966 0.00614022 0)
(-0.00428485 0.00593832 0)
(-0.00518395 0.00561891 0)
(-0.00604624 0.00512517 0)
(-0.00683494 0.00441437 0)
(-0.0075088 0.00347723 0)
(-0.00802794 0.00233141 0)
(-0.00835441 0.00102156 0)
(-0.00845981 -0.000383151 0)
(-0.00833698 -0.00180632 0)
(-0.00805874 -0.00319512 0)
(-0.00763267 -0.0045285 0)
(-0.00707007 -0.00583194 0)
(-0.00635929 -0.00711837 0)
(-0.00548214 -0.00834024 0)
(-0.00444134 -0.00937674 0)
(-0.00326763 -0.0100816 0)
(-0.00203466 -0.0103271 0)
(-0.000776446 -0.0100494 0)
(0.000499816 -0.00924578 0)
(0.00167345 -0.00818802 0)
(0.00276259 -0.00696926 0)
(0.00369858 -0.00566373 0)
(0.00444822 -0.00432734 0)
(0.0049937 -0.00301186 0)
(0.00532689 -0.00176698 0)
(0.00544739 -0.000636458 0)
(0.00535955 0.000358079 0)
(0.00507296 0.00119786 0)
(0.00460454 0.00187054 0)
(0.0039869 0.00239056 0)
(0.00325095 0.0028311 0)
(0.00251887 0.00351821 0)
(0.00143149 0.00662828 0)
(0.00173265 0.0156696 0)
(-0.00134396 0.0158282 0)
(-0.00115177 0.00714144 0)
(-0.00201488 0.00345063 0)
(-0.00226077 0.00151759 0)
(-0.00235782 -0.000311623 0)
(-0.0021254 -0.0022269 0)
(-0.0015518 -0.0040041 0)
(-0.00093825 -0.00504192 0)
(-0.000436801 -0.00533665 0)
(7.27483e-05 -0.00545176 0)
(0.000638606 -0.00564794 0)
(0.00129136 -0.00589113 0)
(0.00203239 -0.0061084 0)
(0.00283423 -0.00624687 0)
(0.0036706 -0.00628611 0)
(0.00451862 -0.00622682 0)
(0.00536006 -0.00608104 0)
(0.00618139 -0.00586566 0)
(0.00697343 -0.00559851 0)
(0.00773064 -0.00529608 0)
(0.00845035 -0.00497238 0)
(0.0091319 -0.00463843 0)
(0.00977595 -0.00430232 0)
(0.0103837 -0.00396942 0)
(0.0109567 -0.0036429 0)
(0.011496 -0.0033242 0)
(0.0120027 -0.00301346 0)
(0.012477 -0.00270998 0)
(0.0129189 -0.00241259 0)
(0.0133279 -0.00211986 0)
(0.0137029 -0.00183041 0)
(0.0140426 -0.00154302 0)
(0.0143455 -0.00125678 0)
(0.0146098 -0.000971114 0)
(0.0148337 -0.000685865 0)
(0.0150154 -0.000401256 0)
(0.0151535 -0.000117881 0)
(0.0152463 0.000162961 0)
(0.0152917 0.000438831 0)
(0.0152892 0.00070835 0)
(0.0152385 0.000970211 0)
(0.0151394 0.00122311 0)
(0.0149922 0.00146576 0)
(0.0147974 0.00169683 0)
(0.014556 0.00191506 0)
(0.0142691 0.00211908 0)
(0.0139384 0.00230737 0)
(0.0135656 0.00247806 0)
(0.0131527 0.0026286 0)
(0.0127007 0.00275558 0)
(0.0122097 0.00285449 0)
(0.0116765 0.00292031 0)
(0.0110939 0.00294941 0)
(0.0104506 0.00294357 0)
(0.00973414 0.00291754 0)
(0.00893713 0.00292047 0)
(0.00807312 0.0031357 0)
(0.00725883 0.00428461 0)
(0.0071121 0.00822488 0)
(0.00781379 0.0143509 0)
(0.00836291 0.0179763 0)
(0.00790801 0.0177415 0)
(0.00617002 0.0150452 0)
(0.00348052 0.0115201 0)
(0.00072258 0.00856022 0)
(-0.00124245 0.00706246 0)
(-0.00212169 0.00675554 0)
(-0.00289385 0.00642955 0)
(-0.0036307 0.00590368 0)
(-0.0043268 0.00511665 0)
(-0.00494485 0.00406397 0)
(-0.00545331 0.00276674 0)
(-0.0058145 0.00127468 0)
(-0.00599005 -0.000336384 0)
(-0.005933 -0.00195899 0)
(-0.00575155 -0.00350151 0)
(-0.00543962 -0.00495448 0)
(-0.00501292 -0.00637589 0)
(-0.00446112 -0.00780197 0)
(-0.0037642 -0.00918484 0)
(-0.00292243 -0.0103715 0)
(-0.00196482 -0.0111863 0)
(-0.00094635 -0.0114839 0)
(0.000122791 -0.0111817 0)
(0.00115415 -0.010382 0)
(0.00216308 -0.00925119 0)
(0.00309197 -0.00791092 0)
(0.00389269 -0.00644605 0)
(0.00453372 -0.00492558 0)
(0.00499465 -0.0034113 0)
(0.0052637 -0.00196103 0)
(0.00533585 -0.000625757 0)
(0.00521271 0.00056954 0)
(0.00489762 0.00159411 0)
(0.00440735 0.00242534 0)
(0.00377696 0.00306902 0)
(0.00303525 0.00358733 0)
(0.00232229 0.00427041 0)
(0.00122403 0.00728747 0)
(0.00151437 0.0169676 0)
(-0.00117958 0.0168543 0)
(-0.000971517 0.00766555 0)
(-0.00174542 0.00381021 0)
(-0.00189072 0.00168786 0)
(-0.00192509 -0.00038613 0)
(-0.00161305 -0.00261819 0)
(-0.000964601 -0.00461498 0)
(-0.000467772 -0.00556775 0)
(-7.73522e-05 -0.00579087 0)
(0.000348552 -0.00594485 0)
(0.00086377 -0.00623209 0)
(0.00148993 -0.00657363 0)
(0.00220118 -0.00686535 0)
(0.0029672 -0.00704954 0)
(0.00376114 -0.00710904 0)
(0.00456154 -0.00704986 0)
(0.00535235 -0.00688924 0)
(0.00612224 -0.00664869 0)
(0.00686399 -0.00634999 0)
(0.00757371 -0.00601276 0)
(0.0082501 -0.00565331 0)
(0.00889358 -0.00528412 0)
(0.00950552 -0.00491405 0)
(0.0100876 -0.00454873 0)
(0.0106415 -0.00419117 0)
(0.0111682 -0.00384241 0)
(0.0116684 -0.00350209 0)
(0.0121421 -0.00316897 0)
(0.0125885 -0.00284133 0)
(0.0130065 -0.00251728 0)
(0.0133945 -0.00219504 0)
(0.0137505 -0.0018731 0)
(0.0140722 -0.00155035 0)
(0.0143574 -0.00122616 0)
(0.0146038 -0.000900357 0)
(0.0148091 -0.000573303 0)
(0.0149713 -0.000245796 0)
(0.0150895 8.11651e-05 0)
(0.0151602 0.000404362 0)
(0.015183 0.000721934 0)
(0.0151575 0.00103222 0)
(0.0150833 0.00133364 0)
(0.0149604 0.00162456 0)
(0.0147891 0.00190335 0)
(0.01457 0.00216841 0)
(0.0143038 0.00241811 0)
(0.0139918 0.00265073 0)
(0.013635 0.0028644 0)
(0.0132342 0.00305699 0)
(0.0127898 0.00322609 0)
(0.012301 0.00336913 0)
(0.0117648 0.00348397 0)
(0.0111759 0.0035702 0)
(0.0105261 0.00363174 0)
(0.00980684 0.00368149 0)
(0.00901271 0.00375601 0)
(0.00815277 0.00398336 0)
(0.00729751 0.00487387 0)
(0.00697738 0.00795248 0)
(0.0077513 0.013433 0)
(0.00881729 0.0174875 0)
(0.00918214 0.0183633 0)
(0.00841133 0.0168297 0)
(0.00658599 0.0140847 0)
(0.00415824 0.011128 0)
(0.00180211 0.00882139 0)
(0.000265174 0.00766865 0)
(-0.000681205 0.00711172 0)
(-0.0013161 0.00655807 0)
(-0.00191142 0.00572583 0)
(-0.00244741 0.00460783 0)
(-0.00291207 0.00322084 0)
(-0.00330228 0.00159581 0)
(-0.00359497 -0.000212644 0)
(-0.00359761 -0.00202966 0)
(-0.00353089 -0.00370507 0)
(-0.00332873 -0.00526293 0)
(-0.00301289 -0.00678484 0)
(-0.00258367 -0.00832892 0)
(-0.00203194 -0.0098527 0)
(-0.00136016 -0.0111757 0)
(-0.000598568 -0.0120846 0)
(0.00023524 -0.012417 0)
(0.00107032 -0.0121273 0)
(0.00192189 -0.0113225 0)
(0.00275274 -0.0101403 0)
(0.00351648 -0.00870142 0)
(0.00417428 -0.00710252 0)
(0.00469697 -0.00542296 0)
(0.00506352 -0.00373255 0)
(0.00526013 -0.00209625 0)
(0.00527832 -0.000571039 0)
(0.00511637 0.000814283 0)
(0.00477199 0.00201445 0)
(0.00426166 0.00299499 0)
(0.00362175 0.00375266 0)
(0.00287678 0.00434074 0)
(0.00218388 0.00502313 0)
(0.00108805 0.00793054 0)
(0.00134184 0.0181222 0)
(-0.00104722 0.0177511 0)
(-0.000827616 0.00810902 0)
(-0.00150489 0.00407715 0)
(-0.00154606 0.00177362 0)
(-0.00151553 -0.000532755 0)
(-0.00108431 -0.0030876 0)
(-0.000396287 -0.00519295 0)
(-6.00502e-05 -0.00596376 0)
(0.00023067 -0.00614944 0)
(0.000585504 -0.00638277 0)
(0.00107476 -0.00678688 0)
(0.0016773 -0.00722926 0)
(0.00235704 -0.00758873 0)
(0.00308119 -0.00781011 0)
(0.00382461 -0.00788298 0)
(0.00456896 -0.00781964 0)
(0.00530124 -0.00764251 0)
(0.00601273 -0.00737741 0)
(0.00669832 -0.00704968 0)
(0.00735586 -0.00668173 0)
(0.00798538 -0.0062918 0)
(0.00858832 -0.00589354 0)
(0.0091667 -0.00549622 0)
(0.00972253 -0.00510541 0)
(0.0102574 -0.00472368 0)
(0.0107722 -0.00435147 0)
(0.011267 -0.00398774 0)
(0.0117412 -0.00363055 0)
(0.0121936 -0.00327756 0)
(0.0126221 -0.0029264 0)
(0.0130244 -0.00257486 0)
(0.0133977 -0.00222118 0)
(0.0137391 -0.00186409 0)
(0.0140456 -0.00150294 0)
(0.0143144 -0.00113768 0)
(0.0145428 -0.000768862 0)
(0.0147282 -0.000397607 0)
(0.0148691 -2.52532e-05 0)
(0.0149633 0.00034535 0)
(0.0150089 0.000711111 0)
(0.0150058 0.00107006 0)
(0.0149538 0.00142033 0)
(0.0148529 0.00176006 0)
(0.0147032 0.00208734 0)
(0.0145052 0.00240029 0)
(0.0142595 0.0026971 0)
(0.0139667 0.00297598 0)
(0.0136277 0.00323515 0)
(0.0132429 0.00347289 0)
(0.0128123 0.00368764 0)
(0.012335 0.00387821 0)
(0.011809 0.00404429 0)
(0.0112304 0.00418742 0)
(0.0105942 0.0043127 0)
(0.00989467 0.004432 0)
(0.00912852 0.00457404 0)
(0.00830303 0.00482914 0)
(0.00746203 0.00554006 0)
(0.00698997 0.00781225 0)
(0.00763058 0.0123474 0)
(0.00895607 0.016449 0)
(0.00992265 0.0181638 0)
(0.0099638 0.0177047 0)
(0.0089842 0.0158749 0)
(0.00720489 0.0134167 0)
(0.00503531 0.0109728 0)
(0.00309961 0.00912754 0)
(0.00173289 0.00797933 0)
(0.000909947 0.0071762 0)
(0.000319657 0.00628924 0)
(-0.000172158 0.00511261 0)
(-0.000587546 0.00366195 0)
(-0.000955195 0.00205109 0)
(-0.00122304 0.000165391 0)
(-0.00137508 -0.00195381 0)
(-0.00144063 -0.0037823 0)
(-0.00135156 -0.00546657 0)
(-0.00112814 -0.00709524 0)
(-0.00078993 -0.00874482 0)
(-0.000349966 -0.0103888 0)
(0.000181805 -0.0118229 0)
(0.000771241 -0.0127852 0)
(0.0014035 -0.0131492 0)
(0.0020671 -0.0128878 0)
(0.0027427 -0.0120813 0)
(0.00339762 -0.0108565 0)
(0.00399698 -0.00933683 0)
(0.00450963 -0.0076265 0)
(0.00490973 -0.00581171 0)
(0.00517681 -0.0039683 0)
(0.00529618 -0.00216694 0)
(0.00525677 -0.00046845 0)
(0.00505272 0.00109378 0)
(0.00467812 0.00245847 0)
(0.00414887 0.00357804 0)
(0.00350158 0.00443966 0)
(0.0027552 0.00508926 0)
(0.00208118 0.00577146 0)
(0.000997857 0.00856387 0)
(0.00120226 0.0191677 0)
(-0.000938725 0.0185403 0)
(-0.000709749 0.00847525 0)
(-0.00129118 0.00425016 0)
(-0.00122927 0.00176782 0)
(-0.0011361 -0.000760551 0)
(-0.000519851 -0.0036618 0)
(8.62119e-05 -0.00566726 0)
(0.000269514 -0.00622711 0)
(0.000466269 -0.00642769 0)
(0.000783271 -0.00678487 0)
(0.00125315 -0.00731989 0)
(0.00183128 -0.00785702 0)
(0.0024728 -0.00827212 0)
(0.00314583 -0.00851984 0)
(0.00382927 -0.00859881 0)
(0.00450903 -0.00852769 0)
(0.00517557 -0.00833349 0)
(0.00582284 -0.00804571 0)
(0.00644778 -0.00769272 0)
(0.00704982 -0.00729931 0)
(0.00763023 -0.00688531 0)
(0.00819132 -0.00646514 0)
(0.00873563 -0.00604817 0)
(0.00926532 -0.00563954 0)
(0.00978182 -0.00524111 0)
(0.0102856 -0.00485249 0)
(0.0107763 -0.00447177 0)
(0.0112526 -0.00409625 0)
(0.0117123 -0.00372292 0)
(0.0121529 -0.00334883 0)
(0.012571 -0.00297141 0)
(0.0129632 -0.00258862 0)
(0.0133259 -0.00219911 0)
(0.0136553 -0.00180226 0)
(0.0139479 -0.0013982 0)
(0.0142004 -0.000987773 0)
(0.01441 -0.000572446 0)
(0.0145741 -0.000154133 0)
(0.0146918 0.000264405 0)
(0.0147594 0.000678872 0)
(0.0147774 0.00108688 0)
(0.014746 0.00148627 0)
(0.0146653 0.00187496 0)
(0.0145357 0.00225085 0)
(0.0143577 0.00261193 0)
(0.014132 0.00295627 0)
(0.0138593 0.00328208 0)
(0.0135401 0.00358768 0)
(0.0131748 0.00387168 0)
(0.0127636 0.00413307 0)
(0.0123061 0.00437149 0)
(0.0118009 0.00458775 0)
(0.0112462 0.00478445 0)
(0.0106395 0.00496727 0)
(0.00997811 0.00514722 0)
(0.00926115 0.00534781 0)
(0.00849609 0.00563392 0)
(0.00771524 0.00622886 0)
(0.00716768 0.00785574 0)
(0.00756323 0.0113218 0)
(0.00889077 0.0151038 0)
(0.0102246 0.0173507 0)
(0.0108923 0.0178013 0)
(0.010661 0.0168924 0)
(0.00958609 0.015127 0)
(0.00790454 0.0129794 0)
(0.00603154 0.0109216 0)
(0.00438235 0.00925081 0)
(0.00320142 0.0079689 0)
(0.00241244 0.00682089 0)
(0.00185584 0.00554432 0)
(0.00142364 0.00404658 0)
(0.00103644 0.0023805 0)
(0.000839632 0.000459657 0)
(0.000639408 -0.00169951 0)
(0.000493947 -0.00373728 0)
(0.000489277 -0.00559258 0)
(0.000630209 -0.00735032 0)
(0.000886294 -0.00909605 0)
(0.00122677 -0.0108037 0)
(0.0016278 -0.0122876 0)
(0.00207597 -0.0133135 0)
(0.00255886 -0.0137204 0)
(0.00306181 -0.0134788 0)
(0.00356727 -0.0126656 0)
(0.00405229 -0.0114037 0)
(0.004492 -0.00981835 0)
(0.00486228 -0.00801692 0)
(0.00514081 -0.00608932 0)
(0.00530812 -0.00411536 0)
(0.00534932 -0.00217015 0)
(0.00525114 -0.00031489 0)
(0.00500297 0.00140937 0)
(0.00459819 0.00292594 0)
(0.00405164 0.0041732 0)
(0.00339945 0.00512831 0)
(0.0026542 0.00583087 0)
(0.00199828 0.00651176 0)
(0.000935207 0.00919102 0)
(0.00108663 0.0201286 0)
(-0.00084881 0.0192401 0)
(-0.000614174 0.0087722 0)
(-0.00110972 0.00433557 0)
(-0.000948113 0.00166963 0)
(-0.00077923 -0.00109017 0)
(6.03104e-05 -0.00436325 0)
(0.000418413 -0.00595209 0)
(0.000501523 -0.00637856 0)
(0.000630232 -0.0066535 0)
(0.000924699 -0.00716445 0)
(0.00137971 -0.00783283 0)
(0.00192716 -0.00845048 0)
(0.00252002 -0.00890567 0)
(0.00313134 -0.0091686 0)
(0.00374576 -0.00924753 0)
(0.00435383 -0.00916658 0)
(0.00494939 -0.00895634 0)
(0.00552879 -0.00864915 0)
(0.0060907 -0.0082759 0)
(0.00663589 -0.00786335 0)
(0.00716665 -0.00743256 0)
(0.00768596 -0.00699837 0)
(0.00819667 -0.0065699 0)
(0.00870093 -0.00615151 0)
(0.00919987 -0.00574412 0)
(0.0096935 -0.00534628 0)
(0.0101808 -0.00495513 0)
(0.0106597 -0.0045671 0)
(0.0111274 -0.00417847 0)
(0.0115805 -0.00378574 0)
(0.0120152 -0.00338593 0)
(0.0124271 -0.00297679 0)
(0.0128119 -0.00255688 0)
(0.0131652 -0.00212567 0)
(0.0134828 -0.00168353 0)
(0.013761 -0.00123166 0)
(0.0139963 -0.000771985 0)
(0.0141854 -0.000306984 0)
(0.0143283 0.000160431 0)
(0.014419 0.000624795 0)
(0.0144587 0.00108288 0)
(0.0144478 0.00153205 0)
(0.0143872 0.00197002 0)
(0.0142773 0.00239456 0)
(0.0141193 0.00280358 0)
(0.0139139 0.00319513 0)
(0.0136622 0.00356747 0)
(0.013365 0.00391908 0)
(0.0130228 0.00424876 0)
(0.0126361 0.00455581 0)
(0.0122051 0.00484029 0)
(0.0117296 0.00510346 0)
(0.0112094 0.00534833 0)
(0.0106443 0.00558054 0)
(0.0100345 0.00581012 0)
(0.00938218 0.00605645 0)
(0.00869613 0.00636673 0)
(0.00800459 0.00688419 0)
(0.00746302 0.00804727 0)
(0.00761779 0.0105209 0)
(0.00874364 0.0136964 0)
(0.010205 0.0161443 0)
(0.0112989 0.0172845 0)
(0.0116747 0.0172095 0)
(0.0112605 0.0161962 0)
(0.010163 0.0145591 0)
(0.00864192 0.0126519 0)
(0.00702984 0.0107778 0)
(0.00563013 0.00910067 0)
(0.00456814 0.00758375 0)
(0.00380801 0.00606681 0)
(0.00325167 0.00442393 0)
(0.0028122 0.00261698 0)
(0.00254146 0.000564096 0)
(0.00235715 -0.00158813 0)
(0.00223383 -0.00367924 0)
(0.00218912 -0.00564538 0)
(0.00225684 -0.00751127 0)
(0.00242735 -0.00934184 0)
(0.00267621 -0.0111164 0)
(0.00297681 -0.0126551 0)
(0.00330756 -0.0137173 0)
(0.0036535 -0.0141444 0)
(0.00400372 -0.0139084 0)
(0.00434761 -0.0130831 0)
(0.00467182 -0.0117894 0)
(0.00496046 -0.0101518 0)
(0.00519582 -0.00827792 0)
(0.00535869 -0.00625828 0)
(0.00543039 -0.00417482 0)
(0.00539626 -0.00210597 0)
(0.00524062 -0.000108997 0)
(0.00494885 0.00176094 0)
(0.00451539 0.00341554 0)
(0.00395416 0.00477829 0)
(0.00330057 0.00581588 0)
(0.00256053 0.00656264 0)
(0.00192405 0.00724023 0)
(0.000888295 0.00981298 0)
(0.000988904 0.0210221 0)
(-0.000773982 0.0198668 0)