/*--------------------------------*- C++ -*----------------------------------*\
| =========                 |                                                 |
| \\      /  F ield         | OpenFOAM: The Open Source CFD Toolbox           |
|  \\    /   O peration     | Version:  4.1                                   |
|   \\  /    A nd           | Web:      www.OpenFOAM.org                      |
|    \\/     M anipulation  |                                                 |
\*---------------------------------------------------------------------------*/
FoamFile
{
    version     2.0;
    format      ascii;
    class       volScalarField;
    location    "920";
    object      mag(U);
}
// * * * * * * * * * * * * * * * * * * * * * * * * * * * * * * * * * * * * * //

dimensions      [0 1 -1 0 0 0 0];

internalField   nonuniform List<scalar> 
5000
(
0.00234451
0.0020398
0.00139946
0.00022496
0.00294036
0.00677063
0.00853728
0.00883733
0.00839481
0.00756518
0.00654685
0.00547513
0.00443644
0.00345749
0.00253809
0.00169754
0.000739814
0.000132968
0.000277311
0.00053328
0.00076052
0.00107641
0.00151036
0.00202735
0.00260441
0.00322914
0.00389311
0.00458954
0.00531256
0.00605678
0.00681715
0.007589
0.0083683
0.00915223
0.00993972
0.0107322
0.0115336
0.0123498
0.0131858
0.01404
0.0148953
0.015711
0.0164199
0.0169379
0.0171739
0.0170182
0.0163062
0.0147863
0.0120254
0.00736901
0.00248834
0.00255669
0.00294057
0.00538354
0.00499943
0.00386138
0.00261973
0.00179733
0.00280444
0.00626748
0.00960329
0.0112784
0.0115658
0.0110955
0.0103323
0.00954366
0.00886137
0.00833228
0.0079599
0.00772736
0.00760813
0.00757048
0.00757943
0.00760287
0.0076133
0.00758477
0.00749188
0.00730975
0.00701265
0.00657219
0.00595766
0.00513889
0.00409644
0.00286106
0.00163583
0.00110396
0.00162725
0.00184849
0.00143273
0.00271802
0.00843401
0.0100174
0.00922837
0.00711034
0.00490305
0.00304109
0.00173082
0.00146272
0.00233436
0.00248496
0.00345072
0.00154409
0.0020553
0.00289727
0.00580567
0.00759998
0.00826845
0.0085171
0.00839878
0.0079193
0.00720573
0.00638712
0.00557666
0.00483372
0.00418499
0.00361972
0.00300539
0.00229311
0.00156175
0.000872131
0.000646198
0.00111629
0.0017291
0.00237878
0.00305124
0.00374671
0.0044654
0.00520614
0.00596674
0.00674416
0.00753454
0.0083334
0.00913594
0.00993746
0.0107339
0.0115226
0.0123027
0.0130757
0.0138439
0.0146072
0.0153546
0.0160549
0.0166496
0.0170615
0.0171731
0.0168423
0.0159622
0.0145119
0.0125818
0.0099765
0.0060061
0.0021921
0.00568881
0.00447048
0.00456047
0.00485745
0.00447437
0.00513938
0.0073628
0.00944211
0.0109238
0.0117223
0.0120149
0.011899
0.0115489
0.0111351
0.0107414
0.0104077
0.010141
0.00993225
0.00976684
0.00963071
0.00951223
0.00939846
0.00927454
0.00912595
0.00893746
0.00869171
0.00836963
0.00795225
0.00742271
0.00676987
0.00599628
0.00513435
0.00425132
0.00336554
0.00233413
0.00152496
0.0036097
0.00648308
0.00823558
0.00772983
0.00632245
0.00524723
0.00378429
0.00250642
0.00185739
0.00207719
0.00211244
0.0035805
0.00457116
0.000700391
0.00187536
0.00413294
0.00743506
0.0082236
0.00782185
0.00784098
0.00797735
0.00777844
0.00726908
0.00658146
0.00586219
0.00519289
0.00458812
0.00402233
0.00343678
0.0028268
0.00224237
0.00174766
0.00142585
0.00149882
0.00187658
0.00240759
0.00301093
0.00365902
0.00434161
0.00505259
0.00578696
0.00653992
0.00730633
0.00808048
0.00885614
0.0096268
0.010386
0.0111281
0.0118485
0.0125454
0.0132185
0.0138675
0.0144848
0.0150436
0.0154894
0.0157497
0.0157256
0.0153634
0.0146868
0.0138963
0.0132534
0.0121963
0.00927966
0.00427922
0.00790437
0.00565705
0.00352503
0.00557221
0.00608824
0.00719878
0.00909198
0.0105542
0.0110336
0.0110763
0.011208
0.0113193
0.0112521
0.0110625
0.0108459
0.0106598
0.0105214
0.0104271
0.0103663
0.0103276
0.010301
0.0102764
0.0102434
0.0101914
0.0101103
0.00999018
0.00982228
0.00960047
0.00932287
0.0089928
0.00861778
0.00820209
0.00772534
0.00712253
0.00640252
0.00604994
0.0066629
0.0079631
0.00789402
0.00549866
0.00534547
0.00577057
0.0045246
0.00345323
0.00278931
0.0024903
0.00194598
0.00480102
0.00478042
0.000824575
0.00114941
0.00526887
0.0085742
0.00881127
0.0076477
0.0074086
0.00764054
0.00763212
0.00730068
0.00671266
0.00605339
0.00543424
0.00486322
0.00432325
0.00379305
0.00327792
0.00280912
0.00243077
0.00218859
0.00212952
0.00231318
0.00268074
0.00316489
0.00372269
0.00433329
0.00498426
0.00566653
0.00637251
0.00709509
0.007827
0.00856052
0.00928741
0.00999907
0.0106868
0.0113426
0.0119599
0.0125352
0.0130665
0.0135487
0.0139617
0.0142628
0.0143963
0.0142903
0.0139675
0.0135983
0.0135659
0.01404
0.0139065
0.0115506
0.00717102
0.00836163
0.00799046
0.00386302
0.00485903
0.00662335
0.0076903
0.00937717
0.0105873
0.0106281
0.0102985
0.0104234
0.0107339
0.010878
0.0108771
0.010829
0.0107972
0.0108025
0.0108431
0.010909
0.0109901
0.0110768
0.0111608
0.011234
0.0112895
0.0113221
0.011329
0.0113105
0.0112715
0.0112221
0.0111758
0.0111433
0.0111168
0.0110484
0.0108312
0.0103174
0.00938416
0.00826891
0.00783298
0.00679262
0.00338593
0.00686911
0.00632846
0.00528412
0.00412753
0.00307007
0.00243037
0.00153961
0.00570695
0.0038005
0.00206404
0.00214976
0.00693036
0.00967373
0.00947961
0.00767431
0.00704869
0.00729313
0.00747293
0.00733263
0.00682545
0.00621067
0.0056409
0.00511518
0.00462458
0.00416048
0.0037291
0.00335029
0.00305283
0.0028667
0.00279473
0.00287317
0.00310398
0.00346151
0.00391022
0.00442645
0.00499478
0.00560335
0.00624215
0.00690213
0.00757442
0.00824995
0.00891912
0.00957163
0.0101965
0.0107826
0.011319
0.0117973
0.0122122
0.0125584
0.0128212
0.012972
0.0129838
0.0128264
0.0126227
0.0126831
0.0134433
0.0147621
0.015142
0.0132137
0.00945677
0.00852103
0.00903954
0.006767
0.00386479
0.00561273
0.00724337
0.00896636
0.0101553
0.0100428
0.00946319
0.00956294
0.0100666
0.0104367
0.0106273
0.0107533
0.0108841
0.0110424
0.0112256
0.0114235
0.011626
0.0118235
0.0120067
0.0121702
0.0123117
0.0124277
0.0125195
0.0125925
0.0126567
0.0127269
0.0128202
0.0129484
0.013104
0.0132393
0.0132412
0.0129015
0.011895
0.00995446
0.00749055
0.00497187
0.00100146
0.00677339
0.00654622
0.00592109
0.00483874
0.0033212
0.00213902
0.0010217
0.00644096
0.00182182
0.0021053
0.00432337
0.0085468
0.0107645
0.0102577
0.00787792
0.00669634
0.00686651
0.00726213
0.00735183
0.00690875
0.00633007
0.00581369
0.00534431
0.00491599
0.0045228
0.00416864
0.00386545
0.00363057
0.00348187
0.00342568
0.00345981
0.0036014
0.00385024
0.00419207
0.0046077
0.00508198
0.00560269
0.00615878
0.00674
0.00733638
0.00793783
0.00853386
0.0091132
0.00966354
0.0101714
0.0106225
0.0110034
0.0113032
0.0115131
0.0116199
0.0116094
0.0114886
0.011306
0.0113193
0.0119428
0.0134764
0.0153581
0.0159726
0.0143843
0.0112626
0.00925489
0.00935001
0.0085891
0.00650788
0.00500658
0.00659237
0.00836806
0.00964438
0.00956166
0.00874165
0.0086563
0.0092786
0.00989624
0.0102952
0.0106051
0.0109067
0.0112242
0.0115534
0.0118823
0.0121959
0.0124851
0.0127461
0.0129747
0.0131688
0.0133341
0.0134694
0.0135814
0.0136794
0.0137755
0.0138813
0.0140024
0.0141287
0.0142229
0.0142053
0.0139312
0.0131652
0.0116097
0.00913368
0.00629255
0.00525202
0.00680593
0.00718294
0.00687122
0.00598609
0.00445773
0.00225857
0.000605105
0.00693734
0.00068598
0.00242756
0.00626038
0.00973263
0.0116578
0.011049
0.00821235
0.00630857
0.00628732
0.00695555
0.00733347
0.00693622
0.0063962
0.00594028
0.00553814
0.00518104
0.00486193
0.0045815
0.00434602
0.00416529
0.00404995
0.00400715
0.00403271
0.00412983
0.00430409
0.00455694
0.00487989
0.00526158
0.00569067
0.00615621
0.00664789
0.00715529
0.00766799
0.00817524
0.00866553
0.00912617
0.00954274
0.00989885
0.0101769
0.01036
0.0104324
0.0103765
0.0101894
0.00992264
0.00975752
0.0101187
0.0114133
0.0136002
0.0157521
0.0164028
0.0150683
0.0124963
0.0102551
0.00967189
0.00966749
0.0090188
0.00718856
0.00664161
0.00799476
0.00926226
0.00933162
0.0083516
0.00786454
0.00841866
0.00923469
0.00988429
0.0103961
0.0108755
0.0113451
0.0118007
0.0122292
0.0126242
0.0129817
0.013299
0.0135744
0.013807
0.0139972
0.0141555
0.014285
0.0143939
0.0144896
0.0145768
0.0146528
0.0147005
0.0146824
0.0145326
0.0141507
0.0134075
0.0121909
0.0105427
0.00889585
0.00810834
0.00840115
0.00854718
0.00824913
0.00742729
0.00596337
0.00356377
0.000593059
0.00717941
0.000263557
0.00346705
0.00724613
0.0103756
0.0122348
0.0117546
0.00865157
0.00589694
0.0054718
0.00649396
0.00722542
0.00685934
0.0063808
0.00600035
0.00567918
0.00540263
0.00516181
0.00495481
0.00478434
0.00465586
0.00457581
0.00454969
0.00457935
0.00466085
0.00479916
0.00499406
0.00524465
0.00554647
0.00589096
0.00626791
0.00666755
0.00707925
0.00749287
0.00789797
0.00828354
0.00863742
0.00894551
0.00919093
0.00935413
0.0094138
0.00934682
0.00912535
0.00874877
0.00832187
0.00825827
0.00912286
0.0111037
0.0137157
0.0158694
0.0164318
0.0152957
0.0131987
0.0111647
0.0102482
0.0104645
0.010803
0.010082
0.00842684
0.00828611
0.00914781
0.00934179
0.00839975
0.00744806
0.00764368
0.0084856
0.00933084
0.0100567
0.0107089
0.0113167
0.0118786
0.0123922
0.0128555
0.0132666
0.0136253
0.0139321
0.0141899
0.0144013
0.0145717
0.014711
0.0148248
0.014918
0.0149918
0.0150402
0.015047
0.0149813
0.0147947
0.0144216
0.0137927
0.0128807
0.0117847
0.0107959
0.0102635
0.0101794
0.010112
0.00978829
0.00902759
0.00762916
0.00531246
0.00181371
0.00659207
0.000495459
0.00402262
0.0076736
0.0106042
0.0124818
0.0122986
0.00919529
0.00560703
0.00437605
0.00585039
0.00696484
0.00663302
0.00625745
0.00597709
0.00575378
0.00556857
0.00541191
0.00528086
0.00517651
0.00510229
0.00506268
0.00506201
0.00510339
0.00518771
0.00531279
0.00548106
0.0056904
0.00593548
0.00621165
0.00651116
0.00682585
0.00714392
0.00745594
0.00775169
0.00802089
0.00825258
0.00843392
0.00854885
0.00857846
0.00850124
0.00829146
0.00791169
0.00734947
0.00678125
0.00693325
0.00841715
0.0109569
0.013716
0.0156768
0.0161045
0.0151489
0.0134838
0.0118366
0.0109442
0.0112001
0.0121133
0.0124311
0.0112713
0.0097157
0.00949679
0.00954192
0.00877396
0.00756878
0.00720683
0.00784791
0.00875527
0.00962036
0.0104133
0.0111368
0.0117915
0.0123771
0.0128943
0.0133453
0.0137334
0.0140625
0.0143376
0.0145643
0.0147473
0.0148946
0.0150128
0.0151046
0.0151693
0.0152006
0.0151847
0.0150989
0.0149115
0.0145853
0.0140921
0.0134438
0.012731
0.0121223
0.0117605
0.0116121
0.0114818
0.0111751
0.0105067
0.00925518
0.00708498
0.00352864
0.0050537
0.00100244
0.00444786
0.00784761
0.0105687
0.0124269
0.0125936
0.00978483
0.00565165
0.00319206
0.00519835
0.00651875
0.00624914
0.00601768
0.00586517
0.00575713
0.00567445
0.00560881
0.00555792
0.00552294
0.00550691
0.00551379
0.00554758
0.00561167
0.00570831
0.00583819
0.00599908
0.00618874
0.00640721
0.00663942
0.00688185
0.00712643
0.00736148
0.00757881
0.00776697
0.00791624
0.00801667
0.00805675
0.00802148
0.00789453
0.00765961
0.00729893
0.00677648
0.00606191
0.00542412
0.00591264
0.00799967
0.0108559
0.0135204
0.0151946
0.0155028
0.0147329
0.0134664
0.0122413
0.0115657
0.0118927
0.0131373
0.0142313
0.0139236
0.0121874
0.0105735
0.00998315
0.00929249
0.00814031
0.00727738
0.00746156
0.00828431
0.00920917
0.0100876
0.0108875
0.0116022
0.0122326
0.0127827
0.0132578
0.0136643
0.0140084
0.014297
0.0145365
0.0147323
0.0148882
0.0150116
0.0151044
0.0151653
0.0151892
0.0151663
0.0150814
0.0149158
0.0146518
0.0142835
0.0138352
0.0133742
0.0129938
0.0127533
0.0126213
0.0124868
0.0122097
0.0116312
0.0105449
0.00861076
0.00524282
0.00305303
0.00170561
0.00486622
0.00791885
0.0103735
0.012118
0.0125542
0.010257
0.00603764
0.00225058
0.00468909
0.00587878
0.00572802
0.00567238
0.00567243
0.00569518
0.00572496
0.00575661
0.00579006
0.00582785
0.00587384
0.00593242
0.00600794
0.00610412
0.00622366
0.00636783
0.00653601
0.00672534
0.00692932
0.00714194
0.00735492
0.00755068
0.00772107
0.00785798
0.00794891
0.00798437
0.00795444
0.00784796
0.00764909
0.00734341
0.00692396
0.00639635
0.00574942
0.00495279
0.00436989
0.00526349
0.00776467
0.0106767
0.0130991
0.0144864
0.0147255
0.0141506
0.0132406
0.012389
0.0119746
0.0124411
0.0139306
0.0155999
0.0160801
0.0147829
0.0125315
0.010811
0.00987619
0.00893278
0.00786747
0.00743733
0.00799451
0.00888619
0.00979246
0.0106245
0.0113639
0.0120117
0.0125741
0.0130589
0.0134742
0.0138276
0.0141259
0.0143755
0.0145809
0.014746
0.0148739
0.0149683
0.0150284
0.0150513
0.0150312
0.0149597
0.0148272
0.0146279
0.0143664
0.0140669
0.0137744
0.0135392
0.0133838
0.0132799
0.0131511
0.0128901
0.0123619
0.0113779
0.00962688
0.00667853
0.00244329
0.00250905
0.00534964
0.00798615
0.0101046
0.011632
0.0121637
0.0104305
0.00653201
0.00173691
0.00406419
0.00504474
0.00509535
0.00524752
0.00542031
0.00558515
0.00573369
0.00586609
0.00598591
0.0060981
0.00620811
0.00632147
0.00644331
0.00657794
0.00672848
0.00689638
0.00708115
0.00727997
0.00748735
0.00769454
0.00789017
0.00806297
0.00819387
0.00827038
0.00828048
0.00821558
0.00806588
0.00781948
0.00745629
0.00695863
0.00632536
0.00560358
0.00484204
0.00405225
0.00368663
0.00493897
0.00757472
0.0103448
0.0124778
0.0136374
0.0138653
0.0134836
0.0128715
0.01229
0.0120885
0.0127409
0.014477
0.0166101
0.017754
0.0170443
0.0148239
0.012245
0.0105859
0.00976395
0.00884341
0.007818
0.00795398
0.00871005
0.00958123
0.0103994
0.011128
0.0117663
0.0123214
0.0128022
0.0132169
0.0135727
0.0138754
0.0141296
0.0143395
0.0145082
0.0146367
0.0147311
0.0147917
0.0148185
0.0148093
0.0147606
0.0146692
0.0145353
0.0143669
0.0141832
0.0140126
0.0138805
0.0137926
0.0137229
0.0136132
0.0133783
0.0129022
0.0120171
0.010476
0.00805338
0.00488777
0.00348185
0.00595625
0.00813606
0.00985338
0.0110698
0.0115055
0.0102033
0.00673111
0.00159115
0.00312505
0.00404347
0.00440031
0.00479022
0.00514569
0.00545481
0.00572125
0.00595249
0.00615661
0.0063415
0.00651464
0.006683
0.00685276
0.00702901
0.00721539
0.0074136
0.00762312
0.0078408
0.00806063
0.00827363
0.00846805
0.00862836
0.00873886
0.00877934
0.0087309
0.00858333
0.00832974
0.00795936
0.00744607
0.006762
0.00589201
0.00493621
0.00404723
0.00334205
0.00332546
0.00480703
0.00734041
0.00985658
0.0117189
0.0127265
0.0129868
0.0127829
0.0124066
0.0119631
0.0118844
0.0127482
0.0147646
0.0173096
0.019011
0.0188732
0.016971
0.014132
0.0115519
0.0105727
0.0100397
0.00855946
0.00819249
0.00872076
0.00949443
0.0102531
0.0109365
0.0115391
0.0120674
0.0125293
0.0129316
0.0132792
0.013576
0.013825
0.0140294
0.0141926
0.0143146
0.0144056
0.0144676
0.014503
0.0145127
0.0144965
0.0144544
0.014389
0.0143075
0.0142232
0.0141523
0.0141066
0.0140838
0.0140617
0.0139962
0.013821
0.0134417
0.0127178
0.0114538
0.00945255
0.00645821
0.00461711
0.00671196
0.0084261
0.00970115
0.010534
0.0107182
0.00961336
0.00650413
0.00161802
0.00211672
0.00303599
0.00374964
0.00437405
0.00489811
0.00533803
0.00571111
0.00603209
0.00631326
0.00656521
0.00679733
0.00701796
0.00723439
0.00745254
0.00767664
0.00790875
0.0081484
0.00839215
0.00863336
0.00886205
0.00906489
0.00922545
0.00932547
0.00934386
0.00926128
0.00905151
0.00871282
0.0082374
0.00759779
0.0067558
0.00565054
0.00441579
0.0033461
0.00276358
0.00313589
0.00472809
0.00703435
0.00925699
0.0108919
0.0118092
0.0121259
0.0120873
0.0119164
0.011471
0.0114013
0.0124828
0.0148151
0.0177542
0.0199347
0.0202993
0.0187966
0.0160365
0.0128824
0.0113945
0.0113351
0.00957009
0.00869583
0.00893276
0.0095549
0.0102124
0.0108178
0.0113589
0.0118395
0.0122646
0.0126378
0.012961
0.0132357
0.0134637
0.0136486
0.0137949
0.0139057
0.0139904
0.0140557
0.0141059
0.0141439
0.014171
0.0141882
0.0141976
0.0142037
0.0142137
0.0142353
0.0142721
0.014319
0.0143584
0.014359
0.0142731
0.0140307
0.0135255
0.0126027
0.0110314
0.0081976
0.005886
0.00760654
0.0088614
0.00968011
0.0100889
0.00992354
0.00874958
0.00593129
0.00148499
0.00107209
0.00231013
0.00329387
0.00408123
0.00472687
0.00526608
0.00572372
0.00611833
0.00646447
0.0067743
0.00705839
0.00732612
0.00758564
0.00784363
0.00810491
0.00837197
0.00864449
0.00891891
0.00918804
0.00944085
0.0096624
0.00983408
0.00993431
0.00993959
0.00982811
0.00958146
0.00917768
0.0086147
0.00787351
0.00691486
0.00561842
0.00408139
0.00273788
0.00221856
0.00295793
0.0046008
0.00666007
0.00860243
0.0100545
0.010922
0.0113116
0.0114563
0.0115199
0.0109132
0.0107096
0.0119973
0.0146829
0.0180201
0.02062
0.0214023
0.0202756
0.0177337
0.0143865
0.0123049
0.0126623
0.0107555
0.00941838
0.00933512
0.00976648
0.0102883
0.0107865
0.0112412
0.0116517
0.0120188
0.0123421
0.0126204
0.0128531
0.0130421
0.0131921
0.0133097
0.0134027
0.01348
0.0135528
0.013626
0.0137033
0.0137859
0.013874
0.0139673
0.0140665
0.0141731
0.0142883
0.0144107
0.0145342
0.0146463
0.0147263
0.0147432
0.014649
0.0143651
0.0137546
0.0125268
0.00978387
0.00722983
0.00859908
0.00940236
0.0097599
0.00973406
0.00918755
0.00780661
0.00516471
0.00172076
0.00116544
0.00215205
0.0031385
0.0039656
0.00466319
0.00525822
0.00577121
0.00621879
0.00661474
0.006971
0.0072983
0.00760636
0.00790381
0.00819789
0.00849398
0.00879501
0.00910097
0.00940829
0.00970943
0.00999244
0.0102408
0.0104336
0.0105458
0.0105501
0.0104195
0.0101322
0.00967669
0.00905368
0.00822916
0.00718959
0.00578518
0.0039827
0.00227656
0.00165588
0.00270314
0.00437614
0.00622885
0.00793797
0.00924985
0.0100962
0.0105826
0.0109721
0.0113409
0.0103411
0.00987112
0.0113594
0.0144501
0.0182002
0.021161
0.0222645
0.0214401
0.0191419
0.0158167
0.0133522
0.013986
0.0120351
0.010301
0.00989765
0.0101159
0.0104772
0.0108444
0.0111895
0.0115069
0.0117928
0.0120425
0.0122522
0.0124208
0.0125514
0.0126512
0.0127304
0.0127999
0.0128714
0.0129578
0.013064
0.0131929
0.0133442
0.0135156
0.0137034
0.0139038
0.0141132
0.0143274
0.0145415
0.0147494
0.0149425
0.0151092
0.0152318
0.0152803
0.015197
0.0148534
0.0139089
0.0112394
0.00856929
0.00963217
0.00999947
0.00989008
0.00943759
0.00854436
0.0070106
0.0047056
0.00249872
0.00205504
0.00252769
0.00327363
0.00402823
0.00470971
0.00531666
0.00585498
0.0063341
0.00676405
0.0071548
0.00751607
0.00785717
0.00818674
0.00851229
0.00883962
0.00917216
0.00951029
0.00985067
0.0101856
0.0105026
0.0107837
0.0110056
0.0111398
0.0111544
0.011017
0.0107008
0.010192
0.00949415
0.00861299
0.00752804
0.00609567
0.00416941
0.00206173
0.00108368
0.00236179
0.00405426
0.00575795
0.00729527
0.00850963
0.00936074
0.00998074
0.0107058
0.0114131
0.00968467
0.00894222
0.0106593
0.0142199
0.0183878
0.0216338
0.0229462
0.0223276
0.02024
0.0170477
0.0144827
0.0152876
0.013344
0.0112838
0.0105793
0.0105774
0.0107637
0.0109825
0.0111984
0.011401
0.011582
0.0117333
0.0118498
0.0119316
0.0119846
0.0120202
0.0120528
0.0120967
0.0121664
0.0122747
0.0124253
0.0126188
0.0128519
0.0131185
0.013411
0.0137211
0.0140403
0.01436
0.0146727
0.0149717
0.0152517
0.0155075
0.0157317
0.0159082
0.0159949
0.0158725
0.0151704
0.0125742
0.00982858
0.0106492
0.0106201
0.0100494
0.0091968
0.00804237
0.00651649
0.00471864
0.00333219
0.0029086
0.00308664
0.00359024
0.00422101
0.00484314
0.0054283
0.00596678
0.00645866
0.00690851
0.00732299
0.00770985
0.00807728
0.00843344
0.00878577
0.00914032
0.00950098
0.00986866
0.0102405
0.0106089
0.0109612
0.0112784
0.0115353
0.0116999
0.0117351
0.0116022
0.0112678
0.0107153
0.00995142
0.00899555
0.0078444
0.00643191
0.00463537
0.00220543
0.000568103
0.00196756
0.00366642
0.00527198
0.0066972
0.00785515
0.00873655
0.0095376
0.010686
0.0116184
0.00881955
0.00800085
0.0100018
0.0140966
0.0186523
0.0220752
0.0234692
0.0229576
0.0210317
0.0180348
0.0156316
0.0165545
0.0146302
0.0123126
0.0113359
0.0111179
0.0111241
0.0111843
0.0112563
0.0113254
0.0113796
0.0114091
0.0114091
0.0113826
0.0113405
0.0112997
0.0112799
0.0112988
0.0113734
0.0115143
0.0117219
0.0119929
0.0123194
0.0126913
0.0130966
0.0135228
0.0139573
0.0143878
0.0148043
0.0151995
0.0155697
0.0159142
0.0162328
0.0165192
0.0167446
0.0168023
0.0163114
0.0137932
0.0109557
0.0116075
0.0112519
0.0102506
0.00904576
0.00773031
0.00633475
0.00499372
0.00404017
0.00363595
0.00366365
0.00400036
0.00448475
0.00502866
0.0055711
0.00609211
0.00658276
0.00704165
0.00747151
0.00787746
0.00826604
0.0086444
0.00901958
0.00939764
0.00978285
0.0101767
0.0105769
0.0109766
0.0113632
0.0117175
0.0120128
0.0122142
0.0122793
0.012162
0.0118206
0.0112323
0.0104074
0.00938409
0.00818336
0.0067534
0.00500052
0.00287243
0.000370429
0.00157324
0.00325449
0.00479826
0.00616046
0.00729839
0.0082347
0.0092779
0.0108953
0.0117173
0.00772972
0.00713936
0.00949525
0.0141616
0.0190141
0.0224697
0.0238173
0.0233317
0.0215337
0.0187912
0.0167692
0.0177683
0.015852
0.0133405
0.0121248
0.0117021
0.0115304
0.0114284
0.0113475
0.0112691
0.0111789
0.0110665
0.0109294
0.0107757
0.0106233
0.0104964
0.0104214
0.010419
0.0105086
0.0106949
0.0109732
0.0113338
0.0117635
0.0122473
0.0127695
0.0133144
0.013866
0.0144096
0.0149324
0.0154261
0.0158876
0.0163187
0.0167234
0.0171026
0.0174383
0.0176402
0.0173338
0.0148996
0.0119287
0.0124824
0.0118936
0.0105169
0.00901912
0.0076184
0.00638046
0.00534948
0.00461821
0.00423746
0.00418239
0.00439221
0.00476349
0.00522817
0.00572002
0.00621384
0.00669453
0.00715546
0.00759537
0.00801646
0.00842317
0.00882123
0.00921686
0.00961586
0.0100226
0.0104392
0.010864
0.0112912
0.0117091
0.0120988
0.0124332
0.0126753
0.0127781
0.0126878
0.012352
0.0117384
0.0108569
0.00976497
0.00851771
0.00709065
0.0053873
0.00334895
0.00108218
0.00114762
0.00285009
0.00435946
0.0056964
0.00684568
0.00786348
0.00923505
0.0112738
0.0114576
0.00657449
0.00645531
0.00925774
0.0144376
0.0194254
0.0227553
0.0239561
0.023453
0.0217828
0.0193728
0.0178917
0.0189066
0.0169773
0.0143279
0.0129075
0.0122955
0.0119537
0.0116916
0.0114548
0.0112209
0.010974
0.0107047
0.0104144
0.0101179
0.00984266
0.00962285
0.00949279
0.00947689
0.00959516
0.00984261
0.0102061
0.0106674
0.0112067
0.0118046
0.0124427
0.0131034
0.0137693
0.0144234
0.0150513
0.015643
0.0161946
0.0167088
0.017192
0.0176491
0.0180713
0.0183862
0.0182401
0.0158956
0.0127509
0.0132651
0.0125471
0.010863
0.00912711
0.0076767
0.0065608
0.00571167
0.00509628
0.00473203
0.00462423
0.00474345
0.00502798
0.00541245
0.00585245
0.00631491
0.00678139
0.00724095
0.00768862
0.00812357
0.00854784
0.00896539
0.00938123
0.00980045
0.0102273
0.0106641
0.0111101
0.0115605
0.0120049
0.0124259
0.012797
0.0130806
0.0132266
0.0131737
0.0128577
0.0122326
0.0113021
0.0101397
0.00884053
0.00741551
0.0057711
0.0038255
0.00163441
0.000635352
0.0024489
0.00397095
0.00531162
0.00650061
0.00763802
0.00945451
0.0116964
0.0107242
0.00556148
0.00607519
0.00940071
0.0148627
0.0197709
0.0228524
0.0238663
0.023346
0.0218408
0.0198617
0.0190026
0.0199467
0.017983
0.0152428
0.0136512
0.0128675
0.0123666
0.0119515
0.0115611
0.0111699
0.0107607
0.0103257
0.00987102
0.0094202
0.00901244
0.00869525
0.00851375
0.00849635
0.00866128
0.00898848
0.00945233
0.0100236
0.0106753
0.0113846
0.012132
0.0128999
0.0136712
0.0144286
0.0151562
0.0158418
0.0164802
0.0170732
0.0176278
0.0181507
0.0186402
0.0190416
0.0190329
0.0167835
0.0134399
0.0139565
0.0132113
0.0112896
0.00935666
0.00786056
0.00681374
0.00605884
0.0055001
0.00513965
0.00499024
0.00503775
0.00524351
0.0055584
0.00594842
0.00637923
0.00683046
0.007288
0.00774362
0.00819348
0.00863708
0.0090763
0.00951449
0.00995563
0.0104033
0.0108598
0.0113249
0.0117948
0.0122607
0.0127071
0.0131097
0.0134321
0.0136232
0.0136159
0.0133341
0.0127142
0.0117469
0.0105143
0.00915472
0.0077241
0.00613496
0.00428155
0.00217801
0.000403005
0.00199435
0.0036259
0.00500773
0.00626342
0.00760293
0.00997284
0.0119611
0.00962903
0.00484493
0.00616242
0.00997394
0.01528
0.0198924
0.0226828
0.0235618
0.0230662
0.0217927
0.0203431
0.0200921
0.0208668
0.0188532
0.0160607
0.0143291
0.0133918
0.0127454
0.0121876
0.0116512
0.0111071
0.0105368
0.00993381
0.00930947
0.00869651
0.00814855
0.00773081
0.00750377
0.00750114
0.00773526
0.00816392
0.00874366
0.00943206
0.0101954
0.0110087
0.0118535
0.0127147
0.0135775
0.0144259
0.0152433
0.0160156
0.0167351
0.0174017
0.0180212
0.0186003
0.0191421
0.0196079
0.0197146
0.017565
0.0140184
0.0145617
0.0138816
0.0117868
0.00968328
0.00812951
0.00710448
0.00638693
0.00584627
0.00547336
0.00528033
0.00526172
0.00539569
0.00565068
0.0059921
0.00639184
0.00682828
0.00728476
0.0077501
0.00821759
0.00868408
0.0091491
0.00961406
0.0100813
0.0105534
0.011032
0.0115167
0.0120044
0.0124879
0.0129538
0.0133809
0.0137361
0.0139697
0.0140123
0.013777
0.0131808
0.012193
0.0108951
0.00946612
0.00801809
0.00647643
0.00470921
0.00267981
0.000614239
0.00159293
0.00329369
0.0047757
0.00613825
0.00786509
0.0106557
0.0119819
0.00842368
0.00458279
0.00676623
0.010652
0.0155369
0.0197606
0.0222761
0.0230828
0.0226911
0.021733
0.0208796
0.021123
0.0216479
0.0195783
0.016764
0.0149205
0.0138477
0.0130705
0.0123832
0.0117126
0.0110255
0.0103017
0.0095356
0.00874203
0.00796249
0.00726677
0.00674369
0.00647721
0.00650943
0.00684071
0.00739583
0.0081068
0.00891707
0.00978782
0.0106943
0.0116212
0.0125578
0.0134941
0.0144171
0.0153108
0.0161595
0.0169524
0.0176862
0.0183644
0.0189919
0.0195744
0.0200862
0.0202876
0.0182418
0.0145071
0.0150857
0.0145502
0.0123394
0.0100809
0.00845238
0.00741268
0.00669465
0.00614397
0.00574193
0.00549871
0.00541502
0.00548069
0.00567545
0.00596944
0.00633802
0.00676035
0.00721715
0.0076946
0.00818321
0.00867712
0.00917339
0.00967119
0.010171
0.0106736
0.0111796
0.011688
0.0121955
0.0126956
0.0131771
0.0136219
0.0140015
0.0142711
0.0143625
0.0141819
0.0136268
0.0126385
0.0112851
0.0097804
0.00830123
0.00679647
0.00510806
0.00315151
0.00103823
0.00125462
0.00298674
0.00460192
0.00617401
0.00843024
0.0112981
0.0118117
0.00735459
0.00489397
0.00752496
0.011261
0.0156354
0.0194276
0.0217002
0.022496
0.0223009
0.021742
0.0214857
0.0220375
0.0222755
0.0201535
0.0173416
0.015411
0.0142202
0.0133275
0.012526
0.0117362
0.0109208
0.0100574
0.00913935
0.00818273
0.00723488
0.00638125
0.00574154
0.00543827
0.00552985
0.00599439
0.00670447
0.00756064
0.00849447
0.00946566
0.0104523
0.0114441
0.0124366
0.013426
0.0144045
0.0153581
0.0162704
0.0171271
0.0179207
0.0186512
0.0193204
0.0199346
0.0204774
0.0207539
0.0188154
0.0149211
0.0155299
0.0152072
0.0129317
0.010527
0.00880613
0.00772442
0.00697987
0.00639797
0.00595152
0.00564909
0.00549577
0.00548968
0.00561993
0.00586722
0.00620321
0.00661116
0.00706917
0.00756091
0.00807411
0.00860015
0.00913351
0.00967097
0.0102108
0.0107521
0.0112936
0.0118331
0.0123664
0.0128869
0.013384
0.0138424
0.0142385
0.0145344
0.014668
0.0145443
0.0140441
0.0130763
0.0116829
0.0101008
0.00857746
0.00709772
0.00548166
0.00360312
0.00150938
0.000958234
0.00273901
0.00450322
0.00643431
0.00914086
0.0118401
0.0115096
0.00665723
0.00553262
0.00826613
0.0117429
0.0156009
0.0189548
0.0210294
0.021878
0.0219596
0.0218568
0.0221091
0.0227841
0.0227398
0.0205781
0.0177885
0.015792
0.0144997
0.0135073
0.012608
0.0117166
0.0107917
0.00980774
0.00875534
0.00764802
0.00653302
0.00550622
0.00472473
0.00437839
0.00456278
0.00521051
0.00610651
0.00711776
0.00817216
0.00923369
0.0102861
0.0113254
0.0123542
0.0133762
0.0143899
0.0153857
0.0163469
0.0172562
0.0181012
0.0188772
0.0195818
0.0202201
0.0207819
0.0211151
0.0192868
0.0152685
0.0158897
0.0158413
0.0135506
0.0110045
0.00917404
0.00802908
0.00723969
0.00661072
0.00610662
0.00573472
0.00550367
0.00541914
0.00547991
0.00567523
0.00597406
0.00636508
0.00682419
0.00733185
0.00787276
0.0084353
0.00901125
0.00959496
0.0101826
0.010771
0.0113574
0.0119379
0.0125066
0.0130557
0.0135739
0.0140468
0.0144546
0.0147671
0.0149323
0.014861
0.0144237
0.013496
0.0120814
0.0104259
0.0088483
0.00738157
0.00583193
0.00403265
0.00197674
0.000754316
0.00254892
0.00453191
0.00689223
0.0099206
0.0122651
0.0111436
0.0063931
0.00623994
0.00890944
0.0120877
0.0154647
0.0184142
0.0203408
0.0213004
0.0217066
0.0220506
0.0226608
0.0233287
0.0230364
0.020856
0.0181055
0.0160612
0.0146829
0.0136061
0.0126263
0.0116528
0.01064
0.00955918
0.00839641
0.00715849
0.00588374
0.00466411
0.00369056
0.00327459
0.00361265
0.00451446
0.00562321
0.00678957
0.00795397
0.00909135
0.0101935
0.011263
0.0123096
0.0133447
0.0143744
0.0153941
0.0163887
0.0173385
0.0182255
0.0190395
0.0197732
0.0204291
0.0210001
0.0213724
0.0196568
0.0155507
0.0161526
0.0164391
0.0141866
0.0115026
0.00954489
0.00831862
0.00747127
0.00678394
0.00621148
0.00576018
0.00544166
0.00526836
0.00524785
0.00537753
0.00563862
0.00600765
0.00646735
0.0069926
0.00756433
0.00816747
0.00879079
0.00942623
0.0100679
0.010711
0.0113511
0.0119825
0.012598
0.0131873
0.0137374
0.014232
0.0146527
0.0149751
0.0151597
0.0151303
0.0147567
0.0138846
0.0124689
0.010749
0.00911075
0.00764572
0.00615713
0.00443735
0.00242815
0.000774074
0.00244871
0.00472831
0.00752637
0.0107005
0.0125714
0.0107809
0.00645078
0.00688859
0.00942969
0.0123166
0.0152737
0.0178749
0.0196998
0.0208064
0.0215352
0.0222442
0.023064
0.0236556
0.0231678
0.0209961
0.0182995
0.0162228
0.0147725
0.0136261
0.012583
0.0115478
0.0104711
0.00932112
0.00807868
0.00674117
0.00532932
0.00390625
0.00265538
0.00210129
0.00272625
0.00396615
0.00529002
0.00659229
0.00784433
0.00903655
0.0101693
0.0112514
0.0122986
0.0133293
0.014357
0.0153836
0.0163964
0.0173737
0.0182926
0.0191365
0.0198926
0.0205597
0.0211316
0.0215267
0.0199256
0.015763
0.0162993
0.0169826
0.0148347
0.0120175
0.00991322
0.00858803
0.00767297
0.00691985
0.00627098
0.00573098
0.00531337
0.00503676
0.0049191
0.00497015
0.0051852
0.00552856
0.00598929
0.00653524
0.00714212
0.00779029
0.00846508
0.00915602
0.00985557
0.0105579
0.0112574
0.0119476
0.0126198
0.0132618
0.0138572
0.0143865
0.0148282
0.0151604
0.0153544
0.0153525
0.0150358
0.0142286
0.0128305
0.0110577
0.0093564
0.00788269
0.00644985
0.00481177
0.00286283
0.00106447
0.00249882
0.00511059
0.00827373
0.0114291
0.0127736
0.0104658
0.00668856
0.00744577
0.0098373
0.0124606
0.0150679
0.0173847
0.0191414
0.0203937
0.0213915
0.0223538
0.0232703
0.0237653
0.0231436
0.0210114
0.0183827
0.0162874
0.0147779
0.0135753
0.0124855
0.0114094
0.0102943
0.00910643
0.00782373
0.00643529
0.00494279
0.00336357
0.00176718
0.0008461
0.00210951
0.00367816
0.00515768
0.0065471
0.00784922
0.00906713
0.0102074
0.0112831
0.0123143
0.0133248
0.0143352
0.0153533
0.0163699
0.0173623
0.0183025
0.0191674
0.0199387
0.0206105