/*--------------------------------*- C++ -*----------------------------------*\
| =========                 |                                                 |
| \\      /  F ield         | OpenFOAM: The Open Source CFD Toolbox           |
|  \\    /   O peration     | Version:  4.1                                   |
|   \\  /    A nd           | Web:      www.OpenFOAM.org                      |
|    \\/     M anipulation  |                                                 |
\*---------------------------------------------------------------------------*/
FoamFile
{
    version     2.0;
    format      ascii;
    class       volScalarField;
    location    "920";
    object      p_rgh;
}
// * * * * * * * * * * * * * * * * * * * * * * * * * * * * * * * * * * * * * //

dimensions      [0 2 -2 0 0 0 0];

internalField   nonuniform List<scalar> 
5000
(
0.0492173
0.0492243
0.0492253
0.049222
0.0492207
0.0492222
0.0492269
0.049235
0.0492445
0.049253
0.0492596
0.0492642
0.0492671
0.0492688
0.0492694
0.0492683
0.0492635
0.0492586
0.049256
0.0492547
0.0492553
0.0492571
0.049259
0.0492606
0.0492617
0.0492622
0.049262
0.0492611
0.0492595
0.0492571
0.0492539
0.0492498
0.0492451
0.0492396
0.0492335
0.0492269
0.0492199
0.0492125
0.0492049
0.0491969
0.0491886
0.0491803
0.0491723
0.0491655
0.049161
0.0491599
0.0491626
0.0491689
0.049177
0.0491818
0.0491823
0.049177
0.0491629
0.0491661
0.0491702
0.04917
0.049162
0.0491543
0.0491501
0.0491464
0.049144
0.0491462
0.0491524
0.0491588
0.0491624
0.0491629
0.0491614
0.0491589
0.0491563
0.049154
0.0491525
0.0491519
0.0491524
0.0491539
0.0491563
0.0491596
0.0491636
0.0491681
0.049173
0.0491779
0.0491825
0.049186
0.0491876
0.049186
0.0491802
0.0491711
0.0491619
0.0491578
0.0491615
0.0491699
0.0491766
0.0491895
0.0492159
0.0492424
0.0492564
0.0492611
0.0492615
0.0492619
0.04926
0.0492483
0.0492173
0.0492382
0.0492417
0.0492385
0.0492251
0.0492289
0.049245
0.0492609
0.0492701
0.0492764
0.0492822
0.0492872
0.0492913
0.0492947
0.0492973
0.0492996
0.0493022
0.0493049
0.049307
0.0493084
0.0493094
0.0493099
0.0493101
0.0493099
0.0493092
0.049308
0.0493063
0.049304
0.049301
0.0492973
0.0492929
0.0492877
0.0492819
0.0492753
0.0492681
0.0492604
0.0492522
0.0492436
0.0492347
0.0492257
0.0492165
0.0492076
0.0491995
0.0491933
0.0491893
0.0491866
0.0491846
0.0491827
0.0491807
0.0491801
0.049193
0.0492076
0.0491501
0.0491727
0.0491938
0.04919
0.0491779
0.0491635
0.0491521
0.0491501
0.0491584
0.0491749
0.049192
0.0492013
0.049205
0.0492067
0.0492075
0.0492079
0.0492081
0.0492083
0.0492085
0.049209
0.0492095
0.0492104
0.0492115
0.0492129
0.0492145
0.0492163
0.0492182
0.0492198
0.0492208
0.0492206
0.0492183
0.0492125
0.0492023
0.0491879
0.049173
0.0491659
0.0491633
0.0491571
0.0491613
0.0491855
0.0492226
0.0492514
0.0492663
0.0492732
0.049276
0.049277
0.0492764
0.0492469
0.049209
0.0492329
0.0492403
0.0492369
0.0492227
0.0492264
0.0492468
0.0492615
0.0492685
0.0492744
0.0492804
0.0492857
0.04929
0.0492937
0.0492967
0.0492995
0.0493023
0.0493048
0.0493068
0.0493084
0.0493093
0.0493099
0.0493102
0.04931
0.0493093
0.0493081
0.0493063
0.0493039
0.0493009
0.0492971
0.0492926
0.0492873
0.0492813
0.0492746
0.0492672
0.0492593
0.0492509
0.0492421
0.049233
0.0492236
0.0492139
0.0492042
0.049195
0.0491877
0.0491831
0.0491811
0.0491793
0.049174
0.0491641
0.0491589
0.0491742
0.0491945
0.049131
0.0491495
0.0491849
0.0491879
0.0491743
0.0491592
0.0491491
0.0491478
0.0491597
0.0491792
0.0491946
0.0492021
0.0492054
0.0492071
0.0492079
0.0492082
0.0492082
0.0492082
0.0492083
0.0492085
0.049209
0.0492096
0.0492105
0.0492117
0.0492131
0.0492147
0.0492162
0.0492175
0.0492181
0.0492172
0.0492139
0.0492068
0.0491942
0.0491754
0.0491525
0.0491336
0.0491325
0.0491349
0.0491384
0.0491701
0.0492227
0.049253
0.0492639
0.0492693
0.0492721
0.0492742
0.0492754
0.0492393
0.0492035
0.049223
0.0492378
0.0492333
0.0492179
0.0492207
0.049243
0.0492574
0.0492642
0.0492707
0.0492778
0.0492836
0.0492883
0.0492922
0.0492956
0.0492986
0.0493014
0.0493038
0.0493059
0.0493074
0.0493084
0.049309
0.0493093
0.0493091
0.0493085
0.0493072
0.0493054
0.0493029
0.0492998
0.0492959
0.0492913
0.0492859
0.0492797
0.0492728
0.0492653
0.0492571
0.0492485
0.0492395
0.0492301
0.0492203
0.04921
0.0491991
0.0491882
0.0491787
0.0491718
0.0491676
0.0491636
0.0491545
0.0491389
0.0491308
0.0491466
0.0491699
0.0491305
0.0491227
0.0491599
0.0491843
0.0491773
0.0491617
0.049149
0.0491453
0.0491565
0.0491764
0.0491922
0.0492007
0.0492048
0.0492067
0.0492074
0.0492075
0.0492073
0.049207
0.0492067
0.0492066
0.0492067
0.0492071
0.0492077
0.0492087
0.0492099
0.0492112
0.0492127
0.0492139
0.0492146
0.0492141
0.0492116
0.0492057
0.0491951
0.0491784
0.0491566
0.0491351
0.0491236
0.0491247
0.0491271
0.0491589
0.0492537
0.0492625
0.0492657
0.0492679
0.0492698
0.0492722
0.0492742
0.0492315
0.0492103
0.0492256
0.0492322
0.0492248
0.0492097
0.0492124
0.0492354
0.0492499
0.0492574
0.0492656
0.0492746
0.0492814
0.0492865
0.0492908
0.0492944
0.0492976
0.0493004
0.0493028
0.0493048
0.0493063
0.0493073
0.0493078
0.049308
0.0493078
0.0493071
0.0493058
0.0493039
0.0493013
0.0492981
0.0492941
0.0492893
0.0492838
0.0492775
0.0492704
0.0492627
0.0492544
0.0492455
0.0492363
0.0492268
0.0492168
0.049206
0.0491939
0.0491807
0.0491679
0.0491574
0.0491498
0.0491426
0.04913
0.0491111
0.0491015
0.0491163
0.0491424
0.0491355
0.0491118
0.0491329
0.0491699
0.049184
0.0491687
0.0491509
0.0491426
0.0491508
0.0491701
0.0491876
0.0491984
0.049204
0.0492065
0.0492072
0.0492069
0.0492063
0.0492056
0.0492048
0.0492042
0.0492038
0.0492037
0.0492039
0.0492045
0.0492054
0.0492066
0.0492081
0.0492097
0.0492113
0.0492126
0.0492132
0.0492127
0.0492106
0.0492064
0.0492004
0.0491934
0.0491844
0.0491722
0.0491707
0.0492129
0.0492738
0.0492686
0.0492651
0.0492636
0.0492647
0.0492688
0.0492725
0.0492236
0.0492341
0.0492318
0.0492175
0.0492098
0.0491972
0.0492006
0.0492236
0.0492385
0.0492475
0.0492587
0.0492712
0.0492791
0.0492848
0.0492894
0.0492933
0.0492966
0.0492994
0.0493017
0.0493036
0.049305
0.0493059
0.0493064
0.0493064
0.049306
0.0493052
0.0493038
0.0493018
0.0492991
0.0492958
0.0492917
0.0492868
0.0492812
0.0492747
0.0492675
0.0492597
0.0492512
0.0492423
0.049233
0.0492234
0.0492134
0.0492024
0.0491893
0.0491734
0.0491564
0.0491411
0.0491291
0.0491184
0.049103
0.0490827
0.0490727
0.0490859
0.0491126
0.0491284
0.0491133
0.0491196
0.0491477
0.0491802
0.049175
0.0491537
0.04914
0.0491434
0.0491614
0.0491811
0.049195
0.049203
0.0492063
0.049207
0.0492063
0.0492051
0.0492037
0.0492023
0.049201
0.0491999
0.0491992
0.0491988
0.0491988
0.0491992
0.0492001
0.0492014
0.0492031
0.0492051
0.0492075
0.0492103
0.0492136
0.049218
0.0492244
0.0492341
0.049249
0.0492692
0.0492876
0.0492949
0.0492959
0.0492777
0.0492681
0.0492618
0.0492576
0.0492562
0.0492623
0.0492705
0.0492163
0.0492316
0.049211
0.0491957
0.0491917
0.0491823
0.0491857
0.0492078
0.0492228
0.0492339
0.0492497
0.049268
0.0492772
0.0492834
0.0492884
0.0492924
0.0492957
0.0492984
0.0493005
0.0493022
0.0493035
0.0493042
0.0493045
0.0493043
0.0493037
0.0493027
0.0493012
0.0492991
0.0492963
0.0492929
0.0492887
0.0492838
0.0492781
0.0492716
0.0492644
0.0492565
0.0492479
0.049239
0.0492297
0.0492202
0.0492105
0.0491998
0.0491864
0.0491681
0.049146
0.0491246
0.0491074
0.049093
0.0490757
0.0490554
0.0490463
0.0490585
0.0490851
0.0491123
0.0491165
0.0491162
0.0491314
0.0491614
0.0491746
0.049156
0.0491383
0.0491362
0.0491514
0.0491728
0.0491905
0.0492013
0.0492058
0.0492065
0.0492053
0.0492033
0.0492011
0.049199
0.049197
0.0491952
0.0491937
0.0491927
0.0491921
0.049192
0.0491925
0.0491935
0.049195
0.049197
0.0491996
0.0492028
0.0492069
0.0492122
0.0492195
0.0492294
0.0492429
0.0492594
0.0492752
0.049284
0.0492815
0.049272
0.0492641
0.0492575
0.049252
0.0492483
0.0492505
0.049268
0.0492103
0.0492191
0.0491885
0.0491767
0.0491745
0.0491673
0.0491689
0.0491886
0.0492022
0.049215
0.0492385
0.0492657
0.0492763
0.0492829
0.0492881
0.049292
0.0492951
0.0492976
0.0492995
0.0493008
0.0493018
0.0493022
0.0493023
0.0493019
0.0493011
0.0492998
0.0492981
0.0492958
0.049293
0.0492896
0.0492854
0.0492805
0.0492748
0.0492683
0.0492612
0.0492533
0.0492448
0.049236
0.0492268
0.0492175
0.0492082
0.0491983
0.0491858
0.0491664
0.0491392
0.0491106
0.0490871
0.0490688
0.0490502
0.0490314
0.0490245
0.0490369
0.0490638
0.0490961
0.0491157
0.0491181
0.0491218
0.0491413
0.0491614
0.0491546
0.0491369
0.0491307
0.0491416
0.0491632
0.0491845
0.0491986
0.0492048
0.0492055
0.0492038
0.0492012
0.0491983
0.0491954
0.0491926
0.04919
0.0491879
0.0491862
0.0491851
0.0491845
0.0491846
0.0491853
0.0491867
0.0491887
0.0491915
0.049195
0.0491995
0.0492054
0.0492129
0.0492226
0.0492345
0.0492476
0.0492595
0.0492665
0.0492671
0.0492632
0.0492582
0.0492532
0.049248
0.0492429
0.0492401
0.0492455
0.049211
0.0492101
0.0491764
0.0491614
0.0491589
0.0491531
0.0491522
0.0491678
0.0491779
0.0491906
0.0492286
0.0492658
0.0492769
0.0492836
0.0492886
0.0492923
0.049295
0.049297
0.0492985
0.0492994
0.0492999
0.0493
0.0492997
0.0492991
0.049298
0.0492966
0.0492946
0.0492922
0.0492894
0.0492859
0.0492818
0.0492769
0.0492714
0.049265
0.049258
0.0492503
0.0492421
0.0492335
0.0492245
0.0492156
0.0492067
0.0491979
0.0491872
0.0491689
0.0491385
0.0491023
0.0490715
0.0490488
0.0490293
0.0490131
0.0490096
0.0490236
0.0490513
0.0490857
0.0491135
0.0491217
0.0491181
0.0491245
0.0491412
0.0491449
0.049133
0.0491261
0.0491331
0.0491531
0.0491775
0.0491956
0.0492038
0.0492048
0.0492026
0.0491992
0.0491954
0.0491916
0.049188
0.0491848
0.049182
0.0491797
0.0491781
0.0491771
0.0491768
0.0491773
0.0491785
0.0491805
0.0491833
0.049187
0.0491917
0.0491977
0.049205
0.049214
0.0492243
0.0492351
0.0492447
0.0492512
0.0492538
0.0492535
0.0492519
0.0492497
0.0492468
0.0492426
0.0492368
0.0492305
0.0492208
0.0492086
0.0491694
0.0491488
0.0491443
0.0491398
0.0491371
0.0491483
0.0491548
0.04917
0.0492299
0.049269
0.0492794
0.0492858
0.0492902
0.0492933
0.0492953
0.0492967
0.0492975
0.0492979
0.0492979
0.0492975
0.0492969
0.0492959
0.0492946
0.049293
0.0492909
0.0492884
0.0492854
0.049282
0.0492779
0.0492732
0.0492678
0.0492618
0.049255
0.0492476
0.0492398
0.0492315
0.0492231
0.0492145
0.0492062
0.0491983
0.0491898
0.0491751
0.0491449
0.0491029
0.0490644
0.0490366
0.0490164
0.0490035
0.049004
0.0490206
0.0490496
0.0490842
0.0491142
0.0491257
0.0491178
0.0491115
0.0491196
0.0491267
0.0491227
0.0491196
0.0491257
0.049143
0.0491689
0.0491914
0.0492022
0.0492037
0.0492009
0.0491967
0.0491922
0.0491876
0.0491833
0.0491795
0.0491761
0.0491733
0.0491713
0.0491699
0.0491693
0.0491695
0.0491706
0.0491724
0.0491752
0.0491789
0.0491836
0.0491895
0.0491965
0.0492047
0.0492137
0.0492229
0.0492311
0.0492374
0.0492414
0.0492437
0.0492452
0.0492466
0.0492479
0.049249
0.0492491
0.0492468
0.0492368
0.0492101
0.0491658
0.0491394
0.0491315
0.0491276
0.0491243
0.0491318
0.0491345
0.0491474
0.0492428
0.0492754
0.0492841
0.0492894
0.0492928
0.0492949
0.0492961
0.0492966
0.0492966
0.0492963
0.0492957
0.0492949
0.0492938
0.0492925
0.0492909
0.0492891
0.0492869
0.0492844
0.0492814
0.0492779
0.0492739
0.0492694
0.0492642
0.0492584
0.0492521
0.0492451
0.0492378
0.0492302
0.0492223
0.0492143
0.0492065
0.0491994
0.0491928
0.0491826
0.0491571
0.0491138
0.0490694
0.0490366
0.0490155
0.0490058
0.0490105
0.0490299
0.0490595
0.0490926
0.0491202
0.0491301
0.0491179
0.0491009
0.0490983
0.0491039
0.0491042
0.0491076
0.0491176
0.0491335
0.0491587
0.0491856
0.0491995
0.0492017
0.0491986
0.0491938
0.0491886
0.0491834
0.0491786
0.0491742
0.0491704
0.0491672
0.0491647
0.049163
0.0491621
0.0491621
0.0491629
0.0491646
0.0491673
0.0491709
0.0491755
0.0491811
0.0491877
0.0491952
0.0492031
0.0492112
0.0492185
0.0492247
0.0492296
0.0492337
0.0492376
0.049242
0.0492475
0.0492545
0.0492631
0.0492702
0.0492635
0.0492131
0.0491658
0.0491345
0.0491221
0.0491175
0.0491144
0.0491194
0.0491207
0.0491344
0.0492562
0.0492842
0.0492905
0.0492942
0.0492961
0.049297
0.049297
0.0492966
0.0492957
0.0492947
0.0492934
0.049292
0.0492904
0.0492887
0.0492869
0.0492848
0.0492826
0.04928
0.049277
0.0492736
0.0492697
0.0492653
0.0492604
0.049255
0.0492491
0.0492427
0.0492361
0.0492292
0.0492221
0.0492148
0.0492075
0.049201
0.0491957
0.0491894
0.0491715
0.0491332
0.0490875
0.0490514
0.0490297
0.0490226
0.0490306
0.0490516
0.0490798
0.0491089
0.0491306
0.0491349
0.0491169
0.0490905
0.0490775
0.0490787
0.0490807
0.0490875
0.0491063
0.0491245
0.049147
0.0491781
0.0491955
0.0491988
0.0491955
0.0491902
0.0491846
0.049179
0.0491737
0.049169
0.0491648
0.0491612
0.0491584
0.0491564
0.0491553
0.049155
0.0491556
0.0491571
0.0491597
0.0491632
0.0491676
0.0491729
0.0491791
0.0491859
0.0491931
0.0492003
0.0492071
0.0492131
0.0492184
0.0492234
0.0492286
0.0492348
0.0492426
0.0492527
0.0492657
0.0492794
0.0492864
0.0492179
0.0491698
0.0491355
0.0491189
0.0491121
0.0491092
0.0491129
0.0491183
0.049163
0.0492719
0.049294
0.0492977
0.0492994
0.0492997
0.0492992
0.049298
0.0492965
0.0492947
0.0492928
0.0492909
0.0492888
0.0492868
0.0492847
0.0492825
0.0492803
0.0492779
0.0492753
0.0492723
0.049269
0.0492653
0.0492611
0.0492564
0.0492514
0.049246
0.0492403
0.0492344
0.0492284
0.0492223
0.0492159
0.0492092
0.049203
0.0491985
0.0491948
0.0491842
0.0491558
0.0491151
0.0490797
0.0490585
0.0490531
0.0490623
0.0490822
0.0491058
0.0491285
0.049143
0.0491394
0.0491144
0.0490797
0.0490569
0.0490522
0.0490541
0.0490613
0.0490891
0.0491154
0.0491341
0.0491688
0.0491903
0.0491949
0.0491916
0.0491861
0.0491801
0.0491742
0.0491687
0.0491637
0.0491593
0.0491555
0.0491524
0.0491501
0.0491487
0.0491482
0.0491486
0.04915
0.0491524
0.0491557
0.0491599
0.049165
0.0491709
0.0491772
0.0491838
0.0491904
0.0491967
0.0492025
0.0492079
0.0492132
0.0492189
0.0492257
0.049234
0.0492444
0.0492568
0.0492689
0.0492766
0.049224
0.0491775
0.0491431
0.0491245
0.0491161
0.0491138
0.0491191
0.0491355
0.049221
0.0492951
0.0493035
0.0493047
0.0493044
0.0493031
0.0493011
0.0492988
0.0492962
0.0492935
0.0492908
0.0492881
0.0492855
0.0492829
0.0492804
0.0492779
0.0492754
0.0492729
0.0492702
0.0492673
0.0492641
0.0492606
0.0492567
0.0492524
0.0492477
0.0492427
0.0492376
0.0492325
0.0492275
0.0492225
0.0492172
0.0492111
0.0492052
0.0492011
0.0491988
0.0491936
0.0491759
0.0491452
0.049115
0.0490961
0.0490916
0.0490998
0.0491153
0.0491306
0.0491468
0.0491557
0.0491442
0.0491112
0.0490682
0.0490363
0.049025
0.0490254
0.0490327
0.0490646
0.0491056
0.0491205
0.0491581
0.0491839
0.04919
0.0491869
0.0491812
0.0491752
0.0491692
0.0491636
0.0491584
0.0491538
0.0491498
0.0491465
0.049144
0.0491424
0.0491416
0.0491418
0.049143
0.0491452
0.0491484
0.0491525
0.0491574
0.0491629
0.049169
0.0491752
0.0491814
0.0491873
0.0491928
0.049198
0.0492032
0.0492089
0.0492154
0.0492234
0.0492331
0.0492441
0.0492548
0.0492627
0.0492304
0.049188
0.049157
0.0491403
0.0491334
0.0491345
0.0491462
0.0491788
0.049277
0.0493103
0.049311
0.0493103
0.0493084
0.0493057
0.0493026
0.0492991
0.0492956
0.049292
0.0492885
0.0492851
0.0492819
0.0492788
0.0492759
0.049273
0.0492703
0.0492675
0.0492648
0.0492619
0.0492588
0.0492556
0.049252
0.0492481
0.0492438
0.0492394
0.0492348
0.0492305
0.0492264
0.0492226
0.0492185
0.0492132
0.0492073
0.0492033
0.0492016
0.0491997
0.0491905
0.0491709
0.0491487
0.0491338
0.0491297
0.0491351
0.0491437
0.0491481
0.0491611
0.0491687
0.0491502
0.0491082
0.0490562
0.0490153
0.0489975
0.0489954
0.0490029
0.0490364
0.0490938
0.0491066
0.0491463
0.0491764
0.0491841
0.0491814
0.0491758
0.0491697
0.0491638
0.0491582
0.049153
0.0491483
0.0491442
0.0491407
0.0491379
0.049136
0.049135
0.0491349
0.0491359
0.0491379
0.0491409
0.0491449
0.0491497
0.0491551
0.049161
0.049167
0.0491729
0.0491786
0.0491838
0.0491886
0.0491934
0.0491985
0.0492044
0.0492114
0.0492199
0.0492296
0.0492394
0.049248
0.0492355
0.0491991
0.0491746
0.0491643
0.0491634
0.0491717
0.0491933
0.0492381
0.0493071
0.0493175
0.0493163
0.0493143
0.0493112
0.0493074
0.0493033
0.0492989
0.0492945
0.0492902
0.049286
0.049282
0.0492782
0.0492746
0.0492712
0.049268
0.0492649
0.049262
0.0492591
0.0492562
0.0492533
0.0492502
0.0492469
0.0492435
0.0492398
0.0492359
0.049232
0.0492283
0.0492251
0.0492225
0.0492197
0.0492155
0.0492095
0.0492052
0.0492038
0.0492034
0.0491998
0.0491891
0.0491751
0.0491645
0.0491608
0.0491625
0.0491625
0.0491555
0.0491716
0.0491813
0.0491568
0.0491048
0.0490428
0.0489932
0.0489692
0.0489646
0.0489727
0.0490085
0.0490788
0.0490926
0.0491338
0.0491681
0.0491774
0.0491751
0.0491698
0.0491639
0.0491582
0.0491527
0.0491475
0.0491427
0.0491384
0.0491346
0.0491316
0.0491294
0.0491281
0.0491277
0.0491284
0.0491302
0.0491331
0.049137
0.0491417
0.0491472
0.049153
0.049159
0.0491649
0.0491704
0.0491753
0.0491797
0.0491838
0.049188
0.0491928
0.0491985
0.0492056
0.0492139
0.0492232
0.0492326
0.0492383
0.0492088
0.0491923
0.0491911
0.049199
0.0492156
0.0492438
0.0492848
0.0493186
0.0493214
0.0493195
0.0493165
0.0493126
0.0493081
0.0493032
0.0492981
0.0492931
0.0492881
0.0492834
0.0492788
0.0492745
0.0492704
0.0492666
0.049263
0.0492596
0.0492564
0.0492534
0.0492504
0.0492475
0.0492446
0.0492417
0.0492387
0.0492355
0.0492323
0.049229
0.0492261
0.0492237
0.0492221
0.0492207
0.049218
0.0492124
0.0492072
0.0492057
0.049206
0.0492052
0.0492004
0.0491926
0.0491857
0.0491821
0.04918
0.0491706
0.0491532
0.0491791
0.0491901
0.0491601
0.049098
0.0490261
0.0489688
0.0489398
0.0489335
0.048943
0.0489826
0.0490625
0.0490788
0.0491209
0.0491591
0.0491701
0.0491683
0.0491632
0.0491577
0.0491522
0.0491468
0.0491417
0.0491368
0.0491323
0.0491283
0.049125
0.0491225
0.0491208
0.04912
0.0491204
0.049122
0.0491247
0.0491285
0.0491333
0.0491389
0.0491449
0.0491511
0.049157
0.0491625
0.0491672
0.0491712
0.0491745
0.0491777
0.0491811
0.0491853
0.0491908
0.0491978
0.0492065
0.0492169
0.0492382
0.0492155
0.0492068
0.0492149
0.0492311
0.0492532
0.0492804
0.0493079
0.049322
0.0493227
0.0493206
0.049317
0.0493127
0.0493077
0.0493024
0.0492969
0.0492913
0.0492859
0.0492807
0.0492757
0.0492709
0.0492664
0.0492622
0.0492582
0.0492545
0.049251
0.0492478
0.0492447
0.0492418
0.049239
0.0492364
0.0492338
0.0492312
0.0492286
0.049226
0.0492238
0.0492223
0.0492217
0.0492216
0.0492204
0.0492166
0.0492103
0.0492081
0.0492084
0.0492087
0.0492069
0.0492028
0.0491982
0.0491944
0.0491884
0.0491691
0.0491441
0.0491834
0.0491909
0.0491553
0.0490838
0.0490038
0.0489413
0.0489097
0.0489032
0.0489153
0.04896
0.0490469
0.0490655
0.0491082
0.0491498
0.0491621
0.0491609
0.0491563
0.0491511
0.0491459
0.0491408
0.0491357
0.0491307
0.049126
0.0491217
0.049118
0.049115
0.0491128
0.0491117
0.0491117
0.0491131
0.0491157
0.0491195
0.0491243
0.0491301
0.0491364
0.0491429
0.0491492
0.0491548
0.0491594
0.049163
0.0491655
0.0491675
0.0491694
0.049172
0.0491759
0.0491816
0.0491897
0.0492012
0.0492354
0.049219
0.0492166
0.0492323
0.0492541
0.0492774
0.0492994
0.0493154
0.0493218
0.0493221
0.0493201
0.0493164
0.0493118
0.0493066
0.049301
0.0492952
0.0492894
0.0492837
0.0492782
0.0492729
0.0492678
0.0492629
0.0492583
0.049254
0.0492499
0.0492461
0.0492426
0.0492393
0.0492363
0.0492336
0.0492311
0.0492289
0.0492269
0.0492249
0.0492231
0.0492215
0.0492206
0.049221
0.0492223
0.049223
0.0492211
0.0492159
0.0492117
0.0492113
0.0492115
0.0492108
0.0492083
0.0492048
0.0492003
0.04919
0.04916
0.0491324
0.0491836
0.0491822
0.0491397
0.0490601
0.0489756
0.0489115
0.0488801
0.0488752
0.0488912
0.0489421
0.0490335
0.0490527
0.0490961
0.0491402
0.0491538
0.0491532
0.0491491
0.0491443
0.0491395
0.0491346
0.0491295
0.0491244
0.0491194
0.0491147
0.0491105
0.049107
0.0491044
0.0491028
0.0491026
0.0491037
0.0491062
0.0491099
0.0491149
0.0491209
0.0491275
0.0491345
0.0491413
0.0491472
0.049152
0.0491552
0.049157
0.0491578
0.0491582
0.0491591
0.0491613
0.0491656
0.0491733
0.0491857
0.0492303
0.0492193
0.0492214
0.0492425
0.0492671
0.0492892
0.0493061
0.0493161
0.0493199
0.0493203
0.0493184
0.0493148
0.0493101
0.0493049
0.0492992
0.0492934
0.0492875
0.0492817
0.0492761
0.0492706
0.0492653
0.0492602
0.0492553
0.0492507
0.0492463
0.0492421
0.0492382
0.0492346
0.0492314
0.0492285
0.0492261
0.0492242
0.0492227
0.0492214
0.0492202
0.0492192
0.0492189
0.0492199
0.0492224
0.0492251
0.0492256
0.0492223
0.049217
0.0492149
0.0492144
0.0492135
0.0492114
0.0492079
0.0492023
0.0491865
0.0491456
0.0491234
0.0491796
0.0491657
0.0491146
0.0490292
0.0489442
0.0488819
0.0488531
0.0488514
0.0488726
0.0489298
0.0490227
0.0490408
0.0490848
0.0491307
0.0491452
0.0491453
0.0491417
0.0491375
0.049133
0.0491283
0.0491232
0.0491179
0.0491126
0.0491075
0.0491028
0.0490988
0.0490957
0.0490939
0.0490934
0.0490943
0.0490967
0.0491004
0.0491054
0.0491115
0.0491185
0.049126
0.0491333
0.0491398
0.0491448
0.0491478
0.049149
0.0491486
0.0491475
0.0491467
0.0491472
0.0491503
0.0491574
0.0491708
0.0492235
0.049217
0.0492218
0.0492465
0.0492723
0.0492928
0.0493065
0.049314
0.0493172
0.0493177
0.049316
0.0493126
0.049308
0.0493028
0.0492973
0.0492916
0.0492858
0.0492801
0.0492744
0.0492689
0.0492635
0.0492583
0.0492533
0.0492484
0.0492437
0.0492392
0.049235
0.049231
0.0492274
0.0492242
0.0492217
0.0492199
0.0492187
0.049218
0.0492176
0.0492172
0.0492171
0.0492184
0.0492217
0.049226
0.049229
0.0492282
0.0492234
0.0492193
0.0492176
0.0492159
0.0492134
0.0492093
0.0492024
0.0491788
0.049129
0.0491214
0.0491728
0.0491446
0.0490842
0.0489963
0.0489147
0.0488562
0.0488313
0.0488339
0.0488608
0.0489238
0.0490145
0.0490301
0.0490747
0.0491214
0.0491368
0.0491375
0.0491345
0.0491308
0.0491267
0.0491221
0.049117
0.0491116
0.0491059
0.0491003
0.0490952
0.0490907
0.0490874
0.0490854
0.0490848
0.0490857
0.0490879
0.0490914
0.0490962
0.0491023
0.0491096
0.0491175
0.0491255
0.0491326
0.049138
0.049141
0.0491416
0.0491401
0.0491376
0.0491351
0.0491341
0.0491359
0.0491424
0.0491567
0.0492153
0.0492126
0.0492188
0.0492456
0.049272
0.0492918
0.0493042
0.0493109
0.0493141
0.0493147
0.0493131
0.04931
0.0493056
0.0493006
0.0492954
0.0492899
0.0492844
0.0492788
0.0492733
0.0492679
0.0492627
0.0492575
0.0492524
0.0492474
0.0492425
0.0492378
0.0492331
0.0492287
0.0492246
0.049221
0.0492181
0.0492161
0.0492151
0.0492149
0.0492152
0.0492154
0.0492156
0.0492167
0.0492201
0.0492256
0.0492307
0.0492327
0.0492298
0.0492243
0.0492213
0.0492185
0.0492151
0.0492101
0.0492011
0.0491663
0.0491154
0.0491268
0.0491638
0.0491216
0.0490537
0.0489685
0.048892
0.048838
0.0488168
0.0488242
0.0488567
0.0489241
0.0490079
0.0490208
0.0490658
0.0491127
0.0491285
0.0491299
0.0491276
0.0491244
0.0491206
0.0491162
0.0491111
0.0491055
0.0490995
0.0490936
0.0490881
0.0490834
0.04908
0.0490782
0.0490778
0.0490786
0.0490805
0.0490836
0.049088
0.0490939
0.0491011
0.0491094
0.049118
0.0491258
0.0491317
0.0491348
0.049135
0.0491326
0.0491286
0.0491246
0.049122
0.0491226
0.0491285
0.0491438
0.0492059
0.0492065
0.0492131
0.0492413
0.0492685
0.0492885
0.0493007
0.0493073
0.0493106
0.0493114
0.0493101
0.0493072
0.0493032
0.0492985
0.0492935
0.0492884
0.0492832
0.0492779
0.0492727
0.0492676
0.0492625
0.0492575
0.0492525
0.0492476
0.0492426
0.0492377
0.0492328
0.049228
0.0492234
0.0492192
0.0492157
0.0492132
0.0492121
0.0492122
0.0492131
0.049214
0.0492144
0.0492151
0.0492181
0.0492238
0.0492305
0.0492351
0.049235
0.0492298
0.0492252
0.0492213
0.0492169
0.0492108
0.0491969
0.0491521
0.0491074
0.049136
0.0491519
0.0490997
0.0490314
0.0489504
0.048878
0.0488285
0.048811
0.0488229
0.0488604
0.0489298
0.0490019
0.0490131
0.0490584
0.0491046
0.0491208
0.0491228
0.0491211
0.0491184
0.049115
0.0491108
0.0491058
0.0491
0.0490938
0.0490876
0.049082
0.0490775
0.0490744
0.0490731
0.0490731
0.0490738
0.0490752
0.0490775
0.0490812
0.0490865
0.0490935
0.0491019
0.049111
0.0491195
0.049126
0.0491294
0.0491293
0.049126
0.0491207
0.0491152
0.0491112
0.0491106
0.049116
0.0491321
0.0491957
0.049199
0.0492052
0.0492345
0.0492629
0.0492838
0.0492964
0.0493033
0.0493068
0.0493079
0.0493069
0.0493043
0.0493007
0.0492965
0.0492918
0.0492871
0.0492822
0.0492773
0.0492724
0.0492676
0.0492628
0.0492581
0.0492533
0.0492486
0.0492438
0.0492389
0.0492339
0.0492289
0.0492238
0.0492189
0.0492147
0.0492115
0.0492098
0.0492099
0.0492113
0.0492129
0.0492136
0.0492139
0.049216
0.0492214
0.0492288
0.0492353
0.049238
0.0492349
0.0492291
0.0492243
0.0492187
0.049211
0.049189
0.0491396
0.0491039
0.0491445
0.0491383
0.0490841
0.0490177
0.0489411
0.0488729
0.0488279
0.0488144
0.0488301
0.048871
0.0489383
0.0489963
0.0490071
0.0490523
0.0490974
0.0491137
0.0491164
0.0491153
0.0491131
0.0491101
0.0491061
0.0491011
0.0490953
0.0490891
0.0490829
0.0490775
0.0490734
0.0490712
0.0490708
0.0490711
0.0490716
0.0490722
0.0490735
0.0490762
0.0490807
0.0490872
0.0490955
0.0491049
0.049114
0.0491211
0.0491249
0.0491245
0.0491205
0.0491141
0.0491072
0.0491017
0.0491001
0.049105
0.0491219
0.0491846
0.0491904
0.0491958
0.0492259
0.049256
0.0492783
0.0492917
0.0492991
0.049303
0.0493043
0.0493037
0.0493015
0.0492983
0.0492945
0.0492901
0.0492857
0.0492812
0.0492767
0.0492722
0.0492677
0.0492632
0.0492588
0.0492544
0.04925
0.0492456
0.049241
0.0492361
0.0492311
0.0492258
0.0492204
0.0492153
0.0492111
0.0492086
0.0492082
0.0492098
0.0492122
0.0492135
0.0492133
0.0492142
0.0492187
0.0492261
0.0492336
0.0492387
0.0492385
0.0492327
0.0492269
0.0492202
0.0492089
0.0491795
0.049129
0.0491036
0.0491477
0.0491273
0.0490736
0.0490106
0.0489397
0.0488766
0.0488364
0.0488266
0.0488448
0.0488868
0.0489468
0.0489916
0.0490028
0.0490475
0.049091
0.0491075
0.0491108
0.0491103
0.0491086
0.049106
0.0491023
0.0490974
0.0490917
0.0490856
0.0490797
0.0490748
0.0490717
0.0490707
0.0490714
0.0490721
0.0490719
0.0490714
0.0490715
0.049073
0.0490764
0.0490822
0.0490902
0.0490998
0.0491094
0.0491172
0.0491213
0.0491209
0.0491162
0.0491087
0.0491005
0.0490939
0.0490913
0.0490956
0.0491134
0.0491728
0.0491811
0.0491851
0.0492161
0.0492481
0.0492722
0.0492867
0.0492946
0.049299
0.0493007
0.0493004
0.0492987
0.0492959
0.0492924
0.0492884
0.0492843
0.0492801
0.0492758
0.0492716
0.0492674
0.0492633
0.0492593
0.0492553
0.0492514
0.0492474
0.0492433
0.0492389
0.0492342
0.0492289
0.0492233
0.0492176
0.0492123
0.0492086
0.0492073
0.0492087
0.0492118
0.0492138
0.0492135
0.0492131
0.0492164
0.0492231
0.0492309
0.0492373
0.0492396
0.0492356
0.0492289
0.0492205
0.0492044
0.0491686
0.0491204
0.0491058
0.049147
0.0491187
0.0490668
0.0490086
0.0489447
0.048888
0.0488529
0.0488462
0.0488653
0.0489047
0.0489548
0.0489882
0.0490002
0.0490439
0.0490857
0.0491022
0.049106
0.0491062
0.0491051
0.0491029
0.0490995
0.0490949
0.0490894
0.0490835
0.0490781
0.049074
0.0490722
0.0490727
0.0490747
0.0490755
0.0490744
0.0490725
0.0490712
0.0490714
0.0490738
0.0490788
0.0490864
0.049096
0.049106
0.0491143
0.0491188
0.0491183
0.0491131
0.0491047
0.0490954
0.0490876
0.0490843
0.0490882
0.0491066
0.0491605
0.0491714
0.0491735
0.0492051
0.0492393
0.0492655
0.0492813
0.04929
0.0492948
0.049297
0.0492972
0.0492958
0.0492934
0.0492902
0.0492866
0.0492827
0.0492786
0.0492746
0.0492706
0.0492666
0.0492628
0.0492591
0.0492555
0.0492521
0.0492487
0.0492453
0.0492416
0.0492375
0.0492329
0.0492274
0.0492213
0.0492152
0.04921
0.0492073
0.0492081
0.0492116
0.0492146
0.0492144
0.0492129
0.0492147
0.0492205
0.0492279
0.0492345
0.0492383
0.0492369
0.0492294
0.0492186
0.0491971
0.0491573
0.0491141
0.0491097
0.049145
0.0491128
0.0490632
0.0490105
0.0489546
0.0489052
0.0488754
0.0488709
0.0488888
0.0489228
0.0489622
0.0489863
0.048999
0.0490414
0.0490814
0.0490978
0.0491023
0.049103
0.0491024
0.0491007
0.0490977
0.0490935
0.0490884
0.049083
0.0490782
0.049075
0.0490745
0.049077
0.0490801
0.0490804
0.0490779
0.0490747
0.049072
0.0490711
0.0490725
0.0490769
0.0490842
0.0490937
0.0491039
0.0491126
0.0491174
0.0491169
0.0491113
0.049102
0.0490918
0.0490831
0.049079
0.0490826
0.0491017
0.0491478
0.0491617
0.0491612
0.0491931
0.0492296
0.0492582
0.0492756
0.0492851
0.0492906
0.0492933
0.0492939
0.0492929
0.0492909
0.049288
0.0492846
0.0492808
0.0492769
0.049273
0.0492691
0.0492653
0.0492616
0.0492581
0.0492549
0.0492519
0.0492491
0.0492465
0.0492437
0.0492406
0.0492369
0.0492322
0.0492263
0.0492196
0.0492131
0.0492087
0.0492081
0.0492116
0.0492158
0.0492161
0.0492136
0.049214
0.0492187
0.0492252
0.0492314
0.0492355
0.0492355
0.0492276
0.0492137
0.0491875
0.0491465
0.0491102
0.0491148
0.0491435
0.0491096
0.0490625
0.0490154
0.0489676
0.0489262
0.0489015
0.0488981
0.0489132
0.0489403
0.0489693
0.048986
0.0489992
0.0490399
0.0490779
0.0490944
0.0490995
0.0491008
0.0491007
0.0490995
0.049097
0.0490933
0.0490887
0.0490839
0.0490797
0.0490773
0.049078
0.0490822
0.0490859
0.049085
0.0490813
0.049077
0.0490735
0.0490717
0.0490725
0.0490764
0.0490834
0.0490929
0.0491033
0.0491123
0.0491173
0.0491167
0.0491107
0.0491008
0.0490898
0.0490803
0.0490758
0.0490791
0.0490989
0.049135
0.0491526
0.0491485
0.0491802
0.049219
0.0492502
0.0492695
0.0492801
0.0492862
0.0492896
0.0492907
0.0492901
0.0492883
0.0492858
0.0492826
0.0492789
0.0492751
0.0492713
0.0492675
0.0492637
0.04926
0.0492566
0.0492535
0.0492508
0.0492486
0.0492467
0.0492449
0.049243
0.0492405
0.049237
0.0492319
0.0492253
0.0492178
0.0492115
0.049209
0.0492118
0.0492171
0.0492185
0.0492154
0.0492144
0.0492179
0.0492235
0.0492286
0.0492317
0.0492311
0.0492231
0.0492062
0.0491768
0.0491369
0.0491086
0.0491208
0.0491436
0.0491091
0.0490645
0.0490225
0.0489825
0.0489486
0.0489286
0.0489255
0.0489368
0.0489566
0.0489764
0.0489875
0.0490006
0.0490391
0.0490753
0.0490918
0.0490974
0.0490994
0.0490998
0.0490991
0.0490972
0.0490942
0.0490902
0.049086
0.0490824
0.0490805
0.0490815
0.0490867
0.0490894
0.0490876
0.0490835
0.0490788
0.049075
0.0490729
0.0490736
0.0490773
0.0490843
0.0490938
0.0491042
0.0491133
0.0491183
0.0491177
0.0491114
0.049101
0.0490894
0.0490794
0.0490745
0.0490777
0.0490981
0.0491221
0.0491443
0.0491364
0.0491658
0.0492072
0.0492414
0.0492629
0.0492748
0.0492818
0.0492858
0.0492875
0.0492873
0.0492859
0.0492836
0.0492806
0.0492771
0.0492735
0.0492698
0.0492661
0.0492623
0.0492585
0.049255
0.0492519
0.0492493
0.0492473
0.0492459
0.049245
0.0492443
0.0492433
0.0492414
0.0492378
0.0492319
0.049224
0.0492159
0.049211
0.0492124
0.0492185
0.0492212
0.049218
0.0492159
0.0492184
0.0492232
0.049227
0.0492283
0.0492258