/*--------------------------------*- C++ -*----------------------------------*\
| =========                 |                                                 |
| \\      /  F ield         | OpenFOAM: The Open Source CFD Toolbox           |
|  \\    /   O peration     | Version:  4.1                                   |
|   \\  /    A nd           | Web:      www.OpenFOAM.org                      |
|    \\/     M anipulation  |                                                 |
\*---------------------------------------------------------------------------*/
FoamFile
{
    version     2.0;
    format      ascii;
    class       volScalarField;
    location    "920";
    object      T;
}
// * * * * * * * * * * * * * * * * * * * * * * * * * * * * * * * * * * * * * //

dimensions      [0 0 0 1 0 0 0];

internalField   nonuniform List<scalar> 
5000
(
284.064
283.693
283.764
284.197
284.534
284.55
284.325
284.098
283.89
283.769
283.731
283.749
283.801
283.869
283.947
284.066
284.43
284.818
285.048
285.19
285.193
285.118
285.03
284.942
284.859
284.781
284.708
284.641
284.579
284.521
284.467
284.416
284.366
284.318
284.27
284.222
284.173
284.123
284.077
284.037
284.011
284.005
284.03
284.094
284.192
284.303
284.441
284.633
284.899
285.093
284.913
285.155
285.151
284.462
284.07
283.823
283.856
284.065
284.419
284.866
285.069
284.972
284.785
284.604
284.529
284.573
284.683
284.821
284.961
285.085
285.178
285.232
285.244
285.216
285.152
285.059
284.945
284.815
284.674
284.526
284.374
284.224
284.082
283.953
283.848
283.777
283.769
283.86
284.054
284.424
284.391
283.962
283.641
283.407
283.319
283.304
283.301
283.222
283.217
283.83
283.588
282.979
282.989
283.219
283.826
283.76
283.214
282.76
282.601
282.575
282.568
282.564
282.564
282.565
282.566
282.568
282.571
282.573
282.575
282.576
282.576
282.575
282.574
282.572
282.571
282.57
282.568
282.567
282.566
282.564
282.563
282.562
282.561
282.56
282.559
282.558
282.558
282.558
282.558
282.561
282.565
282.573
282.585
282.606
282.666
282.825
283.124
283.587
284.145
284.457
283.96
283.349
284.796
283.701
282.886
282.879
283.068
283.398
283.871
284.127
283.92
283.364
282.836
282.587
282.521
282.501
282.494
282.491
282.489
282.488
282.487
282.486
282.485
282.484
282.484
282.483
282.484
282.485
282.489
282.495
282.506
282.524
282.552
282.596
282.663
282.759
282.876
282.977
283.361
284.117
284.147
283.504
283.008
282.731
282.608
282.521
282.443
282.397
282.373
283.277
283.494
283.041
283.027
283.176
283.517
283.427
282.969
282.673
282.589
282.568
282.557
282.551
282.55
282.55
282.55
282.55
282.55
282.55
282.55
282.549
282.548
282.547
282.546
282.545
282.544
282.543
282.542
282.541
282.54
282.539
282.538
282.537
282.536
282.535
282.534
282.534
282.534
282.534
282.535
282.539
282.546
282.559
282.577
282.603
282.646
282.738
282.941
283.321
283.838
284.16
283.881
283.384
284.541
283.871
283.08
283.004
283.207
283.467
283.701
283.764
283.499
283.053
282.72
282.576
282.526
282.507
282.498
282.493
282.489
282.486
282.484
282.483
282.482
282.482
282.483
282.485
282.488
282.493
282.502
282.515
282.536
282.568
282.618
282.697
282.82
283.01
283.278
283.597
283.858
284.169
284.188
283.618
282.973
282.662
282.577
282.518
282.463
282.413
282.377
283.089
283.428
283.126
283.048
283.154
283.355
283.253
282.881
282.66
282.595
282.57
282.552
282.544
282.542
282.542
282.541
282.541
282.541
282.54
282.539
282.539
282.538
282.536
282.535
282.534
282.533
282.532
282.531
282.531
282.53
282.529
282.528
282.528
282.527
282.526
282.525
282.525
282.524
282.525
282.526
282.53
282.539
282.557
282.586
282.624
282.676
282.762
282.93
283.249
283.697
283.997
283.858
283.518
284.085
284.013
283.414
283.111
283.208
283.413
283.57
283.569
283.327
282.975
282.721
282.599
282.549
282.527
282.517
282.511
282.507
282.505
282.503
282.501
282.501
282.501
282.502
282.504
282.508
282.513
282.521
282.533
282.552
282.58
282.626
282.7
282.82
283.01
283.292
283.659
284.019
284.243
284.267
283.795
282.595
282.557
282.525
282.492
282.451
282.406
282.375
282.979
283.253
283.068
283.038
283.144
283.262
283.158
282.849
282.67
282.61
282.577
282.549
282.537
282.535
282.534
282.533
282.532
282.531
282.531
282.53
282.529
282.528
282.527
282.526
282.526
282.525
282.525
282.525
282.524
282.524
282.524
282.523
282.523
282.522
282.521
282.521
282.52
282.519
282.519
282.52
282.523
282.534
282.557
282.597
282.653
282.722
282.816
282.972
283.251
283.637
283.903
283.842
283.596
283.716
283.905
283.638
283.279
283.163
283.316
283.457
283.458
283.263
282.974
282.75
282.628
282.569
282.543
282.532
282.526
282.523
282.521
282.519
282.519
282.519
282.52
282.522
282.524
282.528
282.531
282.536
282.542
282.55
282.561
282.577
282.605
282.652
282.731
282.865
283.077
283.391
283.74
283.836
283.348
282.552
282.55
282.542
282.523
282.482
282.42
282.376
282.912
282.947
282.94
283.065
283.143
283.209
283.11
282.849
282.696
282.635
282.589
282.545
282.532
282.529
282.527
282.526
282.524
282.523
282.523
282.522
282.522
282.521
282.521
282.521
282.521
282.521
282.522
282.522
282.522
282.522
282.522
282.521
282.521
282.52
282.519
282.518
282.517
282.516
282.515
282.515
282.518
282.528
282.555
282.608
282.685
282.777
282.885
283.04
283.29
283.619
283.847
283.825
283.641
283.557
283.703
283.648
283.437
283.192
283.225
283.353
283.38
283.242
283.003
282.793
282.661
282.59
282.558
282.545
282.54
282.538
282.537
282.537
282.538
282.54
282.542
282.545
282.548
282.551
282.555
282.558
282.562
282.565
282.568
282.57
282.572
282.573
282.574
282.576
282.58
282.591
282.618
282.642
282.577
282.583
282.584
282.579
282.568
282.54
282.463
282.382
282.87
282.873
283.001
283.116
283.149
283.18
283.093
282.872
282.739
282.675
282.61
282.541
282.526
282.523
282.52
282.519
282.517
282.517
282.516
282.516
282.516
282.517
282.517
282.518
282.519
282.52
282.521
282.522
282.522
282.522
282.522
282.521
282.521
282.52
282.518
282.517
282.515
282.514
282.512
282.512
282.513
282.521
282.548
282.612
282.713
282.833
282.961
283.119
283.345
283.622
283.808
283.801
283.657
283.509
283.526
283.556
283.477
283.286
283.183
283.264
283.31
283.229
283.04
282.842
282.698
282.613
282.573
282.558
282.554
282.554
282.554
282.556
282.558
282.56
282.563
282.566
282.569
282.572
282.576
282.579
282.582
282.585
282.588
282.59
282.592
282.594
282.596
282.597
282.598
282.599
282.601
282.603
282.606
282.609
282.61
282.609
282.605
282.59
282.543
282.393
282.856
282.9
283.075
283.152
283.16
283.171
283.099
282.917
282.806
282.742
282.646
282.537
282.521
282.517
282.514
282.512
282.511
282.511
282.511
282.512
282.513
282.514
282.516
282.517
282.519
282.521
282.522
282.523
282.524
282.524
282.523
282.522
282.521
282.519
282.517
282.515
282.513
282.511
282.509
282.508
282.508
282.513
282.536
282.604
282.728
282.879
283.032
283.196
283.401
283.628
283.772
283.764
283.641
283.483
283.409
283.433
283.44
283.34
283.207
283.206
283.246
283.206
283.069
282.89
282.737
282.638
282.59
282.573
282.569
282.568
282.569
282.571
282.573
282.575
282.578
282.581
282.584
282.586
282.589
282.591
282.594
282.596
282.598
282.601
282.603
282.605
282.608
282.61
282.612
282.615
282.617
282.619
282.622
282.624
282.626
282.629
282.632
282.633
282.622
282.579
282.842
282.921
283.099
283.176
283.177
283.174
283.122
282.977
282.893
282.836
282.68
282.533
282.516
282.511
282.508
282.507
282.506
282.506
282.508
282.509
282.511
282.514
282.516
282.519
282.521
282.523
282.525
282.526
282.526
282.526
282.525
282.524
282.522
282.519
282.516
282.513
282.51
282.507
282.504
282.503
282.503
282.506
282.523
282.585
282.72
282.902
283.083
283.256
283.441
283.622
283.723
283.704
283.59
283.436
283.323
283.315
283.361
283.344
283.248
283.192
283.2
283.175
283.08
282.93
282.773
282.66
282.603
282.583
282.578
282.578
282.58
282.581
282.583
282.585
282.588
282.59
282.591
282.593
282.595
282.596
282.598
282.599
282.601
282.604
282.606
282.609
282.612
282.615
282.618
282.621
282.624
282.627
282.63
282.632
282.635
282.638
282.645
282.658
282.684
282.734
282.83
282.915
283.1
283.191
283.197
283.188
283.153
283.043
282.981
282.915
282.668
282.527
282.512
282.506
282.503
282.502
282.502
282.503
282.505
282.508
282.511
282.515
282.518
282.521
282.524
282.526
282.528
282.529
282.529
282.529
282.528
282.525
282.523
282.519
282.515
282.511
282.506
282.502
282.499
282.497
282.497
282.5
282.511
282.558
282.688
282.889
283.097
283.28
283.448
283.586
283.648
283.611
283.499
283.355
283.235
283.207
283.268
283.312
283.271
283.211
283.186
283.151
283.077
282.957
282.807
282.68
282.613
282.59
282.585
282.585
282.586
282.588
282.589
282.59
282.591
282.592
282.593
282.594
282.594
282.595
282.596
282.597
282.599
282.601
282.603
282.606
282.61
282.614
282.618
282.622
282.627
282.631
282.634
282.637
282.64
282.641
282.644
282.653
282.675
282.724
282.816
282.9
283.088
283.195
283.214
283.208
283.186
283.108
283.067
283.012
282.624
282.519
282.507
282.501
282.498
282.497
282.499
282.501
282.504
282.508
282.512
282.517
282.521
282.524
282.527
282.53
282.532
282.533
282.533
282.532
282.53
282.528
282.524
282.52
282.515
282.509
282.503
282.497
282.493
282.49
282.491
282.494
282.502
282.533
282.64
282.838
283.061
283.251
283.403
283.506
283.534
283.481
283.371
283.24
283.134
283.106
283.175
283.261
283.275
283.235
283.2
283.147
283.069
282.971
282.837
282.7
282.622
282.595
282.589
282.589
282.589
282.59
282.59
282.59
282.59
282.59
282.589
282.589
282.589
282.589
282.589
282.589
282.591
282.593
282.596
282.599
282.604
282.609
282.614
282.62
282.626
282.632
282.637
282.641
282.644
282.645
282.644
282.643
282.646
282.665
282.725
282.884
283.068
283.184
283.222
283.225
283.214
283.163
283.133
283.078
282.599
282.512
282.501
282.495
282.493
282.494
282.496
282.5
282.504
282.509
282.514
282.519
282.524
282.528
282.532
282.534
282.536
282.537
282.537
282.536
282.534
282.53
282.526
282.521
282.515
282.508
282.501
282.493
282.487
282.484
282.484
282.488
282.495
282.515
282.59
282.76
282.974
283.163
283.299
283.374
283.377
283.316
283.215
283.105
283.023
283.011
283.091
283.207
283.265
283.255
283.226
283.169
283.068
282.974
282.862
282.718
282.63
282.599
282.591
282.59
282.59
282.589
282.588
282.587
282.585
282.584
282.582
282.58
282.579
282.578
282.578
282.578
282.579
282.581
282.584
282.588
282.593
282.599
282.606
282.613
282.621
282.629
282.637
282.643
282.649
282.651
282.651
282.646
282.637
282.625
282.612
282.866
283.037
283.157
283.209
283.226
283.225
283.193
283.155
282.986
282.578
282.506
282.495
282.49
282.489
282.491
282.494
282.499
282.505
282.511
282.517
282.522
282.528
282.532
282.536
282.539
282.541
282.542
282.541
282.54
282.537
282.534
282.529
282.523
282.516
282.508
282.5
282.491
282.482
282.477
282.478
282.483
282.49
282.503
282.55
282.675
282.857
283.027
283.146
283.201
283.192
283.133
283.052
282.97
282.915
282.925
283.019
283.155
283.248
283.268
283.253
283.206
283.084
282.971
282.883
282.736
282.637
282.601
282.592
282.59
282.588
282.586
282.583
282.58
282.577
282.574
282.571
282.568
282.566
282.565
282.563
282.563
282.564
282.566
282.569
282.574
282.579
282.586
282.594
282.603
282.613
282.623
282.633
282.643
282.651
282.657
282.659
282.657
282.65
282.637
282.616
282.846
282.999
283.11
283.168
283.194
283.198
283.172
283.102
282.799
282.532
282.499
282.49
282.486
282.486
282.488
282.493
282.499
282.505
282.512
282.519
282.525
282.531
282.536
282.54
282.544
282.546
282.547
282.546
282.545
282.542
282.538
282.533
282.526
282.519
282.51
282.5
282.49
282.48
282.473
282.472
282.478
282.485
282.495
282.524
282.604
282.738
282.875
282.972
283.014
283.003
282.959
282.91
282.853
282.817
282.848
282.958
283.111
283.231
283.277
283.277
283.242
283.117
282.967
282.899
282.751
282.644
282.603
282.592
282.588
282.585
282.581
282.576
282.572
282.567
282.562
282.558
282.554
282.551
282.549
282.547
282.547
282.548
282.55
282.553
282.558
282.564
282.571
282.58
282.59
282.602
282.614
282.627
282.639
282.65
282.659
282.665
282.666
282.661
282.649
282.627
282.823
282.953
283.046
283.096
283.118
283.115
283.075
282.96
282.629
282.505
282.492
282.484
282.481
282.483
282.486
282.492
282.499
282.506
282.514
282.521
282.528
282.534
282.54
282.545
282.548
282.551
282.552
282.551
282.55
282.547
282.543
282.537
282.53
282.522
282.513
282.503
282.491
282.479
282.47
282.468
282.475
282.482
282.491
282.508
282.555
282.642
282.739
282.812
282.844
282.839
282.817
282.804
282.762
282.73
282.776
282.903
283.073
283.215
283.285
283.299
283.274
283.156
282.966
282.91
282.765
282.649
282.604
282.591
282.585
282.58
282.574
282.568
282.561
282.555
282.549
282.544
282.539
282.535
282.532
282.531
282.53
282.531
282.534
282.537
282.542
282.548
282.556
282.565
282.576
282.589
282.603
282.618
282.633
282.647
282.66
282.668
282.672
282.67
282.659
282.636
282.8
282.904
282.972
283
283.003
282.98
282.914
282.769
282.543
282.495
282.484
282.478
282.477
282.48
282.484
282.491
282.498
282.506
282.514
282.522
282.53
282.537
282.543
282.548
282.553
282.555
282.557
282.557
282.555
282.552
282.548
282.542
282.535
282.527
282.517
282.507
282.494
282.481
282.47
282.466
282.473
282.482
282.489
282.499
282.524
282.575
282.638
282.688
282.713
282.715
282.718
282.741
282.693
282.653
282.71
282.855
283.043
283.204
283.293
283.32
283.3
283.188
282.971
282.918
282.776
282.653
282.604
282.589
282.581
282.574
282.566
282.558
282.55
282.542
282.535
282.529
282.524
282.519
282.517
282.515
282.515
282.517
282.519
282.523
282.528
282.534
282.542
282.551
282.562
282.576
282.591
282.608
282.625
282.643
282.658
282.67
282.677
282.676
282.666
282.642
282.779
282.857
282.898
282.898
282.875
282.828
282.746
282.622
282.509
282.486
282.477
282.473
282.473
282.477
282.482
282.489
282.497
282.506
282.514
282.523
282.531
282.539
282.545
282.551
282.556
282.559
282.561
282.562
282.561
282.558
282.554
282.548
282.541
282.532
282.523
282.511
282.499
282.485
282.472
282.466
282.472
282.483
282.488
282.495
282.508
282.535
282.572
282.604
282.623
282.633
282.661
282.712
282.64
282.595
282.66
282.822
283.025
283.201
283.303
283.338
283.32
283.208
282.978
282.921
282.784
282.656
282.604
282.587
282.577
282.568
282.558
282.548
282.538
282.529
282.521
282.515
282.509
282.505
282.503
282.502
282.503
282.504
282.507
282.511
282.516
282.522
282.529
282.538
282.549
282.563
282.579
282.597
282.617
282.637
282.655
282.67
282.68
282.682
282.673
282.647
282.759
282.815
282.833
282.806
282.761
282.701
282.625
282.543
282.493
282.478
282.471
282.469
282.47
282.474
282.48
282.487
282.495
282.504
282.513
282.522
282.53
282.538
282.546
282.552
282.558
282.562
282.565
282.566
282.566
282.563
282.56
282.554
282.547
282.538
282.529
282.517
282.505
282.49
282.476
282.467
282.469
282.482
282.488
282.492
282.499
282.513
282.533
282.553
282.568
282.586
282.637
282.706
282.601
282.564
282.636
282.811
283.026
283.21
283.317
283.353
283.333
283.216
282.98
282.921
282.788
282.658
282.603
282.584
282.572
282.561
282.549
282.538
282.527
282.517
282.509
282.502
282.497
282.493
282.492
282.492
282.493
282.496
282.499
282.503
282.507
282.513
282.519
282.528
282.538
282.551
282.567
282.586
282.608
282.63
282.651
282.669
282.682
282.686
282.678
282.652
282.743
282.78
282.781
282.735
282.677
282.615
282.555
282.508
282.482
282.471
282.465
282.463
282.466
282.47
282.476
282.483
282.492
282.5
282.51
282.519
282.528
282.536
282.544
282.551
282.557
282.563
282.566
282.569
282.569
282.568
282.565
282.56
282.553
282.544
282.535
282.524
282.512
282.497
282.481
282.469
282.467
282.477
282.487
282.49
282.493
282.501
282.512
282.525
282.538
282.564
282.639
282.711
282.578
282.561
282.644
282.829
283.046
283.228
283.332
283.365
283.336
283.211
282.976
282.918
282.79
282.658
282.602
282.581
282.567
282.554
282.54
282.528
282.516
282.506
282.497
282.491
282.486
282.484
282.483
282.484
282.486
282.49
282.493
282.497
282.502
282.507
282.513
282.52
282.529
282.541
282.557
282.576
282.599
282.623
282.647
282.668
282.683
282.69
282.683
282.656
282.729
282.752
282.742
282.685
282.622
282.565
282.52
282.49
282.473
282.464
282.459
282.458
282.461
282.465
282.471
282.479
282.487
282.495
282.504
282.513
282.522
282.531
282.54
282.548
282.555
282.561
282.566
282.569
282.571
282.571
282.569
282.565
282.558
282.55
282.541
282.531
282.519
282.505
282.488
282.473
282.466
282.47
282.481
282.486
282.489
282.494
282.501
282.511
282.524
282.56
282.658
282.713
282.57
282.581
282.678
282.869
283.081
283.253
283.346
283.369
283.328
283.194
282.966
282.913
282.788
282.657
282.6
282.577
282.562
282.547
282.532
282.518
282.506
282.496
282.487
282.481
282.478
282.476
282.477
282.479
282.482
282.486
282.49
282.494
282.499
282.504
282.509
282.514
282.522
282.533
282.548
282.567
282.591
282.617
282.643
282.666
282.684
282.693
282.687
282.659
282.719
282.73
282.715
282.653
282.589
282.538
282.502
282.479
282.465
282.457
282.453
282.453
282.455
282.46
282.466
282.472
282.48
282.488
282.497
282.506
282.515
282.524
282.533
282.541
282.549
282.556
282.563
282.568
282.571
282.573
282.572
282.569
282.563
282.555
282.546
282.537
282.526
282.513
282.497
282.479
282.467
282.465
282.474
282.482
282.486
282.489
282.495
282.504
282.518
282.57
282.684
282.705
282.574
282.615
282.729
282.92
283.12
283.275
283.353
283.362
283.308
283.166
282.951
282.905
282.783
282.655
282.598
282.574
282.556
282.54
282.524
282.51
282.497
282.487
282.479
282.474
282.471
282.471
282.472
282.475
282.478
282.483
282.487
282.493
282.498
282.502
282.507
282.512
282.518
282.527
282.54
282.559
282.583
282.61
282.639
282.665
282.685
282.696
282.691
282.662
282.711
282.714
282.697
282.633
282.57
282.523
282.491
282.471
282.458
282.451
282.447
282.447
282.449
282.453
282.458
282.465
282.472
282.479
282.487
282.496
282.505
282.514
282.523
282.532
282.54
282.549
282.556
282.563
282.568
282.572
282.573
282.572
282.567
282.56
282.551
282.542
282.533
282.522
282.507
282.488
282.471
282.463
282.466
282.476
282.481
282.486
282.492
282.501
282.518
282.593
282.707
282.685
282.587
282.657
282.785
282.969
283.15
283.286
283.348
283.343
283.276
283.128
282.936
282.895
282.776
282.653
282.596
282.57
282.551
282.533
282.517
282.502
282.489
282.479
282.471
282.467
282.465
282.465
282.467
282.47
282.474
282.478
282.484
282.491
282.497
282.502
282.507
282.511
282.515
282.523
282.535
282.553
282.577
282.605
282.635
282.663
282.685
282.698
282.695
282.665
282.706
282.702
282.685
282.621
282.559
282.513
282.483
282.464
282.452
282.444
282.441
282.44
282.442
282.446
282.45
282.456
282.462
282.469
282.477
282.485
282.493
282.502
282.511
282.52
282.529
282.538
282.547
282.555
282.562
282.568
282.572
282.573
282.57
282.564
282.556
282.547
282.539
282.53
282.517
282.498
282.479
282.465
282.462
282.47
282.477
282.483
282.49
282.501
282.528
282.622
282.72
282.661
282.609
282.701
282.831
283.001
283.164
283.281
283.329
283.31
283.233
283.084
282.921
282.883
282.768
282.65
282.593
282.566
282.546
282.527
282.51
282.494
282.482
282.472
282.465
282.461
282.459
282.46
282.461
282.463
282.467
282.472
282.479
282.488
282.495
282.502
282.507
282.511
282.515
282.521
282.531
282.547
282.571
282.6
282.632
282.662
282.686
282.7
282.698
282.668
282.703
282.694
282.678
282.615
282.553
282.507
282.477
282.458
282.445
282.438
282.434
282.433
282.434
282.437
282.441
282.446
282.452
282.458
282.465
282.472
282.48
282.489
282.498
282.507
282.516
282.526
282.535
282.545
282.554
282.562
282.568
282.572
282.571
282.567
282.559
282.55
282.543
282.536
282.526
282.509
282.489
282.471
282.462
282.465
282.474
282.481
282.49
282.503
282.546
282.649
282.725
282.643
282.637
282.734
282.86
283.015
283.161
283.261
283.294
283.265
283.181
283.038
282.909
282.871
282.759
282.646
282.591
282.563
282.541
282.522
282.504
282.488
282.475
282.465
282.459
282.455
282.453
282.453
282.453
282.454
282.457
282.463
282.472
282.483
282.493
282.502
282.508
282.512
282.515
282.52
282.528
282.544
282.567
282.596
282.629
282.66
282.686
282.702
282.701
282.67
282.702
282.689
282.675
282.612
282.55
282.502
282.471
282.452
282.44
282.432
282.427
282.426
282.426
282.429
282.432
282.436
282.441
282.447
282.453
282.46
282.468
282.476
282.484
282.493
282.502
282.512
282.522
282.532
282.543
282.553
282.562
282.568
282.571
282.569
282.562
282.553
282.546
282.541
282.534
282.52
282.5
282.481
282.467
282.463
282.471
282.48
282.49
282.511
282.568
282.671
282.725
282.637
282.663
282.758
282.875
283.014
283.142
283.225
283.247
283.21
283.124
282.998
282.897
282.857
282.749
282.643
282.589
282.56
282.538
282.517
282.499
282.483
282.47
282.46
282.453
282.449
282.446
282.444
282.442
282.441
282.444
282.452
282.464
282.477
282.49
282.501
282.509
282.514
282.516
282.52
282.527
282.541
282.564
282.593
282.627
282.659
282.687
282.703
282.703
282.673
282.704
282.686
282.675
282.613
282.548
282.499
282.467
282.447
282.434
282.426
282.421
282.419
282.419
282.42
282.423
282.426
282.431
282.436
282.442
282.449
282.456
282.464
282.472
282.48
282.489
282.499
282.509
282.519
282.53
282.542
282.553
282.562
282.569
282.569
282.564
282.556
282.548
282.544
282.54
282.529
282.511
282.492
282.475
282.467
282.471
282.48
282.494
282.524
282.593
282.689
282.721
282.641
282.684
282.775
282.88
283
283.109
283.178
283.19
283.15
283.069
282.964
282.886
282.844
282.741
282.64
282.587
282.557
282.534
282.513
282.494
282.478
282.465
282.455
282.448
282.442
282.438
282.434
282.429
282.426
282.43
282.44
282.455
282.471
282.486
282.499
282.509
282.515
282.518
282.521
282.527
282.54
282.562
282.591
282.625
282.659
282.687
282.705
282.705
282.675
282.707
282.686
282.678
282.615
282.549
282.497
282.464
282.443
282.429
282.42
282.415
282.412
282.411
282.412
282.414
282.418
282.422
282.427
282.432
282.439
282.446
282.453
282.461
282.47
282.478
282.487
282.496
282.507
282.518
282.53
282.542
282.554
282.564
282.569
282.566
282.558
282.55
282.547
282.545
282.537
282.521
282.503
282.486
282.474
282.473
282.484
282.502
282.542
282.618
282.703
282.716
282.649
282.701
282.786
282.878
282.979
283.07
283.123
283.129
283.091
283.02
282.936
282.876
282.832
282.733
282.638
282.586
282.556
282.532
282.511
282.491
282.475
282.461
282.451
282.443
282.436
282.431
282.424
282.416
282.412
282.416
282.429
282.446
282.465
282.483
282.498
282.509
282.516
282.52
282.522
282.527
282.54
282.561
282.59
282.624
282.659
282.688
282.706
282.707
282.677
282.712
282.686
282.682
282.62
282.552
282.497
282.462
282.44
282.426
282.416
282.409
282.406
282.405
282.405
282.407
282.41
282.414
282.419
282.424
282.431
282.438
282.445
282.453
282.461
282.469
282.478
282.486
282.496
282.506
282.518
282.531
282.545
282.558
282.566
282.567
282.56
282.551
282.548
282.548
282.543
282.53
282.513
282.497
282.485
282.481
282.493
282.516
282.564
282.641
282.713
282.711
282.658
282.712
282.791
282.872
282.955
283.027
283.069
283.07
283.037
282.979
282.914
282.866
282.821
282.727
282.638
282.587
282.556
282.531
282.509
282.49
282.473
282.458
282.447
282.439
282.431
282.424
282.415
282.405
282.399
282.406
282.422
282.441
282.462
282.481
282.498
282.51
282.518
282.521
282.524
282.529
282.54
282.561
282.59
282.625
282.659
282.689
282.708
282.709
282.679
282.719
282.687
282.689
282.628
282.557
282.499
282.461
282.438
282.423
282.412
282.405
282.401
282.399
282.399
282.401
282.403
282.407
282.412
282.418
282.425
282.432
282.44
282.448
282.456
282.464
282.471
282.479
282.487
282.496
282.507
282.519
282.534
282.549
282.562
282.567
282.563
282.553
282.549
282.551
282.548
282.538
282.523
282.509
282.498
282.495
282.507
282.536
282.589
282.663
282.719
282.705
282.665
282.72
282.793
282.863
282.93
282.986
283.017
283.017
282.99
282.945
282.896
282.857
282.812
282.723
282.638
282.588
282.557
282.532
282.51
282.49
282.472
282.457
282.445
282.436
282.428
282.42
282.411
282.399
282.395
282.404
282.42
282.44
282.461
282.481
282.498
282.511
282.519
282.523
282.526
282.531
282.542
282.562
282.591
282.625
282.66
282.69
282.709
282.711
282.681
282.727
282.69
282.696
282.639
282.565
282.503
282.463
282.438
282.421
282.409
282.401
282.397
282.394
282.394
282.395
282.398
282.402
282.406
282.412
282.419
282.427
282.436
282.444
282.453
282.461
282.468
282.475
282.482
282.489
282.498
282.509
282.523
282.54
282.556
282.566
282.565
282.556
282.55
282.553
282.552
282.544
282.531
282.519
282.512
282.512
282.526
282.559
282.614
282.682
282.723
282.699
282.669
282.724
282.793
282.854
282.907
282.95
282.973
282.972
282.952
282.918
282.882
282.85
282.806
282.722
282.642
282.592
282.56
282.534
282.512
282.491
282.473
282.458
282.445
282.435
282.426
282.418
282.41
282.402
282.401
282.409
282.424
282.443
282.464
282.484
282.501
282.513
282.521
282.525
282.528
282.533
282.544
282.564
282.593
282.627
282.662
282.692
282.71
282.712
282.683
282.737
282.693
282.704
282.654
282.578
282.51
282.466
282.439
282.421
282.408
282.399
282.394
282.391
282.39
282.391
282.393
282.397
282.402
282.408
282.415
282.424
282.433
282.443
282.452
282.46
282.467
282.474
282.48
282.485
282.492
282.501
282.513
282.53
282.549
282.564
282.568
282.559
282.551
282.554
282.555
282.549
282.538
282.528
282.525
282.53
282.547
282.582
282.637
282.697
282.724
282.693
282.67
282.724
282.789
282.844
282.888
282.92
282.937
282.937
282.921
282.897
282.871
282.844
282.802
282.723
282.647
282.598
282.565
282.539
282.516
282.495
282.477
282.461
282.448
282.437
282.428
282.42
282.413
282.408
282.41
282.419
282.433
282.451
282.471
282.489
282.505
282.517
282.524
282.528
282.53
282.535
282.547
282.567
282.596
282.63
282.665
282.694
282.712
282.714
282.685
282.748
282.697
282.711
282.67
282.598
282.523
282.472
282.443
282.423
282.409
282.399
282.392
282.389
282.387
282.388
282.389
282.392
282.397
282.403
282.411
282.421
282.431
282.441
282.451
282.461
282.469
282.475
282.48
282.485
282.489
282.495
282.505
282.521
282.541
282.56
282.57
282.563
282.554
282.556
282.558
282.553
282.543
282.536
282.535
282.545
282.567
282.605
282.657
282.709
282.723
282.686
282.668
282.72
282.783
282.834
282.871
282.897
282.909
282.909
282.899
282.882
282.862
282.84
282.799
282.726
282.656
282.608
282.574
282.547
282.524
282.503
282.484
282.468
282.455
282.444
282.434
282.427
282.421
282.419
282.423
282.432
282.446
282.463
282.481
282.498
282.512
282.522
282.528
282.53
282.533
282.538
282.55
282.571
282.6
282.634
282.668
282.696
282.714
282.715
282.686
282.759
282.703
282.718
282.685
282.621
282.547
282.485
282.449
282.427
282.411
282.4
282.393
282.388
282.386
282.385
282.386
282.388
282.392
282.399
282.407
282.418
282.429
282.441
282.452
282.462
282.471
282.478
282.483
282.486
282.489
282.493
282.5
282.512
282.532
282.555
282.572
282.568
282.558
282.559
282.56
282.556
282.548
282.541
282.543
282.557
282.584
282.624
282.674
282.719
282.722
282.678
282.662
282.713
282.775
282.824
282.858
282.879
282.888
282.889
282.882
282.87
282.856
282.836
282.798
282.733
282.668
282.621
282.586
282.559
282.535
282.514
282.495
282.479
282.465
282.454
282.445
282.438
282.434
282.434
282.439
282.449
282.462
282.478
282.494
282.508
282.52
282.527
282.532
282.533
282.535
282.541
282.554
282.576
282.605
282.639
282.672
282.7
282.716
282.717
282.688
282.77
282.709
282.724
282.7
282.645
282.575
282.509
282.463
282.436
282.417
282.404
282.395
282.389
282.386
282.384
282.384
282.386
282.389
282.396
282.405
282.416
282.428
282.441
282.453
282.464
282.473
282.481
282.487
282.49
282.492
282.493
282.497
282.506
282.524
282.549
282.573
282.575
282.564
282.564
282.563
282.56
282.552
282.545
282.548
282.565
282.595
282.638
282.688
282.726
282.719
282.67
282.654
282.702
282.764
282.814
282.846
282.865
282.874
282.874
282.87
282.862
282.851
282.834
282.799
282.742
282.683
282.638
282.603
282.574
282.55
282.529
282.511
282.494
282.481
282.47
282.461
282.456
282.453
282.455
282.46
282.47
282.482
282.495
282.508
282.52
282.529
282.534
282.536
282.536
282.538
282.545
282.559
282.581
282.611
282.645
282.677
282.703
282.719
282.718
282.689
282.779
282.716
282.729
282.713
282.668
282.605
282.54
282.487
282.452
282.429
282.413
282.402
282.394
282.39
282.387
282.386
282.387
282.39
282.397
282.406
282.417
282.429
282.442
282.454
282.466
282.476
282.485
282.491
282.495
282.496
282.495
282.496
282.502
282.517
282.542
282.573
282.582
282.573
282.571
282.568
282.563
282.555
282.548
282.55
282.567
282.6
282.646
282.697
282.732
282.718
282.662
282.643
282.689
282.75
282.801
282.835
282.855
282.863
282.865
282.862
282.856
282.848
282.832
282.801
282.752
282.7
282.657
282.623
282.594
282.57
282.549
282.531
282.515
282.502
282.491
282.483
282.478
282.477
282.479
282.485
282.493
282.504
282.514
282.524
282.532
282.537
282.54
282.54
282.539
282.541
282.549
282.564
282.588
282.618
282.651
282.683
282.708
282.721
282.719
282.69
282.784
282.722
282.733
282.725
282.689
282.635
282.575
282.519
282.477
282.448
282.428
282.414
282.405
282.399
282.395
282.393
282.394
282.397
282.403
282.411
282.422
282.433
282.446
282.458
282.469
282.48
282.488
282.495
282.499
282.5
282.499
282.498
282.5
282.511
282.535
282.572
282.589
282.583
282.582
282.575
282.567
282.558
282.55
282.549
282.565
282.599
282.647
282.701
282.737
282.718
282.654
282.631
282.673
282.734
282.786
282.823
282.844
282.855
282.857
282.856
282.852
282.845
282.832
282.804
282.763
282.718
282.679
282.645
282.618
282.594
282.573
282.555
282.54
282.527
282.517
282.51
282.505
282.504
282.506
282.511
282.518
282.526
282.533
282.539
282.544
282.545
282.545
282.543
282.542
282.545
282.554
282.571
282.597
282.627
282.659
282.689
282.712
282.724
282.72
282.691
282.784
282.724
282.734
282.734
282.708
282.664
282.61
282.557
282.512
282.477
282.452
282.434
282.422
282.413
282.408
282.405
282.405
282.408
282.413
282.421
282.43
282.441
282.452
282.463
282.474
282.484
282.493
282.499
282.504
282.505
282.503
282.501
282.501
282.509
282.53
282.572
282.597
282.596
282.595
282.586
282.573
282.562
282.552
282.547
282.559
282.591
282.641
282.699
282.74
282.722
282.649
282.618
282.655
282.714
282.768
282.808
282.833
282.846
282.851
282.852
282.849
282.844
282.832
282.808
282.774
282.736
282.701
282.67
282.643
282.62
282.6
282.583
282.568
282.556
282.546
282.539
282.535
282.534
282.535
282.539
282.543
282.547
282.551
282.553
282.553
282.552
282.548
282.545
282.544
282.549
282.56
282.58
282.606