/*--------------------------------*- C++ -*----------------------------------*\
| =========                 |                                                 |
| \\      /  F ield         | OpenFOAM: The Open Source CFD Toolbox           |
|  \\    /   O peration     | Version:  4.1                                   |
|   \\  /    A nd           | Web:      www.OpenFOAM.org                      |
|    \\/     M anipulation  |                                                 |
\*---------------------------------------------------------------------------*/
FoamFile
{
    version     2.0;
    format      ascii;
    class       volVectorField;
    location    "920";
    object      U;
}
// * * * * * * * * * * * * * * * * * * * * * * * * * * * * * * * * * * * * * //

dimensions      [0 1 -1 0 0 0 0];

internalField   nonuniform List<vector> 
5000
(
(-0.00217988 0.00086303 0)
(-0.00174035 -0.00106395 0)
(-0.000894262 -0.00107647 0)
(-0.000190634 -0.00011944 0)
(-0.00245372 0.00162019 0)
(-0.00652498 0.00180724 0)
(-0.00851263 0.000648399 0)
(-0.00883613 -0.000145701 0)
(-0.00837952 -0.000506457 0)
(-0.00753474 -0.00067793 0)
(-0.00650272 -0.000758868 0)
(-0.00542077 -0.000769584 0)
(-0.00437417 -0.000740668 0)
(-0.00338191 -0.000718984 0)
(-0.00243211 -0.000725792 0)
(-0.00153686 -0.000720914 0)
(-0.000613653 -0.000413224 0)
(-4.25519e-05 -0.000125975 0)
(0.000277164 -9.03845e-06 0)
(0.00052999 5.91436e-05 0)
(0.000760363 1.54653e-05 0)
(0.00107373 -7.58984e-05 0)
(0.00150256 -0.000153299 0)
(0.00201617 -0.000212613 0)
(0.00259143 -0.000259684 0)
(0.00321537 -0.000297942 0)
(0.00387917 -0.000329158 0)
(0.00457583 -0.000354499 0)
(0.00529932 -0.00037486 0)
(0.00604415 -0.000390983 0)
(0.0068052 -0.000403564 0)
(0.00757773 -0.000413378 0)
(0.00835769 -0.000421397 0)
(0.00914217 -0.000428876 0)
(0.0099301 -0.000437354 0)
(0.0107228 -0.000448486 0)
(0.0115242 -0.000463555 0)
(0.0123404 -0.000482513 0)
(0.0131762 -0.000502464 0)
(0.0140305 -0.000515969 0)
(0.0148865 -0.000510476 0)
(0.0157039 -0.000470924 0)
(0.0164153 -0.000386117 0)
(0.016936 -0.00025482 0)
(0.0171737 -7.72069e-05 0)
(0.0170173 0.0001781 0)
(0.0162953 0.000596632 0)
(0.0147266 0.00132676 0)
(0.0117858 0.00238859 0)
(0.00683433 0.00275577 0)
(0.00231003 0.000924981 0)
(0.00251794 0.000443441 0)
(-0.0015207 0.00251683 0)
(-0.00536106 0.0004914 0)
(-0.00492102 -0.000881951 0)
(-0.00360778 -0.00137628 0)
(-0.00233474 -0.00118827 0)
(-0.00172011 -0.00052115 0)
(-0.00271551 0.00070065 0)
(-0.00597999 0.00187642 0)
(-0.00946013 0.00165202 0)
(-0.0112586 0.000669008 0)
(-0.0115654 -8.79998e-05 0)
(-0.0110866 -0.000444275 0)
(-0.0103184 -0.000536434 0)
(-0.00953096 -0.000492245 0)
(-0.00885262 -0.000393727 0)
(-0.00832748 -0.000282826 0)
(-0.0079579 -0.000178724 0)
(-0.00772684 -9.01728e-05 0)
(-0.0076081 -2.12004e-05 0)
(-0.00757043 2.69804e-05 0)
(-0.00757924 5.4168e-05 0)
(-0.00760264 5.90511e-05 0)
(-0.00761317 4.45358e-05 0)
(-0.00758476 1.43224e-05 0)
(-0.00749182 -2.94947e-05 0)
(-0.00730922 -8.77043e-05 0)
(-0.00701077 -0.000162553 0)
(-0.00656715 -0.000257188 0)
(-0.00594586 -0.000374715 0)
(-0.00511285 -0.000516686 0)
(-0.00403943 -0.000681023 0)
(-0.00272916 -0.000858711 0)
(-0.00127642 -0.00102308 0)
(0.00016464 -0.00109162 0)
(0.00137899 -0.000863891 0)
(0.0018234 -0.000303507 0)
(0.00137206 0.000412514 0)
(-0.00141026 0.00232353 0)
(-0.00811057 0.00231324 0)
(-0.0100153 0.000205508 0)
(-0.00916297 -0.00109669 0)
(-0.00688399 -0.00177978 0)
(-0.00459148 -0.00171995 0)
(-0.00267297 -0.00145034 0)
(-0.00117574 -0.00127019 0)
(0.000311714 -0.00142912 0)
(0.00183127 -0.00144764 0)
(0.00229329 0.000957017 0)
(-0.00190908 0.00287452 0)
(-0.00125113 -0.000904934 0)
(-0.00190615 -0.000768671 0)
(-0.00233651 0.00171315 0)
(-0.00406273 0.00414729 0)
(-0.00660399 0.00376125 0)
(-0.00809045 0.00170644 0)
(-0.00851698 4.49065e-05 0)
(-0.00835639 -0.000842756 0)
(-0.00781434 -0.0012851 0)
(-0.00704977 -0.00149109 0)
(-0.00620871 -0.00149906 0)
(-0.00539654 -0.00140588 0)
(-0.00464982 -0.00132062 0)
(-0.0039881 -0.00126854 0)
(-0.00341601 -0.00119718 0)
(-0.00284116 -0.000979867 0)
(-0.00215742 -0.000777113 0)
(-0.00141022 -0.000671093 0)
(-0.000638418 -0.000594168 0)
(0.000193714 -0.000616479 0)
(0.000866214 -0.000704115 0)
(0.00153301 -0.000799792 0)
(0.00221022 -0.000879505 0)
(0.0029012 -0.00094503 0)
(0.00361074 -0.0010002 0)
(0.00434092 -0.00104698 0)
(0.00509156 -0.00108623 0)
(0.00586101 -0.00111831 0)
(0.00664654 -0.00114332 0)
(0.00744449 -0.00116138 0)
(0.00825044 -0.0011729 0)
(0.00905957 -0.00117887 0)
(0.00986702 -0.00118112 0)
(0.0106686 -0.00118249 0)
(0.0114613 -0.00118659 0)
(0.0122443 -0.00119708 0)
(0.013019 -0.00121564 0)
(0.0137884 -0.00123835 0)
(0.0145535 -0.00125056 0)
(0.0153058 -0.00122307 0)
(0.0160161 -0.00111553 0)
(0.0166258 -0.00089077 0)
(0.0170533 -0.000529138 0)
(0.0171731 -7.72704e-06 0)
(0.016826 0.000741214 0)
(0.0158572 0.00182823 0)
(0.0141149 0.00337129 0)
(0.0114379 0.00524197 0)
(0.00772506 0.00631301 0)
(0.00399222 0.00448725 0)
(0.00138884 0.00169601 0)
(0.000110879 0.00568773 0)
(-0.00367231 0.00254938 0)
(-0.00444677 -0.00101202 0)
(-0.00443396 -0.00198365 0)
(-0.00434217 -0.0010796 0)
(-0.005025 0.00107827 0)
(-0.00653639 0.00338918 0)
(-0.00843466 0.00424383 0)
(-0.0104163 0.00329085 0)
(-0.0116318 0.00145364 0)
(-0.0120146 -7.68036e-05 0)
(-0.0118682 -0.000855122 0)
(-0.0115 -0.00106107 0)
(-0.0110911 -0.000989958 0)
(-0.0107106 -0.000813205 0)
(-0.0103896 -0.000613319 0)
(-0.010132 -0.000427655 0)
(-0.00992852 -0.000272399 0)
(-0.00976562 -0.000154389 0)
(-0.00963041 -7.60185e-05 0)
(-0.00951215 -3.7692e-05 0)
(-0.00939838 -3.94423e-05 0)
(-0.0092742 -7.84171e-05 0)
(-0.00912469 -0.000151649 0)
(-0.00893373 -0.000258144 0)
(-0.00868251 -0.000399931 0)
(-0.00834945 -0.000580977 0)
(-0.00791131 -0.000805904 0)
(-0.00734406 -0.0010777 0)
(-0.00662484 -0.00139382 0)
(-0.00573839 -0.00173964 0)
(-0.00469606 -0.00207572 0)
(-0.00357111 -0.00230671 0)
(-0.00252497 -0.00222517 0)
(-0.00177327 -0.00151779 0)
(-0.00152133 0.000105051 0)
(-0.00222281 0.00284413 0)
(-0.00361257 0.00538327 0)
(-0.00674504 0.00472538 0)
(-0.00763434 0.00121125 0)
(-0.00591988 -0.00221999 0)
(-0.00364244 -0.00377705 0)
(-0.00198907 -0.00321939 0)
(-0.000599944 -0.00243356 0)
(0.000450661 -0.00180189 0)
(0.00113508 -0.00173964 0)
(0.00124557 -0.00170616 0)
(0.00176526 0.0031151 0)
(-0.00142882 0.00434212 0)
(-0.000272415 -0.000645243 0)
(-0.00185728 -0.000259775 0)
(-0.00273409 0.00309935 0)
(-0.00438153 0.00600685 0)
(-0.00616699 0.0054402 0)
(-0.00734396 0.00269213 0)
(-0.00783483 0.000310415 0)
(-0.00790202 -0.00109368 0)
(-0.00754506 -0.0018911 0)
(-0.00689856 -0.00229115 0)
(-0.00616007 -0.00231714 0)
(-0.00544736 -0.00216598 0)
(-0.00478562 -0.00201595 0)
(-0.0041769 -0.00189852 0)
(-0.00360395 -0.00178626 0)
(-0.00301936 -0.00164162 0)
(-0.00238609 -0.0015157 0)
(-0.00171546 -0.0014441 0)
(-0.00102996 -0.00141191 0)
(-0.000286995 -0.00139667 0)
(0.00045757 -0.00142726 0)
(0.00112692 -0.00150053 0)
(0.00181408 -0.00158292 0)
(0.00251173 -0.0016604 0)
(0.00322322 -0.00173184 0)
(0.00395222 -0.00179709 0)
(0.00469965 -0.00185523 0)
(0.00546444 -0.00190494 0)
(0.00624404 -0.00194486 0)
(0.00703465 -0.00197387 0)
(0.00783124 -0.00199142 0)
(0.00862784 -0.00199791 0)
(0.0094178 -0.0019951 0)
(0.0101943 -0.00198639 0)
(0.0109511 -0.00197685 0)
(0.0116832 -0.00197245 0)
(0.0123885 -0.00197765 0)
(0.0130678 -0.00199 0)
(0.0137239 -0.00199108 0)
(0.0143547 -0.00193689 0)
(0.0149404 -0.00175862 0)
(0.0154273 -0.00138476 0)
(0.015731 -0.000767132 0)
(0.0157249 0.000145505 0)
(0.0152959 0.00143871 0)
(0.0143307 0.00321484 0)
(0.0127447 0.00553885 0)
(0.0104955 0.00809299 0)
(0.00769449 0.00946274 0)
(0.00503832 0.00779278 0)
(0.00170321 0.00392566 0)
(0.00114268 0.00782134 0)
(-0.00128581 0.00550898 0)
(-0.00350959 0.000329612 0)
(-0.00531557 -0.00167159 0)
(-0.00607404 -0.000415583 0)
(-0.0068341 0.00226219 0)
(-0.00771803 0.00480584 0)
(-0.00883264 0.00577719 0)
(-0.010027 0.00460428 0)
(-0.0108467 0.00224347 0)
(-0.0112068 0.00016958 0)
(-0.0112782 -0.000963494 0)
(-0.0111734 -0.00132837 0)
(-0.0109864 -0.00129518 0)
(-0.0107904 -0.00109533 0)
(-0.0106257 -0.000851057 0)
(-0.010503 -0.000621028 0)
(-0.0104182 -0.000429569 0)
(-0.0103623 -0.000285196 0)
(-0.0103258 -0.000190386 0)
(-0.0102999 -0.000145048 0)
(-0.0102754 -0.000147516 0)
(-0.0102415 -0.000197518 0)
(-0.0101871 -0.000295803 0)
(-0.0101005 -0.000444403 0)
(-0.00996923 -0.000646692 0)
(-0.00978028 -0.000907387 0)
(-0.00952124 -0.00123086 0)
(-0.00918144 -0.0016177 0)
(-0.0087541 -0.0020582 0)
(-0.00824099 -0.00252036 0)
(-0.00766202 -0.00292707 0)
(-0.00706966 -0.0031146 0)
(-0.00655511 -0.00278587 0)
(-0.00621629 -0.00153296 0)
(-0.00598914 0.000855601 0)
(-0.00540827 0.00389165 0)
(-0.0047745 0.006373 0)
(-0.00540789 0.00575068 0)
(-0.00540152 0.00102898 0)
(-0.00263355 -0.00465171 0)
(-0.00130575 -0.00562089 0)
(-0.000210154 -0.00451971 0)
(0.000753281 -0.00337007 0)
(0.00138498 -0.00242117 0)
(0.00162448 -0.0018875 0)
(0.00110991 -0.00159842 0)
(0.0013415 0.0046098 0)
(-0.000497172 0.00475449 0)
(0.000659038 0.000495573 0)
(-0.000843708 0.000780574 0)
(-0.0024266 0.00467681 0)
(-0.00409643 0.00753234 0)
(-0.00560198 0.0068012 0)
(-0.00673778 0.00361797 0)
(-0.00737074 0.00074802 0)
(-0.00755649 -0.0011302 0)
(-0.00726314 -0.00234437 0)
(-0.00666821 -0.00297235 0)
(-0.0059984 -0.00301314 0)
(-0.00535812 -0.00281674 0)
(-0.00475706 -0.00262705 0)
(-0.00418756 -0.0024729 0)
(-0.00363472 -0.00234079 0)
(-0.0030739 -0.00222225 0)
(-0.0024889 -0.0021331 0)
(-0.00188028 -0.00208704 0)
(-0.00125575 -0.00208128 0)
(-0.000623061 -0.00209802 0)
(0.000102156 -0.00212707 0)
(0.000762315 -0.00218396 0)
(0.00142821 -0.0022686 0)
(0.00211016 -0.00235877 0)
(0.00280574 -0.00244669 0)
(0.00351821 -0.00252975 0)
(0.0042491 -0.00260538 0)
(0.00499768 -0.00267072 0)
(0.0057615 -0.00272287 0)
(0.00653656 -0.0027593 0)
(0.00731736 -0.00277816 0)
(0.00809697 -0.00277877 0)
(0.00886719 -0.00276207 0)
(0.00961883 -0.0027312 0)
(0.0103422 -0.00269184 0)
(0.0110282 -0.00265192 0)
(0.0116695 -0.00261954 0)
(0.0122632 -0.00259691 0)
(0.0128118 -0.00256752 0)
(0.0133201 -0.0024782 0)
(0.0137823 -0.0022313 0)
(0.0141595 -0.00171305 0)
(0.0143716 -0.000842609 0)
(0.0142836 0.00043839 0)
(0.0137926 0.00220343 0)
(0.0128203 0.00453365 0)
(0.0113492 0.00743153 0)
(0.00943371 0.0103984 0)
(0.00728393 0.0118463 0)
(0.00532296 0.0102509 0)
(0.00270828 0.00663994 0)
(0.00150753 0.00822461 0)
(0.000817577 0.00794852 0)
(-0.00119643 0.00367307 0)
(-0.0048587 -5.64314e-05 0)
(-0.00662019 0.000204719 0)
(-0.00712109 0.00290358 0)
(-0.00756389 0.00554247 0)
(-0.00823561 0.00665319 0)
(-0.0091027 0.00548615 0)
(-0.00988253 0.00289745 0)
(-0.0104108 0.000513771 0)
(-0.0106986 -0.000869495 0)
(-0.0107898 -0.00138257 0)
(-0.0107867 -0.00139973 0)
(-0.0107635 -0.00118958 0)
(-0.0107586 -0.000911225 0)
(-0.0107833 -0.000644937 0)
(-0.0108348 -0.000423887 0)
(-0.010906 -0.000259035 0)
(-0.010989 -0.000152816 0)
(-0.0110763 -0.000104647 0)
(-0.0111603 -0.000113413 0)
(-0.0112326 -0.0001789 0)
(-0.0112855 -0.000301583 0)
(-0.0113118 -0.000483075 0)
(-0.0113057 -0.000726353 0)
(-0.0112631 -0.00103472 0)
(-0.011183 -0.00140977 0)
(-0.0110689 -0.00184759 0)
(-0.0109299 -0.00233179 0)
(-0.0107803 -0.00282102 0)
(-0.0106378 -0.00322802 0)
(-0.0105151 -0.00339108 0)
(-0.0103915 -0.00305479 0)
(-0.0101386 -0.00191249 0)
(-0.00938167 0.000216454 0)
(-0.00767947 0.00306605 0)
(-0.00565599 0.00541899 0)
(-0.00429521 0.00526222 0)
(-0.00330082 0.000754412 0)
(-0.000597665 -0.00684306 0)
(-0.000758735 -0.00628281 0)
(-0.000107114 -0.00528304 0)
(0.000630289 -0.00407913 0)
(0.00134155 -0.00276144 0)
(0.00164595 -0.00178818 0)
(0.00103988 -0.00113536 0)
(0.00104476 0.0056105 0)
(0.000846688 0.00370498 0)
(0.00174166 0.00110765 0)
(0.000684592 0.00203784 0)
(-0.00215766 0.00658593 0)
(-0.00360761 0.00897587 0)
(-0.00499852 0.00805467 0)
(-0.00617125 0.00456189 0)
(-0.00693704 0.00124962 0)
(-0.00720568 -0.001126 0)
(-0.00693912 -0.00277368 0)
(-0.00637063 -0.00363078 0)
(-0.00576509 -0.00365382 0)
(-0.00518999 -0.00341123 0)
(-0.00465162 -0.00319095 0)
(-0.00413163 -0.00301574 0)
(-0.00362024 -0.0028776 0)
(-0.00310253 -0.00277199 0)
(-0.00256924 -0.00270281 0)
(-0.0020182 -0.00267419 0)
(-0.00145218 -0.00268532 0)
(-0.000877834 -0.00272899 0)
(-0.000261829 -0.00278244 0)
(0.000391005 -0.00284644 0)
(0.00101771 -0.00293239 0)
(0.00166593 -0.00303426 0)
(0.00233145 -0.00313914 0)
(0.00301501 -0.00324086 0)
(0.00371819 -0.0033351 0)
(0.00444057 -0.00341743 0)
(0.00517982 -0.00348338 0)
(0.00593188 -0.00352876 0)
(0.00669094 -0.00355009 0)
(0.00744944 -0.00354507 0)
(0.00819807 -0.00351316 0)
(0.00892583 -0.00345625 0)
(0.00962024 -0.0033794 0)
(0.010268 -0.00329128 0)
(0.0108563 -0.00320324 0)
(0.0113762 -0.00312413 0)
(0.0118263 -0.00304567 0)
(0.0122154 -0.00291499 0)
(0.0125526 -0.00261101 0)
(0.0128213 -0.00197157 0)
(0.0129544 -0.000872597 0)
(0.0128038 0.000760762 0)
(0.0122685 0.00296935 0)
(0.0112964 0.00576654 0)
(0.00993257 0.00905903 0)
(0.00832476 0.0121908 0)
(0.00672895 0.0135647 0)
(0.00533181 0.0120903 0)
(0.00344084 0.00880858 0)
(0.00211063 0.0082555 0)
(0.00199691 0.00881621 0)
(0.00110978 0.00667538 0)
(-0.0020332 0.00328674 0)
(-0.00535046 0.00169568 0)
(-0.00640425 0.00338409 0)
(-0.00670695 0.00595083 0)
(-0.00712069 0.00724061 0)
(-0.00784295 0.00627265 0)
(-0.00872264 0.00366981 0)
(-0.00950308 0.00106835 0)
(-0.0100502 -0.000574366 0)
(-0.0103606 -0.00125792 0)
(-0.0105429 -0.00133639 0)
(-0.0106942 -0.00112593 0)
(-0.0108529 -0.000824753 0)
(-0.0110295 -0.000534343 0)
(-0.0112217 -0.000295708 0)
(-0.0114228 -0.000120711 0)
(-0.011626 -1.07592e-05 0)
(-0.0118234 3.43901e-05 0)
(-0.0120067 1.52552e-05 0)
(-0.01217 -6.70222e-05 0)
(-0.0123099 -0.000212079 0)
(-0.0124205 -0.000420447 0)
(-0.0125004 -0.000692127 0)
(-0.0125506 -0.00102692 0)
(-0.0125766 -0.00142186 0)
(-0.0125891 -0.0018682 0)
(-0.0126036 -0.00234646 0)
(-0.0126379 -0.00281839 0)
(-0.0127034 -0.00321535 0)
(-0.0127884 -0.00342543 0)
(-0.0128268 -0.00328674 0)
(-0.0126359 -0.00260423 0)
(-0.0118323 -0.00121925 0)
(-0.00992052 0.000821387 0)
(-0.00690482 0.00290375 0)
(-0.00384758 0.0031489 0)
(-0.000817674 -0.000578207 0)
(-0.000732815 -0.00673363 0)
(-0.00145175 -0.00638322 0)
(-0.00108697 -0.00582047 0)
(-0.000404226 -0.00482182 0)
(0.000497801 -0.00328369 0)
(0.0012102 -0.00176375 0)
(0.000784862 -0.000654115 0)
(0.000818649 0.00638872 0)
(0.00136955 0.00120139 0)
(0.00174537 0.00117727 0)
(0.000218693 0.00431783 0)
(-0.00199592 0.00831048 0)
(-0.00312635 0.0103005 0)
(-0.00437322 0.00927876 0)
(-0.00556103 0.00558002 0)
(-0.00643788 0.00184247 0)
(-0.00678399 -0.00106135 0)
(-0.0065294 -0.00317889 0)
(-0.00598632 -0.00426771 0)
(-0.00546378 -0.00422822 0)
(-0.00495608 -0.00393791 0)
(-0.0044915 -0.00369126 0)
(-0.0040365 -0.00350262 0)
(-0.00358525 -0.00336347 0)
(-0.00312671 -0.00326793 0)
(-0.00265459 -0.00321415 0)
(-0.00216645 -0.00320128 0)
(-0.00166278 -0.00322741 0)
(-0.00114598 -0.00328787 0)
(-0.000618421 -0.0033694 0)
(-3.16353e-05 -0.00345966 0)
(0.000558282 -0.00355787 0)
(0.00115834 -0.00367187 0)
(0.0017815 -0.0037947 0)
(0.00242637 -0.00391709 0)
(0.00309324 -0.00403217 0)
(0.0037818 -0.00413378 0)
(0.00448982 -0.0042157 0)
(0.0052132 -0.00427201 0)
(0.00594602 -0.00429736 0)
(0.00668029 -0.00428751 0)
(0.00740605 -0.00423995 0)
(0.00811112 -0.00415455 0)
(0.00878104 -0.00403454 0)
(0.00939914 -0.0038876 0)
(0.00994741 -0.00372655 0)
(0.0104093 -0.00356679 0)
(0.0107757 -0.00341289 0)
(0.0110525 -0.00322391 0)
(0.0112608 -0.00286667 0)
(0.0114131 -0.00212571 0)
(0.0114597 -0.000814935 0)
(0.0112471 0.00115243 0)
(0.0106758 0.0037621 0)
(0.00972413 0.00693335 0)
(0.00850123 0.0104567 0)
(0.00723421 0.0135476 0)
(0.00617326 0.0147315 0)
(0.0053156 0.0133661 0)
(0.00410891 0.0104863 0)
(0.00299219 0.00875784 0)
(0.00278619 0.00892524 0)
(0.0024688 0.00822665 0)
(0.000785438 0.00646031 0)
(-0.0028351 0.00412651 0)
(-0.00504949 0.00423815 0)
(-0.00554098 0.00627072 0)
(-0.00582193 0.00768891 0)
(-0.00642467 0.00708159 0)
(-0.00739821 0.00465649 0)
(-0.00844214 0.00191359 0)
(-0.0092786 -4.96558e-06 0)
(-0.00985401 -0.000913336 0)
(-0.0102385 -0.00107886 0)
(-0.0105683 -0.000882096 0)
(-0.0108917 -0.000572125 0)
(-0.0112208 -0.000272768 0)
(-0.0115534 -2.88582e-05 0)
(-0.0118814 0.000146672 0)
(-0.0121934 0.00024748 0)
(-0.0124821 0.000274727 0)
(-0.012744 0.000232067 0)
(-0.0129742 0.000121933 0)
(-0.0131687 -5.42552e-05 0)
(-0.0133308 -0.000294379 0)
(-0.0134561 -0.000597646 0)
(-0.0135474 -0.000959495 0)
(-0.0136104 -0.00137245 0)
(-0.0136543 -0.00182335 0)
(-0.013691 -0.00229034 0)
(-0.0137319 -0.00273881 0)
(-0.0137804 -0.00311759 0)
(-0.013821 -0.00335755 0)
(-0.0137978 -0.003378 0)
(-0.0135796 -0.00311007 0)
(-0.0129154 -0.0025526 0)
(-0.0114592 -0.00186306 0)
(-0.00902013 -0.00143574 0)
(-0.00600354 -0.00188513 0)
(-0.00355903 -0.00386226 0)
(-0.00289381 -0.00616007 0)
(-0.00297216 -0.00653918 0)
(-0.00248926 -0.00640447 0)
(-0.00173197 -0.00573005 0)
(-0.000770268 -0.00439067 0)
(0.000514351 -0.00219923 0)
(0.000495883 -0.000346775 0)
(0.000611819 0.00691031 0)
(0.000683395 -5.94942e-05 0)
(0.000610997 0.00234941 0)
(-0.000559417 0.00623534 0)
(-0.00187724 0.00954987 0)
(-0.00263666 0.0113557 0)
(-0.00366045 0.010425 0)
(-0.00481119 0.00665546 0)
(-0.00578043 0.00252679 0)
(-0.0062181 -0.000930447 0)
(-0.0059717 -0.0035663 0)
(-0.00547871 -0.00487478 0)
(-0.00508077 -0.00472196 0)
(-0.00465914 -0.00438221 0)
(-0.00428651 -0.00411251 0)
(-0.00391565 -0.00391646 0)
(-0.00354238 -0.00378083 0)
(-0.00315802 -0.00369665 0)
(-0.00275812 -0.00365827 0)
(-0.0023408 -0.00366177 0)
(-0.00190598 -0.00370363 0)
(-0.00145463 -0.0037797 0)
(-0.000988055 -0.00388343 0)
(-0.000500563 -0.00400152 0)
(3.92471e-05 -0.00412965 0)
(0.000588802 -0.00426363 0)
(0.00116103 -0.00440656 0)
(0.00175968 -0.00455157 0)
(0.00238437 -0.00469031 0)
(0.00303412 -0.00481434 0)
(0.0037065 -0.00491536 0)
(0.00439745 -0.00498567 0)
(0.00510094 -0.00501783 0)
(0.0058088 -0.00500559 0)
(0.00651075 -0.00494416 0)
(0.00719401 -0.00483091 0)
(0.00784304 -0.00466624 0)
(0.00843897 -0.00445506 0)
(0.0089595 -0.00420887 0)
(0.00938042 -0.00394684 0)
(0.00968157 -0.00368748 0)
(0.00985844 -0.00341268 0)
(0.00993448 -0.00299627 0)
(0.00995475 -0.00217389 0)
(0.00989958 -0.000676104 0)
(0.00962535 0.00160058 0)
(0.00903325 0.00455936 0)
(0.00813889 0.00800135 0)
(0.0071145 0.011591 0)
(0.00623675 0.0144648 0)
(0.00570021 0.0153804 0)
(0.00535393 0.014085 0)
(0.004749 0.0115587 0)
(0.00399534 0.00944476 0)
(0.0036605 0.00895244 0)
(0.00352953 0.00900016 0)
(0.00264966 0.00862079 0)
(0.000222885 0.00718511 0)
(-0.00311741 0.00586454 0)
(-0.00426556 0.00676175 0)
(-0.00457917 0.00805113 0)
(-0.00504952 0.00784739 0)
(-0.00601276 0.00579619 0)
(-0.00725479 0.00303629 0)
(-0.00837642 0.000842299 0)
(-0.00922853 -0.000337168 0)
(-0.00986259 -0.000654688 0)
(-0.0103843 -0.000494446 0)
(-0.0108739 -0.000185233 0)
(-0.0113445 0.00012295 0)
(-0.0117951 0.000364014 0)
(-0.0122182 0.000518684 0)
(-0.0126103 0.000591263 0)
(-0.0129685 0.000586971 0)
(-0.0132892 0.000509486 0)
(-0.0135696 0.000361772 0)
(-0.0138062 0.000146337 0)
(-0.0139965 -0.000134477 0)
(-0.0141475 -0.000475593 0)
(-0.0142583 -0.000872523 0)
(-0.0143337 -0.00131512 0)
(-0.0143787 -0.00178876 0)
(-0.0143986 -0.00227225 0)
(-0.0143951 -0.00273582 0)
(-0.0143612 -0.00314016 0)
(-0.0142742 -0.00343785 0)
(-0.0140849 -0.00357943 0)
(-0.0137035 -0.00352962 0)
(-0.0129941 -0.00330376 0)
(-0.0118065 -0.00303719 0)
(-0.010096 -0.00303621 0)
(-0.00810587 -0.00366484 0)
(-0.00638916 -0.00499237 0)
(-0.00539521 -0.00643979 0)
(-0.00478772 -0.0070804 0)
(-0.00408104 -0.00716891 0)
(-0.00322139 -0.00669233 0)
(-0.00221094 -0.00553836 0)
(-0.000899035 -0.0034485 0)
(-0.000243545 -0.000540744 0)
(0.000267876 0.00717441 0)
(5.42444e-06 -0.000263501 0)
(-0.000338527 0.00345048 0)
(-0.00100727 0.00717577 0)
(-0.00168484 0.0102379 0)
(-0.0020776 0.0120572 0)
(-0.00280773 0.0114143 0)
(-0.00384817 0.00774863 0)
(-0.00487886 0.00331219 0)
(-0.00542766 -0.000693676 0)
(-0.00518689 -0.0039074 0)
(-0.00481725 -0.00538524 0)
(-0.00459572 -0.00509215 0)
(-0.00430305 -0.00471151 0)
(-0.00404722 -0.00442992 0)
(-0.00378191 -0.00423678 0)
(-0.00350352 -0.00411264 0)
(-0.0032066 -0.00404499 0)
(-0.0028888 -0.00402554 0)
(-0.0025494 -0.00404852 0)
(-0.00218858 -0.00410939 0)
(-0.00180693 -0.00420394 0)
(-0.00140489 -0.00432735 0)
(-0.000981901 -0.00447284 0)
(-0.000531975 -0.00463039 0)
(-3.38946e-05 -0.00479904 0)
(0.000487043 -0.00497025 0)
(0.0010358 -0.00514135 0)
(0.0016145 -0.00530629 0)
(0.00222243 -0.00545567 0)
(0.00285664 -0.0055791 0)
(0.00351315 -0.00566692 0)
(0.00418565 -0.0057093 0)
(0.00486593 -0.00569788 0)
(0.00554359 -0.00562553 0)
(0.00620575 -0.00548686 0)
(0.00683655 -0.00527888 0)
(0.00741618 -0.00500225 0)
(0.00791959 -0.00466405 0)
(0.00831618 -0.00428264 0)
(0.0085739 -0.00388689 0)
(0.00867186 -0.00348739 0)
(0.00862231 -0.00298794 0)
(0.00849425 -0.00209491 0)
(0.00831029 -0.00043882 0)
(0.0079868 0.00210002 0)
(0.00740559 0.00532764 0)
(0.00662188 0.00891309 0)
(0.00586148 0.0124002 0)
(0.00540725 0.0149197 0)
(0.00535938 0.0155332 0)
(0.00546977 0.0142843 0)
(0.00536935 0.0120572 0)
(0.0050214 0.00997178 0)
(0.00472666 0.00909315 0)
(0.00459695 0.00940076 0)
(0.00407405 0.0100053 0)
(0.00253268 0.00975875 0)
(-0.000436605 0.00841552 0)
(-0.0028585 0.00777744 0)
(-0.00347918 0.00846036 0)
(-0.00388452 0.00849585 0)
(-0.00472018 0.00694807 0)
(-0.00603362 0.0043668 0)
(-0.00738238 0.00198151 0)
(-0.0084681 0.000544726 0)
(-0.00933071 4.90706e-05 0)
(-0.010056 0.000119765 0)
(-0.0107017 0.000392285 0)
(-0.0112976 0.000657364 0)
(-0.0118479 0.000853072 0)
(-0.0123544 0.000967825 0)
(-0.0128165 0.00100088 0)
(-0.0132323 0.000954671 0)
(-0.0135998 0.000832545 0)
(-0.0139175 0.000638018 0)
(-0.0141849 0.000375183 0)
(-0.0144012 4.84439e-05 0)
(-0.0145678 -0.000336617 0)
(-0.0146907 -0.000773693 0)
(-0.0147717 -0.00125329 0)
(-0.0148137 -0.00176115 0)
(-0.0148176 -0.00227878 0)
(-0.0147806 -0.0027828 0)
(-0.0146929 -0.0032455 0)
(-0.0145329 -0.0036379 0)
(-0.0142617 -0.00393514 0)
(-0.0138181 -0.00412819 0)
(-0.0131238 -0.00424331 0)
(-0.0121174 -0.00436809 0)
(-0.0108234 -0.00466206 0)
(-0.00941134 -0.00528939 0)
(-0.00814724 -0.00624193 0)
(-0.00718689 -0.00720891 0)
(-0.0064176 -0.00781451 0)
(-0.0056505 -0.00799265 0)
(-0.00479825 -0.00764684 0)
(-0.0038321 -0.0065969 0)
(-0.00277245 -0.00453165 0)
(-0.00166279 -0.000724331 0)
(-0.000130681 0.00659077 0)
(-0.000484632 0.000103009 0)
(-0.000821992 0.00393774 0)
(-0.00116493 0.00758466 0)
(-0.00142884 0.0105075 0)
(-0.00149689 0.0123917 0)
(-0.00187236 0.0121552 0)
(-0.00270039 0.00878983 0)
(-0.00372475 0.00419106 0)
(-0.00436555 -0.000302924 0)
(-0.00410801 -0.00416549 0)
(-0.00403008 -0.00568044 0)
(-0.00401736 -0.00527805 0)
(-0.00390777 -0.00488723 0)
(-0.00379443 -0.00461821 0)
(-0.00365285 -0.00444552 0)
(-0.00348237 -0.00434535 0)
(-0.0032822 -0.00430301 0)
(-0.00305289 -0.00430898 0)
(-0.00279542 -0.00435681 0)
(-0.00251085 -0.00444174 0)
(-0.00220001 -0.00455968 0)
(-0.0018633 -0.00470659 0)
(-0.00150039 -0.00487785 0)
(-0.00110994 -0.00506758 0)
(-0.000689172 -0.0052679 0)
(-0.000223571 -0.0054765 0)
(0.000278792 -0.00568357 0)
(0.000811127 -0.00587979 0)
(0.00137559 -0.00605742 0)
(0.0019701 -0.00620596 0)
(0.00259147 -0.00631478 0)
(0.00323227 -0.00637087 0)
(0.00388479 -0.00636392 0)
(0.00453822 -0.00628436 0)
(0.00517991 -0.00612399 0)
(0.0057943 -0.00587632 0)
(0.00636189 -0.00553691 0)
(0.00685681 -0.00510559 0)
(0.00724422 -0.0045947 0)
(0.00748173 -0.00403668 0)
(0.00753087 -0.00346906 0)
(0.00738249 -0.00284494 0)
(0.00710498 -0.00187989 0)
(0.00678038 -0.000109085 0)
(0.00642022 0.00261739 0)
(0.0058932 0.00600988 0)
(0.00528284 0.00959922 0)
(0.00484127 0.0128332 0)
(0.00481158 0.0149202 0)
(0.00518647 0.0152465 0)
(0.00567278 0.0140466 0)
(0.00596831 0.012091 0)
(0.00597924 0.0102154 0)
(0.00582723 0.00926385 0)
(0.00567012 0.00965876 0)
(0.00528405 0.0109001 0)
(0.00420207 0.0116993 0)
(0.00196853 0.011098 0)
(-0.000947073 0.00966943 0)
(-0.00246169 0.00917219 0)
(-0.00297166 0.00906739 0)
(-0.00364533 0.00798084 0)
(-0.00489133 0.00577593 0)
(-0.00639931 0.0033147 0)
(-0.00768347 0.00159815 0)
(-0.00870772 0.000911284 0)
(-0.00958064 0.000873286 0)
(-0.0103583 0.00106853 0)
(-0.0110632 0.00127798 0)
(-0.0117051 0.00142421 0)
(-0.0122873 0.00148837 0)
(-0.0128103 0.00146928 0)
(-0.0132748 0.00136985 0)
(-0.0136814 0.00119384 0)
(-0.0140307 0.000945341 0)
(-0.0143238 0.00062891 0)
(-0.0145621 0.000249998 0)
(-0.0147461 -0.000185232 0)
(-0.0148796 -0.000668333 0)
(-0.0149654 -0.00119239 0)
(-0.0150036 -0.00174437 0)
(-0.0149927 -0.00230824 0)
(-0.0149281 -0.00286527 0)
(-0.0148003 -0.00339499 0)
(-0.0145924 -0.00387808 0)
(-0.0142778 -0.00430109 0)
(-0.0138194 -0.00466449 0)
(-0.0131773 -0.00499478 0)
(-0.012332 -0.00535317 0)
(-0.0113197 -0.0058261 0)
(-0.0102483 -0.00647478 0)
(-0.00925276 -0.00725922 0)
(-0.00840259 -0.00801481 0)
(-0.00765995 -0.00855321 0)
(-0.00694282 -0.00875678 0)
(-0.00618661 -0.00849221 0)
(-0.00535236 -0.00755054 0)
(-0.00439588 -0.00555637 0)
(-0.00306905 -0.00174133 0)
(-0.000595952 0.00501844 0)
(-0.000667442 0.000747941 0)
(-0.00102183 0.0043289 0)
(-0.00121898 0.00775236 0)
(-0.00122596 0.0104973 0)
(-0.00103055 0.012384 0)
(-0.00102177 0.0125521 0)
(-0.00152391 0.00966544 0)
(-0.00243474 0.00510031 0)
(-0.00318061 0.00027018 0)
(-0.00280733 -0.00437513 0)
(-0.0032239 -0.00566574 0)
(-0.00341235 -0.00523523 0)
(-0.00351497 -0.00488442 0)
(-0.00355934 -0.00466168 0)
(-0.00355024 -0.00453214 0)
(-0.00349331 -0.00447171 0)
(-0.00339316 -0.00446601 0)
(-0.00325369 -0.00450599 0)
(-0.003078 -0.00458571 0)
(-0.00286837 -0.00470091 0)
(-0.00262637 -0.0048481 0)
(-0.00235282 -0.00502393 0)
(-0.0020478 -0.00522468 0)
(-0.00171072 -0.00544594 0)
(-0.00134062 -0.00568219 0)
(-0.000936102 -0.00592559 0)
(-0.000494162 -0.00616898 0)
(-1.69667e-06 -0.00640721 0)
(0.000519606 -0.00661906 0)
(0.00107537 -0.00679731 0)
(0.00166125 -0.0069301 0)
(0.00226986 -0.0070028 0)
(0.00289522 -0.007004 0)
(0.00352475 -0.00692113 0)
(0.00414659 -0.00674334 0)
(0.00474558 -0.00646116 0)
(0.00530366 -0.00606484 0)
(0.00579646 -0.00554483 0)
(0.0061878 -0.00490252 0)
(0.00642761 -0.00416599 0)
(0.00646247 -0.00339276 0)
(0.0062613 -0.0025917 0)
(0.00586506 -0.00153228 0)
(0.00541601 0.000296426 0)
(0.00503037 0.0031072 0)
(0.00460476 0.00654148 0)
(0.00422568 0.00999976 0)
(0.0041299 0.0128742 0)
(0.00448412 0.0145179 0)
(0.00518882 0.0146086 0)
(0.00594868 0.0134786 0)
(0.0065146 0.0117858 0)
(0.0067763 0.0101946 0)
(0.00676489 0.00938091 0)
(0.00660397 0.00989054 0)
(0.00625808 0.011551 0)
(0.00540942 0.0131632 0)
(0.00370256 0.0134223 0)
(0.00112326 0.0121356 0)
(-0.00126757 0.0104973 0)
(-0.00223153 0.00973054 0)
(-0.00282142 0.00885381 0)
(-0.00389123 0.00715003 0)
(-0.00546657 0.00480385 0)
(-0.00690748 0.00282164 0)
(-0.00806218 0.00190552 0)
(-0.00904303 0.00174139 0)
(-0.00991548 0.00185568 0)
(-0.0107032 0.00199456 0)
(-0.0114155 0.0020728 0)
(-0.0120561 0.0020708 0)
(-0.0126273 0.00198721 0)
(-0.0131316 0.00182492 0)
(-0.0135717 0.00158773 0)
(-0.0139499 0.00127977 0)
(-0.0142683 0.000905624 0)
(-0.0145289 0.000470781 0)
(-0.0147323 -1.84723e-05 0)
(-0.0148778 -0.000553962 0)
(-0.014969 -0.00112957 0)
(-0.0150044 -0.00173473 0)
(-0.0149812 -0.00235537 0)
(-0.0148948 -0.00297597 0)
(-0.0147375 -0.00358082 0)
(-0.0144975 -0.00415616 0)
(-0.0141581 -0.0046937 0)
(-0.0136996 -0.00519563 0)
(-0.0131053 -0.00568073 0)
(-0.0123752 -0.00618593 0)
(-0.0115429 -0.00675506 0)
(-0.0106752 -0.00740796 0)
(-0.00984548 -0.00810642 0)
(-0.00909225 -0.00875378 0)
(-0.00840478 -0.00923464 0)
(-0.00774401 -0.0094396 0)
(-0.00706625 -0.00923866 0)
(-0.00631852 -0.00844217 0)
(-0.00537659 -0.00672588 0)
(-0.00393651 -0.0034628 0)
(-0.00127016 0.00277628 0)
(-0.000724971 0.00154386 0)
(-0.00115885 0.00472622 0)
(-0.00132549 0.00780713 0)
(-0.00118969 0.010305 0)
(-0.000810774 0.0120909 0)
(-0.000451155 0.0125461 0)
(-0.000546946 0.0102424 0)
(-0.0012017 0.00591684 0)
(-0.00199403 0.00104353 0)
(-0.00155929 -0.00442224 0)
(-0.00249808 -0.00532162 0)
(-0.0028714 -0.00495634 0)
(-0.0031749 -0.00470063 0)
(-0.00337528 -0.00455895 0)
(-0.00349559 -0.00449621 0)
(-0.00354897 -0.00449221 0)
(-0.00354519 -0.00453544 0)
(-0.00349147 -0.00461893 0)
(-0.00339307 -0.00473825 0)
(-0.00325372 -0.00489033 0)
(-0.00307594 -0.00507269 0)
(-0.00286125 -0.00528286 0)
(-0.00261029 -0.00551785 0)
(-0.00232305 -0.00577385 0)
(-0.00199914 -0.00604588 0)
(-0.00163808 -0.00632741 0)
(-0.00123977 -0.00661009 0)
(-0.000804682 -0.00688244 0)
(-0.000327747 -0.00713442 0)
(0.000195641 -0.00735232 0)
(0.000745973 -0.00751374 0)
(0.00132262 -0.00760694 0)
(0.00192161 -0.0076194 0)
(0.00252707 -0.00753652 0)
(0.00312959 -0.00734546 0)
(0.00371318 -0.00703459 0)
(0.00426217 -0.00658972 0)
(0.00475594 -0.0059908 0)
(0.00516104 -0.00522392 0)
(0.00542365 -0.0043041 0)
(0.00547781 -0.00330255 0)
(0.00527848 -0.00227892 0)
(0.00483214 -0.00108655 0)
(0.00430512 0.000749546 0)
(0.00390979 0.00352389 0)
(0.00362109 0.00686862 0)
(0.00350663 0.0100844 0)
(0.00374282 0.012553 0)
(0.00440158 0.0138016 0)
(0.00532338 0.0137296 0)
(0.00623737 0.0127018 0)
(0.00693496 0.0112792 0)
(0.00730895 0.0100034 0)
(0.00737298 0.00943556 0)
(0.00722651 0.0101271 0)
(0.00690037 0.0121015 0)
(0.00619624 0.0143165 0)
(0.00483969 0.0153345 0)
(0.00273072 0.0145285 0)
(0.000244364 0.0125291 0)
(-0.00150041 0.0107064 0)
(-0.00219368 0.00962948 0)
(-0.00305581 0.00839384 0)
(-0.00460696 0.00637754 0)
(-0.00615515 0.00417469 0)
(-0.00740626 0.00300991 0)
(-0.00846614 0.00269977 0)
(-0.00940753 0.00271858 0)
(-0.0102554 0.00277601 0)
(-0.0110195 0.00277663 0)
(-0.0117044 0.00269979 0)
(-0.0123139 0.00254459 0)
(-0.0128522 0.0023142 0)
(-0.0133231 0.0020122 0)
(-0.0137297 0.00164215 0)
(-0.0140742 0.00120782 0)
(-0.0143577 0.00071371 0)