/*--------------------------------*- C++ -*----------------------------------*\
| =========                 |                                                 |
| \\      /  F ield         | OpenFOAM: The Open Source CFD Toolbox           |
|  \\    /   O peration     | Version:  4.1                                   |
|   \\  /    A nd           | Web:      www.OpenFOAM.org                      |
|    \\/     M anipulation  |                                                 |
\*---------------------------------------------------------------------------*/
FoamFile
{
    version     2.0;
    format      ascii;
    class       volScalarField;
    location    "640";
    object      p_rgh;
}
// * * * * * * * * * * * * * * * * * * * * * * * * * * * * * * * * * * * * * //

dimensions      [0 2 -2 0 0 0 0];

internalField   nonuniform List<scalar> 
5000
(
0.0492165
0.049215
0.0492134
0.0492118
0.0492104
0.0492087
0.0492064
0.0492037
0.0492011
0.0491995
0.0492005
0.0492057
0.0492162
0.0492321
0.049252
0.0492734
0.0492938
0.049311
0.0493239
0.049333
0.0493391
0.0493416
0.049341
0.0493382
0.0493342
0.0493294
0.0493245
0.0493198
0.0493154
0.0493117
0.0493086
0.0493063
0.0493045
0.0493035
0.0493031
0.0493032
0.0493037
0.0493044
0.0493052
0.0493059
0.0493064
0.0493066
0.0493064
0.0493057
0.0493044
0.0493023
0.0492997
0.0492968
0.0492954
0.0492886
0.0492879
0.0492852
0.0492837
0.0492827
0.0492817
0.0492806
0.0492796
0.0492784
0.0492772
0.049276
0.0492749
0.0492739
0.0492731
0.0492725
0.0492722
0.0492722
0.0492726
0.0492733
0.0492741
0.0492751
0.0492763
0.0492775
0.0492789
0.0492802
0.0492816
0.0492828
0.0492839
0.0492847
0.0492852
0.0492854
0.049285
0.0492841
0.0492826
0.0492807
0.0492781
0.0492745
0.0492698
0.0492642
0.049258
0.0492515
0.0492449
0.0492387
0.049233
0.049228
0.0492237
0.0492198
0.0492163
0.049213
0.0492114
0.0492163
0.0492245
0.0492266
0.0492226
0.0492286
0.0492325
0.0492325
0.04923
0.0492262
0.0492218
0.0492178
0.0492156
0.049217
0.0492247
0.0492386
0.0492573
0.0492784
0.0492989
0.049317
0.0493317
0.0493431
0.049351
0.049355
0.0493561
0.0493551
0.0493528
0.04935
0.049347
0.0493443
0.0493421
0.0493407
0.0493401
0.0493404
0.0493416
0.0493432
0.0493451
0.0493472
0.0493495
0.0493518
0.049354
0.049356
0.0493578
0.0493592
0.0493601
0.0493605
0.04936
0.0493582
0.0493529
0.0493387
0.049311
0.0492939
0.0493322
0.0493469
0.0493489
0.0493485
0.0493477
0.0493468
0.0493458
0.0493447
0.0493434
0.049342
0.0493404
0.0493388
0.0493371
0.0493353
0.0493334
0.0493314
0.0493293
0.0493272
0.0493255
0.0493243
0.0493233
0.0493227
0.0493223
0.0493221
0.0493219
0.0493218
0.0493217
0.0493213
0.0493208
0.0493199
0.0493186
0.0493168
0.0493143
0.0493113
0.049308
0.0493041
0.0492995
0.0492945
0.0492892
0.0492839
0.0492791
0.0492752
0.0492724
0.0492708
0.0492705
0.0492708
0.0492696
0.0492631
0.0492435
0.049214
0.0492276
0.0492341
0.04922
0.0492286
0.0492381
0.0492388
0.0492341
0.049227
0.0492188
0.0492109
0.0492052
0.0492043
0.0492105
0.0492239
0.0492427
0.0492644
0.049286
0.0493055
0.0493219
0.0493344
0.049343
0.0493478
0.0493497
0.0493494
0.0493477
0.0493454
0.0493429
0.0493406
0.0493389
0.0493378
0.0493376
0.0493382
0.0493398
0.0493422
0.0493454
0.0493492
0.0493535
0.0493581
0.0493628
0.0493673
0.0493717
0.0493755
0.0493788
0.0493812
0.0493824
0.0493816
0.0493754
0.0493529
0.049297
0.0492803
0.0493566
0.0493783
0.0493807
0.0493792
0.0493767
0.0493735
0.0493698
0.0493657
0.0493614
0.0493568
0.0493522
0.0493476
0.0493432
0.049339
0.0493353
0.049332
0.0493292
0.0493269
0.0493251
0.0493236
0.0493226
0.0493218
0.0493213
0.049321
0.0493207
0.0493205
0.0493202
0.0493197
0.049319
0.049318
0.0493166
0.0493146
0.0493121
0.0493089
0.0493054
0.0493015
0.049297
0.049292
0.0492867
0.0492816
0.0492769
0.0492732
0.0492707
0.0492696
0.0492699
0.0492713
0.049273
0.049272
0.049251
0.0491891
0.0492307
0.0492468
0.0492253
0.049217
0.0492291
0.0492396
0.0492345
0.0492247
0.0492132
0.0492015
0.049192
0.0491891
0.0491945
0.0492078
0.0492268
0.0492494
0.0492723
0.0492931
0.0493105
0.049324
0.0493333
0.0493388
0.0493414
0.0493418
0.0493407
0.0493389
0.0493369
0.0493351
0.0493338
0.0493331
0.0493333
0.0493343
0.0493362
0.049339
0.0493426
0.0493469
0.0493518
0.0493573
0.049363
0.0493689
0.0493747
0.0493802
0.0493851
0.0493892
0.0493919
0.0493919
0.0493846
0.0493523
0.0492639
0.0492643
0.0493697
0.0493931
0.0493948
0.049392
0.0493876
0.0493824
0.0493767
0.0493707
0.0493646
0.0493585
0.0493527
0.0493472
0.0493421
0.0493375
0.0493335
0.0493301
0.0493272
0.0493249
0.049323
0.0493215
0.0493204
0.0493196
0.049319
0.0493185
0.0493182
0.0493178
0.0493174
0.0493168
0.049316
0.0493149
0.0493133
0.0493113
0.0493087
0.0493054
0.0493017
0.0492977
0.0492932
0.0492882
0.049283
0.0492778
0.0492732
0.0492696
0.0492673
0.0492665
0.0492672
0.0492692
0.0492719
0.0492728
0.0492517
0.0491597
0.0492335
0.0492539
0.0492438
0.0492191
0.049216
0.0492223
0.0492268
0.0492257
0.0492152
0.0491989
0.0491823
0.0491792
0.0491841
0.0491963
0.0492147
0.0492369
0.04926
0.0492815
0.0492996
0.0493135
0.0493232
0.0493292
0.0493322
0.049333
0.0493325
0.0493312
0.0493297
0.0493284
0.0493275
0.0493273
0.0493278
0.0493293
0.0493316
0.0493347
0.0493387
0.0493434
0.0493488
0.0493548
0.0493611
0.0493677
0.0493743
0.0493808
0.0493868
0.0493921
0.0493957
0.0493962
0.0493872
0.0493439
0.0492231
0.0492548
0.0493778
0.0493996
0.0494002
0.0493964
0.0493907
0.0493843
0.0493775
0.0493706
0.0493637
0.0493571
0.0493509
0.0493451
0.0493399
0.0493352
0.0493312
0.0493278
0.0493249
0.0493225
0.0493206
0.0493191
0.0493179
0.049317
0.0493163
0.0493158
0.0493153
0.0493147
0.0493141
0.0493134
0.0493124
0.0493111
0.0493095
0.0493073
0.0493046
0.0493013
0.0492975
0.0492932
0.0492887
0.0492838
0.0492786
0.0492735
0.049269
0.0492654
0.0492632
0.0492627
0.0492637
0.049266
0.0492691
0.0492708
0.0492507
0.0491328
0.0492392
0.0492523
0.0492541
0.0492333
0.0492182
0.0492129
0.0492142
0.0492163
0.0492139
0.0492054
0.0491938
0.0491856
0.049185
0.0491931
0.0492091
0.04923
0.0492524
0.0492732
0.0492908
0.0493042
0.0493136
0.0493194
0.0493225
0.0493235
0.0493232
0.0493223
0.0493212
0.0493203
0.0493199
0.0493202
0.0493212
0.0493231
0.0493258
0.0493294
0.0493339
0.049339
0.0493448
0.0493512
0.049358
0.0493651
0.0493723
0.0493795
0.0493862
0.0493922
0.0493965
0.0493971
0.0493857
0.0493295
0.049179
0.0492543
0.049383
0.0494014
0.0494009
0.0493963
0.04939
0.049383
0.0493757
0.0493684
0.0493613
0.0493546
0.0493483
0.0493425
0.0493372
0.0493326
0.0493286
0.0493252
0.0493224
0.04932
0.0493181
0.0493165
0.0493152
0.0493142
0.0493134
0.0493127
0.049312
0.0493113
0.0493105
0.0493095
0.0493084
0.0493069
0.049305
0.0493028
0.0493
0.0492966
0.0492927
0.0492883
0.0492836
0.0492787
0.0492737
0.0492687
0.0492643
0.0492608
0.0492587
0.0492583
0.0492595
0.049262
0.0492653
0.0492675
0.049249
0.0491083
0.0492752
0.0492917
0.0492902
0.0492697
0.0492445
0.0492263
0.0492177
0.049215
0.049213
0.0492085
0.0492022
0.0491955
0.0491927
0.049198
0.0492116
0.0492304
0.0492507
0.0492694
0.049285
0.0492968
0.0493048
0.0493098
0.0493123
0.0493132
0.049313
0.0493122
0.0493115
0.049311
0.049311
0.0493118
0.0493133
0.0493157
0.049319
0.0493231
0.049328
0.0493336
0.0493399
0.0493467
0.0493539
0.0493615
0.0493692
0.0493768
0.0493841
0.0493906
0.0493953
0.0493957
0.0493811
0.0493045
0.0491365
0.049261
0.0493855
0.0494002
0.0493987
0.0493936
0.049387
0.0493798
0.0493724
0.0493651
0.049358
0.0493514
0.0493451
0.0493395
0.0493343
0.0493298
0.0493259
0.0493225
0.0493197
0.0493174
0.0493154
0.0493138
0.0493125
0.0493113
0.0493103
0.0493094
0.0493085
0.0493075
0.0493065
0.0493053
0.0493038
0.0493021
0.0493001
0.0492976
0.0492947
0.0492913
0.0492874
0.0492829
0.0492781
0.0492733
0.0492683
0.0492636
0.0492593
0.0492561
0.0492541
0.0492538
0.0492551
0.0492577
0.0492609
0.0492634
0.0492465
0.0490853
0.0493585
0.0493406
0.0493196
0.0492964
0.0492705
0.0492484
0.049234
0.0492265
0.0492217
0.0492164
0.0492094
0.0492027
0.0492009
0.0492072
0.0492205
0.0492373
0.0492545
0.0492698
0.049282
0.0492908
0.0492967
0.0493001
0.0493016
0.0493019
0.0493015
0.0493008
0.0493003
0.0493002
0.0493007
0.049302
0.0493041
0.0493071
0.0493109
0.0493156
0.049321
0.0493272
0.049334
0.0493413
0.049349
0.049357
0.0493651
0.0493732
0.0493809
0.0493878
0.0493928
0.0493928
0.0493745
0.0492629
0.0491026
0.049272
0.0493854
0.0493966
0.0493944
0.049389
0.0493825
0.0493754
0.0493682
0.049361
0.0493542
0.0493477
0.0493417
0.0493362
0.0493312
0.0493268
0.049323
0.0493197
0.049317
0.0493147
0.0493127
0.049311
0.0493096
0.0493083
0.0493071
0.049306
0.0493048
0.0493035
0.0493021
0.0493006
0.0492989
0.0492969
0.0492946
0.049292
0.049289
0.0492855
0.0492815
0.0492771
0.0492723
0.0492674
0.0492626
0.0492581
0.0492542
0.0492513
0.0492497
0.0492494
0.0492507
0.0492532
0.0492563
0.0492588
0.0492435
0.0490636
0.0493466
0.0493189
0.0492888
0.0492757
0.0492656
0.0492548
0.0492457
0.0492396
0.0492344
0.0492275
0.0492183
0.0492127
0.0492148
0.0492238
0.0492366
0.0492502
0.0492626
0.0492727
0.0492802
0.0492852
0.0492881
0.0492895
0.0492897
0.0492892
0.0492885
0.0492879
0.0492877
0.049288
0.0492891
0.0492909
0.0492937
0.0492973
0.0493017
0.049307
0.0493131
0.0493198
0.0493272
0.049335
0.0493432
0.0493516
0.0493601
0.0493686
0.0493767
0.0493839
0.0493891
0.0493885
0.0493651
0.0492114
0.0490788
0.0492846
0.0493829
0.0493912
0.0493885
0.0493832
0.0493768
0.04937
0.0493631
0.0493563
0.0493498
0.0493436
0.0493379
0.0493326
0.0493279
0.0493237
0.04932
0.0493169
0.0493142
0.0493119
0.0493099
0.0493082
0.0493066
0.0493052
0.0493038
0.0493024
0.0493009
0.0492993
0.0492975
0.0492956
0.0492935
0.0492913
0.0492887
0.0492859
0.0492827
0.0492792
0.0492752
0.0492708
0.0492661
0.0492612
0.0492565
0.0492524
0.049249
0.0492467
0.0492456
0.0492454
0.0492466
0.0492489
0.0492517
0.0492541
0.0492401
0.0490431
0.049341
0.0493031
0.0492616
0.0492334
0.0492393
0.0492454
0.0492471
0.0492468
0.0492433
0.0492351
0.0492298
0.0492324
0.0492403
0.04925
0.0492589
0.0492663
0.0492718
0.0492754
0.0492774
0.0492782
0.049278
0.0492772
0.049276
0.0492749
0.0492739
0.0492734
0.0492735
0.0492743
0.049276
0.0492785
0.0492819
0.0492862
0.0492914
0.0492974
0.0493041
0.0493115
0.0493195
0.0493279
0.0493365
0.0493454
0.0493543
0.0493632
0.0493716
0.0493792
0.0493846
0.0493831
0.0493428
0.0491577
0.049065
0.0492966
0.0493784
0.0493843
0.0493813
0.0493762
0.0493702
0.0493638
0.0493574
0.0493511
0.0493449
0.0493392
0.0493338
0.0493288
0.0493244
0.0493204
0.0493169
0.0493138
0.0493112
0.049309
0.049307
0.0493052
0.0493036
0.049302
0.0493004
0.0492987
0.0492969
0.049295
0.0492928
0.0492905
0.049288
0.0492853
0.0492825
0.0492794
0.0492761
0.0492724
0.0492684
0.0492641
0.0492595
0.0492547
0.0492502
0.0492463
0.0492436
0.0492422
0.049242
0.0492423
0.0492433
0.0492451
0.0492474
0.0492495
0.0492365
0.0490238
0.0493431
0.0492984
0.0492518
0.0492138
0.049224
0.0492371
0.0492444
0.0492482
0.0492454
0.049251
0.0492616
0.0492714
0.049278
0.0492811
0.0492813
0.0492798
0.0492773
0.0492743
0.0492712
0.0492681
0.0492652
0.0492627
0.0492605
0.0492588
0.0492578
0.0492574
0.0492579
0.0492593
0.0492616
0.0492649
0.0492691
0.0492742
0.0492801
0.0492869
0.0492943
0.0493024
0.049311
0.0493199
0.0493292
0.0493385
0.0493478
0.0493571
0.0493659
0.0493738
0.0493793
0.0493772
0.0493029
0.0491094
0.0490602
0.0493062
0.0493722
0.0493763
0.0493732
0.0493684
0.0493629
0.0493571
0.0493512
0.0493453
0.0493397
0.0493344
0.0493294
0.0493248
0.0493206
0.0493168
0.0493135
0.0493106
0.0493081
0.0493059
0.049304
0.0493022
0.0493005
0.0492988
0.0492971
0.0492951
0.049293
0.0492906
0.049288
0.0492852
0.0492823
0.0492792
0.049276
0.0492726
0.0492691
0.0492654
0.0492613
0.049257
0.0492525
0.0492479
0.0492436
0.04924
0.0492379
0.0492375
0.0492388
0.0492404
0.049241
0.0492421
0.0492436
0.0492451
0.0492328
0.0490055
0.0493528
0.0493105
0.0492699
0.0492376
0.0492204
0.0492283
0.0492385
0.0492542
0.0492902
0.0493108
0.0493188
0.0493185
0.0493129
0.0493042
0.0492942
0.0492844
0.0492753
0.0492672
0.0492603
0.0492546
0.0492498
0.049246
0.0492431
0.0492411
0.0492401
0.0492401
0.0492411
0.0492431
0.0492461
0.0492502
0.0492551
0.0492611
0.0492679
0.0492754
0.0492837
0.0492925
0.0493017
0.0493113
0.0493211
0.0493309
0.0493407
0.0493503
0.0493595
0.0493677
0.0493733
0.0493697
0.0492518
0.0490675
0.0490632
0.0493125
0.0493647
0.0493674
0.0493644
0.0493601
0.0493551
0.0493498
0.0493445
0.0493392
0.0493341
0.0493292
0.0493246
0.0493203
0.0493164
0.0493129
0.0493098
0.049307
0.0493046
0.0493026
0.0493007
0.049299
0.0492973
0.0492956
0.0492937
0.0492916
0.0492892
0.0492864
0.0492834
0.0492801
0.0492766
0.049273
0.0492694
0.0492657
0.0492619
0.049258
0.049254
0.0492497
0.0492452
0.0492408
0.0492367
0.0492334
0.0492317
0.0492324
0.0492355
0.0492394
0.0492399
0.04924
0.0492404
0.0492411
0.0492292
0.0489883
0.0493702
0.0493454
0.0493218
0.0493045
0.0492921
0.04928
0.049296
0.0493597
0.0493729
0.0493701
0.0493589
0.0493436
0.0493264
0.0493092
0.0492929
0.0492782
0.0492654
0.0492546
0.0492455
0.0492381
0.0492322
0.0492276
0.0492243
0.0492222
0.0492213
0.0492216
0.0492231
0.0492258
0.0492296
0.0492344
0.0492403
0.0492471
0.0492547
0.0492632
0.0492722
0.0492818
0.0492917
0.049302
0.0493123
0.0493227
0.0493329
0.0493429
0.0493525
0.0493612
0.0493668
0.0493524
0.0491967
0.0490331
0.0490725
0.0493155
0.0493562
0.0493579
0.0493552
0.0493512
0.0493468
0.0493421
0.0493374
0.0493327
0.049328
0.0493236
0.0493194
0.0493154
0.0493118
0.0493085
0.0493056
0.049303
0.0493007
0.0492988
0.0492971
0.0492956
0.049294
0.0492924
0.0492905
0.0492883
0.0492856
0.0492825
0.049279
0.0492752
0.0492711
0.049267
0.0492629
0.0492588
0.0492547
0.0492506
0.0492465
0.0492422
0.0492378
0.0492334
0.0492294
0.0492265
0.0492253
0.0492267
0.0492315
0.0492387
0.0492404
0.0492392
0.049238
0.0492376
0.0492257
0.048972
0.0494057
0.0493997
0.049395
0.0493962
0.0494023
0.0494078
0.0494128
0.0494079
0.0493963
0.0493801
0.0493609
0.0493402
0.0493195
0.0492997
0.0492814
0.049265
0.0492507
0.0492386
0.0492283
0.04922
0.0492132
0.0492081
0.0492044
0.0492022
0.0492014
0.0492021
0.049204
0.0492074
0.049212
0.0492177
0.0492245
0.0492322
0.0492408
0.0492501
0.04926
0.0492704
0.0492811
0.049292
0.0493029
0.0493138
0.0493246
0.0493351
0.0493451
0.0493542
0.0493601
0.0493199
0.0491432
0.0490067
0.0490866
0.0493154
0.049347
0.049348
0.0493455
0.0493421
0.0493382
0.0493342
0.04933
0.0493258
0.0493216
0.0493175
0.0493136
0.0493099
0.0493065
0.0493034
0.0493007
0.0492983
0.0492962
0.0492945
0.0492931
0.0492918
0.0492905
0.0492891
0.0492873
0.0492851
0.0492823
0.0492789
0.049275
0.0492707
0.049266
0.0492613
0.0492566
0.0492521
0.0492476
0.0492433
0.049239
0.0492346
0.0492302
0.0492259
0.049222
0.0492192
0.0492183
0.0492205
0.0492265
0.0492365
0.0492431
0.0492397
0.0492364
0.0492347
0.0492225
0.0489566
0.049398
0.0493979
0.0493944
0.0493948
0.0493989
0.0494018
0.0494011
0.0493945
0.0493822
0.0493657
0.0493463
0.0493256
0.0493046
0.0492845
0.0492657
0.0492487
0.0492338
0.0492208
0.0492098
0.0492006
0.0491933
0.0491876
0.0491836
0.0491812
0.0491805
0.0491814
0.0491839
0.0491879
0.0491932
0.0491998
0.0492076
0.0492164
0.0492259
0.0492362
0.0492471
0.0492583
0.0492698
0.0492814
0.049293
0.0493045
0.0493158
0.0493267
0.0493372
0.0493467
0.0493528
0.0492763
0.0490928
0.048988
0.0491035
0.0493127
0.0493373
0.0493379
0.0493357
0.0493328
0.0493295
0.049326
0.0493223
0.0493185
0.0493147
0.0493109
0.0493072
0.0493036
0.0493004
0.0492975
0.0492949
0.0492927
0.049291
0.0492896
0.0492885
0.0492876
0.0492868
0.0492857
0.0492842
0.0492822
0.0492794
0.0492758
0.0492716
0.0492667
0.0492615
0.0492561
0.0492508
0.0492457
0.0492408
0.0492362
0.0492317
0.0492272
0.0492228
0.0492184
0.0492145
0.0492116
0.0492108
0.0492135
0.0492209
0.0492326
0.0492464
0.0492408
0.0492355
0.0492324
0.0492197
0.0489422
0.04939
0.0493928
0.0493891
0.049388
0.0493897
0.0493902
0.0493871
0.0493789
0.0493657
0.0493486
0.049329
0.0493082
0.0492872
0.049267
0.0492481
0.0492308
0.0492154
0.0492019
0.0491902
0.0491804
0.0491724
0.0491661
0.0491617
0.0491591
0.0491584
0.0491595
0.0491625
0.0491672
0.0491734
0.0491809
0.0491897
0.0491995
0.0492102
0.0492216
0.0492334
0.0492456
0.0492579
0.0492703
0.0492826
0.0492947
0.0493065
0.049318
0.049329
0.0493387
0.0493398
0.0492267
0.0490473
0.0489769
0.0491216
0.049308
0.0493273
0.0493277
0.0493259
0.0493234
0.0493207
0.0493176
0.0493143
0.0493109
0.0493073
0.0493037
0.0493001
0.0492966
0.0492935
0.0492907
0.0492883
0.0492863
0.0492849
0.0492839
0.0492833
0.0492829
0.0492826
0.0492821
0.0492811
0.0492794
0.0492768
0.0492733
0.0492688
0.0492635
0.0492577
0.0492516
0.0492456
0.0492399
0.0492345
0.0492295
0.0492247
0.0492202
0.0492156
0.0492112
0.0492071
0.0492039
0.0492029
0.0492057
0.0492139
0.0492282
0.0492453
0.0492429
0.0492355
0.0492309
0.0492175
0.0489287
0.0493832
0.0493892
0.0493857
0.0493815
0.0493812
0.049379
0.049373
0.0493626
0.0493479
0.0493299
0.0493099
0.0492891
0.0492682
0.0492481
0.0492292
0.0492117
0.049196
0.0491819
0.0491697
0.0491592
0.0491505
0.0491437
0.0491387
0.0491358
0.049135
0.0491363
0.0491397
0.0491451
0.0491522
0.0491607
0.0491707
0.0491817
0.0491936
0.0492061
0.0492191
0.0492323
0.0492455
0.0492587
0.0492717
0.0492845
0.0492969
0.0493089
0.0493204
0.0493307
0.0493162
0.0491752
0.0490074
0.0489726
0.0491393
0.0493018
0.0493172
0.0493175
0.0493162
0.0493142
0.0493119
0.0493092
0.0493062
0.049303
0.0492995
0.0492959
0.0492923
0.0492889
0.0492857
0.049283
0.0492808
0.0492791
0.049278
0.0492775
0.0492775
0.0492777
0.049278
0.0492782
0.0492778
0.0492767
0.0492746
0.0492712
0.0492667
0.049261
0.0492547
0.0492479
0.0492412
0.0492348
0.0492288
0.0492234
0.0492183
0.0492136
0.0492089
0.0492043
0.0492
0.0491964
0.0491948
0.0491971
0.0492056
0.0492215
0.0492417
0.0492477
0.0492361
0.0492302
0.049216
0.0489161
0.0493779
0.0493858
0.0493818
0.0493762
0.0493735
0.0493682
0.0493591
0.049346
0.0493294
0.0493104
0.0492899
0.0492689
0.0492482
0.0492282
0.0492094
0.0491918
0.0491757
0.0491612
0.0491483
0.0491371
0.0491276
0.0491201
0.0491146
0.0491113
0.0491102
0.0491116
0.0491154
0.0491214
0.0491294
0.0491391
0.0491504
0.0491628
0.049176
0.0491899
0.0492041
0.0492184
0.0492327
0.0492468
0.0492606
0.049274
0.049287
0.0492995
0.0493115
0.0493225
0.0492828
0.0491238
0.0489736
0.0489742
0.0491555
0.0492947
0.0493071
0.0493076
0.0493067
0.0493052
0.0493032
0.0493008
0.049298
0.0492949
0.0492914
0.0492877
0.0492841
0.0492806
0.0492774
0.0492748
0.0492728
0.0492714
0.0492708
0.0492707
0.0492712
0.049272
0.049273
0.0492739
0.0492744
0.049274
0.0492725
0.0492696
0.0492652
0.0492594
0.0492526
0.0492453
0.0492378
0.0492306
0.049224
0.049218
0.0492126
0.0492076
0.0492028
0.0491981
0.0491934
0.0491893
0.0491869
0.0491882
0.049196
0.0492128
0.0492366
0.0492517
0.0492375
0.0492304
0.0492153
0.0489046
0.0493736
0.0493836
0.0493775
0.0493723
0.0493664
0.0493577
0.0493453
0.0493293
0.0493108
0.0492905
0.0492695
0.0492484
0.0492278
0.0492079
0.0491891
0.0491713
0.0491548
0.0491397
0.0491261
0.0491141
0.0491039
0.0490957
0.0490895
0.0490857
0.0490843
0.0490856
0.0490898
0.0490964
0.0491053
0.0491162
0.0491289
0.0491428
0.0491577
0.049173
0.0491886
0.0492042
0.0492196
0.0492346
0.0492492
0.0492633
0.0492769
0.04929
0.0493025
0.0493113
0.0492425
0.0490744
0.0489462
0.0489805
0.0491694
0.0492871
0.0492974
0.0492981
0.0492976
0.0492964
0.0492948
0.0492926
0.0492899
0.0492867
0.0492831
0.0492793
0.0492756
0.049272
0.049269
0.0492665
0.0492648
0.0492638
0.0492636
0.0492639
0.0492648
0.0492661
0.0492677
0.0492693
0.0492706
0.0492712
0.0492705
0.0492683
0.0492643
0.0492586
0.0492516
0.0492437
0.0492355
0.0492276
0.0492202
0.0492137
0.0492078
0.0492025
0.0491976
0.0491927
0.0491878
0.0491831
0.0491795
0.0491793
0.0491856
0.049202
0.0492286
0.049252
0.0492404
0.0492317
0.0492154
0.048894
0.0493699
0.0493838
0.049374
0.0493683
0.0493598
0.0493475
0.0493315
0.0493127
0.0492921
0.0492707
0.0492492
0.049228
0.0492074
0.0491875
0.0491685
0.0491504
0.0491334
0.0491176
0.0491033
0.0490906
0.0490797
0.0490708
0.049064
0.0490596
0.0490578
0.049059
0.0490633
0.0490704
0.0490801
0.0490923
0.0491065
0.0491221
0.0491387
0.0491557
0.0491728
0.0491898
0.0492063
0.0492223
0.0492378
0.0492526
0.0492669
0.0492805
0.0492935
0.0492942
0.0491977
0.0490283
0.0489254
0.0489905
0.0491807
0.0492793
0.0492881
0.0492891
0.049289
0.0492882
0.0492867
0.0492846
0.0492819
0.0492786
0.0492749
0.049271
0.0492673
0.0492639
0.049261
0.0492589
0.0492576
0.049257
0.049257
0.0492576
0.0492586
0.0492602
0.0492623
0.0492645
0.0492666
0.049268
0.0492684
0.0492671
0.0492638
0.0492585
0.0492514
0.0492431
0.0492343
0.0492257
0.0492176
0.0492104
0.0492041
0.0491985
0.0491934
0.0491884
0.0491833
0.049178
0.0491733
0.0491711
0.0491748
0.0491893
0.0492172
0.0492493
0.0492451
0.0492342
0.0492162
0.0488843
0.0493666
0.0493854
0.0493727
0.0493648
0.0493533
0.0493373
0.0493177
0.0492961
0.0492737
0.0492512
0.0492293
0.0492079
0.0491872
0.0491672
0.0491478
0.0491292
0.0491116
0.0490953
0.0490804
0.0490672
0.0490558
0.0490465
0.0490392
0.0490343
0.0490319
0.0490325
0.0490366
0.0490439
0.0490545
0.0490678
0.0490836
0.049101
0.0491194
0.0491382
0.049157
0.0491754
0.0491932
0.0492102
0.0492266
0.0492421
0.0492569
0.0492711
0.0492846
0.0492701
0.0491506
0.0489864
0.0489109
0.0490033
0.0491897
0.0492718
0.0492795
0.0492809
0.0492811
0.0492805
0.0492792
0.0492771
0.0492743
0.0492709
0.0492671
0.0492633
0.0492597
0.0492566
0.0492543
0.0492527
0.0492518
0.0492515
0.0492516
0.0492521
0.0492531
0.0492547
0.0492569
0.0492595
0.0492622
0.0492646
0.049266
0.0492658
0.0492635
0.0492589
0.0492521
0.0492437
0.0492344
0.049225
0.0492162
0.0492084
0.0492015
0.0491955
0.0491903
0.0491853
0.0491802
0.0491745
0.0491687
0.0491642
0.0491645
0.0491752
0.0492016
0.04924
0.0492511
0.0492379
0.0492178
0.0488753
0.0493635
0.0493861
0.0493724
0.0493618
0.0493468
0.0493269
0.0493039
0.0492797
0.0492557
0.0492324
0.0492101
0.0491885
0.0491675
0.049147
0.0491271
0.049108
0.0490899
0.0490732
0.0490581
0.0490449
0.0490335
0.049024
0.0490166
0.0490111
0.049008
0.0490078
0.049011
0.0490181
0.0490291
0.0490435
0.0490608
0.04908
0.0491003
0.049121
0.0491415
0.0491614
0.0491805
0.0491986
0.0492157
0.049232
0.0492474
0.0492621
0.0492742
0.0492399
0.049103
0.0489494
0.0489023
0.0490178
0.0491964
0.0492647
0.0492718
0.0492735
0.049274
0.0492736
0.0492723
0.0492702
0.0492673
0.0492638
0.0492601
0.0492564
0.0492533
0.0492508
0.0492493
0.0492484
0.0492479
0.0492477
0.0492475
0.0492476
0.0492483
0.0492497
0.0492519
0.0492546
0.0492577
0.0492608
0.0492632
0.0492642
0.0492631
0.0492595
0.0492534
0.0492451
0.0492356
0.0492257
0.0492162
0.0492077
0.0492002
0.0491939
0.0491885
0.0491835
0.0491786
0.0491729
0.0491663
0.0491596
0.0491558
0.0491608
0.0491824
0.0492239
0.0492572
0.0492425
0.0492191
0.048867
0.0493596
0.049381
0.0493703
0.0493581
0.0493396
0.0493159
0.0492899
0.0492636
0.0492384
0.0492145
0.0491918
0.0491698
0.0491483
0.0491272
0.0491067
0.0490871
0.0490688
0.0490523
0.0490376
0.0490249
0.0490142
0.0490052
0.048998
0.0489922
0.0489882
0.0489865
0.0489882
0.0489944
0.0490052
0.0490203
0.0490388
0.0490597
0.0490819
0.0491045
0.0491268
0.0491482
0.0491685
0.0491876
0.0492055
0.0492224
0.0492383
0.0492535
0.049261
0.0492042
0.0490565
0.0489179
0.0488992
0.0490334
0.0492015
0.0492585
0.049265
0.049267
0.0492678
0.0492675
0.0492663
0.0492641
0.0492611
0.0492576
0.0492541
0.0492509
0.0492484
0.0492469
0.0492462
0.049246
0.0492458
0.0492453
0.0492445
0.0492441
0.0492443
0.0492454
0.0492473
0.0492499
0.0492532
0.0492567
0.0492599
0.049262
0.0492623
0.0492601
0.049255
0.0492473
0.0492379
0.0492276
0.0492176
0.0492084
0.0492004
0.0491937
0.0491881
0.0491832
0.0491786
0.0491733
0.0491665
0.0491581
0.0491502
0.0491481
0.049161
0.0491992
0.0492554
0.049247
0.0492131
0.0488613
0.0493541
0.0493723
0.0493662
0.0493531
0.0493312
0.0493043
0.0492757
0.049248
0.0492219
0.0491976
0.0491744
0.0491518
0.0491296
0.0491078
0.0490868
0.0490672
0.0490493
0.0490336
0.0490202
0.0490089
0.0489996
0.0489918
0.0489851
0.0489793
0.0489742
0.0489705
0.0489696
0.0489738
0.0489837
0.048999
0.0490185
0.0490409
0.049065
0.0490894
0.0491133
0.0491361
0.0491576
0.0491776
0.0491963
0.0492137
0.0492301
0.0492453
0.0492437
0.0491647
0.0490124
0.0488923
0.0489012
0.0490495
0.0492054
0.0492531
0.0492594
0.0492617
0.0492626
0.0492625
0.0492612
0.0492589
0.0492559
0.0492526
0.0492493
0.0492468
0.0492453
0.0492448
0.0492451
0.0492454
0.0492451
0.049244
0.0492425
0.0492413
0.049241
0.0492416
0.0492431
0.0492456
0.0492487
0.0492523
0.0492561
0.0492592
0.0492609
0.0492602
0.0492565
0.0492499
0.0492409
0.0492307
0.0492203
0.0492106
0.0492021
0.049195
0.0491891
0.0491844
0.0491803
0.0491758
0.0491697
0.0491607
0.0491494
0.0491398
0.0491407
0.0491664
0.0492265
0.0492462
0.0491969
0.0488604
0.0493469
0.049362
0.0493611
0.0493467
0.0493219
0.0492921
0.0492618
0.049233
0.0492064
0.0491817
0.0491579
0.0491346
0.0491115
0.0490892
0.0490681
0.049049
0.0490324
0.0490185
0.0490072
0.0489982
0.048991
0.0489848
0.0489791
0.0489732
0.048967
0.0489609
0.0489566
0.0489576
0.0489655
0.0489802
0.0490004
0.0490243
0.04905
0.0490761
0.0491015
0.0491257
0.0491482
0.049169
0.0491882
0.0492061
0.0492229
0.0492368
0.0492215
0.049123
0.0489717
0.0488727
0.0489078
0.0490658
0.0492086
0.0492489
0.049255
0.0492575
0.0492586
0.0492585
0.0492572
0.0492549
0.0492519
0.0492488
0.0492461
0.0492443
0.0492438
0.0492445
0.0492456
0.0492462
0.0492455
0.0492435
0.0492411
0.0492392
0.0492383
0.0492384
0.0492395
0.0492415
0.0492444
0.0492479
0.0492518
0.0492556
0.0492585
0.0492595
0.0492575
0.0492524
0.0492444
0.0492346
0.0492242
0.0492141
0.0492052
0.0491977
0.0491917
0.0491872
0.0491836
0.0491804
0.0491758
0.0491679
0.0491554
0.0491396
0.0491276
0.0491341
0.0491751
0.0492272
0.0491696
0.0488676
0.0493395
0.0493525
0.0493561
0.0493398
0.049312
0.04928
0.0492483
0.049219
0.0491921
0.0491669
0.0491423
0.0491181
0.0490943
0.0490717
0.0490513
0.0490336
0.0490192
0.0490079
0.0489996
0.0489934
0.0489886
0.0489842
0.0489793
0.0489733
0.0489659
0.0489575
0.0489493
0.0489458
0.0489507
0.0489645
0.0489852
0.0490104
0.0490377
0.0490653
0.049092
0.0491172
0.0491405
0.0491619
0.0491816
0.0491998
0.0492168
0.0492269
0.0491946
0.0490807
0.0489354
0.0488591
0.0489182
0.049082
0.0492116
0.0492459
0.049252
0.0492547
0.0492559
0.0492558
0.0492544
0.0492521
0.0492493
0.0492465
0.0492443
0.0492433
0.0492438
0.0492455
0.0492472
0.0492479
0.0492466
0.0492437
0.0492404
0.0492378
0.0492363
0.0492358
0.0492364
0.0492379
0.0492402
0.0492434
0.0492472
0.0492513
0.0492551
0.0492576
0.0492576
0.0492544
0.0492479
0.049239
0.0492289
0.0492188
0.0492097
0.049202
0.0491959
0.0491914
0.0491884
0.0491865
0.0491843
0.0491794
0.0491688
0.0491507
0.049128
0.0491129
0.0491275
0.0491799
0.0491356
0.0488864
0.0493334
0.0493465
0.0493521
0.0493332
0.0493024
0.0492684
0.0492359
0.0492062
0.0491789
0.0491531
0.0491276
0.0491024
0.0490782
0.0490561
0.0490371
0.0490218
0.0490105
0.0490026
0.0489975
0.0489941
0.0489914
0.0489883
0.0489839
0.0489775
0.0489689
0.0489584
0.0489469
0.0489385
0.0489398
0.0489523
0.0489736
0.049
0.0490286
0.0490575
0.0490852
0.0491111
0.0491349
0.0491567
0.0491767
0.0491952
0.0492115
0.0492144
0.0491637
0.0490392
0.0489041
0.0488515
0.0489321
0.0490979
0.0492147
0.0492443
0.0492503
0.0492532
0.0492545
0.0492544
0.049253
0.0492508
0.0492481
0.0492456
0.049244
0.0492437
0.049245
0.0492473
0.0492495
0.0492501
0.0492483
0.0492444
0.0492403
0.049237
0.0492349
0.0492339
0.0492338
0.0492347
0.0492364
0.0492389
0.0492422
0.0492463
0.0492506
0.0492543
0.0492562
0.0492552
0.0492508
0.0492434
0.0492342
0.0492244
0.0492153
0.0492075
0.0492013
0.049197
0.0491945
0.0491937
0.0491941
0.0491938
0.0491888
0.0491746
0.0491484
0.0491151
0.0490935
0.0491108
0.0491018
0.0489191
0.0493292
0.0493451
0.0493501
0.0493275
0.0492936
0.049258
0.0492247
0.0491947
0.049167
0.0491403
0.0491137
0.0490878
0.0490638
0.049043
0.0490264
0.0490144
0.0490066
0.0490021
0.0489998
0.0489986
0.0489973
0.0489949
0.0489906
0.0489837
0.0489739
0.0489615
0.0489475
0.0489345
0.0489325
0.0489444
0.0489664
0.0489939
0.0490235
0.0490531
0.0490814
0.0491077
0.0491318
0.0491538
0.0491738
0.0491921
0.0492062
0.0491985
0.0491298
0.0489997
0.0488784
0.0488498
0.0489489
0.0491137
0.0492183
0.0492441
0.0492501
0.0492531
0.0492545
0.0492544
0.049253
0.0492509
0.0492484
0.0492462
0.049245
0.0492453
0.049247
0.0492497
0.049252
0.0492525
0.0492502
0.0492454
0.0492407
0.049237
0.0492343
0.0492327
0.049232
0.0492321
0.049233
0.0492346
0.0492372
0.0492408
0.0492452
0.0492496
0.0492531
0.0492544
0.0492524
0.0492471
0.0492393
0.0492303
0.0492215
0.0492139
0.0492079
0.0492038
0.0492016
0.0492016
0.049204
0.0492081
0.0492112
0.0492078
0.0491904
0.0491549
0.0491083
0.0490741
0.0490746
0.0489643
0.0493265
0.0493478
0.0493504
0.0493233
0.0492862
0.049249
0.0492152
0.0491848
0.0491563
0.0491284
0.0491008
0.0490746
0.0490516
0.049033
0.0490198
0.0490114
0.049007
0.0490052
0.0490049
0.0490048
0.0490042
0.0490021
0.0489978
0.0489904
0.0489797
0.0489656
0.0489495
0.048935
0.0489311
0.0489424
0.0489647
0.0489927
0.0490227
0.0490525
0.0490808
0.0491071
0.0491311
0.0491529
0.0491727
0.0491903
0.0492001
0.0491787
0.0490943
0.0489635
0.0488587
0.0488535
0.0489681
0.0491292
0.0492227
0.0492454
0.0492514
0.0492545
0.0492559
0.0492558
0.0492545
0.0492525
0.0492502
0.0492483
0.0492474
0.0492479
0.0492497
0.0492523
0.0492545
0.0492547
0.0492519
0.0492466
0.0492417
0.0492376
0.0492345
0.0492323
0.0492309
0.0492302
0.0492301
0.0492308
0.0492324
0.0492351
0.049239
0.0492436
0.0492482
0.0492514
0.0492521
0.0492494
0.0492437
0.0492361
0.049228
0.0492208
0.0492151
0.0492113
0.0492096
0.04921
0.0492132
0.0492198
0.0492296
0.0492395
0.0492422
0.0492268
0.0491863
0.0491256
0.049069
0.0490178
0.0493249
0.0493538
0.0493527
0.0493204
0.0492802
0.0492417
0.0492073
0.0491762
0.0491466
0.0491173
0.049089
0.0490633
0.0490423
0.0490268
0.0490171
0.0490118
0.0490098
0.0490097
0.0490105
0.0490114
0.0490113
0.0490097
0.0490056
0.0489982
0.0489871
0.0489725
0.0489562
0.0489426
0.0489382
0.0489479
0.048969
0.0489963
0.0490259
0.0490553
0.0490832
0.0491091
0.0491327
0.0491542
0.0491735
0.0491892
0.0491919
0.0491553
0.0490585
0.0489316
0.0488453