/*--------------------------------*- C++ -*----------------------------------*\
| =========                 |                                                 |
| \\      /  F ield         | OpenFOAM: The Open Source CFD Toolbox           |
|  \\    /   O peration     | Version:  4.1                                   |
|   \\  /    A nd           | Web:      www.OpenFOAM.org                      |
|    \\/     M anipulation  |                                                 |
\*---------------------------------------------------------------------------*/
FoamFile
{
    version     2.0;
    format      ascii;
    class       volScalarField;
    location    "880";
    object      mag(U);
}
// * * * * * * * * * * * * * * * * * * * * * * * * * * * * * * * * * * * * * //

dimensions      [0 1 -1 0 0 0 0];

internalField   nonuniform List<scalar> 
5000
(
0.00318799
0.00274671
0.00317213
0.00425939
0.00526457
0.00560859
0.00297094
0.00475633
0.00375701
0.00261846
0.000744423
0.000820186
0.00120571
0.000892904
0.00143624
0.00254284
0.00383503
0.00517651
0.00638543
0.00703487
0.00666066
0.00549674
0.00436796
0.00407918
0.0044935
0.0051868
0.00596358
0.00671845
0.00740285
0.00800566
0.00852973
0.00898053
0.00936241
0.00967758
0.00992596
0.0101056
0.0102139
0.0102482
0.0102132
0.0101067
0.00992805
0.00967832
0.00936002
0.00897722
0.00853426
0.00803268
0.00746463
0.00679884
0.00595011
0.00471357
0.0038939
0.00463485
0.00679176
0.00654852
0.0057586
0.00489733
0.00434492
0.00414931
0.00419893
0.00435238
0.00450877
0.00462475
0.00468597
0.00469288
0.00465094
0.00455818
0.00441494
0.00422373
0.00398633
0.00370295
0.00337151
0.0029864
0.00253664
0.00200377
0.00136908
0.000721401
0.000901597
0.00200483
0.00300708
0.00329202
0.00315803
0.00778932
0.0112368
0.0127485
0.0128799
0.0120581
0.0108448
0.00956307
0.00846013
0.00762391
0.00701614
0.00655405
0.00615372
0.00572302
0.00513827
0.00426296
0.00310099
0.00245185
0.00245326
0.0026654
0.00420171
0.00301574
0.00460439
0.00417925
0.00326613
0.0050072
0.00690904
0.0048159
0.00366008
0.00369396
0.00242136
0.000429973
0.00126644
0.00247857
0.00305638
0.00349144
0.00391444
0.00425612
0.00448524
0.00486484
0.00543211
0.00592354
0.00644615
0.00697583
0.00740223
0.00778472
0.00817797
0.00858851
0.00900549
0.00941779
0.0098163
0.010193
0.0105403
0.0108512
0.011118
0.0113327
0.0114873
0.0115745
0.011581
0.0115017
0.0113324
0.0110714
0.0107189
0.0102779
0.00975198
0.00914335
0.0084479
0.00764938
0.00672527
0.00572304
0.00610111
0.00705527
0.00622605
0.00644062
0.00675601
0.0066578
0.00646783
0.0062577
0.0060587
0.00589946
0.00578383
0.00568673
0.00559131
0.00548677
0.00536812
0.00523519
0.00508075
0.00489902
0.00468583
0.00443785
0.00415168
0.00382314
0.00344746
0.00302197
0.00255931
0.00212948
0.00189347
0.00185205
0.00140647
0.00132676
0.00650648
0.00910496
0.00932273
0.0100355
0.010417
0.00993313
0.00898894
0.00788307
0.00682631
0.00593952
0.00524322
0.00470815
0.00428867
0.00391719
0.0035034
0.00303037
0.00282613
0.00352614
0.00257607
0.00370699
0.00526351
0.00434358
0.00560699
0.00449393
0.00114057
0.00636023
0.00991398
0.00471069
0.00303754
0.00380078
0.00292473
0.00198195
0.00219424
0.00288551
0.00334142
0.00364643
0.00385739
0.00393177
0.00388539
0.00401458
0.0046971
0.00568521
0.0066289
0.00732631
0.00777315
0.00809071
0.00837561
0.0086699
0.00898319
0.00931171
0.00964716
0.00998002
0.0103009
0.0106005
0.0108699
0.0110992
0.011277
0.0113904
0.0114233
0.0113636
0.0112042
0.0109396
0.0105673
0.0100886
0.00950834
0.00883545
0.00808471
0.00728853
0.00655603
0.006271
0.00796299
0.0109383
0.00709573
0.00488311
0.00585939
0.00617845
0.00622657
0.00619288
0.00612714
0.00604541
0.00596302
0.00589191
0.00582877
0.00576346
0.00568273
0.0055807
0.00545656
0.00530891
0.00513703
0.00494133
0.00472358
0.00448722
0.00423866
0.00398996
0.00376316
0.00358901
0.00346953
0.00328158
0.00302328
0.00447033
0.00833736
0.0105118
0.00843291
0.00687585
0.00682172
0.00701197
0.00665005
0.00595767
0.00514948
0.00440802
0.00378573
0.00328693
0.00291223
0.00266259
0.00255472
0.00274504
0.00346948
0.00442339
0.00332844
0.00481038
0.00577153
0.00490378
0.00586294
0.00450883
0.000999176
0.0073362
0.0119726
0.00387465
0.00283648
0.00399175
0.00353319
0.00302257
0.00299799
0.00327675
0.00355328
0.00375686
0.00389523
0.00397077
0.00402666
0.0042075
0.00467698
0.00537865
0.00609141
0.00666972
0.00710016
0.00743973
0.00774411
0.00804449
0.0083527
0.00867024
0.00899364
0.00931716
0.00963405
0.0099372
0.0102191
0.0104715
0.0106846
0.0108463
0.0109431
0.0109512
0.0108591
0.0106557
0.010333
0.00988829
0.00932632
0.00866257
0.00793171
0.00721188
0.00670201
0.00691686
0.00918179
0.0136177
0.0101856
0.00446074
0.00496698
0.00560984
0.00585844
0.00597932
0.00604067
0.00606685
0.00607166
0.00606422
0.0060465
0.00601542
0.00596665
0.00589843
0.00581108
0.00570584
0.00558497
0.00545226
0.00531354
0.0051776
0.00505755
0.0049727
0.00494804
0.00500511
0.00513953
0.00530182
0.00546746
0.00609163
0.00832393
0.0104121
0.00822416
0.00492134
0.00333389
0.00391349
0.00452534
0.00434208
0.00382192
0.00329009
0.00279318
0.00235706
0.002012
0.00185831
0.00208593
0.00287784
0.0040017
0.00475477
0.00370497
0.00556572
0.00605345
0.00489843
0.00567418
0.00455845
0.00193594
0.00653614
0.0135399
0.00279288
0.00294255
0.00428233
0.00413724
0.00377675
0.00362103
0.00363847
0.00370867
0.00377079
0.00381477
0.00384898
0.0039072
0.0040615
0.00438117
0.00484908
0.0053632
0.00583206
0.00622565
0.00656122
0.00686786
0.00716686
0.00746901
0.00777768
0.00809181
0.00840775
0.00872047
0.0090243
0.00931325
0.00958108
0.00982112
0.0100246
0.0101882
0.0102833
0.0102926
0.0102005
0.00999378
0.00966432
0.00921386
0.00865966
0.00804588
0.00746906
0.00714211
0.00755532
0.00985181
0.0150708
0.0137492
0.00549805
0.00442449
0.00503904
0.00546965
0.00572957
0.00590273
0.00602098
0.00610025
0.00615102
0.00617958
0.00618883
0.00617987
0.00615427
0.00611456
0.00606405
0.00600704
0.00594929
0.00589865
0.00586585
0.00586567
0.00591788
0.00604568
0.00626857
0.00658739
0.00695479
0.00723316
0.00736133
0.00790266
0.00890173
0.00742072
0.00404115
0.0010405
0.00226635
0.0035006
0.0034743
0.0031763
0.00287396
0.00251929
0.002153
0.00183963
0.00177043
0.00227598
0.00336741
0.00429722
0.00475732
0.00375322
0.00612351
0.0063797
0.00450752
0.00523619
0.00461319
0.00285551
0.00459092
0.0137092
0.00303203
0.00355449
0.00462435
0.00450965
0.00418251
0.00393126
0.00377562
0.00367729
0.0036066
0.0035544
0.00352546
0.00353953
0.00363302
0.00383908
0.00415247
0.00452389
0.00489854
0.00524804
0.00557182
0.00588144
0.00618791
0.00649753
0.00681221
0.00713072
0.00744975
0.00776465
0.00807008
0.00836052
0.00863076
0.00887648
0.00909448
0.00928089
0.00944213
0.00954873
0.0095839
0.0095292
0.00936977
0.00910071
0.0087343
0.00831091
0.00791968
0.00774323
0.00819473
0.0102627
0.0157204
0.0166349
0.00823185
0.0043204
0.00457094
0.00507536
0.00544057
0.0057074
0.00590532
0.00605188
0.00615986
0.00623852
0.00629512
0.00633512
0.00636281
0.00638245
0.00639872
0.006417
0.0064438
0.00648719
0.00655728
0.00666677
0.00683098
0.00706623
0.00738459
0.00778054
0.00820058
0.00849168
0.00843745
0.00801859
0.00744075
0.00590577
0.00305947
0.000475045
0.00218505
0.00308724
0.00326351
0.00321745
0.00308085
0.00281169
0.00248428
0.00222985
0.00230216
0.00298979
0.00384194
0.00439397
0.00456485
0.0035235
0.00660327
0.00684171
0.00390731
0.0046085
0.00435939
0.00351047
0.00335708
0.0119217
0.00318606
0.00419272
0.00471954
0.00452421
0.00419955
0.00389446
0.00363893
0.00343542
0.00327816
0.0031624
0.00308779
0.00306192
0.00310267
0.00322883
0.00344333
0.00372423
0.00404059
0.0043683
0.00469781
0.00502817
0.00536078
0.00569628
0.00603388
0.00637125
0.00670469
0.00702923
0.00733897
0.00762763
0.00788942
0.00812045
0.00832029
0.00849016
0.00865236
0.00879997
0.00892375
0.00900591
0.00902579
0.00896748
0.00882955
0.00863585
0.0084518
0.00841609
0.00885901
0.0106188
0.0159035
0.0186738
0.0116641
0.0048078
0.00430948
0.00476999
0.0051799
0.00550257
0.0057568
0.00595793
0.00611877
0.00625018
0.00636049
0.00645723
0.00654693
0.00663516
0.00672739
0.00682944
0.00694774
0.00708952
0.00726281
0.00747625
0.00773836
0.0080557
0.00842878
0.00884079
0.00923618
0.00948639
0.0093866
0.00873405
0.00743992
0.00552166
0.0034544
0.00277819
0.00342692
0.00397444
0.00416069
0.00404913
0.0037703
0.00341704
0.00309462
0.00296294
0.00321925
0.00378103
0.00423218
0.00438693
0.00422841
0.00306982
0.00706403
0.00743483
0.00323784
0.00390607
0.00376219
0.00351975
0.0029499
0.00812164
0.00313726
0.00412808
0.00432564
0.00414763
0.00386291
0.00355599
0.00327723
0.00305372
0.00288996
0.00277909
0.00271289
0.00268891
0.00271549
0.00280625
0.00297207
0.00320812
0.00350108
0.00382894
0.00417696
0.00453439
0.00489534
0.00525645
0.00561558
0.00597028
0.00631699
0.00665054
0.00696408
0.00724967
0.00749947
0.00770774
0.00787344
0.00800071
0.00811015
0.00822962
0.00837111
0.00853249
0.00869621
0.00883579
0.00892925
0.0089737
0.00900155
0.0091063
0.00954264
0.011003
0.0158324
0.0200074
0.0151254
0.00610855
0.00433912
0.00456626
0.0049673
0.00531582
0.00560655
0.00584981
0.0060572
0.00623994
0.00640711
0.00656566
0.006723
0.00688557
0.00705938
0.00725019
0.00746382
0.00770592
0.00798157
0.00829466
0.00864675
0.00903537
0.00945106
0.0098696
0.0102398
0.0104661
0.0104016
0.00988432
0.0088368
0.00743546
0.00625288
0.00577998
0.00557961
0.00548156
0.00527723
0.00494482
0.00455594
0.00420551
0.0039899
0.00399776
0.00425075
0.00449056
0.00453518
0.0042961
0.00379119
0.00244991
0.00753517
0.00810285
0.00263259
0.003272
0.00304275
0.00289385
0.00240642
0.00357417
0.00262688
0.0034054
0.0036034
0.00351593
0.00329529
0.00304514
0.00283872
0.0027038
0.0026332
0.00260788
0.00261118
0.00263658
0.00268945
0.00278308
0.00293382
0.00314728
0.00342341
0.00374226
0.00408847
0.00444572
0.00480583
0.00516508
0.00552243
0.00587622
0.00622339
0.00655832
0.00687264
0.00715596
0.00739748
0.00758849
0.00772526
0.0078117
0.00786118
0.00791792
0.00801881
0.0081923
0.00844084
0.00873676
0.00903704
0.00930597
0.00953774
0.00978208
0.0102276
0.0114351
0.0156537
0.0208096
0.0180567
0.0084282
0.0046774
0.00447972
0.00482233
0.00516861
0.00547741
0.00575058
0.00599727
0.00622776
0.00645093
0.00667312
0.00690012
0.00713959
0.00739665
0.00767694
0.00798492
0.00832375
0.00869463
0.00909602
0.00952251
0.00996344
0.010401
0.0108058
0.0111315
0.0113081
0.0112407
0.0108389
0.0100753
0.00907841
0.00812491
0.00736532
0.00684672
0.00645131
0.00608479
0.00572786
0.00541472
0.00519655
0.00511462
0.00516234
0.00521434
0.00509748
0.00475665
0.00414942
0.00330696
0.00173991
0.00803529
0.00878976
0.00213961
0.00278692
0.00248337
0.00223162
0.00170777
0.000503285
0.00190186
0.00259958
0.00283906
0.00280866
0.00268392
0.00258228
0.00256132
0.00260358
0.00267805
0.00276132
0.00284138
0.00291797
0.0030004
0.0031058
0.00325338
0.00345267
0.00370256
0.00398744
0.00429782
0.00461788
0.00494205
0.00526911
0.00560055
0.00593541
0.0062708
0.00659983
0.00691174
0.00719314
0.00743033
0.00761224
0.00773346
0.0077967
0.00781533
0.00782287
0.00786945
0.0080143
0.00829332
0.00869435
0.00916225
0.00962892
0.0100482
0.0104279
0.0108995
0.0119117
0.0154761
0.0212234
0.0203439
0.0113095
0.00534193
0.00455383
0.00476857
0.00507988
0.0053872
0.00567749
0.00595525
0.00622833
0.00650408
0.00678833
0.00708507
0.00739833
0.00773528
0.00810018
0.00849444
0.00891737
0.00936523
0.00983041
0.0102995
0.0107541
0.0111701
0.0115161
0.0117521
0.0118286
0.0116903
0.0112914
0.0106325
0.00980239
0.0089626
0.00824722
0.0076893
0.00725865
0.00691799
0.00665289
0.00646825
0.0063716
0.00635769
0.00632921
0.00609447
0.00561017
0.00489678
0.00396403
0.00284764
0.00113829
0.00857394
0.00946135
0.00175351
0.0024441
0.00214517
0.00189414
0.00147558
0.000808938
0.00160474
0.00205141
0.00221201
0.00224665
0.00231009
0.00244662
0.002631
0.00282327
0.00299853
0.00314594
0.00326589
0.00336823
0.00346928
0.00358745
0.00373669
0.00392066
0.00414827
0.00438786
0.00464188
0.0049033
0.00517179
0.00545004
0.00574265
0.00604836
0.0063642
0.00668079
0.00698394
0.00725703
0.00748441
0.0076549
0.00776436
0.00781663
0.00782598
0.00781519
0.00783433
0.00795534
0.00824274
0.00871139
0.00930894
0.00994306
0.0105299
0.0110377
0.0115485
0.0124199
0.0153664
0.0213644
0.0220943
0.0143207
0.00638073
0.00483364
0.00482613
0.00506434
0.00534886
0.00564278
0.00594255
0.00625189
0.00657538
0.00691703
0.00727997
0.00766689
0.00807974
0.00851978
0.00898611
0.00947295
0.00996932
0.0104594
0.0109249
0.0113454
0.011698
0.0119581
0.0120972
0.0120844
0.0118902
0.0114987
0.010931
0.0102582
0.00958274
0.00898984
0.00851849
0.00816967
0.00792827
0.00777748
0.00769926
0.00766925
0.00765058
0.00748673
0.00694511
0.00606264
0.00495403
0.00373354
0.00248319
0.00116745
0.00915241
0.0101003
0.00145011
0.00220663
0.00197368
0.00182955
0.00165364
0.00147947
0.00166147
0.00180213
0.0019272
0.00212221
0.00239686
0.00270145
0.00299286
0.00324661
0.00345412
0.00361842
0.00375102
0.00386831
0.00398704
0.00412032
0.00427515
0.00445217
0.00464408
0.00484823
0.00504596
0.0052453
0.00545384
0.0056794
0.00592942
0.006201
0.00649109
0.00678571
0.00706618
0.00731272
0.00750966
0.00764952
0.00773442
0.0077737
0.00778559
0.00778285
0.00781049
0.00793873
0.00824515
0.00876898
0.00947109
0.0102468
0.0109815
0.011608
0.0121664
0.0129405
0.0153481
0.0213108
0.0234054
0.0172615
0.00780107
0.00531442
0.00499737
0.00512787
0.00536937
0.00565382
0.00596613
0.00630412
0.00666846
0.00706017
0.00747998
0.00792812
0.00840346
0.0089021
0.00941638
0.00993469
0.0104423
0.0109227
0.0113581
0.0117311
0.0120241
0.0122193
0.0122982
0.0122442
0.0120461
0.011706
0.0112499
0.010732
0.0102218
0.00977982
0.0094416
0.00921646
0.00909419
0.00905084
0.00905026
0.00904429
0.00896887
0.00866712
0.0078394
0.00652836
0.00494922
0.00342632
0.00223009
0.00188042
0.00975723
0.0107003
0.00120173
0.00203368
0.00189362
0.0018676
0.00183837
0.00177919
0.00178621
0.00188468
0.00212078
0.00245924
0.00282941
0.00317938
0.00348357
0.00373424
0.00393571
0.00410044
0.00424445
0.0043826
0.00452515
0.00467682
0.00483756
0.00500463
0.00517403
0.00533728
0.00549657
0.00564544
0.00580104
0.00597807
0.00618629
0.00642055
0.00667766
0.00693562
0.00717018
0.00735847
0.00748744
0.00755877
0.00758856
0.00759853
0.00761532
0.00763999
0.00771018
0.0078864
0.00824389
0.00883435
0.00963339
0.0105341
0.0114002
0.0121353
0.0127445
0.0134534
0.0154162
0.0211217
0.0243454
0.0199683
0.00961959
0.0059554
0.00526778
0.00526732
0.00544996
0.00571361
0.0060292
0.0063872
0.00678335
0.00721479
0.00767884
0.00817213
0.0086896
0.00922324
0.00976159
0.0102904
0.0107941
0.0112568
0.0116632
0.0119995
0.012253
0.0124126
0.0124682
0.0124136
0.0122484
0.0119826
0.0116424
0.011271
0.0109198
0.0106348
0.010445
0.0103577
0.0103591
0.0104158
0.0104767
0.0104741
0.0103213
0.00989037
0.00885282
0.00712709
0.00496784
0.00301632
0.00204599
0.00267132
0.0103559
0.0112623
0.000983443
0.00188903
0.00184089
0.00189651
0.00192437
0.00191835
0.00199956
0.00224317
0.00260639
0.00300442
0.00338039
0.00370897
0.00398407
0.00421134
0.00440369
0.0045765
0.00474282
0.00491035
0.00508109
0.00525284
0.00542129
0.00558202
0.00573201
0.00587012
0.00599469
0.00611284
0.00623208
0.00637114
0.00654068
0.00673536
0.00695115
0.00715372
0.00731233
0.00740014
0.00740865
0.00735458
0.00727921
0.00722863
0.00724508
0.00731476
0.00746255
0.00773252
0.00818522
0.00887112
0.0097755
0.0107948
0.0117805
0.0126141
0.0132738
0.0139401
0.0155496
0.0208468
0.0249837
0.0222301
0.0118677
0.0067305
0.00562457
0.00547637
0.00558844
0.00582199
0.00613231
0.00650148
0.00691947
0.00737902
0.00787387
0.00839721
0.00894069
0.0094935
0.0100423
0.0105719
0.0110671
0.0115137
0.0118991
0.0122126
0.0124461
0.0125934
0.0126505
0.0126177
0.0125013
0.0123158
0.0120873
0.0118527
0.011653
0.0115239
0.0114866
0.0115418
0.0116684
0.0118232
0.0119429
0.0119445
0.0117245
0.0111507
0.0100288
0.00800619
0.00521992
0.00253791
0.00187371
0.00333933
0.010899
0.0117908
0.000778312
0.00174572
0.00177524
0.00187945
0.00195201
0.00206659
0.00233772
0.00273942
0.00317337
0.00357424
0.00391894
0.00420732
0.00444979
0.00466174
0.00485907
0.00505395
0.00525242
0.00545436
0.00565534
0.00584889
0.00602849
0.00618918
0.00632872
0.00644833
0.00655271
0.00664837
0.0067471
0.00686405
0.00700226
0.0071588
0.00732548
0.00745426
0.00750699
0.00745007
0.0072782
0.00702549
0.00677165
0.00660752
0.00660783
0.0067434
0.00701126
0.00742802
0.00802788
0.00884829
0.00987755
0.0110176
0.0121149
0.0130373
0.0137439
0.0143824
0.0157186
0.0205232
0.0253819
0.0240777
0.0143153
0.00765317
0.00607045
0.0057506
0.00578104
0.00597636
0.00627376
0.00664584
0.00707615
0.00755287
0.00806638
0.0086072
0.00916461
0.00972607
0.0102773
0.0108034
0.0112897
0.0117238
0.0120953
0.0123964
0.012622
0.0127697
0.0128399
0.0128375
0.0127738
0.0126671
0.0125439
0.0124372
0.0123815
0.0124042
0.012518
0.012716
0.012969
0.0132255
0.0134128
0.0134376
0.0131853
0.0125165
0.0112647
0.0092344
0.00605233
0.00219757
0.00166554
0.00378493
0.0113241
0.0122914
0.000586548
0.00158821
0.00168243
0.00183303
0.00200402
0.00231303
0.0027717
0.00327059
0.00372216
0.00409685
0.0044014
0.00465472
0.00487876
0.0050929
0.00531067
0.00553803
0.00577395
0.00601246
0.00624508
0.00646289
0.00665818
0.00682576
0.00696405
0.00707572
0.0071678
0.00725091
0.00733818
0.00743921
0.00755911
0.00768576
0.00780028
0.00784464
0.00777101
0.00753669
0.00713331
0.00660425
0.00607496
0.00570817
0.00565211
0.00587898
0.00632205
0.00694809
0.00775111
0.00874793
0.00992576
0.0111926
0.0123955
0.0133959
0.0141425
0.0147615
0.0158881
0.0201706
0.025578
0.0255795
0.0168267
0.00874639
0.00660655
0.00608379
0.00602174
0.00617168
0.00644973
0.00681762
0.00725194
0.00773637
0.00825833
0.00880639
0.00936835
0.00993069
0.0104789
0.0109982
0.0114751
0.0118982
0.012259
0.0125518
0.0127739
0.0129259
0.013012
0.0130406
0.0130275
0.0129944
0.0129684
0.0129804
0.0130596
0.0132264
0.013486
0.013824
0.0142042
0.014569
0.0148396
0.0149169
0.0146807
0.013989
0.0126778
0.0105735
0.0075
0.0029461
0.00136621
0.00397582
0.011575
0.0127701
0.000451134
0.00141412
0.00157566
0.00181181
0.00215656
0.0026729
0.00326596
0.00380165
0.00422838
0.0045582
0.00482523
0.00505813
0.00528109
0.00551262
0.00576095
0.0060259
0.00630122
0.00657724
0.00684305
0.00708818
0.00730407
0.00748529
0.00763069
0.00774396
0.00783359
0.00791174
0.00799199
0.00808471
0.00818935
0.00829305
0.00836127
0.0083268
0.00812565
0.00770769
0.00705461
0.00619691
0.00529188
0.0045812
0.00436958
0.00471185
0.00540159
0.00630596
0.00736343
0.00857124
0.00991683
0.0113144
0.0126149
0.0136802
0.0144566
0.0150579
0.0160225
0.0197931
0.0255925
0.0267629
0.019337
0.0100253
0.00722227
0.0064643
0.00630119
0.0064004
0.00665431
0.00701251
0.00744409
0.0079284
0.00845034
0.00899711
0.00955571
0.0101121
0.0106518
0.0111604
0.0116251
0.0120356
0.0123845
0.0126678
0.0128849
0.0130391
0.0131378
0.0131929
0.0132238
0.0132556
0.0133162
0.0134351
0.0136372
0.013937
0.014333
0.0148046
0.015311
0.0157906
0.0161622
0.0163248
0.0161574
0.0155193
0.0142499
0.0121753
0.00912939
0.00497254
0.000871833
0.00392373
0.0115971
0.0132337
0.000502977
0.00124524
0.00150212
0.0018911
0.00245258
0.00314121
0.00377702
0.00428323
0.0046664
0.00496004
0.00519914
0.00542793
0.00566343
0.00592123
0.00620442
0.00650821
0.00682311
0.00713723
0.00743805
0.00771389
0.00795534
0.00815659
0.00831659
0.00843965
0.00853512
0.00861597
0.00869566
0.00878325
0.00887701
0.00895877
0.00898465
0.00889295
0.00858727
0.00801555
0.00714917
0.00598345
0.00466712
0.00344042
0.00283417
0.00329973
0.00432168
0.00556427
0.00690612
0.00834032
0.00985965
0.0113833
0.0127677
0.0138806
0.0146729
0.0152541
0.016091
0.0193851
0.0254353
0.0276448
0.0217763
0.0115337
0.00790419
0.00687748
0.00660782
0.00665325
0.00688008
0.00722472
0.00764845
0.00812636
0.00864123
0.00917935
0.00972739
0.0102712
0.0107963
0.0112888
0.0117364
0.0121294
0.0124614
0.0127298
0.0129358
0.0130851
0.0131885
0.013261
0.0133246
0.0134089
0.0135425
0.0137535
0.0140633
0.0144809
0.0149995
0.0155941
0.0162212
0.0168186
0.0173054
0.0175827
0.0175329
0.0170196
0.0158881
0.0139702
0.0110962
0.00709606
0.0018588
0.00368086
0.0112134
0.0136875
0.000751637
0.00114181
0.00154171
0.00214014
0.00289234
0.00363026
0.00423889
0.00469907
0.00504005
0.00530628
0.00553912
0.00576912
0.00602512
0.00631194
0.00662993
0.00697152
0.00732534
0.00767809
0.00801596
0.00832607
0.00859801
0.00882532
0.00900669
0.00914655
0.00925463
0.00934424
0.00942878
0.00951634
0.00960308
0.0096664
0.00965956
0.00951442
0.00914816
0.008488
0.00749869
0.00614628
0.00454371
0.00281251
0.00128589
0.00184683
0.00328079
0.00485157
0.00645303
0.00809561
0.00977312
0.0114039
0.0128495
0.0139878
0.0147803
0.0153366
0.0160703
0.018937
0.0251111
0.0282371
0.0240197
0.0133673
0.00864984
0.00731235
0.00693116
0.00692095
0.00711908
0.00744762
0.00785987
0.00832646
0.00882845
0.00935147
0.00988219
0.0104067
0.0109105
0.0113801
0.0118035
0.0121716
0.0124787
0.0127231
0.0129076
0.0130404
0.0131356
0.0132119
0.0132936
0.0134153
0.013606
0.0138924
0.0142917
0.0148081
0.0154306
0.0161317
0.0168677
0.017578
0.0181858
0.0185973
0.0187017
0.018371
0.0174592
0.0158042
0.0132262
0.0095338
0.00470292
0.0031556
0.0103186
0.0141351
0.00112981
0.00122173
0.00178116
0.00254548
0.00336107
0.00408615
0.00465063
0.00506301
0.00536669
0.00561188
0.00584109
0.00608145
0.00635906
0.00667323
0.00702315
0.00740009
0.0077917
0.00818356
0.00856058
0.00890854
0.00921581
0.00947495
0.00968392
0.00984671
0.00997291
0.0100758
0.0101688
0.0102596
0.0103437
0.0103969
0.0103713
0.0101968
0.00979127
0.0090853
0.00804536
0.00668655
0.00507273
0.00328633
0.00142751
0.000678472
0.00251315
0.00432612
0.00610208
0.0078949
0.00968651
0.0113859
0.0128583
0.0139943
0.01477
0.0152968
0.0159467
0.0184395
0.0246238
0.028555
0.0258689
0.0156382
0.00949039
0.00777087
0.0072655
0.00719609
0.00736377
0.00767438
0.00807268
0.00852435
0.00900871
0.00951106
0.0100182
0.0105165
0.0109918
0.0114305
0.0118211
0.0121545
0.0124253
0.0126329
0.0127816
0.0128823
0.0129528
0.0130167
0.0131008
0.0132446
0.013477
0.0138215
0.0142908
0.0148841
0.015587
0.0163713
0.0171952
0.0180028
0.0187237
0.0192723
0.0195478
0.0194336
0.0187956
0.0174796
0.0153064
0.0120802
0.00757811
0.00292871
0.00880839
0.0145843
0.00159046
0.00151381
0.00215961
0.00299737
0.00382382
0.00451279
0.00502569
0.00538976
0.00565794
0.00588402
0.00611095
0.00636411
0.00665497
0.00699134
0.00736822
0.00777709
0.00820488
0.00863609
0.0090542
0.00944349
0.0097908
0.0100873
0.0103298
0.0105211
0.0106702
0.0107897
0.0108931
0.0109886
0.0110725
0.0111217
0.0110903
0.0109108
0.0105063
0.0098118
0.00879859
0.0074907
0.00596848
0.00434678
0.0027822
0.0016851
0.00244581
0.00407831
0.00589491
0.00775769
0.00960023
0.0113166
0.0127775
0.0138939
0.0146404
0.0151333
0.0157146
0.0178851
0.0239754
0.0286097
0.0273179
0.0181872
0.0105142
0.00827189
0.00760999
0.00747338
0.00760744
0.00789845
0.00828111
0.00871548
0.00917862
0.0096556
0.0101334
0.0105988
0.0110378
0.0114369
0.0117842
0.0120707
0.0122913
0.0124461
0.0125416
0.0125922
0.0126206
0.0126561
0.0127295
0.0128841
0.0131462
0.0135345
0.0140553
0.0147023
0.0154583
0.0162959
0.0171772
0.0180535
0.0188628
0.0195302
0.0199666
0.0200691
0.0197183
0.018775
0.0170759
0.0144105
0.010442
0.00477899
0.00651536
0.0150411
0.00211451
0.00195731
0.00263798
0.00348776
0.0042856
0.00492153
0.00537689
0.00569137
0.00592361
0.0061285
0.00634705
0.00660226
0.00689995
0.00725106
0.00764876
0.00808526
0.00854703
0.00901737
0.00947817
0.00991194
0.0103038
0.0106431
0.0109249
0.0111503
0.0113267
0.0114659
0.011581
0.0116812
0.0117649
0.011813
0.0117841
0.0116163
0.0112383
0.0105894
0.0096439
0.00843019
0.0070335
0.00557864
0.00422242
0.00323802
0.0031758
0.00429053
0.00591471
0.00770973
0.00951068
0.0111813
0.0125923
0.0136626
0.0143779
0.0148473
0.0153747
0.0172678
0.0231659
0.0284047
0.0283929
0.0208672
0.011851
0.00883238
0.00796219
0.0077478
0.00784379
0.00811364
0.00847966
0.00889544
0.00933498
0.00978286
0.0102264
0.0106524
0.0110472
0.0113969
0.0116892
0.0119148
0.0120689
0.0121532
0.0121771
0.0121602
0.0121314
0.0121276
0.0121846
0.0123466
0.0126344
0.0130585
0.0136167
0.0142961
0.0150771
0.0159338
0.0168345
0.0177389
0.0185962
0.0193428
0.0199023
0.0201852
0.0200878
0.0194895
0.0182489
0.0161669
0.0129139
0.00790211
0.00377919
0.0155074
0.00268361
0.00248899
0.00317259
0.00399998
0.00474705
0.00531942
0.00571267
0.00597425
0.00616534
0.0063402
0.00653841
0.00678335
0.00708258
0.00743833
0.00784895
0.00830772
0.00880043
0.00930896
0.00981339
0.0102943
0.0107348
0.0111221
0.011449
0.0117144
0.0119232
0.0120856
0.0122139
0.0123184
0.0124007
0.012447
0.0124234
0.0122757
0.0119385
0.0113537
0.0104933
0.00938037
0.00809545
0.00676196
0.00552692
0.00458322
0.0042258
0.00483644
0.00611943
0.00772318
0.00939815
0.0109696
0.0123006
0.0133114
0.0139932
0.0144386
0.0149317
0.0165857
0.0221987
0.0279458
0.0290942
0.0233363
0.0138619
0.00948847
0.00832015
0.00801477
0.00806728
0.00831429
0.00866333
0.00906022
0.00947503
0.0098912
0.0102962
0.010677
0.0110196
0.0113097
0.0115346
0.0116846
0.0117557
0.0117518
0.0116875
0.0115893
0.0114951
0.0114498
0.0114962
0.0116735
0.0119934
0.0124547
0.0130442
0.0137413
0.0145232
0.0153666
0.0162465
0.0171333
0.0179885
0.0187618
0.0193892
0.0197935
0.0198835
0.0195546
0.0186849
0.0171002
0.0144796
0.0103253
0.00381184
0.0159833
0.00328242
0.00306709
0.0037339
0.00451944
0.00520477
0.00570886
0.00603729
0.00624205
0.00638512
0.00652002
0.00668565
0.00690615
0.00719155
0.00753921
0.00795394
0.00842866
0.0089483
0.00949312
0.0100413
0.0105712
0.0110638
0.0115041
0.011882
0.0121937
0.012441
0.0126316
0.0127763
0.0128857
0.012965
0.0130068
0.0129863
0.012859
0.0125672
0.0120542
0.0112865
0.0102755
0.00908917
0.00784481
0.00668531
0.00576536
0.00527062
0.00550458
0.00641481
0.00774885
0.00923509
0.0106682
0.0118998
0.012846
0.013495
0.0139244
0.0143885
0.0158415
0.0210855
0.0272453
0.0294348
0.025375
0.0165222
0.0103536
0.00870096
0.00827392
0.00827448
0.00849587
0.00882795
0.0092065
0.00959663
0.00997979
0.0103432
0.0106737
0.0109569
0.0111779
0.0113232
0.0113834
0.011356
0.0112488
0.0110836
0.010897
0.010738
0.0106608
0.0107133
0.0109248
0.0112939
0.0118044
0.0124299
0.0131409
0.0139106
0.0147176
0.015544
0.0163718
0.0171773
0.0179254
0.0185669
0.0190369
0.0192559
0.0191328
0.0185631
0.0174047
0.0154251
0.0124886
0.00893139
0.0164678
0.00389805
0.00366611
0.00430336
0.00503611
0.00565489
0.00608952
0.00635198
0.00649604
0.00658297
0.00666514
0.00678137
0.00695787
0.00721015
0.00754277
0.00795157
0.0084346
0.00897595
0.00955397
0.0101447
0.0107243
0.0112715
0.0117689
0.0122035
0.0125682
0.0128614
0.0130873
0.013254
0.0133718
0.0134483
0.0134825
0.0134597
0.0133471
0.0130963
0.0126542
0.0119808
0.0110715
0.00997462
0.008794
0.00766942
0.00674451
0.00615783
0.00612347
0.00669646
0.00773418
0.00899729
0.0102697
0.0113929
0.0122753
0.0128971
0.0133187
0.0137601
0.0150427
0.0198464
0.0263159
0.029426
0.0269382
0.01946
0.011784
0.00915332
0.0085284
0.00846417
0.00865538
0.00897032
0.00933188
0.00969854
0.0100488
0.010369
0.0106456
0.0108637
0.0110075
0.011063
0.0110214
0.0108828
0.0106608
0.010387
0.0101111
0.00989573
0.00980441
0.00988658
0.0101576
0.0105999
0.0111803
0.0118576
0.0125921
0.0133522
0.0141168
0.014874
0.015617
0.0163381
0.0170211
0.0176361
0.0181356
0.0184561
0.0185224
0.0182481
0.0175218
0.016206
0.014308
0.0120782
0.0169588
0.00451991
0.0042697
0.00486861
0.00554255
0.00609333
0.00645932
0.00665575
0.00673573
0.00675838
0.00677477
0.00682506
0.00694005
0.00714231
0.00744321
0.00783435
0.00831571
0.00887217
0.00947891
0.0101095
0.010738
0.0113408
0.0118981
0.0123942
0.0128185
0.0131657
0.0134357
0.0136333
0.0137667
0.0138443
0.0138704
0.0138396
0.0137319
0.0135112
0.0131311
0.0125477
0.0117401
0.0107315
0.00960207
0.0084817
0.00751918
0.0068479
0.00660001
0.00688778
0.007638
0.00866918
0.00977438
0.0107893
0.0116137
0.0122163
0.0126389
0.0130656
0.0142016
0.0185098
0.0251697
0.0290794
0.0280281
0.0221029
0.0142199
0.00979109
0.00879121
0.00863778
0.00879169
0.00908843
0.00943497
0.00978058
0.0100997
0.010377
0.0105983
0.0107479
0.0108091
0.0107677
0.0106157
0.0103566
0.0100117
0.00962442
0.00926053
0.00899861
0.00891164
0.00904537
0.00940139
0.00994324
0.010619
0.0113721
0.012152
0.012921
0.0136565
0.0143507
0.0150056
0.015628
0.0162222
0.016782
0.0172848
0.0176907
0.0179458
0.0179865
0.0177393
0.0171383
0.016185
0.0146128
0.0174541
0.0051397
0.00486696
0.00542087
0.00603254
0.00651559
0.00681482
0.00694617
0.00695995
0.00691177
0.006851
0.00681957
0.00685385
0.00698441
0.0072313
0.00759768
0.00806698
0.00863088
0.00926033
0.00992635
0.0106007
0.011258
0.011876
0.0124366
0.0129261
0.0133351
0.0136593
0.0138992
0.0140594
0.0141474
0.0141698
0.0141286
0.0140161
0.0138105
0.0134762
0.0129714
0.0122631
0.0113481
0.010274
0.0091471
0.0081174
0.00733498
0.00690999
0.00695235
0.00743903
0.00824588
0.00918838
0.0101021
0.010878
0.0114718
0.0119054
0.0123265
0.0133358
0.017113
0.0238217
0.0284113
0.0286546
0.0242899
0.0172078
0.0110766
0.0091207
0.00880211
0.00890613
0.00918187
0.00951534
0.00984361
0.0101352
0.0103723
0.0105397
0.0106207
0.0105979
0.0104565
0.0101894
0.00980401
0.00932943
0.00882227
0.00836629
0.00805914
0.00798553
0.00818464
0.00864736
0.00931471
0.0101138
0.0109713
0.0118256
0.0126323
0.0133667
0.0140227
0.014608
0.0151402
0.0156406
0.0161273
0.0166065
0.0170679
0.017484
0.0178144
0.0180137
0.018044
0.0178354
0.0166542
0.0179512
0.00575136
0.00545065
0.00595392
0.00650093
0.00691706
0.00715187
0.00721999
0.00716728
0.00704458
0.00689877
0.00677325
0.0067104
0.0067504
0.00692471
0.00724725
0.00769207
0.00825318
0.00889735
0.00959219
0.0103071
0.0110148
0.0116915
0.012317
0.0128747
0.0133519
0.0137399
0.0140345
0.0142361
0.0143486
0.0143785
0.0143316
0.0142095
0.0140043
0.0136952
0.0132496
0.0126309
0.0118153
0.0108143
0.00969564
0.0085905
0.00766703
0.00706941
0.00688913
0.00713662
0.00773282
0.00852267
0.00934585
0.0100853
0.0106824
0.0111389
0.0115656
0.0124663
0.0157001
0.0222906
0.0274398