/*--------------------------------*- C++ -*----------------------------------*\
| =========                 |                                                 |
| \\      /  F ield         | OpenFOAM: The Open Source CFD Toolbox           |
|  \\    /   O peration     | Version:  4.1                                   |
|   \\  /    A nd           | Web:      www.OpenFOAM.org                      |
|    \\/     M anipulation  |                                                 |
\*---------------------------------------------------------------------------*/
FoamFile
{
    version     2.0;
    format      ascii;
    class       surfaceScalarField;
    location    "880";
    object      phi;
}
// * * * * * * * * * * * * * * * * * * * * * * * * * * * * * * * * * * * * * //

dimensions      [0 3 -1 0 0 0 0];

internalField   nonuniform List<scalar> 
9850
(
-2.97788e-06
2.97788e-06
-9.24199e-07
-2.05368e-06
2.47541e-06
-3.39961e-06
4.84659e-06
-2.37118e-06
5.35386e-06
-5.07268e-07
2.85733e-06
2.49653e-06
-2.44593e-06
5.30326e-06
-4.3683e-06
1.92238e-06
-3.02845e-06
-1.33985e-06
-1.18353e-06
-1.84492e-06
-9.36194e-08
-1.08991e-06
-5.50902e-07
4.57283e-07
-8.70957e-07
3.20055e-07
2.33645e-07
-1.1046e-06
1.55451e-06
-1.32087e-06
2.93583e-06
-1.38132e-06
4.39203e-06
-1.4562e-06
5.80494e-06
-1.41291e-06
6.77892e-06
-9.73975e-07
6.85359e-06
-7.46755e-08
5.99799e-06
8.55598e-07
4.85072e-06
1.14727e-06
4.16518e-06
6.85537e-07
4.22661e-06
-6.14255e-08
4.79226e-06
-5.65652e-07
5.55272e-06
-7.6046e-07
6.33141e-06
-7.78692e-07
7.05518e-06
-7.23769e-07
7.70086e-06
-6.45675e-07
8.26589e-06
-5.6503e-07
8.75453e-06
-4.88642e-07
9.17179e-06
-4.17263e-07
9.52104e-06
-3.49245e-07
9.80331e-06
-2.8227e-07
1.00175e-05
-2.14223e-07
1.01613e-05
-1.43803e-07
1.02327e-05
-7.13221e-08
1.02315e-05
1.18826e-09
1.01596e-05
7.18918e-08
1.00159e-05
1.43647e-07
9.80057e-06
2.15354e-07
9.51525e-06
2.85321e-07
9.1635e-06
3.51757e-07
8.74984e-06
4.13657e-07
8.27767e-06
4.72172e-07
7.74453e-06
5.33138e-07
7.13205e-06
6.12475e-07
6.38286e-06
7.49191e-07
5.342e-06
1.04086e-06
3.58676e-06
1.75524e-06
3.22102e-08
3.55455e-06
-4.99461e-06
5.02683e-06
-6.71817e-06
1.72356e-06
-6.22162e-06
-4.96556e-07
-5.24759e-06
-9.74022e-07
-4.54393e-06
-7.03665e-07
-4.21003e-06
-3.33897e-07
-4.16496e-06
-4.50714e-08
-4.27192e-06
1.06957e-07
-4.43151e-06
1.59595e-07
-4.57013e-06
1.38614e-07
-4.65947e-06
8.93476e-08
-4.69331e-06
3.38336e-08
-4.67361e-06
-1.96928e-08
-4.60666e-06
-6.69558e-08
-4.48831e-06
-1.18344e-07
-4.32054e-06
-1.6777e-07
-4.10564e-06
-2.14902e-07
-3.84462e-06
-2.6102e-07
-3.53656e-06
-3.08058e-07
-3.17757e-06
-3.5899e-07
-2.75906e-06
-4.18517e-07
-2.2653e-06
-4.93755e-07
-1.67062e-06
-5.94681e-07
-9.3621e-07
-7.34412e-07
-9.8582e-09
-9.26351e-07
1.14366e-06
-1.15351e-06
2.42947e-06
-1.28581e-06
3.44233e-06
-1.01287e-06
2.61789e-06
8.24439e-07
-2.51376e-06
5.13165e-06
-8.70734e-06
6.19358e-06
-1.18698e-05
3.16243e-06
-1.29005e-05
1.03074e-06
-1.25481e-05
-3.52451e-07
-1.15154e-05
-1.03264e-06
-1.02064e-05
-1.30899e-06
-8.97076e-06
-1.23567e-06
-7.99364e-06
-9.77121e-07
-7.2803e-06
-7.13335e-07
-6.75262e-06
-5.27687e-07
-6.31918e-06
-4.33437e-07
-5.89338e-06
-4.25798e-07
-5.38023e-06
-5.13155e-07
-4.66037e-06
-7.19862e-07
-3.57648e-06
-1.08389e-06
-1.91042e-06
-1.66606e-06
7.38653e-07
-2.64907e-06
2.5373e-06
-1.79865e-06
2.5373e-06
-1.52853e-06
4.5064e-06
1.55291e-07
-3.7375e-06
1.84895e-06
-5.09327e-06
3.34312e-06
-3.86535e-06
3.29131e-06
-4.55457e-07
7.23302e-07
5.06454e-06
-2.55448e-06
8.58104e-06
-3.8066e-06
3.1745e-06
-3.17715e-06
-1.9693e-06
-2.25433e-06
-2.76775e-06
-1.18255e-06
-2.16169e-06
4.9772e-07
-1.22299e-06
1.93441e-06
-1.11663e-06
2.38692e-06
-1.55711e-06
2.83926e-06
-1.77321e-06
3.29986e-06
-1.84191e-06
3.73515e-06
-1.89149e-06
4.1565e-06
-1.83427e-06
4.61113e-06
-1.4286e-06
5.05229e-06
-5.15841e-07
5.55539e-06
3.52496e-07
6.14266e-06
5.60011e-07
6.70873e-06
1.1946e-07
7.16129e-06
-5.1398e-07
7.53761e-06
-9.41969e-07
7.92041e-06
-1.14327e-06
8.3282e-06
-1.18648e-06
8.75134e-06
-1.14691e-06
9.17603e-06
-1.07036e-06
9.59052e-06
-9.79512e-07
9.98561e-06
-8.83734e-07
1.03537e-05
-7.85358e-07
1.06877e-05
-6.83285e-07
1.09805e-05
-5.75047e-07
1.12243e-05
-4.58008e-07
1.14108e-05
-3.30313e-07
1.15316e-05
-1.92106e-07
1.15784e-05
-4.56539e-08
1.15407e-05
1.09658e-07
1.14136e-05
2.70737e-07
1.11943e-05
4.3467e-07
1.08821e-05
5.97444e-07
1.0479e-05
7.54866e-07
9.9883e-06
9.04393e-07
9.41254e-06
1.04793e-06
8.74895e-06
1.19673e-06
7.98018e-06
1.38124e-06
7.05637e-06
1.67301e-06
5.85894e-06
2.23829e-06
4.13692e-06
3.47727e-06
1.4261e-06
6.26536e-06
-2.84504e-06
9.29797e-06
-5.96255e-06
4.84107e-06
-6.65439e-06
1.95278e-07
-6.65866e-06
-9.69748e-07
-6.53694e-06
-8.25386e-07
-6.35919e-06
-5.11645e-07
-6.15452e-06
-2.49748e-07
-5.97327e-06
-7.42915e-08
-5.83804e-06
2.43722e-08
-5.73281e-06
3.3381e-08
-5.63819e-06
-5.27588e-09
-5.53753e-06
-6.68203e-08
-5.42477e-06
-1.32455e-07
-5.29814e-06
-1.93588e-07
-5.15273e-06
-2.63756e-07
-4.98175e-06
-3.38749e-07
-4.78007e-06
-4.16577e-07
-4.5437e-06
-4.97396e-07
-4.26851e-06
-5.8324e-07
-3.94902e-06
-6.78484e-07
-3.57688e-06
-7.90661e-07
-3.13942e-06
-9.31207e-07
-2.6189e-06
-1.1152e-06
-1.99547e-06
-1.35785e-06
-1.26346e-06
-1.65835e-06
-4.73011e-07
-1.94397e-06
1.75871e-07
-1.93469e-06
1.17813e-07
-9.54807e-07
-1.06431e-06
2.00656e-06
-3.3825e-06
7.44984e-06
-6.36382e-06
9.17491e-06
-8.97241e-06
5.77102e-06
-1.02382e-05
2.29651e-06
-1.02136e-05
-3.77078e-07
-9.4055e-06
-1.84069e-06
-8.26836e-06
-2.44614e-06
-7.15584e-06
-2.34819e-06
-6.22411e-06
-1.90885e-06
-5.4827e-06
-1.45475e-06
-4.89895e-06
-1.11144e-06
-4.42922e-06
-9.03165e-07
-4.02068e-06
-8.34344e-07
-3.59481e-06
-9.39021e-07
-3.03059e-06
-1.28408e-06
-2.17523e-06
-1.93925e-06
-9.46692e-07
-2.8946e-06
3.79696e-07
-3.97546e-06
1.48647e-06
-2.90543e-06
4.02378e-06
-7.67169e-07
5.27357e-06
1.74343e-07
-4.67901e-06
8.67467e-07
-5.78639e-06
1.47638e-06
-4.47427e-06
1.4986e-06
-4.77677e-07
3.97115e-08
6.52343e-06
-2.3153e-06
1.0936e-05
-2.64272e-06
3.50192e-06
-2.17812e-06
-2.43389e-06
-1.40006e-06
-3.54581e-06
-4.56823e-07
-3.10492e-06
7.68445e-07
-2.44826e-06
1.81608e-06
-2.16427e-06
2.42554e-06
-2.16658e-06
2.84909e-06
-2.19676e-06
3.17895e-06
-2.17177e-06
3.38932e-06
-2.10187e-06
3.49956e-06
-1.9445e-06
3.68474e-06
-1.61378e-06
4.26025e-06
-1.09135e-06
5.19646e-06
-5.83711e-07
6.197e-06
-4.40528e-07
6.98004e-06
-6.6358e-07
7.47885e-06
-1.01279e-06
7.82492e-06
-1.28804e-06
8.11863e-06
-1.43698e-06
8.41526e-06
-1.48312e-06
8.73206e-06
-1.4637e-06
9.06783e-06
-1.40614e-06
9.41451e-06
-1.32619e-06
9.7623e-06
-1.23152e-06
1.01015e-05
-1.12458e-06
1.04229e-05
-1.00468e-06
1.07173e-05
-8.69473e-07
1.09752e-05
-7.15855e-07
1.11856e-05
-5.40755e-07
1.13354e-05
-3.41897e-07
1.14085e-05
-1.18697e-07
1.13918e-05
1.26285e-07
1.12752e-05
3.87373e-07
1.10512e-05
6.58692e-07
1.07157e-05
9.32934e-07
1.02681e-05
1.20249e-06
9.71087e-06
1.46159e-06
9.04877e-06
1.71003e-06
8.28609e-06
1.95942e-06
7.42266e-06
2.24467e-06
6.44781e-06
2.64786e-06
5.3333e-06
3.3528e-06
4.03152e-06
4.77904e-06
2.38983e-06
7.90706e-06
-6.04875e-07
1.22927e-05
-4.0597e-06
8.29589e-06
-5.49032e-06
1.6259e-06
-6.01916e-06
-4.40905e-07
-6.17552e-06
-6.69028e-07
-6.19671e-06
-4.90456e-07
-6.15606e-06
-2.90402e-07
-6.08727e-06
-1.43075e-07
-6.00166e-06
-6.12387e-08
-5.92434e-06
-4.39446e-08
-5.85644e-06
-7.31677e-08
-5.79195e-06
-1.31312e-07
-5.71944e-06
-2.04968e-07
-5.62426e-06
-2.88769e-07
-5.50612e-06
-3.81897e-07
-5.36323e-06
-4.81633e-07
-5.19395e-06
-5.85863e-07
-4.99738e-06
-6.93965e-07
-4.77328e-06
-8.0734e-07
-4.52161e-06
-9.30155e-07
-4.24209e-06
-1.07018e-06
-3.93407e-06
-1.23923e-06
-3.59763e-06
-1.45164e-06
-3.23886e-06
-1.71661e-06
-2.88554e-06
-2.01168e-06
-2.61593e-06
-2.21358e-06
-2.57717e-06
-1.97345e-06
-2.91523e-06
-6.16746e-07
-3.57618e-06
2.66751e-06
-3.51116e-06
7.38482e-06
-4.2199e-06
9.88365e-06
-5.59182e-06
7.14294e-06
-6.54452e-06
3.24921e-06
-6.86876e-06
-5.28324e-08
-6.45443e-06
-2.25502e-06
-5.65169e-06
-3.24888e-06
-4.89436e-06
-3.10553e-06
-4.26762e-06
-2.53559e-06
-3.73224e-06
-1.99012e-06
-3.26627e-06
-1.57741e-06
-2.86151e-06
-1.30793e-06
-2.51032e-06
-1.18554e-06
-2.16932e-06
-1.28002e-06
-1.72777e-06
-1.72563e-06
-1.06538e-06
-2.60164e-06
-2.47044e-07
-3.71293e-06
3.56498e-07
-4.579e-06
9.58057e-07
-3.50699e-06
4.98183e-06
-4.65799e-07
5.73937e-06
-1.67564e-07
-4.97724e-06
-1.52728e-07
-5.80123e-06
-1.52927e-07
-4.47407e-06
4.1433e-07
-1.04493e-06
2.50669e-07
6.68709e-06
-1.58245e-06
1.27692e-05
-1.26332e-06
3.18279e-06
-8.93528e-07
-2.80368e-06
-3.68926e-07
-4.07041e-06
3.37757e-07
-3.8116e-06
1.14676e-06
-3.25726e-06
1.86939e-06
-2.8869e-06
2.39907e-06
-2.69625e-06
2.78173e-06
-2.57942e-06
3.07607e-06
-2.46611e-06
3.30468e-06
-2.33047e-06
3.50616e-06
-2.14599e-06
3.776e-06
-1.88362e-06
4.24455e-06
-1.5599e-06
4.9407e-06
-1.27986e-06
5.68198e-06
-1.18181e-06
6.29804e-06
-1.27964e-06
6.75441e-06
-1.46917e-06
7.10755e-06
-1.64117e-06
7.41857e-06
-1.748e-06
7.72498e-06
-1.78952e-06
8.04221e-06
-1.78094e-06
8.37276e-06
-1.73669e-06
8.71298e-06
-1.66641e-06
9.05668e-06
-1.57523e-06
9.39682e-06
-1.46471e-06
9.72604e-06
-1.3339e-06
1.00366e-05
-1.18007e-06
1.03202e-05
-9.99417e-07
1.05669e-05
-7.87471e-07
1.07645e-05
-5.39495e-07
1.08968e-05
-2.50941e-07
1.09443e-05
7.86875e-08
1.08888e-05
4.42936e-07
1.07159e-05
8.31531e-07
1.04151e-05
1.23383e-06
9.97979e-06
1.63775e-06
9.40931e-06
2.03207e-06
8.70865e-06
2.41069e-06
7.88867e-06
2.7794e-06
6.96632e-06
3.16702e-06
5.96715e-06
3.64703e-06
4.93297e-06
4.38698e-06
3.93449e-06
5.77752e-06
2.99393e-06
8.84762e-06
1.26603e-06
1.40206e-05
-2.38555e-06
1.19475e-05
-4.46679e-06
3.70713e-06
-5.33945e-06
4.31754e-07
-5.72723e-06
-2.81243e-07
-5.91187e-06
-3.05824e-07
-6.00753e-06
-1.94734e-07
-6.0534e-06
-9.72042e-08
-6.06802e-06
-4.66226e-08
-6.06594e-06
-4.60249e-08
-6.05248e-06
-8.6629e-08
-6.02672e-06
-1.57071e-07
-5.98394e-06
-2.47753e-07
-5.92e-06
-3.52701e-07
-5.83419e-06
-4.67706e-07
-5.72689e-06
-5.88936e-07
-5.59943e-06
-7.13328e-07
-5.45431e-06
-8.39084e-07
-5.29539e-06
-9.66258e-07
-5.12809e-06
-1.09745e-06
-4.95991e-06
-1.23837e-06
-4.80158e-06
-1.39756e-06
-4.66971e-06
-1.58351e-06
-4.59157e-06
-1.79474e-06
-4.60974e-06
-1.99351e-06
-4.77191e-06
-2.05141e-06
-5.078e-06
-1.66737e-06
-5.36133e-06
-3.33409e-07
-5.08937e-06
2.39555e-06
-3.88739e-06
6.18284e-06
-2.85633e-06
8.85258e-06
-2.90322e-06
7.18983e-06
-3.19841e-06
3.54441e-06
-3.37933e-06
1.28087e-07
-3.2743e-06
-2.36005e-06
-2.97739e-06
-3.54579e-06
-2.77484e-06
-3.30807e-06
-2.57108e-06
-2.73935e-06
-2.30406e-06
-2.25714e-06
-1.98445e-06
-1.89702e-06
-1.64287e-06
-1.64951e-06
-1.31258e-06
-1.51583e-06
-9.92429e-07
-1.60017e-06
-5.946e-07
-2.12345e-06
-7.66309e-08
-3.11961e-06
3.46898e-07
-4.13646e-06
4.83335e-07
-4.71544e-06
7.13503e-07
-3.73715e-06
5.69534e-06
-3.77913e-07
6.11728e-06
-5.88707e-07
-4.76645e-06
-9.86446e-07
-5.40349e-06
-1.10482e-06
-4.3557e-06
-7.18354e-07
-1.4314e-06
5.09138e-07
5.4596e-06
-3.02647e-07
1.3581e-05
3.53919e-07
2.52622e-06
5.02466e-07
-2.95223e-06
7.64176e-07
-4.33212e-06
1.11421e-06
-4.16164e-06
1.55829e-06
-3.70133e-06
1.98953e-06
-3.31814e-06
2.34162e-06
-3.04834e-06
2.61271e-06
-2.85051e-06
2.82982e-06
-2.68323e-06
3.02011e-06
-2.52076e-06
3.21876e-06
-2.34463e-06
3.47973e-06
-2.1446e-06
3.85677e-06
-1.93694e-06
4.35077e-06
-1.77385e-06
4.88238e-06
-1.71343e-06
5.36567e-06
-1.76293e-06
5.77004e-06
-1.87353e-06
6.11421e-06
-1.98535e-06
6.4302e-06
-2.06399e-06
6.74168e-06
-2.10099e-06
7.06064e-06
-2.0999e-06
7.39063e-06
-2.06667e-06
7.73018e-06
-2.00597e-06
8.0752e-06
-1.92024e-06
8.42024e-06
-1.80976e-06
8.75921e-06
-1.67287e-06
9.08556e-06
-1.50641e-06
9.39221e-06
-1.30607e-06
9.67131e-06
-1.06658e-06
9.91363e-06
-7.81815e-07
1.01075e-05
-4.44842e-07
1.02337e-05
-4.7468e-08
1.02655e-05
4.11174e-07
1.01824e-05
9.14578e-07
9.96576e-06
1.45048e-06
9.60181e-06
2.0017e-06
9.08392e-06
2.54995e-06
8.41442e-06
3.08019e-06
7.60626e-06
3.58755e-06
6.68553e-06
4.08776e-06
5.69667e-06
4.63589e-06
4.71387e-06
5.36978e-06
3.85846e-06
6.63293e-06
3.28088e-06
9.4252e-06
2.33612e-06
1.49653e-05
-8.60228e-07
1.51438e-05
-3.67468e-06
6.52158e-06
-4.71031e-06
1.46738e-06
-5.26598e-06
2.74427e-07
-5.6e-06
2.81978e-08
-5.81642e-06
2.16891e-08
-5.96203e-06
4.84071e-08
-6.06011e-06
5.14488e-08
-6.12455e-06
1.84178e-08
-6.16339e-06
-4.77918e-08
-6.17998e-06
-1.40479e-07
-6.17568e-06
-2.52051e-07
-6.15114e-06
-3.77235e-07
-6.10807e-06
-5.10777e-07
-6.04916e-06
-6.47854e-07
-5.97819e-06
-7.84289e-07
-5.90037e-06
-9.16906e-07
-5.82253e-06
-1.0441e-06
-5.75361e-06
-1.16638e-06
-5.70538e-06
-1.2866e-06
-5.69391e-06
-1.40903e-06
-5.74157e-06
-1.53586e-06
-5.87813e-06
-1.65818e-06
-6.13448e-06
-1.73716e-06
-6.51465e-06
-1.67124e-06
-6.93037e-06
-1.25164e-06
-7.09902e-06
-1.64765e-07
-6.5237e-06
1.82023e-06
-4.86881e-06
4.52795e-06
-2.74162e-06
6.72539e-06
-1.55625e-06
6.00446e-06
-1.0903e-06
3.07845e-06
-9.07898e-07
-5.43115e-08
-9.45968e-07
-2.32198e-06
-1.28752e-06
-3.20425e-06
-1.61713e-06
-2.97846e-06
-1.74117e-06
-2.6153e-06
-1.64191e-06
-2.3564e-06
-1.3768e-06
-2.16214e-06
-1.00985e-06
-2.01646e-06
-5.91324e-07
-1.93435e-06
-1.44273e-07
-2.04722e-06
3.47792e-07
-2.61552e-06
7.292e-07
-3.50102e-06
8.19075e-07
-4.22634e-06
6.65008e-07
-4.56137e-06
5.75417e-07
-3.64756e-06
6.27075e-06
-4.33703e-07
6.55099e-06
-9.85909e-07
-4.21424e-06
-1.69048e-06
-4.69892e-06
-2.15615e-06
-3.89003e-06
-1.90192e-06
-1.68562e-06
6.71286e-08
3.49055e-06
9.67313e-07
1.26808e-05
1.86564e-06
1.62789e-06
1.89585e-06
-2.98244e-06
1.76177e-06
-4.19804e-06
1.73878e-06
-4.13866e-06
1.84014e-06
-3.80269e-06
1.99142e-06
-3.46942e-06
2.1362e-06
-3.19311e-06
2.2583e-06
-2.97262e-06
2.36739e-06
-2.79232e-06
2.48247e-06
-2.63584e-06
2.62782e-06
-2.48997e-06
2.83213e-06
-2.34892e-06
3.11722e-06
-2.22202e-06
3.4774e-06
-2.13403e-06
3.8736e-06
-2.10963e-06
4.26065e-06
-2.14998e-06
4.61752e-06
-2.23039e-06
4.94912e-06
-2.31696e-06
5.27104e-06
-2.38591e-06
5.59644e-06
-2.42639e-06
5.93222e-06
-2.43568e-06
6.27986e-06
-2.41431e-06
6.63732e-06
-2.36343e-06
7.00042e-06
-2.28334e-06
7.36375e-06
-2.17309e-06
7.72116e-06
-2.03028e-06
8.06606e-06
-1.85131e-06
8.39161e-06
-1.63162e-06
8.69101e-06
-1.36598e-06
8.95759e-06
-1.0484e-06
9.18426e-06
-6.71508e-07
9.3618e-06
-2.2501e-07
9.47136e-06
3.01616e-07
9.48385e-06
9.02083e-07
9.37197e-06
1.56236e-06
9.11277e-06
2.2609e-06
8.69133e-06
2.9714e-06
8.10414e-06
3.66738e-06
7.36194e-06
4.32976e-06
6.49237e-06
4.95732e-06
5.54469e-06
5.58357e-06
4.6002e-06
6.31427e-06
3.7944e-06
7.43873e-06
3.35843e-06
9.86118e-06
2.93719e-06
1.53866e-05
5.78108e-07
1.75029e-05
-2.80456e-06
9.90425e-06
-4.12459e-06
2.78741e-06
-4.81473e-06
9.64567e-07
-5.25732e-06
4.70788e-07
-5.57207e-06
3.36435e-07
-5.80447e-06
2.80814e-07
-5.97734e-06
2.24312e-07
-6.10531e-06
1.46387e-07
-6.19838e-06
4.52819e-08
-6.26387e-06
-7.49906e-08
-6.30709e-06
-2.08828e-07
-6.33279e-06
-3.5154e-07
-6.345e-06
-4.98566e-07
-6.34834e-06
-6.44507e-07
-6.34844e-06
-7.84189e-07
-6.35217e-06
-9.13177e-07
-6.36782e-06
-1.02845e-06
-6.40525e-06
-1.12895e-06
-6.47629e-06
-1.21556e-06
-6.59543e-06
-1.28989e-06
-6.78035e-06
-1.35094e-06
-7.0501e-06
-1.38842e-06
-7.4158e-06
-1.37146e-06
-7.85507e-06
-1.23197e-06
-8.26072e-06
-8.45992e-07
-8.37628e-06
-4.92011e-08
-7.81319e-06
1.25714e-06
-6.24115e-06
2.95591e-06
-3.86196e-06
4.34621e-06
-1.89198e-06
4.03448e-06
-7.86048e-07
1.97252e-06
-4.62643e-07
-3.77716e-07
-8.88561e-07
-1.89607e-06
-1.60229e-06
-2.49052e-06
-2.00242e-06
-2.57833e-06
-2.05486e-06
-2.56287e-06
-1.84419e-06
-2.56707e-06
-1.43099e-06
-2.57533e-06
-8.75371e-07
-2.57208e-06
-2.23408e-07
-2.58631e-06
4.82395e-07
-2.75302e-06
1.0803e-06
-3.21342e-06
1.32434e-06
-3.74506e-06
1.21849e-06
-4.12049e-06
8.65465e-07
-4.20835e-06
5.07704e-07
-3.2898e-06
6.77846e-06
-5.47322e-07
7.09831e-06
-1.25608e-06
-3.50548e-06
-2.07967e-06
-3.87534e-06
-2.78417e-06
-3.18553e-06
-2.76431e-06
-1.70549e-06
-9.34388e-07
1.66063e-06
1.88523e-06
9.86115e-06
2.97493e-06
5.3819e-07
2.77531e-06
-2.78282e-06
2.32648e-06
-3.74921e-06
2.01121e-06
-3.82339e-06
1.84373e-06
-3.63521e-06
1.75902e-06
-3.38472e-06
1.71176e-06
-3.14586e-06
1.68601e-06
-2.94687e-06
1.68422e-06
-2.79053e-06
1.71686e-06
-2.66849e-06
1.79754e-06
-2.57065e-06
1.94004e-06
-2.49141e-06
2.15226e-06
-2.43425e-06
2.42795e-06
-2.40972e-06
2.74637e-06
-2.42804e-06
3.08332e-06
-2.48693e-06
3.4258e-06
-2.57288e-06
3.77243e-06
-2.66358e-06
4.12809e-06
-2.74158e-06
4.49663e-06
-2.79494e-06
4.87871e-06
-2.81775e-06
5.27217e-06
-2.80778e-06
5.67316e-06
-2.76441e-06
6.07658e-06
-2.68676e-06
6.4764e-06
-2.57291e-06
6.86571e-06
-2.41959e-06
7.23679e-06
-2.2224e-06
7.5815e-06
-1.97633e-06
7.89208e-06
-1.67656e-06
8.16237e-06
-1.31869e-06
8.38897e-06
-8.98107e-07
8.57207e-06
-4.08112e-07
8.70557e-06
1.68115e-07
8.77009e-06
8.3757e-07
8.73617e-06
1.59627e-06
8.57278e-06
2.4243e-06
8.25457e-06
3.2896e-06
7.76844e-06
4.15351e-06
7.11815e-06
4.98005e-06
6.32714e-06
5.74833e-06
5.44167e-06
6.46903e-06
4.53908e-06
7.21686e-06
3.7513e-06
8.22651e-06
3.34093e-06
1.02715e-05
3.25727e-06
1.54702e-05
1.65345e-06
1.91067e-05
-1.82503e-06
1.33827e-05
-3.60702e-06
4.56941e-06
-4.4188e-06
1.77635e-06
-4.93845e-06
9.9044e-07
-5.32036e-06
7.18341e-07
-5.61656e-06
5.77009e-07
-5.85006e-06
4.57817e-07
-6.03547e-06
3.31796e-07
-6.18394e-06
1.93756e-07
-6.30431e-06
4.53792e-08
-6.40379e-06
-1.09348e-07
-6.48948e-06
-2.65852e-07
-6.56786e-06
-4.2019e-07
-6.645e-06
-5.67361e-07
-6.72766e-06
-7.01536e-07
-6.82342e-06
-8.17417e-07
-6.94056e-06
-9.11306e-07
-7.08773e-06
-9.81772e-07
-7.27374e-06
-1.02955e-06
-7.50737e-06
-1.05625e-06
-7.79681e-06
-1.06151e-06
-8.14677e-06
-1.03847e-06
-8.55066e-06
-9.67571e-07
-8.97326e-06
-8.09363e-07
-9.31917e-06
-5.00089e-07
-9.40067e-06
3.23075e-08
-8.95532e-06
8.1178e-07
-7.73288e-06
1.73346e-06
-5.78827e-06
2.4016e-06
-3.91798e-06
2.16419e-06
-2.88653e-06
9.41068e-07
-2.73242e-06
-5.31825e-07
-3.08513e-06
-1.54336e-06
-3.3389e-06
-2.23675e-06
-3.25697e-06
-2.66026e-06
-2.87553e-06
-2.94431e-06
-2.28e-06
-3.1626e-06
-1.52887e-06
-3.32646e-06
-6.74466e-07
-3.42648e-06
2.39944e-07
-3.50072e-06
1.10341e-06
-3.61649e-06
1.66772e-06
-3.77773e-06
1.80639e-06
-3.88373e-06
1.56917e-06
-3.88326e-06
1.05955e-06
-3.69874e-06
4.86529e-07
-2.71678e-06
7.26499e-06
-6.37703e-07
7.73601e-06
-1.32626e-06
-2.81692e-06
-2.06335e-06
-3.13825e-06
-2.76469e-06
-2.48419e-06
-2.97415e-06
-1.49603e-06
-1.70904e-06
3.95513e-07
2.28834e-06
5.86378e-06
3.16241e-06
-3.35881e-07
2.82111e-06
-2.44153e-06
2.27959e-06
-3.20768e-06
1.83899e-06
-3.38279e-06
1.50917e-06
-3.30538e-06
1.25584e-06
-3.13139e-06
1.06015e-06
-2.95017e-06
9.16865e-07
-2.80358e-06
8.27143e-07
-2.70081e-06
7.95364e-07
-2.63671e-06
8.27864e-07
-2.60315e-06
9.3068e-07
-2.59422e-06
1.10693e-06
-2.6105e-06
1.35166e-06
-2.65445e-06
1.65316e-06
-2.72955e-06
1.99699e-06
-2.83076e-06
2.373e-06
-2.94888e-06
2.77357e-06
-3.06416e-06
3.19465e-06
-3.16265e-06
3.63173e-06
-3.23202e-06
4.08016e-06
-3.26618e-06
4.53532e-06
-3.26295e-06
4.99283e-06
-3.22192e-06
5.44786e-06
-3.14179e-06
5.8946e-06
-3.01965e-06
6.32568e-06
-2.85067e-06
6.73178e-06
-2.6285e-06
7.10214e-06
-2.34668e-06
7.42577e-06
-2.00019e-06
7.69376e-06
-1.58668e-06
7.90186e-06
-1.10621e-06
8.05267e-06
-5.58925e-07
8.15289e-06
6.79008e-08
8.20488e-06
7.85581e-07
8.18936e-06
1.61179e-06
8.07634e-06
2.53732e-06
7.83281e-06
3.53314e-06
7.43446e-06
4.55186e-06
6.87435e-06
5.54016e-06
6.16737e-06
6.4553e-06
5.35257e-06
7.28384e-06
4.49879e-06
8.07064e-06
3.72551e-06
8.99979e-06
3.28787e-06
1.07092e-05
3.38206e-06
1.5376e-05
2.35758e-06
2.01312e-05
-7.87135e-07
1.65275e-05
-3.15151e-06
6.93378e-06
-4.05602e-06
2.68086e-06
-4.63685e-06
1.57128e-06
-5.0715e-06
1.15299e-06
-5.41895e-06
9.24457e-07
-5.70388e-06
7.42749e-07
-5.94175e-06
5.69664e-07
-6.14474e-06
3.96743e-07
-6.32301e-06
2.23649e-07
-6.485e-06
5.26423e-08
-6.63814e-06
-1.12713e-07
-6.7902e-06
-2.68126e-07
-6.9488e-06
-4.08764e-07
-7.12103e-06
-5.29303e-07
-7.31431e-06
-6.24143e-07
-7.53566e-06
-6.89949e-07
-7.79111e-06
-7.26322e-07
-8.08502e-06
-7.35642e-07
-8.4196e-06
-7.21677e-07
-8.7939e-06
-6.87204e-07
-9.20155e-06
-6.30814e-07
-9.62551e-06
-5.43612e-07
-1.00281e-05
-4.06732e-07
-1.03349e-05
-1.93373e-07
-1.04217e-05
1.19187e-07
-1.0131e-05
5.21049e-07
-9.32899e-06
9.31451e-07
-8.06699e-06
1.1396e-06
-6.77221e-06
8.69411e-07
-5.89831e-06
6.71672e-08
-5.47961e-06
-9.5052e-07
-5.12764e-06
-1.89533e-06
-4.69963e-06
-2.66476e-06
-4.09547e-06
-3.26441e-06
-3.30574e-06
-3.73404e-06
-2.36857e-06
-4.09976e-06
-1.33165e-06
-4.36338e-06
-2.44119e-07
-4.51401e-06
8.20181e-07
-4.56502e-06
1.69181e-06
-4.48812e-06
2.17848e-06
-4.2644e-06
2.22914e-06
-3.9344e-06
1.88439e-06
-3.53851e-06
1.24419e-06
-3.05854e-06
4.97796e-07
-1.97038e-06
7.76278e-06
-6.7874e-07
8.41475e-06
-1.24956e-06
-2.2461e-06
-1.79053e-06
-2.59727e-06
-2.27345e-06
-2.00127e-06
-2.45753e-06
-1.31195e-06
-1.75636e-06
-3.05655e-07
1.94014e-06
2.16727e-06
2.49289e-06
-8.88626e-07
2.21548e-06
-2.16412e-06
1.75236e-06
-2.74455e-06
1.29176e-06
-2.9222e-06
8.7563e-07
-2.88925e-06
5.18827e-07
-2.77458e-06
2.32105e-07
-2.66344e-06
2.05983e-08
-2.59208e-06
-1.15212e-07
-2.565e-06
-1.7484e-07
-2.57708e-06
-1.5587e-07
-2.62212e-06
-5.31525e-08
-2.69694e-06
1.34932e-07
-2.79858e-06
4.04325e-07
-2.92384e-06
7.43811e-07
-3.06903e-06
1.13969e-06
-3.22663e-06
1.57949e-06
-3.38869e-06
2.04906e-06
-3.53373e-06
2.53816e-06
-3.65175e-06
3.03817e-06
-3.73202e-06
3.5433e-06
-3.77131e-06
4.04989e-06
-3.76955e-06
4.55564e-06
-3.72767e-06
5.05757e-06
-3.64371e-06
5.55106e-06
-3.51313e-06
6.02851e-06
-3.32812e-06
6.47865e-06
-3.07864e-06
6.88697e-06
-2.755e-06
7.23746e-06
-2.35069e-06
7.51575e-06
-1.86497e-06
7.71273e-06
-1.30318e-06
7.82743e-06
-6.73631e-07
7.87314e-06
2.21916e-08
7.86668e-06
7.9204e-07
7.8117e-06
1.66677e-06
7.69178e-06
2.65724e-06
7.47581e-06
3.74911e-06
7.13183e-06
4.89585e-06
6.64126e-06
6.03073e-06
6.00775e-06
7.08881e-06
5.26044e-06
8.03115e-06
4.45745e-06
8.87363e-06
3.70187e-06
9.75537e-06
3.21948e-06
1.11916e-05
3.36404e-06
1.52315e-05
2.7594e-06
2.07358e-05
2.04644e-07
1.90822e-05
-2.63743e-06
9.77585e-06
-3.69776e-06
3.74118e-06
-4.34917e-06
2.22269e-06
-4.83283e-06
1.63665e-06
-5.22471e-06
1.31633e-06
-5.55495e-06
1.07298e-06
-5.84132e-06
8.56041e-07
-6.09741e-06
6.52825e-07
-6.33431e-06
4.60549e-07
-6.5612e-06
2.79533e-07
-6.78579e-06
1.11875e-07
-7.01581e-06
-3.80993e-08
-7.2589e-06
-1.65677e-07
-7.5223e-06
-2.65906e-07
-7.81228e-06
-3.34155e-07
-8.13354e-06
-3.68691e-07
-8.4884e-06
-3.71468e-07
-8.8761e-06
-3.47933e-07
-9.29241e-06
-3.05374e-07
-9.72855e-06
-2.51064e-07
-1.01698e-05
-1.89595e-07
-1.05924e-05
-1.20976e-07
-1.09591e-05
-4.00622e-08
-1.12124e-05
5.99223e-08
-1.12726e-05
1.79435e-07
-1.10518e-05
3.00183e-07
-1.04853e-05
3.65012e-07
-9.60429e-06
2.58581e-07
-8.5861e-06
-1.48778e-07
-7.64301e-06
-8.75926e-07
-6.83384e-06
-1.7597e-06
-6.07891e-06
-2.65026e-06
-5.28122e-06
-3.46245e-06
-4.38059e-06
-4.16505e-06
-3.36293e-06
-4.7517e-06
-2.24583e-06
-5.21686e-06
-1.06283e-06
-5.54638e-06
1.44855e-07
-5.7217e-06
1.26989e-06
-5.69006e-06
2.12813e-06
-5.34636e-06
2.58378e-06
-4.72005e-06
2.58389e-06
-3.93451e-06
2.16124e-06
-3.11585e-06
1.41752e-06
-2.31482e-06
5.30296e-07
-1.08316e-06
8.29308e-06
-6.80378e-07
9.09513e-06
-1.12206e-06
-1.80442e-06
-1.47985e-06
-2.23948e-06
-1.72554e-06
-1.75558e-06
-1.73232e-06
-1.30516e-06
-1.21933e-06
-8.18652e-07
1.08244e-06
-1.34493e-07
1.50077e-06
-1.30696e-06
1.34294e-06
-2.00629e-06
9.56464e-07
-2.35808e-06
4.9147e-07
-2.4572e-06
3.13283e-08
-2.42911e-06
-3.69467e-07
-2.37379e-06
-6.81923e-07
-2.35099e-06
-9.04153e-07
-2.36985e-06
-1.03808e-06
-2.43107e-06
-1.08283e-06
-2.53233e-06
-1.03507e-06
-2.66988e-06
-8.9271e-07
-2.8393e-06
-6.56863e-07
-3.03443e-06
-3.33004e-07
-3.2477e-06
6.72591e-08
-3.4693e-06
5.2171e-07
-3.68108e-06
1.01343e-06
-3.88041e-06
1.52872e-06
-4.04903e-06
2.05655e-06
-4.17958e-06
2.58971e-06
-4.26518e-06
3.12497e-06
-4.30657e-06
3.66178e-06
-4.30636e-06
4.20089e-06
-4.26678e-06
4.74137e-06
-4.1842e-06
5.2798e-06
-4.05157e-06
5.80806e-06
-3.85638e-06
6.31228e-06
-3.58286e-06
6.7734e-06
-3.21612e-06
7.16939e-06
-2.74668e-06
7.47931e-06
-2.17489e-06
7.68817e-06
-1.51204e-06
7.79102e-06
-7.76479e-07
7.79842e-06
1.47913e-08
7.72919e-06
8.61273e-07
7.60686e-06
1.78909e-06
7.43704e-06
2.82705e-06
7.20304e-06
3.98311e-06
6.87433e-06
5.22456e-06
6.42427e-06
6.48078e-06
5.8451e-06
7.66798e-06
5.15476e-06
8.72149e-06
4.39955e-06
9.62884e-06
3.66545e-06
1.04895e-05
3.14162e-06
1.17154e-05
3.25105e-06
1.51221e-05
2.95447e-06
2.10324e-05
9.71344e-07
2.10653e-05
-2.0592e-06
1.28064e-05
-3.34908e-06
5.03106e-06
-4.08048e-06
2.95409e-06
-4.61131e-06
2.16748e-06
-5.04253e-06
1.74756e-06
-5.4131e-06
1.44355e-06
-5.74427e-06
1.1872e-06
-6.05123e-06
9.59792e-07
-6.34592e-06
7.55231e-07
-6.63765e-06
5.71264e-07
-6.93405e-06
4.08278e-07
-7.24139e-06
2.69243e-07
-7.56639e-06
1.59316e-07
-7.916e-06
8.37104e-08
-8.29427e-06
4.41109e-08
-8.70224e-06
3.92779e-08
-9.13769e-06
6.39834e-08
-9.59451e-06
1.08893e-07
-1.00616e-05
1.61729e-07
-1.05229e-05
2.10266e-07
-1.09573e-05
2.44739e-07
-1.13373e-05
2.59001e-07
-1.1628e-05
2.50712e-07
-1.17864e-05
2.18328e-07
-1.17628e-05
1.55828e-07
-1.15079e-05
4.5212e-08
-1.09895e-05
-1.53299e-07
-1.02281e-05
-5.0287e-07
-9.32048e-06
-1.05639e-06
-8.39198e-06
-1.80443e-06
-7.48275e-06
-2.66893e-06
-6.5697e-06
-3.56331e-06
-5.6103e-06
-4.42185e-06
-4.57264e-06
-5.2027e-06
-3.44695e-06
-5.87739e-06
-2.24432e-06
-6.41949e-06
-9.91571e-07
-6.79913e-06
2.69547e-07
-6.98281e-06
1.43374e-06
-6.85425e-06
2.32652e-06
-6.23914e-06
2.81797e-06
-5.21149e-06
2.8266e-06
-3.94314e-06
2.37329e-06
-2.66254e-06
1.56877e-06
-1.5103e-06
5.6767e-07
-8.20661e-08
8.86075e-06
-6.57207e-07
9.75234e-06
-9.94681e-07
-1.46695e-06
-1.22656e-06
-2.0076e-06
-1.32145e-06
-1.66069e-06
-1.20048e-06
-1.42613e-06
-7.55175e-07
-1.26396e-06
2.68313e-07
-1.15798e-06
5.50359e-07
-1.58901e-06
3.9988e-07
-1.85581e-06
1.42479e-08
-1.97244e-06
-4.56589e-07
-1.98636e-06
-9.06446e-07
-1.97926e-06
-1.28346e-06
-1.99678e-06
-1.57382e-06
-2.06063e-06
-1.77026e-06
-2.1734e-06
-1.86809e-06
-2.33324e-06
-1.86394e-06
-2.53648e-06
-1.75691e-06
-2.77691e-06
-1.55085e-06
-3.04536e-06
-1.25499e-06
-3.33029e-06
-8.83524e-07
-3.61917e-06
-4.53026e-07
-3.89979e-06
2.68658e-08
-4.16097e-06
5.37664e-07
-4.39121e-06
1.06294e-06
-4.5743e-06
1.59661e-06
-4.71324e-06
2.13575e-06
-4.80432e-06
2.68044e-06
-4.85126e-06
3.23308e-06
-4.859e-06
3.79689e-06
-4.83059e-06
4.37227e-06
-4.75958e-06
4.95661e-06
-4.6359e-06
5.54068e-06
-4.44045e-06
6.10743e-06
-4.14961e-06
6.6329e-06
-3.74159e-06
7.0887e-06
-3.20248e-06
7.44715e-06
-2.53334e-06
7.68744e-06
-1.75233e-06
7.8004e-06
-8.89444e-07
7.79197e-06
2.32267e-08
7.68193e-06
9.71312e-07
7.50018e-06
1.97085e-06
7.26964e-06
3.05759e-06
6.9929e-06
4.25986e-06
6.65041e-06
5.56705e-06
6.21487e-06
6.91632e-06
5.67051e-06
8.21234e-06
5.02493e-06
9.36706e-06
4.31312e-06
1.03407e-05
3.60514e-06
1.11974e-05
3.05483e-06
1.22657e-05
3.08631e-06
1.50906e-05
3.01601e-06
2.11027e-05
1.50315e-06
2.25782e-05
-1.48733e-06
1.57969e-05
-3.03878e-06
6.58251e-06
-3.84246e-06
3.75778e-06
-4.41328e-06
2.73829e-06
-4.87755e-06
2.21183e-06
-5.28329e-06
1.84929e-06
-5.65514e-06
1.55906e-06
-6.00981e-06
1.31446e-06
-6.3597e-06
1.10512e-06
-6.71397e-06
9.25537e-07
-7.07964e-06
7.7395e-07
-7.46239e-06
6.5199e-07
-7.86656e-06
5.63487e-07
-8.29469e-06
5.11846e-07
-8.74783e-06
4.97249e-07
-9.2233e-06
5.14741e-07
-9.71316e-06
5.53847e-07
-1.02045e-05
6.00205e-07
-1.06806e-05
6.37893e-07
-1.11226e-05
6.52273e-07
-1.15093e-05
6.31395e-07
-1.18172e-05
5.66912e-07
-1.20201e-05
4.53555e-07
-1.20884e-05
2.8671e-07
-1.19917e-05
5.90951e-08
-1.17028e-05
-2.43689e-07
-1.12108e-05
-6.4528e-07
-1.05372e-05
-1.1765e-06
-9.73704e-06
-1.85655e-06
-8.86969e-06
-2.67177e-06
-7.96178e-06
-3.57684e-06
-7.00938e-06
-4.51571e-06
-5.99509e-06
-5.43615e-06
-4.90423e-06
-6.29356e-06
-3.73412e-06
-7.04751e-06
-2.49714e-06
-7.65647e-06
-1.2213e-06
-8.07497e-06
4.82613e-08
-8.25237e-06
1.24606e-06
-8.05205e-06
2.21765e-06
-7.21074e-06
2.81039e-06
-5.80423e-06
2.8975e-06
-4.03025e-06
2.47384e-06
-2.23888e-06
1.66608e-06
-7.02539e-07
5.99016e-07
9.84998e-07
9.45977e-06
-6.21965e-07
1.03743e-05
-8.89289e-07
-1.19962e-06
-1.05086e-06
-1.84603e-06
-1.08123e-06
-1.63032e-06
-9.51735e-07
-1.55563e-06
-6.68321e-07
-1.54737e-06
-2.8892e-07
-1.53738e-06
-2.78769e-07
-1.59916e-06
-5.3814e-07
-1.59644e-06
-9.51145e-07
-1.55944e-06
-1.3995e-06
-1.53801e-06
-1.81114e-06
-1.56761e-06
-2.14777e-06
-1.66015e-06
-2.39273e-06
-1.81567e-06
-2.53673e-06
-2.0294e-06
-2.57483e-06
-2.29515e-06
-2.50696e-06
-2.60435e-06
-2.33877e-06
-2.9451e-06
-2.08113e-06
-3.303e-06
-1.74846e-06
-3.66296e-06
-1.35663e-06
-4.011e-06
-9.21032e-07
-4.33539e-06
-4.54659e-07
-4.62735e-06
3.51243e-08
-4.88099e-06
5.45772e-07
-5.08495e-06
1.06637e-06
-5.23384e-06
1.59756e-06
-5.33551e-06
2.14224e-06
-5.39594e-06
2.7051e-06
-5.42186e-06
3.29066e-06
-5.41614e-06
3.89984e-06
-5.36876e-06
4.53056e-06
-5.26662e-06
5.17197e-06
-5.08187e-06
5.80367e-06
-4.7813e-06
6.3971e-06
-4.33502e-06
6.91798e-06
-3.72336e-06
7.33239e-06
-2.94775e-06
7.61428e-06
-2.03422e-06
7.75076e-06
-1.02592e-06
7.74528e-06
2.87031e-08
7.61699e-06
1.0996e-06
7.39716e-06
2.19067e-06
7.11752e-06
3.33724e-06
6.79604e-06
4.58133e-06
6.4276e-06
5.9355e-06
5.99091e-06
7.353e-06
5.46745e-06
8.7358e-06
4.85743e-06
9.97708e-06
4.18623e-06
1.10119e-05
3.51014e-06
1.18735e-05
2.95204e-06
1.28238e-05
2.89546e-06
1.51471e-05
2.98824e-06
2.10099e-05
1.86676e-06
2.36997e-05
-9.30462e-07
1.85941e-05
-2.77874e-06
8.43078e-06
-3.63884e-06
4.61787e-06
-4.2399e-06
3.33936e-06
-4.73057e-06
2.7025e-06
-5.16622e-06
2.28494e-06
-5.57411e-06
1.96694e-06
-5.97203e-06
1.71238e-06
-6.37241e-06
1.50551e-06
-6.78368e-06
1.33681e-06
-7.21142e-06
1.20169e-06
-7.65931e-06
1.09987e-06
-8.12902e-06
1.0332e-06
-8.61957e-06
1.0024e-06
-9.12645e-06
1.00413e-06
-9.64126e-06
1.02956e-06
-1.01522e-05
1.06477e-06
-1.06448e-05
1.09285e-06
-1.11033e-05
1.0964e-06
-1.15109e-05
1.05979e-06