/*--------------------------------*- C++ -*----------------------------------*\
| =========                 |                                                 |
| \\      /  F ield         | OpenFOAM: The Open Source CFD Toolbox           |
|  \\    /   O peration     | Version:  4.1                                   |
|   \\  /    A nd           | Web:      www.OpenFOAM.org                      |
|    \\/     M anipulation  |                                                 |
\*---------------------------------------------------------------------------*/
FoamFile
{
    version     2.0;
    format      ascii;
    class       volScalarField;
    location    "1920";
    object      p;
}
// * * * * * * * * * * * * * * * * * * * * * * * * * * * * * * * * * * * * * //

dimensions      [0 2 -2 0 0 0 0];

internalField   nonuniform List<scalar> 
5000
(
0
-1.49666e-05
-8.85586e-06
1.64167e-05
4.59851e-05
6.53756e-05
6.80652e-05
4.85509e-05
1.40071e-05
-2.37426e-05
-5.64475e-05
-8.04334e-05
-9.52247e-05
-0.000102144
-0.00010305
-0.000100043
-9.50406e-05
-8.9507e-05
-8.48749e-05
-8.68326e-05
-9.82093e-05
-0.000115928
-0.000129248
-0.000138939
-0.000145973
-0.00015083
-0.000153806
-0.000155125
-0.00015497
-0.00015356
-0.000151119
-0.000147932
-0.000144273
-0.0001404
-0.000136537
-0.000132859
-0.000129504
-0.000126581
-0.000124165
-0.000122288
-0.000120948
-0.000120117
-0.000119753
-0.000119807
-0.000120217
-0.000120909
-0.000121786
-0.000122715
-0.000123569
-0.000124091
-0.000124699
-0.000126814
-0.000127601
-0.000127563
-0.000127901
-0.000132071
-0.000150081
-0.000175914
-0.000185909
-0.000196843
-0.000207808
-0.000200903
-0.000187183
-0.000173921
-0.000163247
-0.000154461
-0.000146799
-0.000139913
-0.000133636
-0.000127903
-0.000122663
-0.00011785
-0.000113366
-0.000109031
-0.000104575
-9.97954e-05
-9.46682e-05
-8.96333e-05
-8.45708e-05
-8.15745e-05
-8.26034e-05
-8.97183e-05
-9.81828e-05
-0.000101606
-0.000102283
-8.74264e-05
-6.08248e-05
-3.55258e-05
-1.70237e-05
-3.91939e-06
6.06685e-06
1.41041e-05
2.01186e-05
2.36777e-05
2.38162e-05
1.96839e-05
1.30114e-05
8.41301e-06
9.64231e-06
1.41967e-05
-0.0984165
-0.0984361
-0.0984352
-0.0984139
-0.098387
-0.0983685
-0.0983659
-0.0983832
-0.0984136
-0.0984471
-0.098476
-0.0984964
-0.0985078
-0.0985113
-0.0985087
-0.0985017
-0.0984919
-0.0984798
-0.098465
-0.0984561
-0.0984666
-0.0984832
-0.0984973
-0.0985087
-0.0985177
-0.0985244
-0.0985289
-0.0985316
-0.0985325
-0.0985319
-0.09853
-0.0985273
-0.0985239
-0.0985202
-0.0985163
-0.0985125
-0.0985089
-0.0985057
-0.0985028
-0.0985004
-0.0984985
-0.098497
-0.098496
-0.0984954
-0.0984953
-0.0984956
-0.0984962
-0.0984972
-0.0984986
-0.0985003
-0.0985023
-0.0985036
-0.0985063
-0.0985101
-0.0985153
-0.098524
-0.0985409
-0.0985639
-0.0985631
-0.0985809
-0.0986005
-0.0985903
-0.0985703
-0.0985501
-0.0985341
-0.098522
-0.0985126
-0.098505
-0.0984984
-0.0984924
-0.0984867
-0.0984811
-0.0984757
-0.0984704
-0.0984654
-0.0984607
-0.0984563
-0.0984521
-0.098448
-0.0984444
-0.0984416
-0.09844
-0.0984421
-0.0984513
-0.0984629
-0.0984594
-0.0984427
-0.0984254
-0.098411
-0.0983999
-0.0983915
-0.0983849
-0.09838
-0.0983768
-0.0983756
-0.0983764
-0.0983777
-0.0983759
-0.0983697
-0.0983624
-0.196851
-0.196867
-0.196865
-0.196848
-0.196824
-0.196809
-0.196808
-0.196824
-0.196852
-0.196882
-0.196907
-0.196925
-0.196933
-0.196934
-0.196928
-0.196918
-0.196905
-0.196889
-0.196872
-0.196863
-0.196875
-0.19689
-0.196904
-0.196916
-0.196926
-0.196933
-0.196938
-0.196941
-0.196941
-0.19694
-0.196938
-0.196935
-0.196932
-0.196928
-0.196924
-0.19692
-0.196916
-0.196913
-0.19691
-0.196908
-0.196906
-0.196905
-0.196904
-0.196904
-0.196904
-0.196905
-0.196906
-0.196907
-0.196909
-0.19691
-0.196912
-0.196914
-0.196917
-0.19692
-0.196924
-0.19693
-0.196944
-0.196963
-0.196964
-0.196984
-0.19701
-0.197001
-0.196982
-0.196961
-0.196944
-0.196933
-0.196924
-0.196917
-0.19691
-0.196905
-0.196899
-0.196894
-0.196889
-0.196883
-0.196878
-0.196873
-0.196869
-0.196864
-0.196859
-0.196854
-0.196848
-0.196841
-0.196831
-0.196831
-0.196838
-0.196842
-0.196838
-0.196829
-0.19682
-0.196812
-0.196805
-0.196799
-0.196795
-0.196791
-0.196789
-0.196788
-0.196786
-0.196781
-0.196771
-0.196762
-0.295286
-0.295298
-0.295292
-0.295279
-0.295262
-0.295251
-0.295253
-0.295271
-0.295297
-0.295325
-0.295347
-0.295361
-0.295365
-0.295362
-0.295353
-0.295341
-0.295326
-0.295309
-0.295293
-0.295286
-0.295296
-0.295308
-0.295319
-0.29533
-0.295338
-0.295344
-0.295348
-0.29535
-0.29535
-0.295348
-0.295345
-0.295342
-0.295338
-0.295334
-0.29533
-0.295326
-0.295322
-0.295319
-0.295316
-0.295314
-0.295312
-0.295311
-0.295311
-0.295311
-0.295311
-0.295312
-0.295313
-0.295315
-0.295316
-0.295318
-0.29532
-0.295322
-0.295324
-0.295326
-0.295328
-0.295331
-0.295337
-0.295342
-0.295346
-0.295363
-0.29539
-0.295393
-0.295381
-0.295365
-0.295352
-0.295342
-0.295335
-0.295328
-0.295323
-0.295317
-0.295312
-0.295307
-0.295302
-0.295297
-0.295292
-0.295287
-0.295282
-0.295277
-0.295271
-0.295266
-0.295259
-0.29525
-0.295238
-0.295232
-0.295235
-0.295239
-0.29524
-0.295236
-0.29523
-0.295224
-0.295218
-0.295213
-0.295208
-0.295205
-0.295202
-0.2952
-0.295197
-0.295191
-0.295181
-0.295172
-0.393717
-0.393727
-0.393717
-0.393707
-0.393696
-0.393691
-0.393699
-0.39372
-0.393746
-0.393772
-0.393791
-0.3938
-0.393801
-0.393795
-0.393783
-0.393768
-0.393752
-0.393734
-0.393718
-0.393711
-0.393718
-0.393727
-0.393736
-0.393744
-0.39375
-0.393755
-0.393758
-0.393759
-0.393758
-0.393755
-0.393752
-0.393748
-0.393744
-0.39374
-0.393735
-0.393731
-0.393727
-0.393724
-0.393721
-0.393719
-0.393717
-0.393716
-0.393716
-0.393716
-0.393716
-0.393717
-0.393719
-0.39372
-0.393722
-0.393724
-0.393726
-0.393727
-0.393728
-0.393729
-0.393728
-0.393727
-0.393723
-0.393714
-0.393714
-0.39373
-0.393759
-0.393772
-0.393772
-0.393764
-0.393756
-0.39375
-0.393744
-0.393739
-0.393734
-0.393729
-0.393725
-0.39372
-0.393715
-0.39371
-0.393705
-0.3937
-0.393695
-0.39369
-0.393684
-0.393678
-0.393671
-0.393663
-0.393653
-0.393647
-0.393646
-0.393648
-0.393648
-0.393646
-0.393641
-0.393636
-0.393631
-0.393626
-0.393621
-0.393618
-0.393614
-0.393612
-0.393608
-0.393603
-0.393594
-0.393586
-0.492141
-0.49215
-0.492142
-0.492134
-0.492128
-0.49213
-0.492144
-0.492169
-0.492197
-0.492221
-0.492237
-0.492243
-0.492239
-0.492229
-0.492214
-0.492197
-0.492179
-0.49216
-0.492141
-0.492135
-0.492139
-0.492145
-0.492151
-0.492158
-0.492163
-0.492166
-0.492168
-0.492168
-0.492166
-0.492163
-0.492159
-0.492155
-0.49215
-0.492145
-0.492141
-0.492136
-0.492132
-0.492129
-0.492126
-0.492124
-0.492122
-0.492121
-0.49212
-0.49212
-0.492121
-0.492122
-0.492123
-0.492125
-0.492126
-0.492128
-0.49213
-0.492131
-0.492131
-0.492131
-0.492129
-0.492124
-0.492116
-0.492102
-0.492093
-0.492111
-0.49214
-0.492158
-0.492164
-0.492164
-0.49216
-0.492156
-0.492152
-0.492148
-0.492144
-0.49214
-0.492136
-0.492132
-0.492127
-0.492123
-0.492118
-0.492113
-0.492108
-0.492102
-0.492097
-0.492091
-0.492084
-0.492077
-0.49207
-0.492064
-0.492062
-0.492061
-0.49206
-0.492057
-0.492053
-0.492048
-0.492043
-0.492038
-0.492034
-0.49203
-0.492026
-0.492023
-0.49202
-0.492014
-0.492007
-0.492
-0.590561
-0.590565
-0.590564
-0.590558
-0.590558
-0.590567
-0.590587
-0.590616
-0.590646
-0.590669
-0.590682
-0.590684
-0.590677
-0.590663
-0.590646
-0.590626
-0.590605
-0.590581
-0.59056
-0.590555
-0.590557
-0.590561
-0.590566
-0.590571
-0.590575
-0.590577
-0.590578
-0.590577
-0.590574
-0.59057
-0.590566
-0.590561
-0.590556
-0.590551
-0.590546
-0.590542
-0.590538
-0.590534
-0.590531
-0.590529
-0.590527
-0.590526
-0.590526
-0.590526
-0.590526
-0.590527
-0.590528
-0.59053
-0.590531
-0.590532
-0.590534
-0.590534
-0.590534
-0.590533
-0.590531
-0.590526
-0.590519
-0.590507
-0.590499
-0.590514
-0.590538
-0.590555
-0.590563
-0.590565
-0.590565
-0.590563
-0.59056
-0.590557
-0.590554
-0.59055
-0.590547
-0.590543
-0.590539
-0.590534
-0.59053
-0.590525
-0.59052
-0.590515
-0.590509
-0.590504
-0.590498
-0.590491
-0.590486
-0.590481
-0.590477
-0.590475
-0.590472
-0.590469
-0.590464
-0.59046
-0.590455
-0.59045
-0.590446
-0.590442
-0.590438
-0.590434
-0.590431
-0.590426
-0.59042
-0.590414
-0.688978
-0.688979
-0.688981
-0.688981
-0.688985
-0.689
-0.689026
-0.689059
-0.68909
-0.689112
-0.689122
-0.689121
-0.689111
-0.689095
-0.689074
-0.689052
-0.689026
-0.688998
-0.688977
-0.688972
-0.688972
-0.688974
-0.688978
-0.688982
-0.688985
-0.688987
-0.688987
-0.688985
-0.688981
-0.688977
-0.688973
-0.688967
-0.688962
-0.688957
-0.688952
-0.688948
-0.688944
-0.68894
-0.688937
-0.688935
-0.688934
-0.688933
-0.688932
-0.688932
-0.688933
-0.688933
-0.688934
-0.688936
-0.688937
-0.688938
-0.688939
-0.688939
-0.688939
-0.688938
-0.688935
-0.688931
-0.688926
-0.688921
-0.688918
-0.688928
-0.688945
-0.688958
-0.688965
-0.688969
-0.688969
-0.688969
-0.688967
-0.688965
-0.688962
-0.688959
-0.688956
-0.688953
-0.688949
-0.688945
-0.688941
-0.688936
-0.688932
-0.688927
-0.688922
-0.688916
-0.688911
-0.688905
-0.6889
-0.688895
-0.688892
-0.688888
-0.688885
-0.688881
-0.688876
-0.688871
-0.688867
-0.688862
-0.688857
-0.688853
-0.688849
-0.688846
-0.688842
-0.688838
-0.688833
-0.688828
-0.787396
-0.787396
-0.787399
-0.787402
-0.78741
-0.787428
-0.787458
-0.787495
-0.787527
-0.787548
-0.787556
-0.787553
-0.78754
-0.787521
-0.787498
-0.787472
-0.78744
-0.78741
-0.78739
-0.787385
-0.787383
-0.787385
-0.787388
-0.787391
-0.787393
-0.787394
-0.787394
-0.787391
-0.787388
-0.787383
-0.787378
-0.787373
-0.787368
-0.787363
-0.787358
-0.787354
-0.78735
-0.787347
-0.787344
-0.787343
-0.787341
-0.78734
-0.78734
-0.78734
-0.787341
-0.787341
-0.787342
-0.787343
-0.787344
-0.787345
-0.787345
-0.787346
-0.787345
-0.787344
-0.787342
-0.78734
-0.787337
-0.787335
-0.787336
-0.787343
-0.787354
-0.787364
-0.78737
-0.787373
-0.787375
-0.787374
-0.787373
-0.787372
-0.78737
-0.787367
-0.787365
-0.787362
-0.787358
-0.787355
-0.787351
-0.787347
-0.787343
-0.787338
-0.787333
-0.787328
-0.787323
-0.787318
-0.787314
-0.787309
-0.787305
-0.787301
-0.787297
-0.787293
-0.787288
-0.787283
-0.787278
-0.787273
-0.787269
-0.787264
-0.78726
-0.787257
-0.787253
-0.787249
-0.787245
-0.787241
-0.885813
-0.885813
-0.885817
-0.885821
-0.88583
-0.88585
-0.885882
-0.885921
-0.885954
-0.885974
-0.88598
-0.885976
-0.885962
-0.885939
-0.885913
-0.885881
-0.885846
-0.885817
-0.885799
-0.885794
-0.885792
-0.885793
-0.885795
-0.885798
-0.885799
-0.8858
-0.885799
-0.885796
-0.885793
-0.885788
-0.885783
-0.885778
-0.885773
-0.885769
-0.885764
-0.88576
-0.885757
-0.885755
-0.885753
-0.885751
-0.88575
-0.88575
-0.88575
-0.88575
-0.885751
-0.885751
-0.885752
-0.885753
-0.885754
-0.885754
-0.885755
-0.885755
-0.885754
-0.885753
-0.885752
-0.885751
-0.885749
-0.885749
-0.885751
-0.885757
-0.885764
-0.885771
-0.885776
-0.885779
-0.88578
-0.885781
-0.88578
-0.885779
-0.885777
-0.885775
-0.885773
-0.88577
-0.885768
-0.885764
-0.885761
-0.885757
-0.885753
-0.885749
-0.885745
-0.88574
-0.885736
-0.885731
-0.885726
-0.885722
-0.885718
-0.885713
-0.885709
-0.885704
-0.8857
-0.885695
-0.88569
-0.885685
-0.88568
-0.885675
-0.885671
-0.885668
-0.885665
-0.885661
-0.885657
-0.885654
-0.984227
-0.98423
-0.984232
-0.984234
-0.984243
-0.984262
-0.984295
-0.984335
-0.984367
-0.984386
-0.984393
-0.984387
-0.98437
-0.984346
-0.984315
-0.98428
-0.984246
-0.984219
-0.984206
-0.984201
-0.984199
-0.984199
-0.984201
-0.984203
-0.984204
-0.984204
-0.984203
-0.9842
-0.984197
-0.984193
-0.984188
-0.984183
-0.984179
-0.984175
-0.984171
-0.984168
-0.984166
-0.984164
-0.984163
-0.984162
-0.984161
-0.984161
-0.984161
-0.984162
-0.984163
-0.984163
-0.984164
-0.984165
-0.984165
-0.984166
-0.984166
-0.984166
-0.984166
-0.984165
-0.984164
-0.984163
-0.984163
-0.984164
-0.984166
-0.98417
-0.984175
-0.98418
-0.984184
-0.984186
-0.984187
-0.984188
-0.984188
-0.984187
-0.984185
-0.984184
-0.984182
-0.984179
-0.984177
-0.984174
-0.984171
-0.984167
-0.984164
-0.98416
-0.984156
-0.984152
-0.984148
-0.984143
-0.984139
-0.984134
-0.98413
-0.984126
-0.984121
-0.984116
-0.984111
-0.984106
-0.984101
-0.984096
-0.984091
-0.984087
-0.984082
-0.984079
-0.984076
-0.984072
-0.984069
-0.984067
-1.08263
-1.08264
-1.08264
-1.08264
-1.08265
-1.08266
-1.08269
-1.08273
-1.08276
-1.08278
-1.08279
-1.08278
-1.08276
-1.08274
-1.08271
-1.08267
-1.08264
-1.08262
-1.08261
-1.08261
-1.0826
-1.0826
-1.08261
-1.08261
-1.08261
-1.08261
-1.08261
-1.0826
-1.0826
-1.0826
-1.08259
-1.08259
-1.08259
-1.08258
-1.08258
-1.08258
-1.08258
-1.08257
-1.08257
-1.08257
-1.08257
-1.08257
-1.08258
-1.08258
-1.08258
-1.08258
-1.08258
-1.08258
-1.08258
-1.08258
-1.08258
-1.08258
-1.08258
-1.08258
-1.08258
-1.08258
-1.08258
-1.08258
-1.08258
-1.08258
-1.08259
-1.08259
-1.08259
-1.08259
-1.0826
-1.0826
-1.0826
-1.0826
-1.08259
-1.08259
-1.08259
-1.08259
-1.08259
-1.08258
-1.08258
-1.08258
-1.08257
-1.08257
-1.08257
-1.08256
-1.08256
-1.08256
-1.08255
-1.08255
-1.08254
-1.08254
-1.08253
-1.08253
-1.08252
-1.08252
-1.08251
-1.08251
-1.0825
-1.0825
-1.08249
-1.08249
-1.08249
-1.08248
-1.08248
-1.08248
-1.18102
-1.18103
-1.18103
-1.18103
-1.18104
-1.18105
-1.18108
-1.18111
-1.18113
-1.18115
-1.18116
-1.18115
-1.18114
-1.18111
-1.18109
-1.18106
-1.18104
-1.18102
-1.18101
-1.18101
-1.18101
-1.18101
-1.18101
-1.18101
-1.18101
-1.18101
-1.18101
-1.18101
-1.181
-1.181
-1.181
-1.18099
-1.18099
-1.18099
-1.18099
-1.18099
-1.18099
-1.18099
-1.18099
-1.18099
-1.18099
-1.18099
-1.18099
-1.18099
-1.18099
-1.18099
-1.18099
-1.181
-1.181
-1.181
-1.181
-1.181
-1.181
-1.181
-1.18099
-1.18099
-1.18099
-1.181
-1.181
-1.181
-1.181
-1.181
-1.181
-1.18101
-1.18101
-1.18101
-1.18101
-1.18101
-1.181
-1.181
-1.181
-1.181
-1.181
-1.18099
-1.18099
-1.18099
-1.18099
-1.18098
-1.18098
-1.18098
-1.18097
-1.18097
-1.18096
-1.18096
-1.18095
-1.18095
-1.18095
-1.18094
-1.18094
-1.18093
-1.18092
-1.18092
-1.18091
-1.18091
-1.18091
-1.1809
-1.1809
-1.1809
-1.18089
-1.18089
-1.27939
-1.27941
-1.27941
-1.27941
-1.27942
-1.27943
-1.27946
-1.27948
-1.2795
-1.27951
-1.27951
-1.27951
-1.2795
-1.27949
-1.27947
-1.27945
-1.27943
-1.27942
-1.27942
-1.27941
-1.27941
-1.27941
-1.27941
-1.27941
-1.27941
-1.27941
-1.27941
-1.27941
-1.27941
-1.2794
-1.2794
-1.2794
-1.2794
-1.2794
-1.2794
-1.2794
-1.2794
-1.2794
-1.2794
-1.27941
-1.27941
-1.27941
-1.27941
-1.27941
-1.27941
-1.27941
-1.27941
-1.27941
-1.27941
-1.27941
-1.27941
-1.27941
-1.27941
-1.27941
-1.27941
-1.27941
-1.27941
-1.27941
-1.27941
-1.27941
-1.27942
-1.27942
-1.27942
-1.27942
-1.27942
-1.27942
-1.27942
-1.27942
-1.27942
-1.27941
-1.27941
-1.27941
-1.27941
-1.27941
-1.2794
-1.2794
-1.2794
-1.27939
-1.27939
-1.27939
-1.27938
-1.27938
-1.27938
-1.27937
-1.27937
-1.27936
-1.27936
-1.27935
-1.27935
-1.27934
-1.27934
-1.27933
-1.27933
-1.27932
-1.27932
-1.27931
-1.27931
-1.27931
-1.27931
-1.2793
-1.37776
-1.37778
-1.37779
-1.37779
-1.37779
-1.3778
-1.37783
-1.37784
-1.37786
-1.37786
-1.37787
-1.37787
-1.37787
-1.37786
-1.37785
-1.37784
-1.37783
-1.37782
-1.37782
-1.37782
-1.37782
-1.37782
-1.37782
-1.37781
-1.37781
-1.37781
-1.37781
-1.37781
-1.37781
-1.37781
-1.37781
-1.37781
-1.37781
-1.37781
-1.37781
-1.37782
-1.37782
-1.37782
-1.37782
-1.37782
-1.37783
-1.37783
-1.37783
-1.37783
-1.37783
-1.37783
-1.37783
-1.37783
-1.37783
-1.37783
-1.37783
-1.37783
-1.37783
-1.37783
-1.37783
-1.37783
-1.37783
-1.37783
-1.37783
-1.37783
-1.37783
-1.37783
-1.37783
-1.37783
-1.37783
-1.37783
-1.37783
-1.37783
-1.37783
-1.37783
-1.37783
-1.37782
-1.37782
-1.37782
-1.37782
-1.37781
-1.37781
-1.37781
-1.37781
-1.3778
-1.3778
-1.37779
-1.37779
-1.37779
-1.37778
-1.37778
-1.37777
-1.37777
-1.37776
-1.37776
-1.37775
-1.37774
-1.37774
-1.37773
-1.37773
-1.37773
-1.37772
-1.37772
-1.37772
-1.37772
-1.47612
-1.47614
-1.47615
-1.47616
-1.47617
-1.47618
-1.4762
-1.47621
-1.47622
-1.47622
-1.47623
-1.47623
-1.47623
-1.47623
-1.47623
-1.47623
-1.47623
-1.47623
-1.47623
-1.47622
-1.47622
-1.47622
-1.47622
-1.47621
-1.47621
-1.47621
-1.47621
-1.47621
-1.47622
-1.47622
-1.47622
-1.47622
-1.47622
-1.47623
-1.47623
-1.47623
-1.47624
-1.47624
-1.47624
-1.47624
-1.47625
-1.47625
-1.47625
-1.47625
-1.47625
-1.47625
-1.47625
-1.47625
-1.47625
-1.47625
-1.47625
-1.47625
-1.47625
-1.47625
-1.47625
-1.47625
-1.47625
-1.47625
-1.47625
-1.47625
-1.47625
-1.47625
-1.47625
-1.47625
-1.47625
-1.47625
-1.47625
-1.47625
-1.47624
-1.47624
-1.47624
-1.47624
-1.47624
-1.47623
-1.47623
-1.47623
-1.47623
-1.47622
-1.47622
-1.47622
-1.47621
-1.47621
-1.4762
-1.4762
-1.4762
-1.47619
-1.47619
-1.47618
-1.47617
-1.47617
-1.47616
-1.47616
-1.47615
-1.47615
-1.47614
-1.47614
-1.47614
-1.47613
-1.47613
-1.47613
-1.57449
-1.5745
-1.57452
-1.57453
-1.57454
-1.57455
-1.57457
-1.57458
-1.57458
-1.57459
-1.57459
-1.5746
-1.5746
-1.57461
-1.57462
-1.57462
-1.57463
-1.57463
-1.57463
-1.57463
-1.57462
-1.57462
-1.57462
-1.57462
-1.57462
-1.57462
-1.57462
-1.57462
-1.57462
-1.57463
-1.57463
-1.57463
-1.57464
-1.57464
-1.57465
-1.57465
-1.57465
-1.57466
-1.57466
-1.57466
-1.57467
-1.57467
-1.57467
-1.57467
-1.57467
-1.57467
-1.57467
-1.57467
-1.57467
-1.57467
-1.57467
-1.57467
-1.57467
-1.57467
-1.57467
-1.57467
-1.57467
-1.57467
-1.57467
-1.57467
-1.57467
-1.57467
-1.57467
-1.57467
-1.57467
-1.57467
-1.57466
-1.57466
-1.57466
-1.57466
-1.57466
-1.57465
-1.57465
-1.57465
-1.57465
-1.57464
-1.57464
-1.57464
-1.57464
-1.57463
-1.57463
-1.57462
-1.57462
-1.57462
-1.57461
-1.57461
-1.5746
-1.5746
-1.57459
-1.57458
-1.57458
-1.57457
-1.57457
-1.57456
-1.57456
-1.57455
-1.57455
-1.57455
-1.57455
-1.57455
-1.67287
-1.67288
-1.6729
-1.67291
-1.67292
-1.67293
-1.67295
-1.67295
-1.67296
-1.67296
-1.67296
-1.67297
-1.67298
-1.67299
-1.67301
-1.67302
-1.67303
-1.67303
-1.67303
-1.67302
-1.67302
-1.67302
-1.67302
-1.67302
-1.67302
-1.67302
-1.67302
-1.67303
-1.67303
-1.67304
-1.67304
-1.67305
-1.67305
-1.67306
-1.67306
-1.67307
-1.67307
-1.67308
-1.67308
-1.67309
-1.67309
-1.67309
-1.67309
-1.67309
-1.67309
-1.67309
-1.6731
-1.6731
-1.6731
-1.67309
-1.67309
-1.67309
-1.67309
-1.67309
-1.67309
-1.67309
-1.67309
-1.67309
-1.67309
-1.67309
-1.67309
-1.67309
-1.67309
-1.67309
-1.67309
-1.67308
-1.67308
-1.67308
-1.67308
-1.67308
-1.67307
-1.67307
-1.67307
-1.67307
-1.67306
-1.67306
-1.67306
-1.67306
-1.67305
-1.67305
-1.67304
-1.67304
-1.67304
-1.67303
-1.67303
-1.67302
-1.67302
-1.67301
-1.67301
-1.673
-1.67299
-1.67299
-1.67298
-1.67298
-1.67297
-1.67297
-1.67297
-1.67296
-1.67296
-1.67296
-1.77127
-1.77128
-1.77129
-1.7713
-1.77131
-1.77132
-1.77133
-1.77133
-1.77133
-1.77133
-1.77134
-1.77135
-1.77136
-1.77137
-1.77139
-1.77141
-1.77142
-1.77142
-1.77142
-1.77142
-1.77142
-1.77142
-1.77142
-1.77142
-1.77142
-1.77143
-1.77143
-1.77144
-1.77145
-1.77145
-1.77146
-1.77146
-1.77147
-1.77148
-1.77148
-1.77149
-1.77149
-1.7715
-1.7715
-1.77151
-1.77151
-1.77151
-1.77151
-1.77152
-1.77152
-1.77152
-1.77152
-1.77152
-1.77152
-1.77152
-1.77152
-1.77151
-1.77151
-1.77151
-1.77151
-1.77151
-1.77151
-1.77151
-1.77151
-1.77151
-1.77151
-1.77151
-1.77151
-1.7715
-1.7715
-1.7715
-1.7715
-1.7715
-1.7715
-1.77149
-1.77149
-1.77149
-1.77149
-1.77148
-1.77148
-1.77148
-1.77148
-1.77147
-1.77147
-1.77147
-1.77146
-1.77146
-1.77145
-1.77145
-1.77144
-1.77144
-1.77143
-1.77143
-1.77142
-1.77142
-1.77141
-1.7714
-1.7714
-1.77139
-1.77139
-1.77139
-1.77138
-1.77138
-1.77138
-1.77138
-1.86968
-1.86968
-1.86969
-1.8697
-1.86971
-1.86971
-1.86972
-1.86972
-1.86971
-1.86971
-1.86972
-1.86972
-1.86974
-1.86975
-1.86977
-1.86979
-1.8698
-1.86981
-1.86981
-1.86981
-1.86981
-1.86981
-1.86982
-1.86982
-1.86983
-1.86984
-1.86984
-1.86985
-1.86986
-1.86987
-1.86987
-1.86988
-1.86989
-1.8699
-1.8699
-1.86991
-1.86991
-1.86992
-1.86992
-1.86993
-1.86993
-1.86993
-1.86994
-1.86994
-1.86994
-1.86994
-1.86994
-1.86994
-1.86994
-1.86994
-1.86994
-1.86993
-1.86993
-1.86993
-1.86993
-1.86993
-1.86993
-1.86993
-1.86993
-1.86993
-1.86993
-1.86993
-1.86993
-1.86992
-1.86992
-1.86992
-1.86992
-1.86992
-1.86991
-1.86991
-1.86991
-1.86991
-1.8699
-1.8699
-1.8699
-1.8699
-1.86989
-1.86989
-1.86989
-1.86988
-1.86988
-1.86988
-1.86987
-1.86987
-1.86986
-1.86986
-1.86985
-1.86985
-1.86984
-1.86983
-1.86983
-1.86982
-1.86982
-1.86981
-1.86981
-1.8698
-1.8698
-1.8698
-1.8698
-1.8698
-1.96809
-1.9681
-1.9681
-1.9681
-1.96811
-1.96811
-1.96811
-1.96811
-1.9681
-1.9681
-1.9681
-1.9681
-1.96811
-1.96813
-1.96815
-1.96817
-1.96818
-1.96819
-1.9682
-1.9682
-1.96821
-1.96821
-1.96822
-1.96823
-1.96824
-1.96825
-1.96825
-1.96826
-1.96827
-1.96828
-1.96829
-1.9683
-1.96831
-1.96831
-1.96832
-1.96833
-1.96833
-1.96834
-1.96835
-1.96835
-1.96835
-1.96836
-1.96836
-1.96836
-1.96836
-1.96836
-1.96836
-1.96836
-1.96836
-1.96836
-1.96836
-1.96836
-1.96835
-1.96835
-1.96835
-1.96835
-1.96835
-1.96835
-1.96835
-1.96835
-1.96835
-1.96835
-1.96834
-1.96834
-1.96834
-1.96834
-1.96834
-1.96833
-1.96833
-1.96833
-1.96833
-1.96832
-1.96832
-1.96832
-1.96832
-1.96831
-1.96831
-1.96831
-1.9683
-1.9683
-1.9683
-1.96829
-1.96829
-1.96829
-1.96828
-1.96828
-1.96827
-1.96826
-1.96826
-1.96825
-1.96825
-1.96824
-1.96823
-1.96823
-1.96823
-1.96822
-1.96822
-1.96822
-1.96821
-1.96821
-2.06651
-2.06651
-2.06651
-2.06651
-2.06651
-2.06651
-2.06651
-2.0665
-2.06649
-2.06649
-2.06649
-2.06649
-2.06649
-2.06651
-2.06653
-2.06655
-2.06656
-2.06658
-2.06659
-2.0666
-2.06661
-2.06662
-2.06663
-2.06664
-2.06665
-2.06666
-2.06667
-2.06668
-2.06669
-2.06669
-2.0667
-2.06671
-2.06672
-2.06673
-2.06674
-2.06675
-2.06675
-2.06676
-2.06677
-2.06677
-2.06677
-2.06678
-2.06678
-2.06678
-2.06678
-2.06678
-2.06678
-2.06678
-2.06678
-2.06678
-2.06678
-2.06678
-2.06677
-2.06677
-2.06677
-2.06677
-2.06677
-2.06677
-2.06677
-2.06677
-2.06677
-2.06676
-2.06676
-2.06676
-2.06676
-2.06676
-2.06675
-2.06675
-2.06675
-2.06675
-2.06674
-2.06674
-2.06674
-2.06674
-2.06673
-2.06673
-2.06673
-2.06673
-2.06672
-2.06672
-2.06672
-2.06671
-2.06671
-2.0667
-2.0667
-2.06669
-2.06669
-2.06668
-2.06668
-2.06667
-2.06666
-2.06666
-2.06665
-2.06665
-2.06664
-2.06664
-2.06664
-2.06664
-2.06663
-2.06663
-2.16492
-2.16492
-2.16492
-2.16492
-2.16492
-2.16491
-2.16491
-2.1649
-2.16489
-2.16488
-2.16487
-2.16487
-2.16488
-2.16489
-2.16491
-2.16494
-2.16496
-2.16497
-2.16499
-2.165
-2.16501
-2.16502
-2.16504
-2.16505
-2.16506
-2.16507
-2.16508
-2.16509
-2.1651
-2.16511
-2.16512
-2.16513
-2.16514
-2.16515
-2.16516
-2.16516
-2.16517
-2.16518
-2.16518
-2.16519
-2.16519
-2.1652
-2.1652
-2.1652
-2.1652
-2.1652
-2.1652
-2.1652
-2.1652
-2.1652
-2.1652
-2.16519
-2.16519
-2.16519
-2.16519
-2.16519
-2.16519
-2.16519
-2.16519
-2.16519
-2.16518
-2.16518
-2.16518
-2.16518
-2.16518
-2.16517
-2.16517
-2.16517
-2.16517
-2.16516
-2.16516
-2.16516
-2.16516
-2.16515
-2.16515
-2.16515
-2.16515
-2.16514
-2.16514
-2.16514
-2.16514
-2.16513
-2.16513
-2.16512
-2.16512
-2.16511
-2.16511
-2.1651
-2.16509
-2.16509
-2.16508
-2.16508
-2.16507
-2.16507
-2.16506
-2.16506
-2.16506
-2.16505
-2.16505
-2.16505
-2.26333
-2.26333
-2.26333
-2.26333
-2.26333
-2.26332
-2.26332
-2.26331
-2.2633
-2.26329
-2.26327
-2.26327
-2.26328
-2.2633
-2.26332
-2.26334
-2.26336
-2.26338
-2.26339
-2.26341
-2.26342
-2.26343
-2.26345
-2.26346
-2.26347
-2.26348
-2.26349
-2.2635
-2.26351
-2.26352
-2.26353
-2.26354
-2.26355
-2.26356
-2.26357
-2.26358
-2.26359
-2.2636
-2.2636
-2.26361
-2.26361
-2.26361
-2.26362
-2.26362
-2.26362
-2.26362
-2.26362
-2.26362
-2.26362
-2.26362
-2.26361
-2.26361
-2.26361
-2.26361
-2.26361
-2.26361
-2.26361
-2.26361
-2.26361
-2.2636
-2.2636
-2.2636
-2.2636
-2.2636
-2.2636
-2.26359
-2.26359
-2.26359
-2.26358
-2.26358
-2.26358
-2.26358
-2.26357
-2.26357
-2.26357
-2.26357
-2.26356
-2.26356
-2.26356
-2.26356
-2.26355
-2.26355
-2.26355
-2.26354
-2.26354
-2.26353
-2.26352
-2.26352
-2.26351
-2.26351
-2.2635
-2.26349
-2.26349
-2.26349
-2.26348
-2.26348
-2.26348
-2.26347
-2.26347
-2.26347
-2.36174
-2.36174
-2.36174
-2.36174
-2.36174
-2.36173
-2.36173
-2.36172
-2.36171
-2.36171
-2.3617
-2.3617
-2.3617
-2.36172
-2.36174
-2.36175
-2.36177
-2.36179
-2.3618
-2.36182
-2.36183
-2.36184
-2.36186
-2.36187
-2.36188
-2.36189
-2.3619
-2.36192
-2.36193
-2.36194
-2.36195
-2.36196
-2.36197
-2.36198
-2.36199
-2.362
-2.362
-2.36201
-2.36202
-2.36202
-2.36203
-2.36203
-2.36203
-2.36203
-2.36203
-2.36204
-2.36204
-2.36203
-2.36203
-2.36203
-2.36203
-2.36203
-2.36203
-2.36203
-2.36203
-2.36203
-2.36203
-2.36203
-2.36202
-2.36202
-2.36202
-2.36202
-2.36202
-2.36201
-2.36201
-2.36201
-2.36201
-2.362
-2.362
-2.362
-2.362
-2.36199
-2.36199
-2.36199
-2.36199
-2.36198
-2.36198
-2.36198
-2.36198
-2.36197
-2.36197
-2.36197
-2.36196
-2.36196
-2.36195
-2.36195
-2.36194
-2.36194
-2.36193
-2.36192
-2.36192
-2.36191
-2.36191
-2.3619
-2.3619
-2.3619
-2.36189
-2.36189
-2.36189
-2.36189
-2.46015
-2.46015
-2.46015
-2.46015
-2.46015
-2.46014
-2.46014
-2.46014
-2.46013
-2.46013
-2.46012
-2.46012
-2.46013
-2.46014
-2.46016
-2.46017
-2.46019
-2.4602
-2.46022
-2.46023
-2.46024
-2.46026
-2.46027
-2.46028
-2.46029
-2.46031
-2.46032
-2.46033
-2.46034
-2.46035
-2.46036
-2.46037
-2.46038
-2.46039
-2.4604
-2.46041
-2.46042
-2.46042
-2.46043
-2.46044
-2.46044
-2.46045
-2.46045
-2.46045
-2.46045
-2.46045
-2.46045
-2.46045
-2.46045
-2.46045
-2.46045
-2.46045
-2.46045
-2.46045
-2.46045
-2.46045
-2.46045
-2.46044
-2.46044
-2.46044
-2.46044
-2.46044
-2.46043
-2.46043
-2.46043
-2.46043
-2.46042
-2.46042
-2.46042
-2.46042
-2.46041
-2.46041
-2.46041
-2.46041
-2.4604
-2.4604
-2.4604
-2.46039
-2.46039
-2.46039
-2.46038
-2.46038
-2.46038
-2.46037
-2.46037
-2.46036
-2.46036
-2.46035
-2.46035
-2.46034
-2.46033
-2.46033
-2.46033
-2.46032
-2.46032
-2.46031
-2.46031
-2.46031
-2.46031
-2.4603
-2.55856
-2.55856
-2.55856
-2.55856
-2.55856
-2.55856
-2.55856
-2.55855
-2.55855
-2.55855
-2.55855
-2.55855
-2.55856
-2.55857
-2.55858
-2.55859
-2.55861
-2.55862
-2.55863
-2.55865
-2.55866
-2.55867
-2.55868
-2.5587
-2.55871
-2.55872
-2.55873
-2.55874
-2.55875
-2.55876
-2.55877
-2.55878
-2.55879
-2.5588
-2.55881
-2.55882
-2.55883
-2.55884
-2.55884
-2.55885
-2.55885
-2.55886
-2.55886
-2.55886
-2.55886
-2.55887
-2.55887
-2.55887
-2.55887
-2.55887
-2.55887
-2.55887
-2.55887
-2.55886
-2.55886
-2.55886
-2.55886
-2.55886
-2.55886
-2.55886
-2.55885
-2.55885
-2.55885
-2.55885
-2.55885
-2.55884
-2.55884
-2.55884
-2.55883
-2.55883
-2.55883
-2.55883
-2.55882
-2.55882
-2.55882
-2.55881
-2.55881
-2.55881
-2.55881
-2.5588
-2.5588
-2.55879
-2.55879
-2.55879
-2.55878
-2.55878
-2.55877
-2.55877
-2.55876
-2.55876
-2.55875
-2.55875
-2.55874
-2.55874
-2.55873
-2.55873
-2.55873
-2.55873
-2.55872
-2.55872
-2.65697
-2.65697
-2.65697
-2.65697
-2.65697
-2.65697
-2.65697
-2.65697
-2.65697
-2.65697
-2.65697
-2.65698
-2.65698
-2.65699
-2.657
-2.65701
-2.65703
-2.65704
-2.65705
-2.65706
-2.65708
-2.65709
-2.6571
-2.65711
-2.65712
-2.65713
-2.65714
-2.65715
-2.65716
-2.65718
-2.65719
-2.6572
-2.65721
-2.65722
-2.65722
-2.65723
-2.65724
-2.65725
-2.65726
-2.65726
-2.65727
-2.65727
-2.65727
-2.65728
-2.65728
-2.65728
-2.65728
-2.65728
-2.65728
-2.65728
-2.65728
-2.65728
-2.65728
-2.65728
-2.65728
-2.65728
-2.65728
-2.65728
-2.65727
-2.65727
-2.65727
-2.65727
-2.65727
-2.65726
-2.65726
-2.65726
-2.65726
-2.65725
-2.65725
-2.65725
-2.65724
-2.65724
-2.65724
-2.65723
-2.65723
-2.65723
-2.65722
-2.65722
-2.65722
-2.65721
-2.65721
-2.65721
-2.6572
-2.6572
-2.6572
-2.65719
-2.65719
-2.65718
-2.65717
-2.65717
-2.65717
-2.65716
-2.65716
-2.65715
-2.65715
-2.65715
-2.65715
-2.65714
-2.65714
-2.65714
-2.75539
-2.75539
-2.75539
-2.75539
-2.75539
-2.75539
-2.75539
-2.75539
-2.75539
-2.75539
-2.7554
-2.7554
-2.75541
-2.75542
-2.75542
-2.75544
-2.75545
-2.75546
-2.75547
-2.75548
-2.75549
-2.7555
-2.75551
-2.75553
-2.75554
-2.75555
-2.75556
-2.75557
-2.75558
-2.75559
-2.7556
-2.75561
-2.75562
-2.75563
-2.75564
-2.75564
-2.75565
-2.75566
-2.75567
-2.75567
-2.75568
-2.75568
-2.75569
-2.75569
-2.75569
-2.75569
-2.75569
-2.75569
-2.75569
-2.7557
-2.7557
-2.75569
-2.75569
-2.75569
-2.75569
-2.75569
-2.75569
-2.75569
-2.75569
-2.75569
-2.75568
-2.75568
-2.75568
-2.75568
-2.75567
-2.75567
-2.75567
-2.75567
-2.75566
-2.75566
-2.75566
-2.75565
-2.75565
-2.75565
-2.75564
-2.75564
-2.75564
-2.75563
-2.75563
-2.75563
-2.75562
-2.75562
-2.75562
-2.75561
-2.75561
-2.7556
-2.7556
-2.75559
-2.75559
-2.75558
-2.75558
-2.75557
-2.75557
-2.75557
-2.75557
-2.75556
-2.75556
-2.75556
-2.75556
-2.75555
-2.8538
-2.8538
-2.8538
-2.8538
-2.8538
-2.8538
-2.8538
-2.85381
-2.85381
-2.85381
-2.85382
-2.85382
-2.85383
-2.85384
-2.85385
-2.85386
-2.85387
-2.85388
-2.85389
-2.8539
-2.85391
-2.85392
-2.85393
-2.85394
-2.85395
-2.85396
-2.85397
-2.85398
-2.85399
-2.854
-2.85401
-2.85402
-2.85403
-2.85404
-2.85405
-2.85405
-2.85406
-2.85407
-2.85408
-2.85408
-2.85409
-2.85409
-2.8541
-2.8541
-2.8541
-2.8541
-2.8541
-2.85411
-2.85411
-2.85411
-2.85411
-2.85411
-2.85411
-2.85411
-2.85411
-2.8541
-2.8541
-2.8541
-2.8541
-2.8541
-2.8541
-2.85409
-2.85409
-2.85409
-2.85409
-2.85408
-2.85408
-2.85408
-2.85407
-2.85407
-2.85407
-2.85406
-2.85406
-2.85406
-2.85405
-2.85405
-2.85405
-2.85404
-2.85404
-2.85404
-2.85403
-2.85403
-2.85403
-2.85402
-2.85402
-2.85401
-2.85401
-2.854
-2.854
-2.854
-2.85399
-2.85399
-2.85399
-2.85398
-2.85398
-2.85398
-2.85398
-2.85397
-2.85397
-2.85397
-2.95221
-2.95221
-2.95221
-2.95221
-2.95221
-2.95222
-2.95222
-2.95222
-2.95223
-2.95223
-2.95224
-2.95224
-2.95225
-2.95226
-2.95227
-2.95228
-2.95229
-2.9523
-2.95231
-2.95232
-2.95233
-2.95234
-2.95234
-2.95235
-2.95236
-2.95237
-2.95238
-2.95239
-2.9524
-2.95241
-2.95242
-2.95243
-2.95244
-2.95245
-2.95246
-2.95246
-2.95247
-2.95248
-2.95249
-2.95249
-2.9525
-2.9525
-2.9525
-2.95251
-2.95251
-2.95251
-2.95251
-2.95251
-2.95252
-2.95252
-2.95252
-2.95252
-2.95252
-2.95252
-2.95252
-2.95251
-2.95251
-2.95251
-2.95251
-2.95251
-2.95251
-2.95251
-2.9525
-2.9525
-2.9525
-2.95249
-2.95249
-2.95249
-2.95249
-2.95248
-2.95248
-2.95248
-2.95247
-2.95247
-2.95247
-2.95246
-2.95246
-2.95246
-2.95245
-2.95245
-2.95245
-2.95244
-2.95244
-2.95243
-2.95243
-2.95243
-2.95242
-2.95242
-2.95241
-2.95241
-2.9524
-2.9524
-2.9524
-2.9524
-2.95239
-2.95239
-2.95239
-2.95239
-2.95238
-2.95238
-3.05062
-3.05062
-3.05062
-3.05063
-3.05063
-3.05063
-3.05063
-3.05064
-3.05064
-3.05065
-3.05066
-3.05066
-3.05067
-3.05068
-3.05069
-3.0507