/*--------------------------------*- C++ -*----------------------------------*\
| =========                 |                                                 |
| \\      /  F ield         | OpenFOAM: The Open Source CFD Toolbox           |
|  \\    /   O peration     | Version:  4.1                                   |
|   \\  /    A nd           | Web:      www.OpenFOAM.org                      |
|    \\/     M anipulation  |                                                 |
\*---------------------------------------------------------------------------*/
FoamFile
{
    version     2.0;
    format      ascii;
    class       volScalarField;
    location    "1920";
    object      T;
}
// * * * * * * * * * * * * * * * * * * * * * * * * * * * * * * * * * * * * * //

dimensions      [0 0 0 1 0 0 0];

internalField   nonuniform List<scalar> 
5000
(
286.249
285.967
285.775
285.585
285.477
285.455
285.482
285.519
285.567
285.626
285.698
285.786
285.885
285.986
286.092
286.211
286.363
286.636
287.283
288.439
289.006
288.926
288.845
288.769
288.693
288.614
288.53
288.439
288.339
288.244
288.171
288.116
288.078
288.057
288.051
288.059
288.081
288.115
288.161
288.218
288.282
288.352
288.423
288.491
288.554
288.609
288.651
288.662
288.638
288.492
288.292
288.671
288.391
287.996
287.561
287.053
287.391
288.206
289.247
288.877
288.345
288.02
288.187
288.614
289.058
289.358
289.506
289.569
289.597
289.627
289.677
289.754
289.858
289.97
290.041
290.021
289.908
289.772
289.649
289.543
289.703
290.56
290.822
289.601
288.511
287.757
287.133
286.88
286.789
286.736
286.665
286.585
286.508
286.463
286.505
286.728
287.129
287.486
287.621
287.661
285.941
285.461
285.209
285.191
285.149
285.13
285.13
285.137
285.146
285.153
285.159
285.163
285.174
285.205
285.261
285.364
285.581
286.067
286.969
287.685
287.136
286.53
286.135
285.861
285.664
285.521
285.424
285.367
285.35
285.351
285.351
285.35
285.347
285.343
285.338
285.331
285.324
285.315
285.305
285.295
285.284
285.273
285.262
285.252
285.242
285.233
285.224
285.217
285.21
285.204
285.199
285.196
285.193
285.191
285.191
285.205
285.508
287.01
288.913
288.114
285.596
285.38
285.228
285.162
285.147
285.146
285.148
285.149
285.149
285.149
285.149
285.15
285.151
285.152
285.153
285.152
285.151
285.148
285.144
285.142
285.186
285.745
287.875
288.435
287.877
286.667
285.753
285.356
285.192
285.117
285.077
285.055
285.043
285.04
285.059
285.147
285.524
286.253
286.694
286.925
285.821
285.369
285.245
285.203
285.144
285.121
285.121
285.136
285.152
285.165
285.173
285.177
285.179
285.185
285.205
285.269
285.471
285.996
286.88
287.115
286.319
285.834
285.599
285.487
285.438
285.421
285.421
285.426
285.432
285.436
285.439
285.44
285.441
285.44
285.437
285.433
285.428
285.42
285.411
285.401
285.388
285.373
285.357
285.34
285.323
285.306
285.289
285.273
285.259
285.246
285.235
285.225
285.22
285.219
285.221
285.233
285.297
286.995
288.786
288.339
286.968
285.934
285.388
285.193
285.123
285.094
285.08
285.071
285.064
285.059
285.054
285.05
285.046
285.043
285.04
285.038
285.035
285.033
285.031
285.029
285.028
285.065
286.095
286.819
286.542
285.862
285.409
285.177
285.076
285.034
285.018
285.01
285.008
285.012
285.03
285.096
285.338
285.891
286.339
286.615
285.763
285.349
285.293
285.203
285.142
285.112
285.117
285.144
285.172
285.192
285.202
285.205
285.205
285.205
285.215
285.272
285.483
286.04
286.818
286.662
285.909
285.591
285.479
285.447
285.446
285.453
285.461
285.467
285.471
285.476
285.481
285.486
285.491
285.494
285.496
285.498
285.498
285.496
285.494
285.49
285.485
285.478
285.47
285.46
285.448
285.434
285.419
285.403
285.387
285.371
285.355
285.34
285.327
285.316
285.306
285.294
285.286
286.938
288.515
288.199
287.226
286.393
285.733
285.372
285.219
285.159
285.132
285.116
285.104
285.094
285.085
285.077
285.069
285.063
285.057
285.051
285.047
285.042
285.038
285.034
285.031
285.028
285.2
285.546
285.46
285.217
285.095
285.043
285.023
285.014
285.009
285.006
285.005
285.009
285.028
285.088
285.285
285.739
286.159
286.439
285.733
285.343
285.286
285.206
285.137
285.103
285.118
285.163
285.207
285.236
285.247
285.246
285.241
285.235
285.24
285.3
285.539
286.126
286.733
286.3
285.695
285.497
285.448
285.441
285.444
285.447
285.45
285.455
285.462
285.471
285.479
285.487
285.496
285.501
285.506
285.509
285.512
285.514
285.515
285.516
285.516
285.515
285.514
285.512
285.509
285.505
285.499
285.491
285.481
285.47
285.457
285.443
285.428
285.413
285.396
285.376
285.349
286.142
287.737
287.539
286.833
286.168
285.704
285.429
285.293
285.231
285.199
285.178
285.161
285.147
285.133
285.121
285.109
285.098
285.088
285.079
285.07
285.062
285.055
285.048
285.042
285.037
285.042
285.09
285.078
285.041
285.027
285.02
285.017
285.013
285.01
285.006
285.005
285.008
285.027
285.087
285.265
285.663
286.053
286.325
285.717
285.345
285.287
285.207
285.131
285.096
285.124
285.195
285.26
285.298
285.308
285.302
285.287
285.271
285.272
285.344
285.625
286.231
286.601
286.022
285.58
285.458
285.435
285.431
285.428
285.425
285.427
285.435
285.449
285.462
285.474
285.485
285.494
285.501
285.506
285.509
285.511
285.513
285.514
285.514
285.515
285.516
285.517
285.518
285.519
285.52
285.521
285.52
285.519
285.516
285.511
285.504
285.496
285.485
285.471
285.454
285.432
285.535
286.468
286.495
286.141
285.784
285.544
285.407
285.334
285.293
285.267
285.246
285.227
285.209
285.192
285.175
285.159
285.144
285.129
285.116
285.103
285.091
285.08
285.07
285.061
285.053
285.045
285.041
285.036
285.031
285.027
285.023
285.02
285.016
285.011
285.007
285.004
285.007
285.027
285.088
285.257
285.619
285.985
286.245
285.706
285.357
285.295
285.211
285.126
285.09
285.137
285.24
285.33
285.375
285.382
285.366
285.337
285.309
285.308
285.404
285.741
286.331
286.417
285.817
285.516
285.442
285.427
285.418
285.411
285.409
285.415
285.428
285.444
285.46
285.475
285.488
285.497
285.504
285.508
285.509
285.509
285.508
285.507
285.505
285.504
285.504
285.504
285.504
285.506
285.508
285.511
285.514
285.516
285.519
285.52
285.521
285.52
285.517
285.512
285.505
285.493
285.483
285.688
285.749
285.658
285.545
285.464
285.414
285.382
285.357
285.335
285.314
285.294
285.274
285.254
285.234
285.214
285.195
285.177
285.159
285.142
285.127
285.112
285.098
285.085
285.074
285.064
285.055
285.047
285.041
285.035
285.03
285.025
285.019
285.014
285.008
285.004
285.007
285.027
285.09
285.255
285.594
285.938
286.184
285.695
285.385
285.31
285.221
285.123
285.086
285.155
285.298
285.413
285.462
285.46
285.43
285.384
285.344
285.349
285.489
285.905
286.369
286.206
285.675
285.48
285.433
285.421
285.412
285.406
285.407
285.416
285.431
285.449
285.468
285.484
285.497
285.505
285.509
285.509
285.507
285.503
285.499
285.494
285.489
285.484
285.481
285.479
285.478
285.478
285.48
285.483
285.486
285.491
285.496
285.501
285.506
285.511
285.514
285.515
285.515
285.511
285.503
285.52
285.529
285.512
285.486
285.463
285.444
285.428
285.413
285.395
285.376
285.356
285.335
285.313
285.29
285.268
285.246
285.225
285.204
285.184
285.164
285.146
285.129
285.113
285.099
285.085
285.074
285.063
285.054
285.046
285.038
285.031
285.024
285.017
285.01
285.004
285.006
285.026
285.092
285.256
285.579
285.905
286.136
285.683
285.37
285.333
285.234
285.122
285.083
285.177
285.366
285.505
285.548
285.533
285.483
285.419
285.374
285.407
285.64
286.05
286.328
285.999
285.58
285.459
285.429
285.418
285.412
285.409
285.412
285.424
285.443
285.464
285.484
285.499
285.508
285.512
285.511
285.506
285.498
285.489
285.479
285.469
285.46
285.452
285.446
285.441
285.438
285.436
285.436
285.438
285.442
285.447
285.453
285.461
285.469
285.476
285.483
285.49
285.495
285.499
285.5
285.5
285.499
285.494
285.486
285.477
285.468
285.457
285.445
285.431
285.415
285.398
285.379
285.358
285.337
285.315
285.292
285.269
285.247
285.224
285.203
285.182
285.162
285.143
285.125
285.109
285.094
285.081
285.068
285.057
285.047
285.037
285.028
285.02
285.011
285.005
285.005
285.025
285.094
285.259
285.57
285.88
286.096
285.673
285.352
285.368
285.25
285.122
285.08
285.201
285.44
285.597
285.617
285.583
285.512
285.438
285.415
285.53
285.803
286.13
286.227
285.815
285.519
285.445
285.425
285.417
285.411
285.41
285.419
285.439
285.464
285.488
285.505
285.514
285.517
285.512
285.503
285.49
285.476
285.46
285.445
285.431
285.417
285.406
285.396
285.389
285.383
285.38
285.378
285.379
285.382
285.387
285.393
285.401
285.41
285.42
285.43
285.44
285.45
285.459
285.466
285.472
285.475
285.476
285.475
285.472
285.467
285.46
285.451
285.441
285.429
285.415
285.399
285.382
285.363
285.343
285.322
285.301
285.278
285.256
285.234
285.212
285.19
285.17
285.15
285.131
285.114
285.098
285.084
285.07
285.057
285.045
285.034
285.023
285.013
285.005
285.003
285.024
285.095
285.262
285.565
285.861
286.063
285.674
285.392
285.408
285.265
285.122
285.078
285.225
285.513
285.681
285.654
285.592
285.511
285.467
285.513
285.677
285.93
286.145
286.084
285.67
285.481
285.435
285.42
285.412
285.408
285.415
285.439
285.469
285.497
285.516
285.524
285.523
285.514
285.498
285.479
285.458
285.436
285.414
285.394
285.376
285.359
285.345
285.333
285.324
285.317
285.312
285.309
285.309
285.311
285.314
285.32
285.327
285.337
285.347
285.358
285.37
285.383
285.395
285.407
285.417
285.426
285.432
285.436
285.438
285.437
285.435
285.431
285.425
285.417
285.407
285.395
285.382
285.367
285.35
285.332
285.313
285.294
285.273
285.252
285.231
285.21
285.189
285.169
285.149
285.13
285.113
285.096
285.081
285.066
285.053
285.04
285.027
285.015
285.005
285.002
285.021
285.095
285.266
285.564
285.846
286.035
285.678
285.494
285.448
285.276
285.121
285.077
285.247
285.578
285.746
285.653
285.569
285.537
285.547
285.637
285.807
286.004
286.103
285.922
285.564
285.454
285.424
285.411
285.405
285.413
285.445
285.483
285.514
285.532
285.537
285.53
285.513
285.489
285.462
285.433
285.405
285.377
285.351
285.327
285.306
285.288
285.273
285.26
285.25
285.243
285.238
285.234
285.233
285.234
285.237
285.242
285.248
285.256
285.266
285.277
285.289
285.302
285.316
285.33
285.343
285.355
285.365
285.373
285.379
285.383
285.386
285.386
285.384
285.381
285.375
285.368
285.359
285.348
285.336
285.322
285.307
285.291
285.273
285.255
285.236
285.217
285.197
285.178
285.159
285.141
285.123
285.106
285.089
285.073
285.059
285.044
285.03
285.017
285.005
285
285.017
285.093
285.268
285.563
285.833
286.01
285.685
285.581
285.475
285.277
285.117
285.076
285.267
285.628
285.784
285.669
285.618
285.609
285.651
285.755
285.9
286.024
286.017
285.761
285.494
285.433
285.412
285.405
285.418
285.463
285.51
285.542
285.555
285.552
285.534
285.507
285.474
285.438
285.401
285.365
285.332
285.301
285.273
285.249
285.229
285.211
285.197
285.185
285.176
285.169
285.164
285.161
285.16
285.161
285.163
285.167
285.172
285.179
285.187
285.196
285.207
285.22
285.233
285.246
285.26
285.273
285.285
285.296
285.305
285.313
285.318
285.323
285.325
285.326
285.325
285.322
285.317
285.311
285.303
285.294
285.283
285.271
285.257
285.243
285.228
285.211
285.195
285.178
285.161
285.143
285.126
285.11
285.093
285.077
285.062
285.047
285.032
285.018
285.005
284.998
285.013
285.09
285.269
285.562
285.822
285.988
285.696
285.639
285.48
285.265
285.108
285.075
285.284
285.658
285.807
285.727
285.69
285.696
285.75
285.844
285.948
285.996
285.902
285.62
285.453
285.419
285.413
285.437
285.5
285.551
285.578
285.581
285.564
285.534
285.494
285.45
285.404
285.36
285.318
285.28
285.246
285.216
285.19
285.169
285.15
285.136
285.124
285.114
285.107
285.102
285.099
285.097
285.097
285.098
285.1
285.103
285.107
285.112
285.119
285.127
285.136
285.146
285.157
285.169
285.181
285.194
285.206
285.217
285.228
285.237
285.245
285.252
285.257
285.261
285.263
285.264
285.263
285.261
285.258
285.253
285.246
285.239
285.229
285.219
285.208
285.195
285.182
285.168
285.154
285.139
285.124
285.108
285.093
285.078
285.063
285.048
285.033
285.018
285.004
284.996
285.01
285.085
285.268
285.561
285.812
285.968
285.712
285.657
285.454
285.235
285.095
285.076
285.298
285.652
285.835
285.788
285.761
285.775
285.827
285.9
285.955
285.936
285.776
285.522
285.442
285.438
285.478
285.556
285.605
285.618
285.604
285.57
285.524
285.471
285.416
285.362
285.311
285.265
285.224
285.189
285.158
285.133
285.111
285.094
285.08
285.069
285.06
285.054
285.049
285.047
285.045
285.045
285.046
285.048
285.05
285.054
285.057
285.062
285.067
285.074
285.081
285.089
285.098
285.107
285.117
285.128
285.138
285.149
285.159
285.168
285.176
285.184
285.191
285.197
285.201
285.205
285.207
285.208
285.208
285.207
285.204
285.2
285.195
285.189
285.181
285.172
285.163
285.152
285.141
285.129
285.116
285.103
285.089
285.075
285.061
285.047
285.032
285.017
285.003
284.994
285.006
285.08
285.265
285.559
285.802
285.95
285.735
285.624
285.391
285.188
285.077
285.078
285.296
285.631
285.854
285.84
285.82
285.837
285.879
285.925
285.937
285.864
285.662
285.502
285.489
285.544
285.627
285.662
285.655
285.619
285.566
285.503
285.437
285.373
285.312
285.257
285.209
285.168
285.133
285.104
285.079
285.06
285.044
285.032
285.023
285.016
285.01
285.007
285.005
285.004
285.005
285.006
285.008
285.011
285.014
285.018
285.023
285.027
285.032
285.038
285.044
285.05
285.057
285.064
285.072
285.08
285.089
285.097
285.106
285.114
285.122
285.129
285.136
285.142
285.148
285.153
285.157
285.16
285.162
285.163
285.163
285.162
285.16
285.157
285.152
285.147
285.14
285.133
285.124
285.115
285.105
285.094
285.082
285.07
285.057
285.044
285.03
285.016
285.002
284.992
285.002
285.075
285.262
285.556
285.793
285.934
285.767
285.528
285.29
285.13
285.059
285.083
285.28
285.595
285.857
285.881
285.867
285.882
285.913
285.935
285.914
285.803
285.626
285.58
285.63
285.704
285.716
285.684
285.625
285.551
285.472
285.394
285.322
285.258
285.201
285.154
285.114
285.081
285.055
285.033
285.016
285.003
284.993
284.986
284.98
284.976
284.974
284.973
284.973
284.974
284.976
284.978
284.981
284.985
284.989
284.993
284.998
285.003
285.009
285.014
285.02
285.026
285.032
285.038
285.044
285.051
285.057
285.064
285.071
285.077
285.084
285.09
285.096
285.102
285.108
285.113
285.117
285.121
285.124
285.127
285.129
285.13
285.129
285.128
285.126
285.123
285.119
285.113
285.107
285.1
285.092
285.083
285.073
285.063
285.052
285.04
285.027
285.013
285
284.989
284.998
285.069
285.257
285.552
285.783
285.919
285.604
285.342
285.165
285.074
285.047
285.088
285.251
285.539
285.839
285.918
285.905
285.918
285.939
285.945
285.902
285.785
285.712
285.735
285.783
285.767
285.706
285.621
285.526
285.432
285.345
285.268
285.202
285.147
285.102
285.065
285.036
285.013
284.995
284.981
284.971
284.963
284.958
284.954
284.951
284.95
284.949
284.95
284.951
284.952
284.955
284.957
284.961
284.965
284.97
284.975
284.98
284.986
284.991
284.998
285.004
285.01
285.016
285.022
285.027
285.033
285.039
285.044
285.05
285.056
285.061
285.066
285.072
285.077
285.082
285.086
285.091
285.095
285.098
285.102
285.104
285.106
285.107
285.107
285.106
285.104
285.101
285.097
285.092
285.086
285.08
285.073
285.065
285.056
285.046
285.036
285.024
285.011
284.998
284.987
284.995
285.064
285.251
285.546
285.774
285.906
285.227
285.118
285.058
285.038
285.045
285.088
285.209
285.451
285.775
285.955
285.939
285.949
285.965
285.961
285.912
285.853
285.849
285.861
285.812
285.718
285.605
285.489
285.382
285.289
285.21
285.147
285.095
285.055
285.023
284.998
284.979
284.965
284.954
284.946
284.941
284.938
284.936
284.934
284.934
284.934
284.935
284.936
284.937
284.938
284.941
284.943
284.946
284.95
284.954
284.959
284.965
284.971
284.977
284.983
284.99
284.997
285.003
285.01
285.016
285.022
285.027
285.033
285.038
285.043
285.048
285.053
285.058
285.063
285.067
285.071
285.076
285.079
285.083
285.086
285.088
285.09
285.091
285.091
285.091
285.089
285.087
285.084
285.08
285.076
285.07
285.065
285.058
285.051
285.042
285.033
285.021
285.009
284.996
284.986
284.993
285.059
285.246
285.54
285.765
285.893
285.002
285.001
285.012
285.03
285.051
285.081
285.155
285.33
285.635
285.996
285.972
285.98
285.993
285.986
285.96
285.947
285.926
285.839
285.709
285.568
285.435
285.32
285.226
285.152
285.094
285.049
285.015
284.989
284.968
284.953
284.942
284.934
284.929
284.926
284.925
284.925
284.926
284.927
284.928
284.929
284.93
284.931
284.931
284.932
284.933
284.935
284.937
284.94
284.943
284.947
284.952
284.958
284.964
284.97
284.977
284.984
284.991
284.998
285.005
285.012
285.018
285.024
285.03
285.036
285.041
285.046
285.051
285.055
285.06
285.064
285.068
285.071
285.075
285.077
285.079
285.081
285.082
285.082
285.081
285.079
285.077
285.075
285.072
285.069
285.065
285.06
285.055
285.049
285.041
285.032
285.021
285.009
284.995
284.984
284.99
285.055
285.24
285.534
285.756
285.882
284.932
284.977
285.012
285.039
285.059
285.072
285.102
285.192
285.397
285.772
286.003
286.012
286.022
286.018
286.004
285.956
285.822
285.655
285.492
285.352
285.241
285.156
285.092
285.045
285.009
284.982
284.961
284.945
284.933
284.924
284.919
284.917
284.917
284.918
284.921
284.924
284.927
284.93
284.932
284.933
284.934
284.934
284.934
284.934
284.933
284.933
284.934
284.935
284.937
284.939
284.943
284.948
284.953
284.959
284.966
284.973
284.98
284.988
284.995
285.002
285.009
285.016
285.023
285.029
285.035
285.041
285.046
285.051
285.056
285.06
285.064
285.068
285.071
285.073
285.074
285.075
285.075
285.075
285.074
285.073
285.072
285.071
285.07
285.068
285.066
285.063
285.059
285.052
285.044
285.035
285.023
285.01
284.996
284.984
284.989
285.052
285.235
285.528
285.748
285.873
284.921
284.987
285.028
285.052
285.063
285.065
285.068
285.091
285.169
285.378
286.002
286.015
286.011
285.982
285.896
285.705
285.514
285.354
285.232
285.144
285.081
285.037
285.003
284.977
284.957
284.94
284.927
284.917
284.911
284.909
284.91
284.913
284.918
284.923
284.929
284.934
284.939
284.942
284.944
284.945
284.945
284.945
284.943
284.941
284.939
284.937
284.935
284.935
284.935
284.936
284.938
284.941
284.945
284.951
284.957
284.963
284.97
284.978
284.986
284.994
285.002
285.01
285.017
285.025
285.032
285.038
285.044
285.05
285.055
285.06
285.063
285.066
285.068
285.07
285.071
285.071
285.071
285.072
285.072
285.073
285.075
285.077
285.079
285.079
285.079
285.076
285.071
285.064
285.054
285.042
285.029
285.013
284.998
284.985
284.989
285.051
285.232
285.522
285.741
285.864
284.926
285.003
285.043
285.06
285.064
285.062
285.058
285.06
285.088
285.224
285.774
285.8
285.746
285.611
285.408
285.26
285.16
285.094
285.05
285.019
284.994
284.974
284.955
284.938
284.924
284.913
284.905
284.902
284.902
284.906
284.913
284.922
284.93
284.939
284.946
284.952
284.957
284.959
284.961
284.961
284.96
284.958
284.955
284.951
284.948
284.944
284.94
284.938
284.936
284.935
284.936
284.938
284.941
284.945
284.95
284.957
284.964
284.972
284.98
284.989
284.997
285.006
285.015
285.023
285.031
285.039
285.045
285.051
285.056
285.06
285.063
285.065
285.066
285.068
285.069
285.07
285.073
285.077
285.081
285.087
285.094
285.099
285.104
285.106
285.105
285.101
285.094
285.083
285.07
285.054
285.037
285.019
285.001
284.986
284.989
285.05
285.229
285.517
285.733
285.856
284.935
285.018
285.054
285.064
285.063
285.058
285.051
285.046
285.043
285.043
285.096
285.154
285.121
285.068
285.043
285.027
285.014
285.001
284.988
284.973
284.957
284.941
284.926
284.913
284.903
284.897
284.896
284.899
284.906
284.917
284.929
284.941
284.952
284.961
284.967
284.972
284.974
284.975
284.975
284.973
284.971
284.968
284.965
284.96
284.955
284.95
284.945
284.941
284.938
284.936
284.935
284.937
284.939
284.943
284.948
284.955
284.962
284.971
284.98
284.99
285
285.01
285.019
285.028
285.036
285.044
285.049
285.054
285.058
285.06
285.062
285.064
285.066
285.069
285.074
285.081
285.089
285.099
285.11
285.121
285.131
285.139
285.144
285.146
285.142
285.135
285.123
285.108
285.09
285.069
285.048
285.026
285.004
284.988
284.99
285.05
285.228
285.512
285.727
285.849
284.943
285.028
285.059
285.064
285.059
285.052
285.046
285.04
285.036
285.032
285.028
285.025
285.02
285.015
285.008
284.999
284.988
284.976
284.962
284.947
284.932
284.917
284.904
284.895
284.891
284.892
284.898
284.909
284.922
284.938
284.953
284.965
284.975
284.982
284.985
284.986
284.985
284.983
284.981
284.978
284.976
284.972
284.968
284.963
284.957
284.951
284.946
284.941
284.938
284.936
284.935
284.937
284.94
284.945
284.952
284.96
284.969
284.979
284.99
285.001
285.012
285.022
285.031
285.039
285.045
285.049
285.053
285.056
285.058
285.061
285.065
285.071
285.079
285.089
285.101
285.115
285.129
285.144
285.158
285.171
285.182
285.189
285.192
285.191
285.184
285.172
285.156
285.135
285.111
285.086
285.059
285.033
285.009
284.99
284.991
285.051
285.228
285.509
285.721
285.843
284.951
285.033
285.06
285.061
285.054
285.046
285.04
285.036
285.031
285.027
285.021
285.016
285.009
285.001
284.992
284.982
284.97
284.956
284.941
284.926
284.911
284.899
284.89
284.887
284.889
284.898
284.912
284.929
284.948
284.965
284.979
284.989
284.994
284.995
284.993
284.989
284.984
284.98
284.977
284.975
284.972
284.968
284.963
284.958
284.952
284.946
284.941
284.937
284.935
284.935
284.936
284.941
284.947
284.956
284.966
284.978
284.99
285.002
285.013
285.023
285.032
285.038
285.043
285.046
285.049
285.052
285.056
285.062
285.07
285.08
285.092
285.105
285.12
285.136
285.153
285.169
285.185
285.2
285.213
285.224
285.232
285.237
285.238
285.233
285.223
285.208
285.187
285.161
285.132
285.102
285.07
285.04
285.013
284.992
284.993
285.053
285.229
285.507
285.716
285.837
284.957
285.036
285.059
285.057
285.048
285.041
285.036
285.033
285.029
285.024
285.018
285.011
285.002
284.992
284.981
284.968
284.954
284.939
284.923
284.908
284.896
284.888
284.885
284.889
284.9
284.916
284.936
284.957
284.976
284.99
285
285.004
285.003
284.998
284.991
284.983
284.976
284.971
284.968
284.965
284.961
284.957
284.952
284.946
284.941
284.936
284.933
284.933
284.935
284.94
284.949
284.96
284.974
284.988
285.003
285.015
285.026
285.034
285.039
285.041
285.042
285.045
285.053
285.065
285.078
285.089
285.1
285.111
285.123
285.137
285.152
285.167
285.182
285.198
285.213
285.227
285.24
285.252
285.262
285.27
285.274
285.276
285.274
285.268
285.256
285.238
285.214
285.184
285.151
285.116
285.08
285.047
285.017
284.995
284.995
285.056
285.231
285.506
285.712
285.832
284.961
285.037
285.056
285.052
285.043
285.036
285.033
285.031
285.029
285.024
285.017
285.008
284.997
284.985
284.971
284.956
284.941
284.925
284.909
284.897
284.888
284.886
284.89
284.902
284.92
284.942
284.965
284.985
285
285.009
285.012
285.01
285.003
284.994
284.984
284.975
284.967
284.963
284.959
284.956
284.952
284.947
284.943
284.939
284.938
284.939
284.943
284.952
284.967
284.982
284.998
285.013
285.026
285.036
285.043
285.046
285.049
285.058
285.074
285.09
285.099
285.107
285.12
285.136
285.151
285.163
285.174
285.184
285.195
285.206
285.218
285.229
285.241
285.253
285.264
285.275
285.284
285.293
285.299
285.303
285.305
285.304
285.301
285.293
285.28
285.261
285.235
285.202
285.166
285.127
285.088
285.052
285.02
284.997
284.998
285.059
285.234
285.505
285.708
285.828
284.964
285.037
285.053
285.046
285.037
285.033
285.032
285.032
285.03
285.025
285.017
285.007
284.994
284.98
284.964
284.948
284.931
284.915
284.901
284.892
284.889
284.893
284.905
284.924
284.947
284.97
284.991
285.006
285.016
285.018
285.016
285.009
285
284.99
284.981
284.973
284.967
284.964
284.961
284.959
284.958
284.959
284.962
284.969
284.978
284.99
285.003
285.017
285.029
285.04
285.049
285.058
285.068
285.079
285.095
285.113
285.131
285.146
285.163
285.179
285.186
285.192
285.201
285.211
285.221
285.23
285.238
285.245
285.253
285.261
285.269
285.278
285.286
285.295
285.303
285.311
285.317
285.322
285.325
285.326
285.325
285.323
285.318
285.31
285.296
285.276
285.249
285.215
285.176
285.135
285.094
285.055
285.022
284.998
285
285.063
285.238
285.506
285.706
285.824
284.966
285.037
285.049
285.041
285.033
285.031
285.032
285.034
285.032
285.027
285.019
285.007
284.993
284.977
284.959
284.942
284.925
284.91
284.899
284.895
284.898
284.909
284.927
284.95
284.973
284.995
285.01
285.02
285.023
285.022
285.017
285.01
285.002
284.995
284.99
284.986
284.984
284.985
284.987
284.992
284.999
285.008
285.018
285.03
285.043
285.056
285.069
285.082
285.095
285.109
285.125
285.14
285.157
285.175
285.191
285.205
285.217
285.226
285.233
285.24
285.245
285.249
285.255
285.262
285.268
285.275
285.281
285.287
285.294
285.3
285.307
285.313
285.32
285.326
285.332
285.337
285.34
285.342
285.341
285.339
285.337
285.333
285.327
285.319
285.306
285.286
285.258
285.223
285.182
285.139
285.097
285.057
285.023
285
285.003
285.068
285.243
285.508
285.703
285.821
284.968
285.035
285.045
285.036
285.03
285.03
285.034
285.037
285.036
285.031
285.021
285.009
284.993
284.976
284.958
284.94
284.924
284.911
284.905
284.905
284.914
284.93
284.952
284.974
284.995
285.012
285.022
285.027
285.028
285.026
285.023
285.019
285.016
285.014
285.014
285.016
285.02
285.027
285.035
285.046
285.058
285.071
285.085
285.1
285.116
285.132
285.149
285.166
285.183
285.199
285.215
285.229
285.24
285.248
285.254
285.259
285.263
285.267
285.27
285.275
285.281
285.286
285.292
285.298
285.303
285.309
285.315
285.32
285.326
285.331
285.337
285.342
285.347
285.351
285.354
285.355
285.354
285.352
285.348
285.344
285.341
285.336
285.331
285.323
285.309
285.289
285.261
285.225
285.184
285.141
285.098
285.058
285.024
285.001
285.006
285.073
285.249
285.511
285.702
285.819
284.97
285.034
285.04
285.032
285.028
285.031
285.036
285.04
285.04
285.035
285.025
285.012
284.995
284.978
284.959
284.942
284.928
284.919
284.916
284.921
284.933
284.953
284.974
284.993
285.01
285.022
285.029
285.034
285.036
285.036
285.037
285.038
285.04
285.043
285.049
285.057
285.067
285.079
285.092
285.107
285.122
285.138
285.155
285.171
285.187
285.203
285.217
285.23
285.242
285.252
285.261
285.268
285.274
285.28
285.285
285.29
285.295
285.299
285.304
285.309
285.314
285.319
285.325
285.33
285.336
285.341
285.346
285.35
285.355
285.359
285.362
285.365
285.367
285.367
285.366
285.362
285.357
285.351
285.346
285.342
285.339
285.335
285.33
285.322
285.308
285.288
285.259
285.223
285.182
285.139
285.097
285.057
285.024
285.003
285.01
285.08
285.256
285.516
285.702
285.817
284.971
285.032
285.036
285.028
285.027
285.032
285.04
285.044
285.045
285.039
285.03
285.016
285
284.983
284.965
284.95
284.938
284.931
284.932
284.94
284.954
284.972
284.99
285.006
285.02
285.031
285.039
285.044
285.049
285.053
285.057
285.063
285.07
285.079
285.09
285.103
285.117
285.132
285.148
285.165
285.181
285.197
285.211
285.225
285.238
285.249
285.259
285.267
285.275
285.282
285.288
285.295
285.301
285.306
285.312
285.318
285.324
285.33
285.335
285.34
285.345
285.35
285.355
285.359
285.363
285.367
285.37
285.373
285.375
285.376
285.376
285.375
285.373
285.368
285.362
285.355
285.348
285.342
285.337
285.335
285.332
285.329
285.324
285.316
285.303
285.282
285.253
285.218
285.177
285.135
285.094
285.055
285.023
285.004
285.014
285.087
285.266
285.523
285.703
285.816
284.972
285.029
285.032
285.025
285.026
285.034
285.043
285.049
285.05
285.045
285.036
285.022
285.007
284.991
284.975
284.961
284.952
284.948
284.951
284.959
284.972
284.988
285.004
285.018
285.031
285.041
285.05
285.058
285.066
285.074
285.082
285.093
285.104
285.118
285.132
285.148
285.164
285.18
285.196
285.211
285.225
285.237
285.249
285.259
285.269
285.277
285.285
285.292
285.299
285.305
285.311
285.317
285.323
285.329
285.335
285.34
285.346
285.351
285.357
285.361
285.366
285.37
285.373
285.376
285.378
285.379
285.38
285.379
285.378
285.376
285.372
285.367
285.361
285.354
285.346
285.338
285.332
285.327
285.324
285.323
285.322
285.319
285.315
285.307
285.293
285.272
285.244
285.209
285.17
285.13
285.09
285.053
285.022
285.005
285.018
285.096
285.278
285.534
285.704
285.816
284.973
285.027
285.028
285.022
285.026
285.036
285.047
285.054
285.056
285.052
285.043
285.031
285.017
285.002
284.988
284.976
284.969
284.966
284.969
284.977
284.989
285.003
285.017
285.03
285.043
285.055
285.065
285.076
285.086
285.098
285.11
285.124
285.138
285.154
285.17
285.186
285.201
285.216
285.23
285.242
285.254
285.264
285.274
285.282
285.29
285.298
285.304
285.311
285.317
285.323
285.328
285.333
285.339
285.343
285.348
285.353
285.357
285.361
285.365
285.368
285.371
285.373
285.374
285.374
285.374
285.372
285.37
285.367
285.363
285.357
285.351
285.345
285.337
285.33
285.322
285.316
285.311
285.308
285.307
285.307
285.306
285.304
285.3
285.292
285.278
285.259
285.232
285.199
285.161
285.122
285.084
285.049
285.021
285.007
285.024
285.108
285.299
285.547
285.707
285.815
284.973
285.024
285.024
285.02
285.026
285.039
285.051
285.06
285.063
285.06
285.052
285.042
285.029
285.016
285.004
284.994
284.988
284.986
284.988
284.995
285.006
285.018
285.031
285.045
285.058
285.07
285.083
285.096
285.109
285.123
285.138
285.154
285.169
285.185
285.2
285.215
285.229
285.242
285.253
285.264
285.274
285.283
285.291
285.299
285.306
285.313
285.318
285.324
285.329
285.334
285.338
285.342
285.345
285.348
285.351
285.354
285.356
285.358
285.359
285.36
285.361
285.36
285.359
285.356
285.354
285.35
285.345
285.34
285.334
285.328
285.321
285.313
285.306
285.3
285.294
285.289
285.286
285.285
285.284
285.285
285.284
285.283
285.279
285.271
285.259
285.24
285.215
285.185
285.15
285.112
285.077
285.045
285.019
285.009
285.034
285.133
285.326
285.561
285.709
285.815
284.973
285.021
285.02
285.018
285.026
285.04
285.055
285.065
285.07
285.069
285.063
285.054
285.043
285.032
285.022
285.013
285.008
285.006
285.009
285.015
285.024
285.035
285.048
285.061
285.075
285.089
285.103
285.117
285.133
285.148
285.164
285.179
285.194
285.209
285.223
285.236
285.248
285.259
285.27
285.279
285.288
285.297
285.304
285.311
285.318
285.323
285.328
285.332
285.336
285.339
285.341
285.343
285.345
285.346
285.346
285.346
285.346
285.345
285.343
285.342
285.339
285.336
285.333
285.329
285.324
285.319
285.313
285.306
285.299
285.292
285.285
285.278
285.272
285.266
285.261
285.258
285.256
285.255
285.256
285.256
285.257
285.256
285.252
285.245
285.234
285.217
285.195
285.167
285.135
285.101
285.068
285.039
285.019